Membrane in water
40347
    1TMC1    C1    1   1.442   3.041  11.758  0.7479  0.0201  0.2126
    1TMC1    C2    2   1.350   3.008  11.850 -0.1451  0.0901 -0.1209
    1TMC1    C3    3   1.233   2.965  11.810  0.0840  0.1039  0.5807
    1TMC1    C4    4   1.418   3.042  11.620  0.6505 -0.5132 -0.3298
    1TMC1    C5    5   1.298   2.983  11.588  0.0487 -0.2025  0.5152
    1TMC1    C6    6   1.205   2.939  11.680  0.3188 -0.1526  0.3233
    1TMC1     C    7   1.575   3.072  11.797 -0.8273 -0.6289 -0.4346
    1TMC1     O    8   1.603   3.058  11.917 -0.6256 -0.0406  0.3888
    1TMC1     H    9   1.384   3.000  11.953 -0.2056  2.2706  0.0561
    1TMC1    H1   10   1.490   3.074  11.546  0.3935 -1.7868 -1.1254
    1TMC1    H2   11   1.109   2.902  11.648  0.2971  1.1898 -1.1541
    1TMC1    C7   12   1.277   2.981  11.443 -0.0421 -0.3866 -0.2244
    1TMC1    C8   13   1.127   2.926  11.906  0.0190  0.2068  0.3729
    1TMC1    O1   14   1.326   3.063  11.365  0.0152 -0.3380 -1.1867
    1TMC1    O2   15   1.022   2.878  11.864  0.1708 -0.0128  0.3158
    1TMC1    O3   16   1.281   2.849  11.415  0.2542  0.3650  0.2171
    1TMC1    H3   17   1.210   2.795  11.455 -1.7204  2.1317 -0.9340
    1TMC1    O5   18   1.128   3.013  12.004  0.0410 -0.5149 -0.6251
    1TMC1    H5   19   1.195   3.082  11.983  0.8822 -0.7268  1.4076
    2MPD2     C   20   2.091   3.050  11.725  0.6272 -0.2014  0.0308
    2MPD2    C1   21   2.022   3.068  11.841  0.5702 -0.4264  0.1616
    2MPD2    C2   22   1.884   3.088  11.838  0.0902 -0.2882  0.1177
    2MPD2    C3   23   1.811   3.084  11.715  0.0329 -0.1687  0.3246
    2MPD2    C4   24   1.888   3.079  11.597  0.7954  0.3364 -0.3807
    2MPD2    C5   25   2.021   3.056  11.606 -0.2545  0.2394  0.0258
    2MPD2     H   26   1.826   3.087  11.929  0.1570  2.5756  0.1883
    2MPD2    H1   27   1.842   3.088  11.500 -0.0683  0.6765  0.0579
    2MPD2    H2   28   2.199   3.041  11.727  0.4635 -2.4588 -2.3149
    2MPD2    H3   29   2.082   3.045  11.517 -0.0477 -0.2007  0.2217
    2MPD2     N   30   1.668   3.079  11.696 -0.2114  0.2685 -0.0399
    2MPD2    H5   31   1.645   3.085  11.597  0.3975 -0.2924 -0.2144
    2MPD2    N1   32   2.074   3.059  11.969 -0.1827 -0.2254 -0.4225
    2MPD2    H7   33   2.004   3.056  12.043 -0.5703  0.5579 -0.7559
    3TMC1    C1   34   1.412   3.846  10.727 -0.6867  0.5026  0.0914
    3TMC1    C2   35   1.426   3.961  10.657 -0.2913 -0.0580  0.3149
    3TMC1    C3   36   1.496   3.956  10.544  0.3854  0.2555  0.5934
    3TMC1    C4   37   1.483   3.728  10.693  0.3034 -0.0037 -0.0057
    3TMC1    C5   38   1.555   3.731  10.578  0.4020  0.0473  0.9185
    3TMC1    C6   39   1.555   3.846  10.498 -0.6510 -0.3645 -0.5856
    3TMC1     C   40   1.340   3.843  10.860 -0.2456  0.3483  0.1952
    3TMC1     O   41   1.334   3.730  10.907 -0.0232  0.3074  0.3317
    3TMC1     H   42   1.374   4.053  10.680 -0.9709 -0.2655 -0.3782
    3TMC1    H1   43   1.489   3.644  10.760  0.6212 -0.9625 -1.2312
    3TMC1    H2   44   1.618   3.845  10.410  1.4312  0.0813  0.9226
    3TMC1    C7   45   1.586   3.605  10.512 -0.1888  0.2511  0.0835
    3TMC1    C8   46   1.535   4.092  10.494 -0.1353 -0.0818 -0.3061
    3TMC1    O1   47   1.610   3.593  10.393 -0.2171 -0.7645 -0.5571
    3TMC1    O2   48   1.541   4.187  10.573  0.8228 -0.7072  0.6391
    3TMC1    O3   49   1.645   3.536  10.604 -0.9450  0.4881 -1.2629
    3TMC1    H3   50   1.655   3.594  10.683 -1.0546 -0.8974 -0.2438
    3TMC1    O5   51   1.506   4.095  10.363 -0.2338  0.1920  0.5916
    3TMC1    H5   52   1.508   4.007  10.320  0.7348 -0.7570  2.5593
    4MPD2     C   53   1.180   4.096  11.288 -0.0514  0.0035  0.5576
    4MPD2    C1   54   1.204   4.184  11.191  0.4038 -0.7740  0.7276
    4MPD2    C2   55   1.238   4.141  11.066  0.1735  0.2686  0.7718
    4MPD2    C3   56   1.259   4.003  11.040 -0.1323 -0.1958  0.0552
    4MPD2    C4   57   1.217   3.913  11.134  0.2878  0.0513  0.0051
    4MPD2    C5   58   1.178   3.965  11.255  0.1928 -0.7152  0.0300
    4MPD2     H   59   1.251   4.215  10.988  0.4482 -1.1599 -0.5366
    4MPD2    H1   60   1.220   3.806  11.122 -0.7408  0.1451 -1.1216
    4MPD2    H2   61   1.145   4.115  11.389  0.4510 -0.7486  0.8789
    4MPD2    H3   62   1.158   3.892  11.333  1.9517  0.2571  1.3877
    4MPD2     N   63   1.310   3.967  10.909 -0.3289  1.2474 -0.1576
    4MPD2    H5   64   1.340   4.044  10.849  0.2494  1.1195 -0.0250
    4MPD2    N1   65   1.180   4.325  11.204 -0.3192  0.2804  0.0834
    4MPD2    H7   66   1.172   4.380  11.119  0.7413 -2.8484 -2.0444
    5TCq1    O1   67   1.533   1.703  11.187  0.3597 -0.1861 -0.7293
    5TCq1    C1   68   1.506   1.745  11.061  1.0150 -0.3974  0.2971
    5TCq1    O2   69   1.476   1.859  11.031  0.6660  0.5062  0.6812
    5TCq1    C2   70   1.584   1.659  10.968  0.3908 -0.6845 -0.5386
    5TCq1    C3   71   1.655   1.726  10.872 -0.0368 -0.0912  0.3095
    5TCq1    C4   72   1.733   1.650  10.780  0.0472 -0.5669  0.5643
    5TCq1    C5   73   1.739   1.516  10.800 -0.3885  0.2089 -0.1677
    5TCq1    C6   74   1.668   1.459  10.897  0.4960  0.3129  0.6628
    5TCq1    C7   75   1.581   1.529  10.970 -0.0398  0.2047  0.3911
    5TCq1    C8   76   1.619   1.325  10.871  0.6213  0.1478 -0.5053
    5TCq1    O4   77   1.708   1.238  10.874  0.6265  0.2544 -0.3774
    5TCq1    C9   78   1.797   1.713  10.669  0.1952 -0.3297 -0.5733
    5TCq1    O5   79   1.864   1.641  10.590 -0.0239  0.4359 -0.1100
    5TCq1    O6   80   1.757   1.825  10.649  0.0224 -0.7580 -0.3839
    5TCq1    H1   81   1.593   1.626  11.190  1.0775  0.4248  0.5187
    5TCq1    H2   82   1.655   1.834  10.862 -0.1271 -0.5633 -4.5247
    5TCq1    H3   83   1.814   1.465  10.740 -0.7827  0.2956 -0.7324
    5TCq1    H4   84   1.518   1.487  11.047  0.4170 -0.0131  0.6479
    6MPD2     C   85   1.282   1.199  10.838 -0.0038 -0.2299  0.6813
    6MPD2    C1   86   1.413   1.193  10.830 -0.0716 -0.4107 -0.6011
    6MPD2    C2   87   1.476   1.074  10.791 -0.9056 -1.0986  0.1433
    6MPD2    C3   88   1.407   0.961  10.772  0.0644 -0.1609  0.0628
    6MPD2    C4   89   1.271   0.960  10.785  0.0256 -0.8698 -0.1887
    6MPD2    C5   90   1.209   1.080  10.818 -0.3873 -0.1348  0.1555
    6MPD2     H   91   1.584   1.074  10.783 -0.9727 -3.4034 -0.5854
    6MPD2    H1   92   1.204   0.876  10.771 -0.6637 -0.1764 -1.0317
    6MPD2    H2   93   1.224   1.286  10.869 -0.1086 -0.0363 -0.0675
    6MPD2    H3   94   1.104   1.080  10.847  0.0316  0.2358  1.6829
    6MPD2     N   95   1.481   0.848  10.734  0.6029 -0.7327  0.2912
    6MPD2    H5   96   1.580   0.866  10.719  0.2803  0.9832  0.1434
    6MPD2    N1   97   1.479   1.312  10.852  0.7194 -0.4923  0.3166
    6MPD2    H7   98   1.435   1.403  10.847  1.9286  0.1895  1.7063
    7TCq1    O1   99   4.415   0.972  13.641  0.2535 -0.3853  0.5622
    7TCq1    C1  100   4.494   0.919  13.544 -0.7051  0.3273  1.2344
    7TCq1    O2  101   4.506   0.979  13.436  0.0025 -0.4025 -0.1174
    7TCq1    C2  102   4.502   0.776  13.568 -0.1127 -0.3929  0.1375
    7TCq1    C3  103   4.549   0.727  13.691  0.5657 -0.0936  0.0211
    7TCq1    C4  104   4.562   0.596  13.722 -1.0128 -0.1444  0.5562
    7TCq1    C5  105   4.532   0.505  13.625  0.7702 -0.1044 -0.7167
    7TCq1    C6  106   4.492   0.549  13.500 -0.8124  0.1473  0.3893
    7TCq1    C7  107   4.479   0.684  13.474 -0.6047  0.2100 -0.4934
    7TCq1    C8  108   4.479   0.449  13.389 -0.6090  0.2024 -0.5446
    7TCq1    O4  109   4.541   0.348  13.407  0.1873  0.4826  0.1594
    7TCq1    C9  110   4.624   0.552  13.848  0.2107 -0.3856 -0.7357
    7TCq1    O5  111   4.650   0.633  13.937  0.5872  0.0797  0.3882
    7TCq1    O6  112   4.659   0.432  13.854  0.1096  0.5326 -0.1379
    7TCq1    H1  113   4.382   0.905  13.705  0.8939 -1.2417 -0.0051
    7TCq1    H2  114   4.583   0.791  13.771  0.6619  0.1048 -0.1788
    7TCq1    H3  115   4.530   0.400  13.649  0.6128  0.0448 -0.0933
    7TCq1    H4  116   4.447   0.717  13.376  0.7804  1.2831 -0.5920
    8MPD2     C  117   4.315   0.176  12.996  0.2202 -0.6071 -0.2007
    8MPD2    C1  118   4.335   0.144  13.132 -0.3952  0.5458  0.2942
    8MPD2    C2  119   4.354   0.245  13.225  0.3454  0.2508  0.1807
    8MPD2    C3  120   4.360   0.382  13.188  0.2238  0.2518 -0.2744
    8MPD2    C4  121   4.327   0.414  13.057  0.2545  0.9078 -0.3246
    8MPD2    C5  122   4.321   0.314  12.964 -0.1368  0.2097 -0.3842
    8MPD2     H  123   4.353   0.224  13.331  1.4516 -3.7085 -0.5948
    8MPD2    H1  124   4.333   0.515  13.018  1.4766  0.6962 -0.6736
    8MPD2    H2  125   4.308   0.100  12.919 -0.1593  0.0167 -0.7900
    8MPD2    H3  126   4.310   0.338  12.859 -0.6116 -1.1995 -0.6631
    8MPD2     N  127   4.395   0.477  13.283 -0.1641 -0.1572 -0.0383
    8MPD2    H5  128   4.368   0.572  13.261 -1.8387 -0.3932  1.0456
    8MPD2    N1  129   4.313   0.011  13.166 -0.3507 -0.6535  0.0941
    8MPD2    H7  130   4.281   4.694  13.088 -1.5349  0.8661 -0.5181
    9TMC1    C1  131   1.460   3.011  10.972  0.1806  0.6559 -0.1172
    9TMC1    C2  132   1.479   2.964  10.847  0.1105  0.2469 -0.6379
    9TMC1    C3  133   1.407   2.860  10.799 -0.5293  0.9047 -0.0266
    9TMC1    C4  134   1.363   2.954  11.050 -0.3077 -0.2147 -0.3403
    9TMC1    C5  135   1.282   2.852  10.998 -0.0493  0.2161  0.9050
    9TMC1    C6  136   1.298   2.804  10.866  0.2980  0.5409  0.1499
    9TMC1     C  137   1.529   3.133  11.022  0.5450 -0.0315  0.0983
    9TMC1     O  138   1.623   3.167  10.949 -0.4379  0.0405  0.3941
    9TMC1     H  139   1.544   3.011  10.773  0.6239 -0.6045 -0.7235
    9TMC1    H1  140   1.335   3.000  11.144  0.0434 -1.1078  0.2002
    9TMC1    H2  141   1.243   2.715  10.837 -0.1090  1.3395 -1.5411
    9TMC1    C7  142   1.176   2.790  11.069 -0.7988 -0.0002  0.7104
    9TMC1    C8  143   1.447   2.804  10.666 -0.5791 -0.1443  0.0878
    9TMC1    O1  144   1.129   2.679  11.047 -0.0420 -1.2929  0.5540
    9TMC1    O2  145   1.364   2.746  10.598  0.5628  0.0945  0.3146
    9TMC1    O3  146   1.107   2.902  11.109  0.1781  0.5623 -0.4579
    9TMC1    H3  147   1.154   2.973  11.062  0.6885  1.2764  1.1221
    9TMC1    O5  148   1.552   2.731  10.707 -0.0892 -0.3442 -0.4069
    9TMC1    H5  149   1.615   2.775  10.767 -0.8430 -0.2762  0.3333
   10MPD2     C  150   1.699   3.311  11.185  0.3660 -0.5590 -0.5347
   10MPD2    C1  151   1.575   3.260  11.235 -0.4209 -0.1970  0.3597
   10MPD2    C2  152   1.527   3.296  11.364 -0.6906 -0.2674 -0.1880
   10MPD2    C3  153   1.604   3.380  11.442  0.3263  0.2625 -0.8925
   10MPD2    C4  154   1.728   3.418  11.398 -0.1377 -0.0688 -0.4826
   10MPD2    C5  155   1.776   3.388  11.274  0.0622  0.1585 -0.0656
   10MPD2     H  156   1.435   3.251  11.400 -0.8041  1.9362  2.2434
   10MPD2    H1  157   1.784   3.468  11.476 -2.2023 -0.8731  1.5285
   10MPD2    H2  158   1.739   3.295  11.086 -2.8157 -3.4051 -1.3753
   10MPD2    H3  159   1.879   3.409  11.247  0.3016 -2.0304 -0.8513
   10MPD2     N  160   1.562   3.439  11.569  0.2953 -0.0116  0.0315
   10MPD2    H5  161   1.628   3.491  11.625 -0.3753  0.9258 -0.0343
   10MPD2    N1  162   1.494   3.171  11.156 -0.8174  0.2571 -0.2694
   10MPD2    H7  163   1.422   3.118  11.203 -0.8459  0.8714  0.3834
   11TCq1    O1  164   3.362   4.053  13.725  0.4862  0.4722 -0.1303
   11TCq1    C1  165   3.401   3.931  13.684 -0.3261 -0.7332  0.5403
   11TCq1    O2  166   3.516   3.896  13.664  0.3325  0.3249 -0.0587
   11TCq1    C2  167   3.291   3.847  13.658  0.2862 -0.0543 -0.2770
   11TCq1    C3  168   3.174   3.912  13.631  0.4647 -0.8757  0.3711
   11TCq1    C4  169   3.071   3.834  13.599  0.3374 -0.3446 -0.8881
   11TCq1    C5  170   3.082   3.700  13.584  0.0615  0.4711  0.0851
   11TCq1    C6  171   3.204   3.641  13.601  0.9578  0.5932  0.0874
   11TCq1    C7  172   3.311   3.716  13.642  0.2295  0.0578  0.4798
   11TCq1    C8  173   3.207   3.505  13.646  0.3989  0.8316 -0.2411
   11TCq1    O4  174   3.314   3.452  13.631  0.5235  0.0824  0.3407
   11TCq1    C9  175   2.948   3.906  13.563  0.7496 -0.5581  0.8925
   11TCq1    O5  176   2.953   4.031  13.540  0.9526  0.2601 -0.4782
   11TCq1    O6  177   2.844   3.842  13.563  0.7543 -0.0651 -0.2802
   11TCq1    H1  178   3.268   4.039  13.750  0.5926  0.6806  0.3996
   11TCq1    H2  179   3.165   4.020  13.632 -2.8331 -1.1155 -3.5434
   11TCq1    H3  180   3.002   3.642  13.539 -0.0292 -0.4087  1.3866
   11TCq1    H4  181   3.412   3.679  13.653  0.1509 -0.5828 -0.9366
   12MPD2     C  182   3.125   3.220  13.676 -0.4126  0.0314  0.0537
   12MPD2    C1  183   3.043   3.329  13.689 -0.3445  0.2675  0.7268
   12MPD2    C2  184   2.915   3.297  13.730 -0.5114  0.4261 -0.7780
   12MPD2    C3  185   2.867   3.166  13.752 -0.2181 -0.4238  0.0790
   12MPD2    C4  186   2.954   3.064  13.726 -0.0302  0.1980 -0.0228
   12MPD2    C5  187   3.079   3.092  13.690  0.4304  0.2760 -0.7641
   12MPD2     H  188   2.852   3.382  13.752 -3.6603 -2.2171  0.2761
   12MPD2    H1  189   2.923   2.960  13.732 -1.3704  0.5530 -0.9277
   12MPD2    H2  190   3.231   3.220  13.657 -0.1671  0.5491  1.4611
   12MPD2    H3  191   3.146   3.007  13.683  0.5311 -0.0115  3.7260
   12MPD2     N  192   2.741   3.130  13.809 -0.1114 -0.1009  0.0097
   12MPD2    H5  193   2.721   3.031  13.817 -1.1075 -0.2218 -3.9997
   12MPD2    N1  194   3.082   3.463  13.686  0.3487 -0.3196  0.6553
   12MPD2    H7  195   3.012   3.537  13.696  0.7049  0.4207 -2.5467
   13TCq1    O1  196   1.196   3.395   9.902  0.1133  0.0501  0.0201
   13TCq1    C1  197   1.310   3.467   9.878 -0.2756  0.8379  0.0925
   13TCq1    O2  198   1.390   3.439   9.790  0.3910 -0.2732 -0.1427
   13TCq1    C2  199   1.348   3.522  10.004  0.1569  0.4021  0.1953
   13TCq1    C3  200   1.417   3.640   9.997 -0.4239 -0.1983  0.2340
   13TCq1    C4  201   1.405   3.735  10.103 -0.3071  0.3857 -0.0675
   13TCq1    C5  202   1.366   3.681  10.223  0.1967 -0.2712  0.8304
   13TCq1    C6  203   1.317   3.550  10.229  0.0539  0.3514  0.3941
   13TCq1    C7  204   1.296   3.470  10.118 -0.3629  0.0913  0.3418
   13TCq1    C8  205   1.294   3.500  10.366 -0.5699  0.4249  0.2423
   13TCq1    O4  206   1.279   3.578  10.459  0.0424  0.1829  0.6102
   13TCq1    C9  207   1.473   3.860  10.090 -0.0820  0.4904  0.0773
   13TCq1    O5  208   1.504   3.910  10.203  0.2344 -0.2637 -0.5485
   13TCq1    O6  209   1.486   3.909   9.976  0.1194 -0.8370  0.5159
   13TCq1    H1  210   1.149   3.443   9.973  0.0092 -1.1020  0.7347
   13TCq1    H2  211   1.457   3.678   9.903 -3.3204  3.1619  0.3432
   13TCq1    H3  212   1.373   3.741  10.313  0.8003 -1.5755  1.6587
   13TCq1    H4  213   1.252   3.370  10.118 -1.5074  0.5867  1.6422
   14MPD2     C  214   1.242   3.155  10.460 -0.6967  0.4449 -0.6742
   14MPD2    C1  215   1.273   3.286  10.487 -0.7905  0.5870 -0.3062
   14MPD2    C2  216   1.271   3.326  10.619  0.3120  0.9922  0.4201
   14MPD2    C3  217   1.233   3.243  10.721  1.1040 -0.1950 -0.3703
   14MPD2    C4  218   1.207   3.115  10.689  0.2677 -0.4598 -0.3832
   14MPD2    C5  219   1.203   3.073  10.559 -0.3949  0.7597 -0.2238
   14MPD2     H  220   1.281   3.432  10.637 -0.9905  0.9039  1.7380
   14MPD2    H1  221   1.167   3.039  10.756 -0.9054  0.9802  0.5593
   14MPD2    H2  222   1.249   3.131  10.355 -2.0389 -3.3892  0.0938
   14MPD2    H3  223   1.182   2.970  10.534 -1.4483  1.1164 -0.7562
   14MPD2     N  224   1.244   3.292  10.858  0.8553  0.1062  0.0014
   14MPD2    H5  225   1.291   3.381  10.875 -0.0829  0.6603 -0.2772
   14MPD2    N1  226   1.291   3.364  10.372  0.0963 -0.1093 -0.3802
   14MPD2    H7  227   1.286   3.316  10.282  1.5034 -0.1908 -0.4141
   15TCq1    O1  228   4.248   3.411   1.276 -0.1798  0.5400  0.1212
   15TCq1    C1  229   4.265   3.292   1.206  0.3435  0.3472 -0.1288
   15TCq1    O2  230   4.218   3.271   1.095 -0.4876 -0.0611  0.0200
   15TCq1    C2  231   4.361   3.209   1.276 -0.4454  0.1174 -0.1181
   15TCq1    C3  232   4.356   3.193   1.413 -0.2507 -0.5188 -0.2718
   15TCq1    C4  233   4.446   3.107   1.473  0.3420  0.2684  1.0331
   15TCq1    C5  234   4.528   3.036   1.398  1.4027 -0.4301  0.2253
   15TCq1    C6  235   4.522   3.046   1.260  0.3607  0.1293 -0.2343
   15TCq1    C7  236   4.447   3.135   1.193  0.0208  0.2016 -0.2071
   15TCq1    C8  237   4.607   2.942   1.190 -0.0385  0.6952 -0.3480
   15TCq1    O4  238   4.678   2.866   1.255  0.0127 -0.3717 -0.3308
   15TCq1    C9  239   4.438   3.084   1.617 -0.4726  0.8348  0.3788
   15TCq1    O5  240   4.544   3.042   1.674 -0.3323  0.1999  1.1393
   15TCq1    O6  241   4.344   3.148   1.676 -0.0901  0.2119  0.0436
   15TCq1    H1  242   4.301   3.429   1.357  1.0845 -1.0663 -0.3702
   15TCq1    H2  243   4.287   3.254   1.470  0.8641  1.7816 -1.3565
   15TCq1    H3  244   4.593   2.963   1.446  1.5600 -0.0145  0.6491
   15TCq1    H4  245   4.428   3.124   1.086 -0.3986  0.2834 -0.1410
   16MPD2     C  246   4.547   2.837   0.841  0.2000 -0.5493  0.1404
   16MPD2    C1  247   4.605   2.829   0.964  0.0189  0.0905 -0.1601
   16MPD2    C2  248   4.704   2.729   0.990 -0.8023 -0.1707 -0.5424
   16MPD2    C3  249   4.726   2.628   0.892 -0.7346 -0.1612 -0.3429
   16MPD2    C4  250   4.663   2.634   0.772 -0.5231  0.2075  0.7359
   16MPD2    C5  251   4.567   2.734   0.751  0.5391 -0.1897 -0.1452
   16MPD2     H  252   0.017   2.719   1.084 -1.9111 -0.7702  0.0219
   16MPD2    H1  253   4.670   2.557   0.696 -3.4544  1.0234 -0.3972
   16MPD2    H2  254   4.470   2.909   0.816  1.7804  1.5982  1.3931
   16MPD2    H3  255   4.531   2.737   0.649  0.5557 -1.2330 -0.1821
   16MPD2     N  256   0.087   2.534   0.919 -0.1609  0.0743  0.2800
   16MPD2    H5  257   0.148   2.552   0.999  1.6685  0.4409 -1.2191
   16MPD2    N1  258   4.576   2.931   1.059 -0.3753 -0.2797  0.3641
   16MPD2    H7  259   4.506   2.995   1.023  0.3419  1.0899  1.3889
   17TMC1    C1  260   1.122   2.552  10.347 -0.3426  0.3901 -0.4944
   17TMC1    C2  261   1.148   2.541  10.483 -1.0352  0.1989 -0.1804
   17TMC1    C3  262   1.123   2.423  10.553  0.2019 -0.1696 -0.5139
   17TMC1    C4  263   1.090   2.442  10.273  0.1433  1.5827  0.3772
   17TMC1    C5  264   1.062   2.328  10.345  0.0343  0.0916  0.9295
   17TMC1    C6  265   1.072   2.316  10.480  0.7955  0.3795 -0.1127
   17TMC1     C  266   1.155   2.680  10.273 -0.2664 -0.8412 -0.1060
   17TMC1     O  267   1.101   2.694  10.164  0.0177 -0.1256 -0.3113
   17TMC1     H  268   1.174   2.631  10.538 -0.5989  0.5036 -0.8707
   17TMC1    H1  269   1.073   2.453  10.166 -0.9790  2.3768  0.6406
   17TMC1    H2  270   1.054   2.225  10.537 -1.1591  1.3487  0.7884
   17TMC1    C7  271   0.973   2.228  10.291 -0.1190  0.1774 -0.6184
   17TMC1    C8  272   1.129   2.405  10.697 -0.0572  0.0893 -0.1405
   17TMC1    O1  273   0.901   2.160  10.365 -0.2777 -0.0246  0.2122
   17TMC1    O2  274   1.046   2.343  10.753 -0.1630  0.0863  0.1698
   17TMC1    O3  275   1.036   2.188  10.172  0.6583  0.3897  0.0126
   17TMC1    H3  276   1.121   2.233  10.157  0.6217  1.2822  2.4950
   17TMC1    O5  277   1.218   2.488  10.752  0.4994 -0.2761  0.5533
   17TMC1    H5  278   1.278   2.522  10.682  1.0244 -1.3381  0.4740
   18MPD2     C  279   1.268   2.916  10.139 -0.5908 -0.8974 -0.2277
   18MPD2    C1  280   1.311   2.873  10.263  0.0182 -0.1507  0.1218
   18MPD2    C2  281   1.418   2.936  10.318  0.4851  0.2101 -0.6710
   18MPD2    C3  282   1.481   3.044  10.268  0.4163  0.6807  0.0196
   18MPD2    C4  283   1.425   3.097  10.149 -0.4839 -0.1588 -0.4295
   18MPD2    C5  284   1.325   3.027  10.081 -0.2253 -0.1657 -0.3833
   18MPD2     H  285   1.452   2.892  10.412 -1.5539  1.5508  0.6996
   18MPD2    H1  286   1.475   3.182  10.105 -0.6182  0.0064 -0.2624
   18MPD2    H2  287   1.176   2.882  10.092 -0.6331 -1.1079  0.0059
   18MPD2    H3  288   1.282   3.076   9.995 -0.1281 -0.7639 -0.7713
   18MPD2     N  289   1.592   3.113  10.331  0.0183  0.3574  0.2395
   18MPD2    H5  290   1.614   3.200  10.284  1.4193 -1.3456 -2.2405
   18MPD2    N1  291   1.252   2.765  10.332  0.0895  0.0019 -0.4905
   18MPD2    H7  292   1.309   2.736  10.411 -0.8946 -2.8924 -0.8382
   19TMC2    C1  293   3.535   3.218  14.233  0.4024 -0.0022 -0.6378
   19TMC2    C2  294   3.511   3.269  14.108  0.6230 -0.5225  0.1152
   19TMC2    C3  295   3.439   3.196  14.016  0.3715 -0.4438 -0.0795
   19TMC2    C4  296   3.489   3.094  14.260  0.2691 -0.1288 -0.1228
   19TMC2    C5  297   3.411   3.024  14.169  0.2186  0.0761  0.1456
   19TMC2    C6  298   3.390   3.074  14.040 -0.2987  0.5567 -0.5237
   19TMC2     C  299   3.637   3.270  14.321 -0.3165 -0.0619  0.1955
   19TMC2     O  300   3.678   3.388  14.307 -0.1486  0.0460  0.3021
   19TMC2     H  301   3.587   3.342  14.084 -2.3369  2.6231  0.3970
   19TMC2    H1  302   3.488   3.054  14.361 -0.5512  0.2609  0.0256
   19TMC2    H2  303   3.326   3.028  13.965  0.4353 -1.4634  0.0990
   19TMC2    C7  304   3.340   2.896  14.195  0.1892  0.2935 -0.6097
   19TMC2    C8  305   3.471   3.221  13.880 -0.2182  0.5098  0.2014
   19TMC2    O1  306   3.242   2.853  14.133 -0.3451 -0.5101  0.1969
   19TMC2    O2  307   3.486   3.124  13.811 -0.8643 -0.2347  0.3746
   19TMC2    O5  308   3.539   3.337  13.854  0.0868  0.0494  0.0731
   19TMC2    H5  309   3.492   3.415  13.890 -1.3221 -1.4488  1.4414
   20MPD2     C  310   3.832   3.315  14.542 -0.6714 -0.8576  0.2216
   20MPD2    C1  311   3.781   3.195  14.507 -0.0477 -0.8456 -0.4662
   20MPD2    C2  312   3.838   3.086  14.561 -0.2532 -0.0260 -0.0895
   20MPD2    C3  313   3.939   3.090  14.655  0.8243 -0.5196 -0.4727
   20MPD2    C4  314   3.983   3.212  14.697 -0.2003 -0.0834 -0.6460
   20MPD2    C5  315   3.935   3.325  14.632  0.1583 -0.2539 -0.1598
   20MPD2     H  316   3.797   2.992  14.526 -3.1867  0.4868  1.8995
   20MPD2    H1  317   4.059   3.208  14.773  0.0162  0.3316 -0.8379
   20MPD2    H2  318   3.786   3.408  14.510 -0.2023 -0.9394 -0.7099
   20MPD2    H3  319   3.981   3.421  14.647  1.2796 -0.4132 -2.6255
   20MPD2     N  320   4.001   2.975  14.701  0.1027  0.1913 -0.6498
   20MPD2    H5  321   4.081   2.986  14.762  1.1408  0.6780 -2.1201
   20MPD2    N1  322   3.683   3.176  14.409  0.2586 -0.3763 -0.0158
   20MPD2    H7  323   3.665   3.078  14.391  2.1528 -1.0945  1.9209
   21TMC2    C1  324   1.240   3.334  14.777  0.2857  0.0417  0.1739
   21TMC2    C2  325   1.268   3.218  14.841 -0.4267 -0.1689 -0.2511
   21TMC2    C3  326   1.189   3.198  14.953 -0.0112 -0.2154 -0.6810
   21TMC2    C4  327   1.142   3.418  14.809 -0.5332 -0.0232 -0.3987
   21TMC2    C5  328   1.079   3.395  14.934  0.0087  0.1335 -0.7482
   21TMC2    C6  329   1.099   3.283  15.009  0.2081 -0.0151 -0.1190
   21TMC2     C  330   1.330   3.366  14.672 -0.2000 -0.4465 -0.0061
   21TMC2     O  331   1.444   3.335  14.684  0.0366 -0.2541 -0.2896
   21TMC2     H  332   1.349   3.151  14.814  0.2534  0.8064 -0.6337
   21TMC2    H1  333   1.142   3.519  14.770  0.6312  0.0701 -0.1522
   21TMC2    H2  334   1.064   3.262  15.109 -0.0097 -3.4072 -0.9028
   21TMC2    C7  335   0.974   3.489  14.978  0.1939  0.2117 -0.4810
   21TMC2    C8  336   1.209   3.073  15.022  0.3382  0.6040  0.3615
   21TMC2    O1  337   0.907   3.471  15.080  0.4405  0.3545 -0.2762
   21TMC2    O2  338   1.302   3.006  14.981  0.2514  0.0829  0.0884
   21TMC2    O5  339   1.084   3.024  15.056 -0.3575 -0.1704 -0.2158
   21TMC2    H5  340   1.007   3.081  15.036 -0.9264 -0.5676  0.8638
   22MPD2     C  341   1.398   3.479  14.174  0.2253 -0.3731  0.0275
   22MPD2    C1  342   1.493   3.448  14.274  0.6181  0.5493 -0.2572
   22MPD2    C2  343   1.448   3.448  14.406 -0.2565 -1.2898  0.0855
   22MPD2    C3  344   1.317   3.431  14.427  0.1323 -0.1069 -0.4125
   22MPD2    C4  345   1.225   3.455  14.325  0.8200  0.2437 -0.3469
   22MPD2    C5  346   1.265   3.494  14.204  0.1215  0.1431 -0.1103
   22MPD2     H  347   1.521   3.432  14.485 -0.8385 -0.3013  0.8330
   22MPD2    H1  348   1.119   3.451  14.346  0.5561  3.5384 -1.1927
   22MPD2    H2  349   1.436   3.485  14.072 -2.9975 -0.6733 -1.1820
   22MPD2    H3  350   1.196   3.523  14.126 -2.5990 -0.8790  1.9437
   22MPD2     N  351   1.260   3.412  14.555 -0.6840 -0.7817  0.1725
   22MPD2    H5  352   1.160   3.420  14.563 -0.8246 -1.1019 -1.2674
   22MPD2    N1  353   1.636   3.430  14.257  0.5103 -0.4457 -0.8007
   22MPD2    H7  354   1.687   3.402  14.340 -1.2317 -0.4858  0.2428
   23TMC2    C1  355   2.547   4.711  14.518 -0.4981  0.3882 -0.4507
   23TMC2    C2  356   2.554   0.103  14.540  0.6031 -0.4615  0.3002
   23TMC2    C3  357   2.450   0.183  14.488  0.3742  0.1957  0.2703
   23TMC2    C4  358   2.441   4.648  14.449 -0.2665 -0.5231 -0.5279
   23TMC2    C5  359   2.347   4.728  14.402 -0.3994 -0.7889 -0.2136
   23TMC2    C6  360   2.345   0.121  14.424 -0.7547  0.3609 -0.1151
   23TMC2     C  361   2.649   4.634  14.589 -0.6833 -0.1810  0.1623
   23TMC2     O  362   2.700   4.675  14.694  0.0480 -0.4114 -0.6716
   23TMC2     H  363   2.631   0.146  14.603  1.2375 -2.1103  0.6399
   23TMC2    H1  364   2.451   4.543  14.426  1.3465 -0.3225 -0.7301
   23TMC2    H2  365   2.265   0.179  14.380 -0.9969  0.9982  1.1421
   23TMC2    C7  366   2.228   4.655  14.352  0.6023  0.2261 -0.2256
   23TMC2    C8  367   2.436   0.326  14.522 -0.2219  0.2140 -0.1445
   23TMC2    O1  368   2.254   4.546  14.305  0.3015 -0.3244  0.1090
   23TMC2    O2  369   2.330   0.387  14.531 -0.3638  0.4162  0.2278
   23TMC2    O5  370   2.557   0.367  14.570  0.0146  0.3634 -0.3065
   23TMC2    H5  371   2.637   0.321  14.539 -1.0086  0.3771 -2.9969
   24MPD2     C  372   3.045   4.312  14.520  0.1861  0.4150  0.2051
   24MPD2    C1  373   2.985   4.357  14.638 -0.4090 -1.1309  0.2679
   24MPD2    C2  374   2.870   4.436  14.631 -0.0641  0.0869 -0.3826
   24MPD2    C3  375   2.821   4.471  14.505 -0.5730 -0.3395 -0.1024
   24MPD2    C4  376   2.876   4.425  14.389  0.1628  0.1933 -0.4619
   24MPD2    C5  377   2.993   4.347  14.398  0.8666  0.0702 -0.2019
   24MPD2     H  378   2.825   4.473  14.723  0.4122 -0.6321  0.1425
   24MPD2    H1  379   2.826   4.449  14.296  0.7195 -1.5836 -1.2261
   24MPD2    H2  380   3.133   4.249  14.517 -1.6463 -2.0623 -1.4034
   24MPD2    H3  381   3.050   4.310  14.314  0.1227 -0.6848 -0.3711
   24MPD2     N  382   2.705   4.554  14.493  0.5568 -0.2126 -0.3612
   24MPD2    H5  383   2.655   4.566  14.405 -2.2296 -0.0759  1.2654
   24MPD2    N1  384   3.026   4.319  14.768 -0.2851 -0.0951  0.1927
   24MPD2    H7  385   2.984   4.368  14.846  2.2493 -0.4790  1.8208
   25TMC2    C1  386   1.649   2.721  11.624 -0.9818 -0.1619 -0.2543
   25TMC2    C2  387   1.770   2.730  11.683  0.7116  0.1046  0.3998
   25TMC2    C3  388   1.773   2.709  11.816  0.4309 -0.9446 -1.0098
   25TMC2    C4  389   1.538   2.677  11.691 -0.8486 -0.7077 -0.1734
   25TMC2    C5  390   1.540   2.666  11.827  0.4531 -0.6939  0.0600
   25TMC2    C6  391   1.661   2.672  11.893  0.8353 -0.5850 -0.6739
   25TMC2     C  392   1.643   2.729  11.483 -0.2594 -0.3568 -0.5542
   25TMC2     O  393   1.713   2.812  11.426 -0.3848  0.3557  0.2858
   25TMC2     H  394   1.846   2.775  11.619 -0.0190  0.5208 -0.1802
   25TMC2    H1  395   1.440   2.668  11.647 -1.1179  0.6525  0.1418
   25TMC2    H2  396   1.663   2.631  11.993 -1.4540 -0.9556 -0.7738
   25TMC2    C7  397   1.419   2.639  11.912 -0.0203 -1.0590  1.7576
   25TMC2    C8  398   1.905   2.689  11.878 -0.0610  0.2213  0.3560
   25TMC2    O1  399   1.428   2.668  12.026 -0.4057  0.4609 -0.3718
   25TMC2    O2  400   1.926   2.650  11.994  0.3554 -0.3556  0.2796
   25TMC2    O5  401   1.993   2.688  11.776  0.0556 -0.0483  0.0308
   25TMC2    H5  402   2.086   2.664  11.796  0.0556 -1.3947 -1.6044
   26MPD2     C  403   1.482   2.568  11.030 -0.1965 -0.2545  0.1280
   26MPD2    C1  404   1.425   2.486  11.123  0.0588  1.0064 -0.1687
   26MPD2    C2  405   1.457   2.504  11.254  0.0059 -0.1915 -0.3587
   26MPD2    C3  406   1.541   2.610  11.292 -0.0193  0.4245 -0.9741
   26MPD2    C4  407   1.599   2.685  11.192  0.5914 -0.4191 -0.4464
   26MPD2    C5  408   1.567   2.663  11.062  0.1133 -0.4198 -0.5825
   26MPD2     H  409   1.414   2.442  11.332  0.8715  1.3685  1.3716
   26MPD2    H1  410   1.677   2.759  11.206 -0.5890  1.0381 -1.4606
   26MPD2    H2  411   1.463   2.550  10.925 -0.3436  1.3488 -0.1190
   26MPD2    H3  412   1.619   2.729  10.994 -2.1194  0.1450 -1.7462
   26MPD2     N  413   1.568   2.629  11.427 -0.2963 -0.0737  0.5223
   26MPD2    H5  414   1.530   2.559  11.489 -0.4080 -1.8952 -1.6018
   26MPD2    N1  415   1.350   2.373  11.079 -0.0512  0.4772 -0.2390
   26MPD2    H7  416   1.348   2.355  10.979  0.7315 -0.8602 -0.0151
   27TMC2    C1  417   0.342   4.213  12.094  0.0177  0.1823  0.3288
   27TMC2    C2  418   0.471   4.202  12.140  0.1911  0.0531 -0.1684
   27TMC2    C3  419   0.552   4.314  12.140  0.3602  0.0078  0.9330
   27TMC2    C4  420   0.295   4.332  12.049 -0.3416  1.0166 -0.1945
   27TMC2    C5  421   0.374   4.440  12.055 -1.1359  0.3358 -0.3861
   27TMC2    C6  422   0.509   4.436  12.096  0.5860  0.0378 -0.1590
   27TMC2     C  423   0.249   4.112  12.152  0.0662  0.3413 -0.0725
   27TMC2     O  424   0.306   4.006  12.184  0.1012  0.3332  0.3906
   27TMC2     H  425   0.500   4.100  12.163  1.5381  0.0185 -1.9400
   27TMC2    H1  426   0.191   4.340  12.018 -0.3893  1.2434  0.0174
   27TMC2    H2  427   0.571   4.524  12.104 -0.3437  0.7974 -1.2319
   27TMC2    C7  428   0.298   4.554  12.113 -0.3122  0.5864 -0.3506
   27TMC2    C8  429   0.694   4.299  12.138  0.3482  0.6210  0.5454
   27TMC2    O1  430   0.189   4.517  12.158  0.0539  0.0842 -0.1999
   27TMC2    O2  431   0.753   4.306  12.250 -0.3562  0.0762 -0.3265
   27TMC2    O5  432   0.710   4.197  12.047 -0.0988 -0.3326  0.2638
   27TMC2    H5  433   0.637   4.187  11.982  1.7985  0.2849 -1.9316
   28MPD2     C  434   4.633   3.944  12.463 -0.3979  0.1678 -0.3976
   28MPD2    C1  435   4.616   4.074  12.448 -0.0546  0.3141  0.8975
   28MPD2    C2  436   4.691   4.135  12.361  0.3655  0.5003  0.6389
   28MPD2    C3  437   0.043   4.077  12.282  0.3845  0.3736 -0.8205
   28MPD2    C4  438   0.060   3.940  12.291 -0.1438  0.3658 -0.7902
   28MPD2    C5  439   4.726   3.869  12.390 -0.0336  0.2904 -0.7542
   28MPD2     H  440   4.684   4.242  12.345 -0.4159  0.2254 -0.8424
   28MPD2    H1  441   0.131   3.885  12.229  0.5112 -0.0277  0.3040
   28MPD2    H2  442   4.571   3.887  12.531 -0.7434  1.3837  0.2981
   28MPD2    H3  443   0.012   3.766  12.410  1.2751  1.1204  1.7370
   28MPD2     N  444   0.125   4.159  12.192 -0.3872  0.4516 -0.0810
   28MPD2    H5  445   0.090   4.250  12.165 -1.0480  0.5433  1.1041
   28MPD2    N1  446   4.526   4.136  12.535  0.4692  0.4448 -0.3022
   28MPD2    H7  447   4.467   4.072  12.586  0.6449 -1.0797 -2.0001
   29TMC2    C1  448   0.112   1.939  14.118  0.5395 -0.1173 -0.9192
   29TMC2    C2  449   0.240   1.962  14.072 -0.3259 -0.0320 -0.4713
   29TMC2    C3  450   0.326   2.022  14.151  0.0613 -0.5282 -0.5019
   29TMC2    C4  451   0.079   1.970  14.239  0.6158 -0.6339 -0.0439
   29TMC2    C5  452   0.162   2.052  14.311 -0.1753 -0.6472  0.0436
   29TMC2    C6  453   0.286   2.086  14.267  0.5047  0.0365  0.0925
   29TMC2     C  454   0.028   1.856  14.034  0.7189 -0.2260  0.4782
   29TMC2     O  455   0.079   1.796  13.944  0.4579 -0.2216  0.1028
   29TMC2     H  456   0.260   1.950  13.966  1.4528 -0.2899 -0.1202
   29TMC2    H1  457   4.725   1.942  14.287  0.2596  1.3367  0.3913
   29TMC2    H2  458   0.346   2.168  14.303  1.3911 -1.3451  1.7269
   29TMC2    C7  459   0.098   2.106  14.432  0.3494  0.3534  0.0503
   29TMC2    C8  460   0.433   2.095  14.085 -0.0871  0.4443  0.0071
   29TMC2    O1  461   4.731   2.064  14.479  0.1306 -0.4699 -0.1335
   29TMC2    O2  462   0.478   2.204  14.114  0.3350  0.2439 -0.3277
   29TMC2    O5  463   0.482   2.011  13.999  0.2674  0.1840  0.6371
   29TMC2    H5  464   0.446   1.919  14.001  0.4281  0.0898 -0.5029
   30MPD2     C  465   4.358   1.549  14.004  0.1327  0.7669 -0.1026
   30MPD2    C1  466   4.492   1.527  13.972 -0.7960  0.7143 -0.8127
   30MPD2    C2  467   4.586   1.625  13.996 -0.2923 -0.5764  0.5023
   30MPD2    C3  468   4.543   1.745  14.047 -0.2533 -0.3139 -0.1626
   30MPD2    C4  469   4.411   1.776  14.072  0.0233 -0.4284 -0.3027
   30MPD2    C5  470   4.319   1.679  14.036 -0.2769 -0.0532 -0.1739
   30MPD2     H  471   4.687   1.598  13.966  0.8114  1.3299  2.5470
   30MPD2    H1  472   4.391   1.880  14.097  0.1187  0.3968 -3.5710
   30MPD2    H2  473   4.280   1.477  13.980  1.1249 -0.3459  0.0317
   30MPD2    H3  474   4.215   1.694  14.065  0.4591  2.1764  1.2918
   30MPD2     N  475   4.637   1.853  14.077 -0.2988 -0.0697  0.5168
   30MPD2    H5  476   4.604   1.938  14.120 -2.2440  0.1975 -1.5186
   30MPD2    N1  477   4.546   1.402  13.947  0.4801  0.4398  0.6332
   30MPD2    H7  478   4.644   1.394  13.925  0.1361  1.2796 -1.1937
   31TMC2    C1  479   2.203   0.422  15.422  0.1890 -0.2138  0.1240
   31TMC2    C2  480   2.082   0.463  15.462  0.4500  0.6172 -0.3934
   31TMC2    C3  481   2.046   0.463  15.594 -0.0861 -0.2879 -0.6810
   31TMC2    C4  482   2.292   0.368  15.511  0.5768 -1.0755 -0.1320
   31TMC2    C5  483   2.261   0.377  15.640  0.5038 -0.2492 -0.1154
   31TMC2    C6  484   2.143   0.433  15.687  0.8102  0.0324  0.1442
   31TMC2     C  485   2.239   0.442  15.280  0.7994 -0.0165 -0.0204
   31TMC2     O  486   2.171   0.503  15.207  0.5321 -0.7288  0.6623
   31TMC2     H  487   2.014   0.497  15.385 -1.2894 -0.9120  0.4723
   31TMC2    H1  488   2.396   0.358  15.482  0.9819  0.7681  0.6766
   31TMC2    H2  489   2.117   0.429  15.792 -2.3370 -0.0894 -0.6288
   31TMC2    C7  490   2.364   0.347  15.742  0.0626 -0.2430  0.2709
   31TMC2    C8  491   1.912   0.448  15.636  0.1001  1.0473 -0.0309
   31TMC2    O1  492   2.449   0.261  15.720  0.1622  1.0740  0.0146
   31TMC2    O2  493   1.879   0.355  15.714 -1.0655  0.1704  0.3686
   31TMC2    O5  494   1.835   0.543  15.575  0.7054 -0.0011 -0.4231
   31TMC2    H5  495   1.888   0.602  15.518 -0.5775 -1.5147 -3.1655
   32MPD2     C  496   2.628   0.389  14.936  0.4425  0.8619  0.7931
   32MPD2    C1  497   2.518   0.474  14.930  0.3279 -0.3138 -0.2932
   32MPD2    C2  498   2.427   0.476  15.036  0.7996 -0.3793  0.9028
   32MPD2    C3  499   2.431   0.373  15.136  0.0986 -0.1986  0.2580
   32MPD2    C4  500   2.537   0.285  15.127 -0.1552  1.2318  0.2180
   32MPD2    C5  501   2.631   0.287  15.025  0.5533  0.1189 -0.3177
   32MPD2     H  502   2.345   0.544  15.049  2.7195  1.7546  1.9561
   32MPD2    H1  503   2.539   0.205  15.200 -0.7585 -0.9550 -2.1518
   32MPD2    H2  504   2.702   0.389  14.857  0.8294  1.3091  1.1506
   32MPD2    H3  505   2.706   0.209  15.023 -0.4998 -0.9167  0.8993
   32MPD2     N  506   2.347   0.363  15.249 -0.1920  0.6105 -0.2327
   32MPD2    H5  507   2.380   0.288  15.309  1.0753  1.1180 -0.2857
   32MPD2    N1  508   2.509   0.557  14.819  0.2305  0.6998  0.0034
   32MPD2    H7  509   2.591   0.550  14.760  0.2317  2.2103 -0.1831
   33TMC2    C1  510   2.559   3.580  10.183  0.0017  0.6695  0.3759
   33TMC2    C2  511   2.638   3.536  10.285  0.9211 -0.1453  0.9068
   33TMC2    C3  512   2.767   3.504  10.259  0.0572  0.6571 -1.0127
   33TMC2    C4  513   2.616   3.602  10.062  0.4519  0.6768  0.4753
   33TMC2    C5  514   2.753   3.597  10.051 -0.5745  0.1552 -0.0996
   33TMC2    C6  515   2.827   3.543  10.147 -0.0446 -0.2648 -0.9025
   33TMC2     C  516   2.424   3.586  10.211  0.3738  0.4259 -0.2749
   33TMC2     O  517   2.402   3.563  10.329  0.3265 -0.4234 -0.0060
   33TMC2     H  518   2.607   3.506  10.385  2.2657 -0.7754  1.1306
   33TMC2    H1  519   2.564   3.651   9.980 -0.0392 -0.6803 -0.0226
   33TMC2    H2  520   2.935   3.538  10.135  0.1427  2.3125 -0.2097
   33TMC2    C7  521   2.822   3.684   9.945  0.5024  0.1234 -0.0043
   33TMC2    C8  522   2.853   3.459  10.366 -0.2138 -0.2755 -0.1758
   33TMC2    O1  523   2.943   3.685   9.953 -0.1059 -0.1129 -0.3148
   33TMC2    O2  524   2.832   3.471  10.488 -0.0962  0.6860 -0.0218
   33TMC2    O5  525   2.933   3.365  10.305  0.0667 -0.4862 -0.4251
   33TMC2    H5  526   2.919   3.365  10.208 -0.8844  0.6737 -0.2961
   34MPD2     C  527   1.933   3.610  10.077  0.1516  0.7754  0.5582
   34MPD2    C1  528   1.989   3.573  10.199 -0.5182 -0.2006 -0.6872
   34MPD2    C2  529   2.124   3.585  10.210 -0.3898  0.1699 -0.2842
   34MPD2    C3  530   2.203   3.609  10.100 -0.3544 -0.5086  0.4444
   34MPD2    C4  531   2.143   3.645   9.982 -0.5488 -0.5061  0.0016
   34MPD2    C5  532   2.005   3.649   9.972  0.5748  0.0853  0.4396
   34MPD2     H  533   2.178   3.557  10.300 -1.1582 -4.2079 -1.1735
   34MPD2    H1  534   2.212   3.654   9.898 -1.7168 -0.8491 -1.0080
   34MPD2    H2  535   1.828   3.593  10.057  0.2325 -0.0823  0.8835
   34MPD2    H3  536   1.968   3.664   9.872  0.4109 -0.2450  0.4516
   34MPD2     N  537   2.345   3.615  10.103  0.1168  0.2705  0.3969
   34MPD2    H5  538   2.390   3.641  10.016 -0.1331  1.0889  0.5099
   34MPD2    N1  539   1.912   3.500  10.296 -0.5403 -0.7650 -0.2922
   34MPD2    H7  540   1.817   3.475  10.275 -0.0849 -1.7486 -1.1452
   35TMC2    C1  541   3.673   0.031  11.432 -0.7336 -0.4303  0.1254
   35TMC2    C2  542   3.638   0.047  11.303 -0.4812 -0.1841  0.4132
   35TMC2    C3  543   3.541   4.705  11.254  0.3309 -0.3605 -0.1412
   35TMC2    C4  544   3.637   4.656  11.503  0.2688 -0.6347  0.5713
   35TMC2    C5  545   3.546   4.574  11.446  0.1537  0.1333 -0.4441
   35TMC2    C6  546   3.486   4.594  11.327 -0.1699 -0.1381  0.3706
   35TMC2     C  547   3.773   0.124  11.482 -0.3738 -0.1369  0.0262
   35TMC2     O  548   3.803   0.215  11.408  0.0334 -0.1108 -0.3239
   35TMC2     H  549   3.673   0.124  11.235  0.6482 -1.2290 -0.2012
   35TMC2    H1  550   3.684   4.640  11.600  2.6948 -0.7428 -0.6127
   35TMC2    H2  551   3.441   4.507  11.280 -0.1379  0.5084 -0.8740
   35TMC2    C7  552   3.466   4.493  11.545  0.1238 -0.0294 -0.3617
   35TMC2    C8  553   3.523   4.700  11.110  0.7884 -0.1523 -0.2332
   35TMC2    O1  554   3.526   4.457  11.646 -0.4156 -0.2855  0.1000
   35TMC2    O2  555   3.613   0.002  11.038  0.2179  0.1777 -0.4768
   35TMC2    O5  556   3.446   4.598  11.080 -0.0802 -0.5273  0.1007
   35TMC2    H5  557   3.360   4.596  11.128  0.2248 -0.0531  0.6661
   36MPD2     C  558   4.085   0.367  11.804 -0.6634 -0.0042  0.1213
   36MPD2    C1  559   4.088   0.240  11.843 -0.2310  0.2407  0.5162
   36MPD2    C2  560   3.998   0.146  11.779 -0.4648 -0.4988  0.0830
   36MPD2    C3  561   3.913   0.192  11.672 -0.0330 -0.3208  0.4678
   36MPD2    C4  562   3.933   0.323  11.628  0.3512 -0.2966 -0.4259
   36MPD2    C5  563   4.015   0.411  11.699  0.5314  0.5173  0.0260
   36MPD2     H  564   3.986   0.043  11.810  2.3971 -0.8437  0.0305
   36MPD2    H1  565   3.868   0.367  11.553 -3.4707 -0.7010  2.6603
   36MPD2    H2  566   4.136   0.446  11.858 -0.3236 -0.4783  0.4918
   36MPD2    H3  567   4.008   0.517  11.679  0.4178  0.5089  0.0238
   36MPD2     N  568   3.828   0.100  11.603  0.2593 -0.1804 -0.3886
   36MPD2    H5  569   3.811   0.012  11.651  1.4606 -0.8332 -1.1537
   36MPD2    N1  570   4.172   0.203  11.949 -0.1954 -0.9545 -0.4167
   36MPD2    H7  571   4.240   0.271  11.980  1.3420 -1.6260 -2.3130
   37TMC2    C1  572   0.983   4.445  11.925 -0.2405  0.2797  0.8207
   37TMC2    C2  573   0.898   4.401  11.831  0.0254  0.1104  0.4603
   37TMC2    C3  574   0.947   4.319  11.730  0.3829  0.0658 -0.2722
   37TMC2    C4  575   1.119   4.434  11.917 -0.7162 -0.0963 -0.1212
   37TMC2    C5  576   1.164   4.356  11.814 -0.3398  0.1741 -0.7706
   37TMC2    C6  577   1.077   4.291  11.731 -0.1332 -0.4537 -0.4743
   37TMC2     C  578   0.927   4.529  12.032 -0.3553 -0.5777  0.6582
   37TMC2     O  579   0.805   4.551  12.029  0.6100 -0.2844 -0.4598
   37TMC2     H  580   0.793   4.429  11.827  0.3533  1.0408 -1.6142
   37TMC2    H1  581   1.193   4.498  11.964 -1.4196  0.4001  0.3099
   37TMC2    H2  582   1.113   4.224  11.655  2.5434  0.2423  0.1768
   37TMC2    C7  583   1.310   4.335  11.805  0.0842  0.1134  0.2370
   37TMC2    C8  584   0.867   4.253  11.633 -0.2445 -0.0322  0.2317
   37TMC2    O1  585   1.375   4.351  11.907 -0.0834  0.5126  0.0001
   37TMC2    O2  586   0.913   4.154  11.583 -0.0026 -0.2287 -0.5564
   37TMC2    O5  587   0.814   4.349  11.560  0.3105  0.1011 -0.2636
   37TMC2    H5  588   0.819   4.440  11.597 -0.4350 -0.8645  2.2029
   38MPD2     C  589   0.985   4.712  12.505  0.0704 -0.3174 -0.1166
   38MPD2    C1  590   1.104   4.650  12.470  0.5574  0.6465  0.2619
   38MPD2    C2  591   1.108   4.597  12.348 -0.2996 -0.4364  0.6707
   38MPD2    C3  592   1.003   4.606  12.261  0.6319 -0.0415  0.4686
   38MPD2    C4  593   0.887   4.659  12.296 -0.5173  0.0576 -0.6476
   38MPD2    C5  594   0.880   4.723  12.420  0.7285 -0.2882 -0.4494
   38MPD2     H  595   1.199   4.550  12.314 -1.3077 -1.4983 -0.5674
   38MPD2    H1  596   0.798   4.664  12.235 -0.7104  2.1287 -0.1681
   38MPD2    H2  597   0.996   0.037  12.592  0.5376 -1.5967  0.7697
   38MPD2    H3  598   0.785   0.031  12.442  0.7207 -0.5100  0.0031
   38MPD2     N  599   1.018   4.532  12.139 -0.4971  0.5475 -0.1345
   38MPD2    H5  600   1.098   4.469  12.138 -1.0038 -0.0720 -2.6194
   38MPD2    N1  601   1.219   4.648  12.553 -0.3146  0.2226  0.0607
   38MPD2    H7  602   1.295   4.594  12.513 -0.3980  1.2337 -1.4770
   39TMC2    C1  603   0.877   1.424   1.166 -0.2387 -0.5296  0.1683
   39TMC2    C2  604   0.932   1.449   1.040 -0.0207 -0.2696 -0.4176
   39TMC2    C3  605   1.047   1.512   1.028 -0.1200 -0.1288 -0.5058
   39TMC2    C4  606   0.946   1.453   1.287 -0.9093 -0.3368  0.0349
   39TMC2    C5  607   1.065   1.523   1.260 -0.0620 -0.2451 -0.1910
   39TMC2    C6  608   1.118   1.558   1.136 -0.3030  0.3046  0.1629
   39TMC2     C  609   0.735   1.387   1.181 -1.0315 -0.6429  0.1028
   39TMC2     O  610   0.669   1.413   1.079  0.1205 -0.1614 -0.1433
   39TMC2     H  611   0.871   1.431   0.952  0.6564 -0.3190 -0.8795
   39TMC2    H1  612   0.914   1.423   1.386  3.0640 -2.2121  0.7833
   39TMC2    H2  613   1.220   1.593   1.127  0.9987 -3.1364  1.2976
   39TMC2    C7  614   1.126   1.578   1.375 -0.6225  0.0959  0.3307
   39TMC2    C8  615   1.103   1.534   0.899  0.6565  0.6271  0.4534
   39TMC2    O1  616   1.100   1.535   1.482  0.1450 -0.0424 -0.0149
   39TMC2    O2  617   1.040   1.568   0.799  0.0248 -0.2715 -0.1887
   39TMC2    O5  618   1.233   1.496   0.901 -0.2069  0.1859  0.1507
   39TMC2    H5  619   1.262   1.462   0.989  2.7980  0.3728 -0.7691
   40MPD2     C  620   0.511   1.242   1.441 -0.6532  0.6183  0.2842
   40MPD2    C1  621   0.551   1.325   1.343  0.4111 -0.3510  0.1235
   40MPD2    C2  622   0.457   1.403   1.279 -0.2328  0.3671  0.1793
   40MPD2    C3  623   0.325   1.399   1.317 -0.3881  0.2017  0.1464
   40MPD2    C4  624   0.292   1.313   1.419  0.7498 -0.5731 -0.0663
   40MPD2    C5  625   0.386   1.241   1.484  0.2480  0.1298  0.3261
   40MPD2     H  626   0.487   1.471   1.200  3.1750 -0.1866  1.0051
   40MPD2    H1  627   0.198   1.321   1.473  0.2291 -1.7388 -0.7978
   40MPD2    H2  628   0.585   1.177   1.486 -0.7033 -0.2649 -0.9177
   40MPD2    H3  629   0.358   1.172   1.563  1.3438  0.6269  1.1473
   40MPD2     N  630   0.227   1.485   1.260  0.5477 -0.0246  0.0263
   40MPD2    H5  631   0.129   1.468   1.280  0.6997  1.1278  1.7047
   40MPD2    N1  632   0.690   1.330   1.300 -0.2478  0.3305 -0.1263
   40MPD2    H7  633   0.754   1.271   1.353  1.7858  1.5733 -1.2069
   41TMC2    C1  634   3.501   4.719  13.268  0.1988 -0.3945 -0.3209
   41TMC2    C2  635   3.459   0.115  13.261  0.0299  0.0002 -0.2804
   41TMC2    C3  636   3.451   0.180  13.137  0.3672 -0.0691  0.4088
   41TMC2    C4  637   3.542   4.662  13.147  0.6314  0.1156  0.1816
   41TMC2    C5  638   3.512   4.717  13.030 -0.5589 -0.4698  0.2642
   41TMC2    C6  639   3.474   0.107  13.022 -0.8709  0.3667  0.6253
   41TMC2     C  640   3.558   4.660  13.388 -0.4447 -0.8636 -0.5147
   41TMC2     O  641   3.639   4.567  13.367  0.2935  0.6279 -0.3273
   41TMC2     H  642   3.424   0.162  13.352 -0.3149  1.6888 -1.2706
   41TMC2    H1  643   3.581   4.560  13.145  0.3956  0.0342 -0.1955
   41TMC2    H2  644   3.477   0.164  12.930  0.7089 -2.6293 -1.1933
   41TMC2    C7  645   3.570   4.650  12.915 -0.4177  0.2828 -0.3874
   41TMC2    C8  646   3.366   0.293  13.109 -0.2021 -0.2211 -0.5427
   41TMC2    O1  647   3.655   4.560  12.928  0.3885 -0.5549 -0.1149
   41TMC2    O2  648   3.289   0.293  13.015  0.1975 -0.4339  0.0110
   41TMC2    O5  649   3.359   0.359  13.225 -0.4984 -0.2195  0.2752
   41TMC2    H5  650   3.445   0.366  13.271  0.1411  0.2667 -1.0056
   42MPD2     C  651   3.600   4.530  13.653  0.2346 -0.1505  0.2374
   42MPD2    C1  652   3.536   4.653  13.634 -0.0985  0.1225  0.1835
   42MPD2    C2  653   3.494   4.723  13.748 -0.1497 -0.1452 -0.1046
   42MPD2    C3  654   3.521   4.670  13.877  0.3518  0.5598  0.0621
   42MPD2    C4  655   3.589   4.558  13.886  0.6576  0.0518  1.1067
   42MPD2    C5  656   3.612   4.478  13.776  0.4416 -0.0182 -0.0179
   42MPD2     H  657   3.440   0.078  13.743 -0.3501 -0.2931 -0.7048
   42MPD2    H1  658   3.623   4.518  13.981  0.0116 -0.1677  1.2420
   42MPD2    H2  659   3.627   4.467  13.569  2.3243  1.5866 -0.3850
   42MPD2    H3  660   3.680   4.395  13.793  2.5531  1.9067  0.7222
   42MPD2     N  661   3.487   4.725  14.001 -0.0150  0.1272 -0.1675
   42MPD2    H5  662   3.505   4.663  14.080  0.9784  2.1208  1.1689
   42MPD2    N1  663   3.507   4.708  13.510  0.2800 -0.0797  0.2546
   42MPD2    H7  664   3.448   0.051  13.510  0.2148 -0.1254  0.2038
   43TMC2    C1  665   0.550   2.840   0.467  0.4345  0.3105  0.0013
   43TMC2    C2  666   0.453   2.935   0.480 -0.4336 -0.2027  0.5513
   43TMC2    C3  667   0.481   3.035   0.571  0.4667  0.4180 -0.8734
   43TMC2    C4  668   0.671   2.843   0.527  0.1428 -0.6183 -0.2698
   43TMC2    C5  669   0.692   2.950   0.611  0.3490 -0.0016 -0.2865
   43TMC2    C6  670   0.599   3.041   0.637 -0.5861  0.0891  0.0482
   43TMC2     C  671   0.526   2.721   0.379  0.1777 -0.0913 -0.1145
   43TMC2     O  672   0.586   2.621   0.417  0.0416  0.2793 -0.1471
   43TMC2     H  673   0.358   2.929   0.428  1.0735  1.5733 -2.3608
   43TMC2    H1  674   0.744   2.764   0.517 -1.6615 -2.2816 -0.4188
   43TMC2    H2  675   0.615   3.135   0.690 -0.1676 -1.1414  2.1307
   43TMC2    C7  676   0.826   2.962   0.660  0.0606 -0.8708 -0.3786
   43TMC2    C8  677   0.407   3.160   0.579  0.0842 -0.8462 -0.0386
   43TMC2    O1  678   0.900   2.860   0.659  0.1114  0.2550 -0.2330
   43TMC2    O2  679   0.455   3.263   0.621 -0.0109 -0.3078  0.1112
   43TMC2    O5  680   0.316   3.149   0.486 -0.4687 -0.2982 -0.0704
   43TMC2    H5  681   0.277   3.059   0.490  0.2715 -0.6447 -0.8233
   44MPD2     C  682   0.266   2.473   0.011 -0.1748  0.5957  0.4850
   44MPD2    C1  683   0.378   2.440   0.079  0.2472  0.2848 -0.3365
   44MPD2    C2  684   0.423   2.527   0.176 -0.1824 -0.0030  0.2899
   44MPD2    C3  685   0.361   2.647   0.211 -0.2535 -0.2033 -0.2923
   44MPD2    C4  686   0.247   2.677   0.142 -0.1420  0.9648 -0.0391
   44MPD2    C5  687   0.199   2.586   0.046  0.4397 -0.2542 -0.6359
   44MPD2     H  688   0.516   2.501   0.225  0.5627 -0.2765 -1.2737
   44MPD2    H1  689   0.188   2.766   0.157 -2.2191 -0.1725 -1.5421
   44MPD2    H2  690   0.231   2.417  17.681  2.6063  0.2600 -0.4026
   44MPD2    H3  691   0.111   2.616  17.748  1.3338  2.5805 -0.5491
   44MPD2     N  692   0.418   2.743   0.295 -0.5708 -0.8549  0.2406
   44MPD2    H5  693   0.366   2.830   0.303 -0.4768 -0.7321 -0.5140
   44MPD2    N1  694   0.451   2.325   0.056  0.4295  0.5185 -0.0272
   44MPD2    H7  695   0.536   2.315   0.111  0.5541 -0.7393 -0.4571
   45TMC2    C1  696   1.098   0.117   9.816  0.3835  0.2879 -0.1968
   45TMC2    C2  697   1.214   0.061   9.780 -0.0091 -0.2175  0.2093
   45TMC2    C3  698   1.326   0.130   9.811 -0.4701 -0.6174 -0.1462
   45TMC2    C4  699   1.086   0.245   9.872  0.2135  0.6349 -0.1803
   45TMC2    C5  700   1.205   0.314   9.881  0.3389 -0.2484  0.4067
   45TMC2    C6  701   1.329   0.260   9.857  0.6710 -0.1103 -0.0330
   45TMC2     C  702   0.979   0.044   9.789  0.2491 -0.2367  0.0674
   45TMC2     O  703   1.004   4.664   9.779 -0.3718  0.4247  0.5486
   45TMC2     H  704   1.233   4.699   9.749 -0.5101 -0.4803  0.7491
   45TMC2    H1  705   0.989   0.288   9.896 -0.7021 -0.9610 -0.9957
   45TMC2    H2  706   1.422   0.315   9.861  0.7754 -0.2585 -0.3710
   45TMC2    C7  707   1.190   0.452   9.923  0.1823 -0.1392  0.1616
   45TMC2    C8  708   1.442   0.081   9.738 -0.2605  0.0135  1.3345
   45TMC2    O1  709   1.082   0.485   9.967 -0.5710  0.2534  0.0780
   45TMC2    O2  710   1.474   0.127   9.627  0.9410 -0.0582 -0.3509
   45TMC2    O5  711   1.475   4.700   9.784  0.1671 -0.6488  0.0718
   45TMC2    H5  712   1.431   4.680   9.869  1.5878  2.4896  1.5307
   46MPD2     C  713   0.717   4.655   9.748 -0.8351  0.0861 -0.5251
   46MPD2    C1  714   0.733   0.053   9.741  0.4967  0.5482 -0.3001
   46MPD2    C2  715   0.631   0.136   9.703 -0.1269  0.0557  0.0395
   46MPD2    C3  716   0.507   0.090   9.667 -0.1686  0.1114 -0.3337
   46MPD2    C4  717   0.491   4.691   9.677 -0.3425  0.2291 -0.2612
   46MPD2    C5  718   0.591   4.607   9.728 -0.0925  0.3858  0.4070
   46MPD2     H  719   0.650   0.243   9.700 -1.8307  0.3500 -0.4305
   46MPD2    H1  720   0.400   4.638   9.652  0.8036 -2.0623  0.4081
   46MPD2    H2  721   0.800   4.590   9.774 -2.9236 -2.4916 -0.3262
   46MPD2    H3  722   0.566   4.503   9.739  2.8389 -0.3386  0.2952
   46MPD2     N  723   0.407   0.180   9.627 -0.3423  0.6694 -0.3796
   46MPD2    H5  724   0.422   0.277   9.653 -0.9043  0.9879 -1.2438
   46MPD2    N1  725   0.861   0.113   9.763  0.1254 -0.5659 -0.9858
   46MPD2    H7  726   0.863   0.214   9.756 -0.1994 -0.4960 -0.0472
   47TMC2    C1  727   3.123   1.333   9.503 -0.1544 -0.8093 -0.3176
   47TMC2    C2  728   3.204   1.267   9.416  0.8058  0.7322 -0.9857
   47TMC2    C3  729   3.210   1.303   9.287  0.7700 -0.6620 -0.5770
   47TMC2    C4  730   3.050   1.436   9.458 -0.0606  0.4325 -0.4060
   47TMC2    C5  731   3.061   1.474   9.326  0.2438  0.4218 -0.6944
   47TMC2    C6  732   3.136   1.403   9.237  0.0311  1.0270 -0.6225
   47TMC2     C  733   3.128   1.297   9.650 -0.4734  0.0231 -0.3386
   47TMC2     O  734   3.077   1.377   9.727  0.7196 -0.0918 -0.8837
   47TMC2     H  735   3.281   1.199   9.449 -0.2070 -1.0101 -2.2198
   47TMC2    H1  736   2.996   1.503   9.523 -1.3109 -0.8107 -0.1745
   47TMC2    H2  737   3.137   1.432   9.133 -0.7908  1.5320 -0.4957
   47TMC2    C7  738   3.050   1.615   9.283 -0.3406  0.2137 -0.3126
   47TMC2    C8  739   3.286   1.207   9.200 -0.1846 -0.3073 -0.1573
   47TMC2    O1  740   3.118   1.655   9.192  0.1308  0.1901 -0.2939
   47TMC2    O2  741   3.312   1.092   9.241 -0.7200  0.6455  0.1302
   47TMC2    O5  742   3.319   1.263   9.084  0.1441  0.3105  0.2983
   47TMC2    H5  743   3.310   1.359   9.064 -2.1894  0.2048  0.9074
   48MPD2     C  744   3.208   1.197   9.926  0.6506 -0.1963 -0.6883
   48MPD2    C1  745   3.223   1.125   9.806 -0.1993  0.3279 -0.4002
   48MPD2    C2  746   3.275   0.996   9.809  0.5770 -0.6432 -0.2660
   48MPD2    C3  747   3.321   0.946   9.924 -0.6613 -0.0234 -0.7786
   48MPD2    C4  748   3.319   1.021  10.042 -0.0077  0.2287 -0.5726
   48MPD2    C5  749   3.259   1.142  10.043 -0.6468  0.7436  0.2179
   48MPD2     H  750   3.262   0.925   9.729  2.7647  0.2191 -1.3845
   48MPD2    H1  751   3.354   0.987  10.138  1.0665 -0.4779 -1.2237
   48MPD2    H2  752   3.162   1.295   9.930  1.4212  0.1231  0.4587
   48MPD2    H3  753   3.257   1.197  10.136  1.1380  2.0289 -0.5091
   48MPD2     N  754   3.385   0.818   9.924 -0.1370 -0.1046 -0.7449
   48MPD2    H5  755   3.389   0.764   9.838 -0.4390 -1.5112  0.1292
   48MPD2    N1  756   3.181   1.175   9.680  0.4552  0.5011  0.0051
   48MPD2    H7  757   3.205   1.116   9.600 -2.5560 -0.2235 -0.3716
   49TMC2    C1  758   0.642   2.444  10.098  0.6399  0.0658  0.4144
   49TMC2    C2  759   0.542   2.363  10.056 -0.3260 -0.0119 -0.6793
   49TMC2    C3  760   0.513   2.372   9.917  0.0575  0.0712 -0.2290
   49TMC2    C4  761   0.713   2.535  10.020 -0.3869  0.8333  0.2476
   49TMC2    C5  762   0.668   2.548   9.888 -0.0323  0.3208  0.3816
   49TMC2    C6  763   0.571   2.460   9.837 -0.2690  0.6925  0.2976
   49TMC2     C  764   0.674   2.442  10.239 -0.2779 -0.3839  0.6653
   49TMC2     O  765   0.625   2.356  10.313 -0.1341  0.0841 -0.2121
   49TMC2     H  766   0.493   2.297  10.127 -1.9141  1.2848 -0.5743
   49TMC2    H1  767   0.809   2.576  10.050  0.4263  0.6445 -2.1187
   49TMC2    H2  768   0.544   2.451   9.733 -0.9381  1.9625  0.3665
   49TMC2    C7  769   0.710   2.641   9.788  0.1779 -0.6070  0.9496
   49TMC2    C8  770   0.399   2.291   9.876  0.4449  0.0759  0.6808
   49TMC2    O1  771   0.676   2.639   9.671 -0.4895 -0.2423 -0.7038
   49TMC2    O2  772   0.325   2.324   9.780  0.0556  0.0592 -0.9453
   49TMC2    O5  773   0.434   2.166   9.907  0.2370 -0.5421  0.1635
   49TMC2    H5  774   0.518   2.146   9.955 -0.4489  0.1848  1.6815
   50MPD2     C  775   0.787   2.518  10.508 -0.1720  0.0765  0.1548
   50MPD2    C1  776   0.762   2.607  10.403  0.2234  0.8339  0.4169
   50MPD2    C2  777   0.792   2.742  10.421 -0.5478 -0.1888  0.1389
   50MPD2    C3  778   0.816   2.795  10.548 -0.1847  0.6122 -0.4793
   50MPD2    C4  779   0.833   2.705  10.648  0.2683 -0.9348  0.0764
   50MPD2    C5  780   0.818   2.569  10.631 -0.3240  0.0769 -0.1091
   50MPD2     H  781   0.773   2.801  10.332 -2.0912  0.3898  0.8556
   50MPD2    H1  782   0.844   2.737  10.751 -0.7767 -1.6109  0.3948
   50MPD2    H2  783   0.778   2.410  10.496 -0.0453  0.1673 -0.6837
   50MPD2    H3  784   0.836   2.508  10.719  1.7212  1.8730  0.7221
   50MPD2     N  785   0.840   2.936  10.567 -0.2460  0.2248 -0.5380
   50MPD2    H5  786   0.868   2.962  10.661  0.8245  0.8092 -1.0227
   50MPD2    N1  787   0.737   2.564  10.272  0.3026 -0.2973 -0.2324
   50MPD2    H7  788   0.746   2.630  10.196 -2.5496 -1.0124 -1.1931
   51TMC2    C1  789   2.260   2.510   1.361  0.1736 -0.0020 -0.1813
   51TMC2    C2  790   2.187   2.627   1.342 -0.3727 -0.4362  0.4484
   51TMC2    C3  791   2.265   2.740   1.344  0.3024 -0.1474  0.1186
   51TMC2    C4  792   2.398   2.514   1.374 -0.0194  0.0348 -0.1361
   51TMC2    C5  793   2.468   2.628   1.367 -0.5045  0.2958 -0.1437
   51TMC2    C6  794   2.403   2.751   1.359 -0.0945  0.4467 -0.7275
   51TMC2     C  795   2.181   2.386   1.402  0.7270  0.6567  0.3820
   51TMC2     O  796   2.242   2.282   1.396 -0.1976 -0.8012 -0.6670
   51TMC2     H  797   2.080   2.630   1.326 -0.5399 -0.9077  1.5451
   51TMC2    H1  798   2.455   2.421   1.372  0.7736  0.5334 -0.5493
   51TMC2    H2  799   2.462   2.842   1.367  1.6457 -0.6069 -1.4539
   51TMC2    C7  800   2.613   2.630   1.348  0.0903  0.1642  0.2530
   51TMC2    C8  801   2.202   2.867   1.362 -0.3785 -0.6475 -0.2071
   51TMC2    O1  802   2.654   2.726   1.283  0.2530  0.0949  0.0697
   51TMC2    O2  803   2.134   2.920   1.274 -0.1950 -0.0927 -0.0720
   51TMC2    O5  804   2.223   2.909   1.485 -0.1038  0.1943 -0.2905
   51TMC2    H5  805   2.265   2.848   1.550 -0.6259 -1.0530 -1.1255
   52MPD2     C  806   1.803   2.113   1.544  0.0328  0.0888 -0.0098
   52MPD2    C1  807   1.894   2.086   1.444  0.7458 -0.0367  1.3697
   52MPD2    C2  808   1.979   2.184   1.405 -0.2992 -0.2971 -0.7344
   52MPD2    C3  809   1.967   2.309   1.470 -0.0041  0.2716  0.0396
   52MPD2    C4  810   1.874   2.334   1.566  0.0530 -0.6686  0.4208
   52MPD2    C5  811   1.794   2.231   1.606  0.3736 -0.1291  0.2540
   52MPD2     H  812   2.056   2.165   1.332 -1.3134 -2.1593 -1.3400
   52MPD2    H1  813   1.868   2.423   1.627  0.1707 -1.1943  1.2039
   52MPD2    H2  814   1.733   2.045   1.591 -0.5135  0.2423 -0.5983
   52MPD2    H3  815   1.720   2.247   1.684 -1.0200  0.6815 -1.2376
   52MPD2     N  816   2.056   2.414   1.437  0.4532 -0.5389 -0.3034
   52MPD2    H5  817   2.049   2.510   1.470 -1.1996 -1.2667  1.4592
   52MPD2    N1  818   1.908   1.965   1.384 -0.2660 -1.0444  0.3021
   52MPD2    H7  819   1.992   1.959   1.327  0.8084 -1.5352  1.9131
   53TMC2    C1  820   2.020   4.385  11.858 -0.2963  0.1184 -0.4018
   53TMC2    C2  821   2.106   4.306  11.926 -0.5667 -1.2439 -0.0393
   53TMC2    C3  822   2.107   4.316  12.066 -0.0224  0.2790 -0.6039
   53TMC2    C4  823   1.955   4.490  11.915  0.1849  0.0722 -0.6817
   53TMC2    C5  824   1.968   4.508  12.051  0.6302 -0.1554 -0.8298
   53TMC2    C6  825   2.035   4.414  12.129 -0.0855 -0.4203  0.4532
   53TMC2     C  826   1.937   4.319  11.756  0.0495  0.4669  0.1004
   53TMC2     O  827   1.981   4.227  11.691  0.9714  0.2154 -0.1328
   53TMC2     H  828   2.165   4.232  11.874  0.3503 -0.7458  0.2820
   53TMC2    H1  829   1.898   4.566  11.863 -0.8148 -0.4819 -0.3846
   53TMC2    H2  830   2.024   4.416  12.237 -1.5061 -2.5552  0.3399
   53TMC2    C7  831   1.864   4.590  12.116  0.4165 -0.7423 -0.6232
   53TMC2    C8  832   2.187   4.225  12.147  0.1476 -0.4934  0.3068
   53TMC2    O1  833   1.771   4.624  12.043 -0.1156  0.4506  0.0372
   53TMC2    O2  834   2.252   4.138  12.090  0.5445  0.0415 -0.4278
   53TMC2    O5  835   2.220   4.285  12.261 -0.6130 -0.1833 -0.1607
   53TMC2    H5  836   2.170   4.369  12.267  3.2383  2.0788  0.5440
   54MPD2     C  837   1.734   4.307  11.535 -0.0944  0.7494  0.3483
   54MPD2    C1  838   1.709   4.347  11.664  0.2169 -0.8066 -0.0726
   54MPD2    C2  839   1.584   4.363  11.711 -0.0356 -0.2172  0.1260
   54MPD2    C3  840   1.476   4.325  11.630  0.2400 -0.2023  0.1963
   54MPD2    C4  841   1.501   4.296  11.493  0.3268 -0.5430  0.3165
   54MPD2    C5  842   1.624   4.288  11.449  0.0383 -0.2549 -0.5238
   54MPD2     H  843   1.575   4.394  11.814  2.8823  1.0848 -0.0003
   54MPD2    H1  844   1.421   4.281  11.421  0.1820 -0.7102  0.5107
   54MPD2    H2  845   1.837   4.304  11.503  0.1550  0.8090  1.1336
   54MPD2    H3  846   1.643   4.268  11.344  0.6402  0.5148 -0.5597
   54MPD2     N  847   1.349   4.326  11.672 -0.0945 -0.5526 -0.7712
   54MPD2    H5  848   1.273   4.297  11.611 -1.9527 -0.6495  1.5972
   54MPD2    N1  849   1.810   4.370  11.757 -0.1719  0.3798  0.8243
   54MPD2    H7  850   1.781   4.433  11.831 -1.3243  0.4302  0.3324
   55TMC2    C1  851   3.430   2.946   0.670  0.6606  0.0180 -0.2504
   55TMC2    C2  852   3.525   2.936   0.572  0.0521  0.4266  0.4699
   55TMC2    C3  853   3.557   2.812   0.528 -0.3824 -0.5124 -1.4632
   55TMC2    C4  854   3.375   2.837   0.726  0.0909 -0.0899  0.2074
   55TMC2    C5  855   3.412   2.714   0.693  0.3387  0.6648  0.0274
   55TMC2    C6  856   3.505   2.698   0.593 -0.3837  0.3565  0.3459
   55TMC2     C  857   3.340   3.055   0.677  0.2659  0.5030  0.2377
   55TMC2     O  858   3.247   3.043   0.754 -0.3389  0.5597 -0.1206
   55TMC2     H  859   3.574   3.025   0.532 -1.7165  0.1013 -2.3937
   55TMC2    H1  860   3.296   2.844   0.801  0.8120 -3.8000  1.3207
   55TMC2    H2  861   3.534   2.600   0.557  0.3690  0.9624 -0.6956
   55TMC2    C7  862   3.299   2.615   0.716  0.1897  0.3930 -0.2946
   55TMC2    C8  863   3.659   2.795   0.423 -0.4237  0.1875 -0.2405
   55TMC2    O1  864   3.187   2.664   0.739 -0.0988 -0.2147 -0.1331
   55TMC2    O2  865   3.717   2.690   0.423  0.0369 -0.5736  0.1580
   55TMC2    O5  866   3.616   2.868   0.315  0.2564  0.2326 -0.0315
   55TMC2    H5  867   3.569   2.952   0.337  1.8073  0.9540  0.5490
   56MPD2     C  868   3.330   3.373   0.502  0.2701  0.0215 -0.6248
   56MPD2    C1  869   3.277   3.263   0.560  0.9860  0.5685  0.0251
   56MPD2    C2  870   3.144   3.230   0.548  0.3086 -0.4294  0.3936
   56MPD2    C3  871   3.059   3.320   0.494  0.3374 -0.2084 -0.9418
   56MPD2    C4  872   3.107   3.437   0.438 -0.0235 -0.2450 -0.0204
   56MPD2    C5  873   3.244   3.456   0.435 -0.3006 -0.4892  1.0826
   56MPD2     H  874   3.102   3.142   0.594  4.2776 -2.1412  0.7384
   56MPD2    H1  875   3.050   3.507   0.378  1.7328  0.2534 -1.1070
   56MPD2    H2  876   3.436   3.395   0.505 -0.1941  1.7404  2.8152
   56MPD2    H3  877   3.271   3.554   0.400 -1.0056 -1.5985 -2.5677
   56MPD2     N  878   2.928   3.269   0.482  0.3574  0.2949 -0.0615
   56MPD2    H5  879   2.909   3.178   0.523  2.6520 -0.4302 -0.6308
   56MPD2    N1  880   3.368   3.169   0.611 -0.4444  0.1714  0.7343
   56MPD2    H7  881   3.465   3.190   0.589 -0.4123  0.7273  1.4419
   57TMC2    C1  882   1.547   3.776  13.483 -0.1558 -0.5587 -0.5362
   57TMC2    C2  883   1.499   3.651  13.463 -0.0962  0.2879 -0.0877
   57TMC2    C3  884   1.547   3.586  13.354 -0.5304  0.0278 -0.1577
   57TMC2    C4  885   1.646   3.831  13.405  0.1735 -0.4155 -0.3662
   57TMC2    C5  886   1.707   3.755  13.310 -0.8666  0.6676 -0.1095
   57TMC2    C6  887   1.657   3.629  13.283  0.2861 -0.0552 -0.2683
   57TMC2     C  888   1.492   3.856  13.594 -0.2387 -0.3875 -0.0978
   57TMC2     O  889   1.490   3.981  13.588 -0.1149  0.0911 -0.0354
   57TMC2     H  890   1.433   3.594  13.528  0.2967  0.1316  0.1773
   57TMC2    H1  891   1.677   3.932  13.431 -0.2365 -0.5431  0.6234
   57TMC2    H2  892   1.707   3.557  13.219  2.1332 -0.4973  1.7031
   57TMC2    C7  893   1.845   3.796  13.274 -0.6646 -0.5633  0.1132
   57TMC2    C8  894   1.528   3.440  13.357  0.2327  0.0139 -1.0331
   57TMC2    O1  895   1.863   3.919  13.273 -0.1561  0.3160  0.0358
   57TMC2    O2  896   1.624   3.366  13.361 -0.7723  0.4399 -0.7742
   57TMC2    O5  897   1.402   3.405  13.365  0.7188  0.2393 -0.9338
   57TMC2    H5  898   1.344   3.476  13.330 -1.5959 -1.2195 -0.0910
   58MPD2     C  899   1.324   3.920  14.057 -0.0032  0.3851  0.6659
   58MPD2    C1  900   1.282   3.978  13.942  0.2727 -0.2420  0.3327
   58MPD2    C2  901   1.339   3.930  13.827  0.2957 -0.1512  0.0070
   58MPD2    C3  902   1.423   3.823  13.825  0.0327 -0.9756  0.1903
   58MPD2    C4  903   1.456   3.758  13.942 -0.4332  0.0569 -0.0558
   58MPD2    C5  904   1.404   3.810  14.056 -0.3319 -0.0546  0.8566
   58MPD2     H  905   1.312   3.981  13.736  1.7765  0.3540 -0.1521
   58MPD2    H1  906   1.524   3.675  13.958  0.0520  0.2690 -1.0432
   58MPD2    H2  907   1.286   3.956  14.153 -0.6310 -0.2659  0.6645
   58MPD2    H3  908   1.433   3.768  14.151  2.8437 -0.2862 -0.2277
   58MPD2     N  909   1.474   3.777  13.705 -0.4467  0.3952  0.1122
   58MPD2    H5  910   1.504   3.681  13.697  2.5997  1.5461 -2.5263
   58MPD2    N1  911   1.187   4.088  13.926  0.0611  0.4849 -0.1131
   58MPD2    H7  912   1.162   4.111  13.830 -0.2760 -0.3418 -0.2249
   59TMC2    C1  913   4.136   3.660  12.676  0.1356  0.0571  0.0324
   59TMC2    C2  914   4.002   3.650  12.633 -0.1516 -0.3411  0.4724
   59TMC2    C3  915   3.964   3.722  12.521  0.2785 -0.3251 -0.4082
   59TMC2    C4  916   4.230   3.726  12.593 -0.1903  0.2526 -0.1049
   59TMC2    C5  917   4.188   3.781  12.480  0.4226  0.1215 -0.8696
   59TMC2    C6  918   4.055   3.799  12.449 -0.4243 -0.3551 -0.3789
   59TMC2     C  919   4.164   3.619  12.807  0.2950 -0.1412  0.1008
   59TMC2     O  920   4.106   3.520  12.841  0.5975  0.4605  0.1491
   59TMC2     H  921   3.932   3.589  12.690  0.2727 -1.5618 -0.3033
   59TMC2    H1  922   4.336   3.712  12.605 -0.3340 -1.4997 -0.8906
   59TMC2    H2  923   4.021   3.873  12.377 -0.5572  0.4253  0.4912
   59TMC2    C7  924   4.288   3.821  12.387  0.1613  0.5280  0.2586
   59TMC2    C8  925   3.826   3.734  12.489  0.3309  0.5585  0.5592
   59TMC2    O1  926   4.385   3.751  12.364 -0.3263 -0.4862  0.3449
   59TMC2    O2  927   3.737   3.724  12.574  0.2805 -0.4779  0.1222
   59TMC2    O5  928   3.798   3.773  12.363  0.2675  0.2884  0.0348
   59TMC2    H5  929   3.869   3.748  12.301 -0.7511 -0.7905 -0.6937
   60MPD2     C  930   4.212   3.585  13.094 -0.2504 -0.3167 -0.0400
   60MPD2    C1  931   4.270   3.682  13.016 -0.4766 -0.0320  0.0241
   60MPD2    C2  932   4.361   3.764  13.079 -0.2472 -0.1253  0.3900
   60MPD2    C3  933   4.387   3.762  13.215 -0.1300 -0.3204 -0.1168
   60MPD2    C4  934   4.317   3.670  13.294 -0.6619  0.1990 -0.0845
   60MPD2    C5  935   4.239   3.580  13.227  0.2211 -0.1281 -1.0017
   60MPD2     H  936   4.405   3.848  13.028  0.6607 -1.7844 -1.5291
   60MPD2    H1  937   4.330   3.663  13.401  0.1073 -0.7950 -0.2427
   60MPD2    H2  938   4.139   3.509  13.065 -3.4390  3.0387 -0.8132
   60MPD2    H3  939   4.186   3.503  13.283  1.8880 -1.4365 -1.2422
   60MPD2     N  940   4.475   3.853  13.281 -0.2344 -0.3420 -0.7080
   60MPD2    H5  941   4.518   3.809  13.361 -0.2980  0.3499 -0.2914
   60MPD2    N1  942   4.253   3.697  12.877  0.0921  0.2292  0.5757
   60MPD2    H7  943   4.295   3.772  12.822  1.3479 -1.9255 -1.3789
   61TMC2    C1  944   3.795   4.738  15.359 -0.5666 -1.1265  0.0440
   61TMC2    C2  945   3.805   4.648  15.463 -0.1285  0.2670  0.6287
   61TMC2    C3  946   3.714   4.665  15.569  0.1816  0.0984  0.9519
   61TMC2    C4  947   3.709   0.103  15.363 -0.5440 -0.5770  0.3425
   61TMC2    C5  948   3.613   0.110  15.457 -0.0750  0.9733  0.6754
   61TMC2    C6  949   3.618   0.023  15.566 -0.2214 -0.0541  0.0947
   61TMC2     C  950   3.903   4.738  15.261 -0.1964  0.4568  0.3638
   61TMC2     O  951   3.963   4.633  15.250  0.1347  0.3806  0.1118
   61TMC2     H  952   3.891   4.582  15.467  1.1277  1.7047 -2.5952
   61TMC2    H1  953   3.700   0.161  15.271  1.4160 -2.1866 -0.8777
   61TMC2    H2  954   3.557   0.050  15.651 -0.9743 -1.6178  0.0674
   61TMC2    C7  955   3.563   0.247  15.473 -0.1558 -0.2283  0.0187
   61TMC2    C8  956   3.721   4.590  15.693 -0.0503  0.0944  0.3002
   61TMC2    O1  957   3.559   0.311  15.368 -0.1243  0.7979 -0.7013
   61TMC2    O2  958   3.719   4.655  15.800  0.0515 -0.3102  0.3441
   61TMC2    O5  959   3.795   4.481  15.674  0.3599  0.0948  0.1285
   61TMC2    H5  960   3.781   4.450  15.581  1.3858 -0.5322  0.1802
   62MPD2     C  961   4.123   0.053  15.057 -0.1607 -0.7353  0.1686
   62MPD2    C1  962   4.031   0.142  15.098 -0.3070  0.0058 -0.0384
   62MPD2    C2  963   4.028   0.264  15.043  0.8318 -0.7768  0.0561
   62MPD2    C3  964   4.119   0.292  14.936 -0.3616  0.3352 -0.2466
   62MPD2    C4  965   4.210   0.201  14.896 -0.2983  0.1845 -0.1528
   62MPD2    C5  966   4.207   0.077  14.954 -0.5298  0.2424  0.4263
   62MPD2     H  967   3.958   0.337  15.083  2.3282  0.9592 -0.4675
   62MPD2    H1  968   4.290   0.230  14.828  2.0640 -2.1970  1.5813
   62MPD2    H2  969   4.124   4.688  15.085 -1.3357 -0.5662  0.8588
   62MPD2    H3  970   4.278   0.004  14.918  1.3669  0.7563  3.0552
   62MPD2     N  971   4.095   0.416  14.877 -0.4647 -0.2517 -0.5417
   62MPD2    H5  972   4.008   0.461  14.902 -0.4876 -0.6622  0.1097
   62MPD2    N1  973   3.931   0.117  15.195  0.6409 -0.6950  0.6443
   62MPD2    H7  974   3.875   0.198  15.219 -0.5513 -1.3785  0.2080
   63TMC2    C1  975   2.790   0.262   9.664  0.4260  0.4252 -0.0683
   63TMC2    C2  976   2.793   0.254   9.524  0.4556  0.8933 -0.0314
   63TMC2    C3  977   2.841   0.361   9.459 -0.1262 -0.2104 -0.4341
   63TMC2    C4  978   2.822   0.384   9.726  0.4977 -0.5014  0.2910
   63TMC2    C5  979   2.860   0.485   9.648 -0.2866 -0.5947  0.2996
   63TMC2    C6  980   2.874   0.478   9.514 -0.4544  0.9986 -0.3864
   63TMC2     C  981   2.762   0.139   9.734  0.6821 -0.4438 -0.6117
   63TMC2     O  982   2.736   0.033   9.670  0.7088 -0.0248  0.3074
   63TMC2     H  983   2.770   0.158   9.478  0.5486  0.2918  1.1896
   63TMC2    H1  984   2.815   0.394   9.833 -2.7329  0.9353 -0.0644
   63TMC2    H2  985   2.927   0.554   9.458 -2.0035  3.0165  0.9063
   63TMC2    C7  986   2.846   0.622   9.708 -0.0898  0.4021  0.1959
   63TMC2    C8  987   2.842   0.340   9.313  0.2591 -0.2358 -0.3783
   63TMC2    O1  988   2.864   0.626   9.828 -0.2366  0.0715  0.1949
   63TMC2    O2  989   2.824   0.431   9.234  0.3916 -0.2912 -0.1818
   63TMC2    O5  990   2.905   0.226   9.279  0.4263 -0.1430 -0.1520
   63TMC2    H5  991   2.923   0.164   9.353  0.3811 -2.3996 -2.0308
   64MPD2     C  992   2.669   4.602  10.142 -1.0422 -0.2498  0.8013
   64MPD2    C1  993   2.748   4.705  10.176  0.2023 -0.4973  0.0512
   64MPD2    C2  994   2.796   0.042  10.077  0.1653 -0.5312 -0.3669
   64MPD2    C3  995   2.735   0.051   9.955 -0.3431  0.5543 -1.0600
   64MPD2    C4  996   2.645   4.699   9.919  0.3748 -0.5793  0.3969
   64MPD2    C5  997   2.622   4.600  10.011  0.1101  0.4015  0.3831
   64MPD2     H  998   2.864   0.123  10.098  1.2728 -1.3604 -0.7893
   64MPD2    H1  999   2.593   4.696   9.824  0.9076  0.5695  0.0785
   64MPD2    H2 1000   2.649   4.523  10.214  0.3693  0.4948  2.0022
   64MPD2    H3 1001   2.550   4.524   9.982 -3.5425  4.2161 -0.4705
   64MPD2     N 1002   2.776   0.154   9.868  0.1580  0.0009  0.0330
   64MPD2    H5 1003   2.830   0.229   9.909 -1.7593  1.1951  0.3929
   64MPD2    N1 1004   2.801   4.723  10.307 -0.1467  0.5110  0.1189
   64MPD2    H7 1005   2.867   0.060  10.320 -1.8811  2.0766 -0.2785
   65TMC2    C1 1006   4.217   4.661  15.388  0.2739  0.1171 -0.0612
   65TMC2    C2 1007   4.321   4.646  15.310 -0.1649  0.3155 -0.5981
   65TMC2    C3 1008   4.395   0.013  15.280 -0.4711 -0.7453  0.3332
   65TMC2    C4 1009   4.170   0.045  15.433 -0.1626  0.5197  0.0250
   65TMC2    C5 1010   4.242   0.157  15.405 -0.3234 -0.4250 -0.2103
   65TMC2    C6 1011   4.364   0.138  15.332  0.1111 -0.7717  1.3206
   65TMC2     C 1012   4.190   4.564  15.487 -0.2393 -0.6196  0.2320
   65TMC2     O 1013   4.153   4.601  15.597  0.2292 -0.4875 -0.5619
   65TMC2     H 1014   4.347   4.552  15.262  2.0223  0.7061 -0.1481
   65TMC2    H1 1015   4.081   0.054  15.495 -0.0336 -1.8361  0.5390
   65TMC2    H2 1016   4.433   0.221  15.325  2.0325 -2.3935  1.1272
   65TMC2    C7 1017   4.192   0.286  15.425 -0.2662  0.3004  0.1374
   65TMC2    C8 1018   4.517   4.739  15.204 -0.4316  0.6176 -0.5944
   65TMC2    O1 1019   4.211   0.370  15.334 -0.3669  0.4583  0.2340
   65TMC2    O2 1020   4.567   4.623  15.190 -0.1044 -0.0634  0.6222
   65TMC2    O5 1021   4.566   0.114  15.154 -0.9335  0.4282  0.1139
   65TMC2    H5 1022   4.503   0.189  15.154 -1.1705  0.2218  1.8551
   66MPD2     C 1023   4.201   4.317  15.650 -0.3849  0.6140  1.1905
   66MPD2    C1 1024   4.188   4.317  15.511 -0.3303  0.0121  0.0958
   66MPD2    C2 1025   4.185   4.199  15.437  0.1351 -0.1196 -0.1468
   66MPD2    C3 1026   4.210   4.080  15.500  0.0312  0.1623  0.0574
   66MPD2    C4 1027   4.225   4.082  15.639  0.2622  0.5795  1.1013
   66MPD2    C5 1028   4.227   4.199  15.712  0.0951  0.0905 -0.0848
   66MPD2     H 1029   4.163   4.200  15.331 -1.0852 -2.7500  0.0965
   66MPD2    H1 1030   4.265   4.000  15.697 -0.2843 -2.6431 -3.1470
   66MPD2    H2 1031   4.196   4.406  15.712  1.5601  1.3729  0.2814
   66MPD2    H3 1032   4.241   4.196  15.819  1.2993 -0.4895 -0.2558
   66MPD2     N 1033   4.228   3.956  15.435 -0.3203 -0.3242 -0.5543
   66MPD2    H5 1034   4.230   3.874  15.494 -1.8755 -0.9871 -1.4257
   66MPD2    N1 1035   4.187   4.439  15.440 -0.6947  0.1661 -0.6268
   66MPD2    H7 1036   4.187   4.435  15.339  1.2202  2.6449 -0.7495
   67TMC2    C1 1037   4.036   4.174  14.388  0.3141  0.2841  0.0307
   67TMC2    C2 1038   3.927   4.171  14.467 -0.1741  0.0327 -0.4681
   67TMC2    C3 1039   3.936   4.108  14.587 -0.3169  0.2127 -0.4219
   67TMC2    C4 1040   4.156   4.116  14.429 -0.6857 -0.1902 -0.1070
   67TMC2    C5 1041   4.157   4.061  14.553  0.1064 -0.4509 -0.8564
   67TMC2    C6 1042   4.050   4.052  14.632  0.3065 -0.0106  0.3474
   67TMC2     C 1043   4.018   4.156  14.245  0.5979  0.4204 -0.1243
   67TMC2     O 1044   4.102   4.091  14.183 -0.6841 -0.0754 -0.0149
   67TMC2     H 1045   3.829   4.208  14.440  0.0349  1.2726  0.4583
   67TMC2    H1 1046   4.233   4.102  14.354  0.4494  1.6807  0.7102
   67TMC2    H2 1047   4.051   3.992  14.722  0.5873 -1.8640 -0.9041
   67TMC2    C7 1048   4.282   3.999  14.595 -0.6560 -0.3020  0.3921
   67TMC2    C8 1049   3.821   4.082  14.676 -0.2569  0.9608  0.0393
   67TMC2    O1 1050   4.351   3.950  14.508 -0.1367  0.1364  0.9590
   67TMC2    O2 1051   3.707   4.074  14.630  0.1482  0.2005  0.3559
   67TMC2    O5 1052   3.848   4.115  14.808 -0.5195  0.3569  0.1905
   67TMC2    H5 1053   3.935   4.152  14.834  0.4647  0.0868 -2.6895
   68MPD2     C 1054   3.902   4.105  13.986 -0.7112 -0.6446 -0.0790
   68MPD2    C1 1055   3.841   4.169  14.088 -1.3570 -0.0365  0.7521
   68MPD2    C2 1056   3.714   4.213  14.070 -0.2872  1.0944 -0.4168
   68MPD2    C3 1057   3.650   4.186  13.948 -1.0446 -0.8981  0.1240
   68MPD2    C4 1058   3.716   4.120  13.841 -0.0796 -0.9777  0.1573
   68MPD2    C5 1059   3.847   4.081  13.867  0.6693  0.1827  0.0050
   68MPD2     H 1060   3.666   4.274  14.147  2.1233 -1.9245  3.4660
   68MPD2    H1 1061   3.663   4.100  13.748  3.3884 -0.1208 -2.0152
   68MPD2    H2 1062   4.003   4.064  13.991 -0.1600  0.6879 -0.0773
   68MPD2    H3 1063   3.899   4.035  13.784  0.3460 -0.1376 -0.0243
   68MPD2     N 1064   3.512   4.222  13.924 -0.2895  0.3011  0.2124
   68MPD2    H5 1065   3.477   4.183  13.837  1.7433  0.8062 -0.8347
   68MPD2    N1 1066   3.902   4.202  14.205  0.0917 -0.1576 -0.1950
   68MPD2    H7 1067   3.847   4.263  14.264 -1.9195 -0.3711 -1.8425
   69TMC2    C1 1068   1.253   1.084  12.466  0.1679  0.3726  0.2624
   69TMC2    C2 1069   1.218   1.208  12.505  0.6078 -0.2383 -0.4821
   69TMC2    C3 1070   1.210   1.297  12.406  0.0605  0.8708 -0.1155
   69TMC2    C4 1071   1.304   1.056  12.339  0.9735 -0.1526  0.2686
   69TMC2    C5 1072   1.298   1.146  12.242 -0.1827 -0.4041 -0.4572
   69TMC2    C6 1073   1.254   1.273  12.277  0.1132  0.5160  0.4875
   69TMC2     C 1074   1.280   0.979  12.566  0.1365  0.3010 -0.2981
   69TMC2     O 1075   1.224   0.962  12.673  0.8227 -0.1667  0.1339
   69TMC2     H 1076   1.185   1.221  12.607  0.6912  0.3832 -0.5335
   69TMC2    H1 1077   1.323   0.957  12.301 -0.8103 -0.3058 -0.2328
   69TMC2    H2 1078   1.247   1.350  12.201 -1.2995 -0.5594 -0.4746
   69TMC2    C7 1079   1.395   1.136  12.132  0.5679  0.3256  0.3192
   69TMC2    C8 1080   1.134   1.418  12.444 -0.7840 -1.1835 -0.1694
   69TMC2    O1 1081   1.477   1.047  12.140  0.4668 -0.1320 -0.0993
   69TMC2    O2 1082   1.069   1.412  12.546 -0.9127  0.1929 -0.1503
   69TMC2    O5 1083   1.215   1.518  12.407  0.1355 -0.1267  0.4492
   69TMC2    H5 1084   1.277   1.495  12.335  0.9118 -1.4638  1.5531
   70MPD2     C 1085   1.539   0.751  12.454 -0.5062 -0.4194 -0.0573
   70MPD2    C1 1086   1.437   0.783  12.541  0.4833  0.1668  0.1040
   70MPD2    C2 1087   1.369   0.696  12.629 -0.0620 -0.1104  0.1934
   70MPD2    C3 1088   1.416   0.567  12.628 -0.6628 -0.0420 -0.6814
   70MPD2    C4 1089   1.526   0.534  12.543  0.1281  0.1774  0.3277
   70MPD2    C5 1090   1.581   0.623  12.457 -0.0506 -0.0516  0.0647
   70MPD2     H 1091   1.285   0.724  12.692  0.6775  2.1893  0.1416
   70MPD2    H1 1092   1.553   0.429  12.543 -1.4185 -0.2351  2.4483
   70MPD2    H2 1093   1.564   0.821  12.375 -0.4531  1.4543  1.6343
   70MPD2    H3 1094   1.662   0.598  12.388 -1.2388 -1.6376 -0.7688
   70MPD2     N 1095   1.360   0.461  12.710 -0.8890 -0.3030  0.1372
   70MPD2    H5 1096   1.417   0.376  12.707  2.3257  1.8087  1.2175
   70MPD2    N1 1097   1.394   0.914  12.518  0.0491  0.0436  0.1423
   70MPD2    H7 1098   1.448   0.985  12.471  0.7530 -2.5975 -3.0759
   71TMC2    C1 1099   0.325   0.406   1.562 -0.1547 -0.1335  0.7985
   71TMC2    C2 1100   0.417   0.300   1.555 -1.1031  0.4828  0.4147
   71TMC2    C3 1101   0.401   0.196   1.644  0.7015  0.1674  0.4566
   71TMC2    C4 1102   0.203   0.394   1.630  0.7142  0.0685  0.7794
   71TMC2    C5 1103   0.180   0.279   1.695  0.4029  0.1524  0.4427
   71TMC2    C6 1104   0.278   0.176   1.699 -0.5092 -0.1368  0.0163
   71TMC2     C 1105   0.349   0.535   1.500  0.5470  0.1048 -0.3508
   71TMC2     O 1106   0.256   0.608   1.477  0.1898  0.0092 -0.2163
   71TMC2     H 1107   0.513   0.302   1.503 -0.5856  0.7871  1.3859
   71TMC2    H1 1108   0.130   0.474   1.622 -1.2368 -1.7628  0.2182
   71TMC2    H2 1109   0.246   0.087   1.753  0.4752 -0.2684  0.3837
   71TMC2    C7 1110   0.081   0.275   1.794 -0.3594 -0.4873 -0.1867
   71TMC2    C8 1111   0.492   0.084   1.642  0.5339  0.4668 -0.1768
   71TMC2    O1 1112   0.046   0.162   1.839  0.0569 -0.2732 -0.1621
   71TMC2    O2 1113   0.559   0.055   1.543  0.0288  0.1053  0.2080
   71TMC2    O5 1114   0.531   0.053   1.766  0.3342 -0.0556  0.3166
   71TMC2    H5 1115   0.491   0.106   1.838 -1.2213  0.2957 -0.7944
   72MPD2     C 1116   0.657   0.883   1.277  0.1861  0.0257  0.5144
   72MPD2    C1 1117   0.520   0.867   1.273 -0.1440 -0.5397  0.1810
   72MPD2    C2 1118   0.462   0.760   1.337  0.4324  0.4313 -0.1644
   72MPD2    C3 1119   0.536   0.667   1.407 -0.3806 -0.2369  0.3896
   72MPD2    C4 1120   0.676   0.687   1.410  0.3622 -0.1017 -0.1431
   72MPD2    C5 1121   0.735   0.793   1.346  0.4128 -0.1697  0.0394
   72MPD2     H 1122   0.354   0.754   1.335  0.4556 -0.4867  1.0503
   72MPD2    H1 1123   0.743   0.620   1.461 -0.0163 -0.5622 -0.2548
   72MPD2    H2 1124   0.707   0.969   1.235 -1.5387  0.4010 -0.7886
   72MPD2    H3 1125   0.841   0.814   1.361  0.0673  0.6626  1.3356
   72MPD2     N 1126   0.485   0.561   1.479  0.2699  0.2567  1.0762
   72MPD2    H5 1127   0.557   0.500   1.516  0.2503 -2.4763 -3.4780
   72MPD2    N1 1128   0.434   0.950   1.203 -0.2055 -0.6741 -0.1932
   72MPD2    H7 1129   0.334   0.953   1.220 -0.0334 -0.0574  0.7299
   73TMC2    C1 1130   4.687   2.568  14.522 -0.1456  0.0336 -0.3876
   73TMC2    C2 1131   0.003   2.517  14.406  0.2891 -0.3100 -0.5987
   73TMC2    C3 1132   0.117   2.587  14.359 -0.1392 -0.2832  0.0828
   73TMC2    C4 1133   0.018   2.664  14.591 -0.9757  0.2650  0.0502
   73TMC2    C5 1134   0.139   2.720  14.548 -0.1944 -0.4913  0.1670
   73TMC2    C6 1135   0.182   2.688  14.426  0.1479  0.8256 -0.2701
   73TMC2     C 1136   4.556   2.618  14.495 -0.0936  0.2277  0.4548
   73TMC2     O 1137   4.543   2.735  14.524  0.3745 -0.1121 -0.1560
   73TMC2     H 1138   4.703   2.431  14.353 -2.9206  0.0746  1.1369
   73TMC2    H1 1139   4.725   2.686  14.692 -0.1219  0.3383  0.3086
   73TMC2    H2 1140   0.270   2.736  14.384  1.6081 -1.1617  0.5054
   73TMC2    C7 1141   0.152   2.863  14.579  0.0500 -0.3318  0.6165
   73TMC2    C8 1142   0.186   2.510  14.259 -0.1204  0.1997 -0.1521
   73TMC2    O1 1143   0.257   2.914  14.569  0.3634 -0.5593  0.1501
   73TMC2    O2 1144   0.219   2.395  14.282 -0.0921  0.1577  0.0734
   73TMC2    O5 1145   0.104   2.534  14.152 -0.3962  0.3986  0.0024
   73TMC2    H5 1146   0.076   2.628  14.150 -0.3022  0.4342  0.3502
   74MPD2     C 1147   4.077   2.645  14.302 -0.3992 -0.3158 -0.4363
   74MPD2    C1 1148   4.165   2.740  14.355 -0.5861 -0.9076 -0.4165
   74MPD2    C2 1149   4.283   2.701  14.413  0.1583  0.1283 -0.1177
   74MPD2    C3 1150   4.331   2.570  14.398  0.8683 -0.1333  0.2707
   74MPD2    C4 1151   4.242   2.475  14.362 -0.7442  0.9065 -0.2976
   74MPD2    C5 1152   4.115   2.515  14.318  0.3131 -0.0363  0.1648
   74MPD2     H 1153   4.351   2.775  14.453  1.0508  0.2848 -1.9488
   74MPD2    H1 1154   4.272   2.372  14.346 -0.0508  0.9136  0.9751
   74MPD2    H2 1155   3.984   2.673  14.252 -0.8690 -0.8455  0.1419
   74MPD2    H3 1156   4.050   2.433  14.290 -1.4532  1.2302  0.5622
   74MPD2     N 1157   4.463   2.530  14.442  0.5245 -0.2897 -0.9564
   74MPD2    H5 1158   4.479   2.430  14.440  0.0027 -0.3655 -1.3799
   74MPD2    N1 1159   4.134   2.880  14.345 -0.0206 -0.2132  0.2923
   74MPD2    H7 1160   4.054   2.894  14.284 -0.0474 -0.2049  0.3295
   75TMC2    C1 1161   3.312   4.346  13.935  0.9460 -0.4478  0.2229
   75TMC2    C2 1162   3.222   4.406  14.016  0.9345  0.6438 -0.4057
   75TMC2    C3 1163   3.122   4.481  13.960 -0.6878  0.4951  0.4217
   75TMC2    C4 1164   3.313   4.369  13.799  0.3220 -0.1189  0.1715
   75TMC2    C5 1165   3.228   4.463  13.754  0.4165  0.0304  0.4451
   75TMC2    C6 1166   3.131   4.526  13.826 -0.2161 -0.2497 -0.9796
   75TMC2     C 1167   3.429   4.293  14.004  0.4506 -0.0891 -0.0120
   75TMC2     O 1168   3.455   4.354  14.108  0.2653 -0.2536  0.2647
   75TMC2     H 1169   3.230   4.388  14.122 -0.4241  1.0601 -0.2292
   75TMC2    H1 1170   3.393   4.332  13.736  0.3610 -1.6531  1.1284
   75TMC2    H2 1171   3.061   4.601  13.791  0.3658  1.4724  1.4787
   75TMC2    C7 1172   3.213   4.466  13.608 -0.4311 -0.7373 -0.7275
   75TMC2    C8 1173   3.028   4.556  14.041 -0.2523 -1.0979 -0.0146
   75TMC2    O1 1174   3.233   4.360  13.547 -0.1099 -0.4963  0.2752
   75TMC2    O2 1175   3.041   4.563  14.163 -0.1806 -0.4501  0.1936
   75TMC2    O5 1176   2.917   4.562  13.969  0.2087  0.0507  0.2629
   75TMC2    H5 1177   2.913   4.507  13.889 -2.8884  0.8420 -0.1166
   76TMC2    C1 1178   2.349   4.708  11.611 -0.6497 -0.4387  0.0941
   76TMC2    C2 1179   2.283   4.638  11.505  0.1482 -0.4848 -0.5720
   76TMC2    C3 1180   2.262   4.502  11.516 -0.7910  0.1497  0.2399
   76TMC2    C4 1181   2.402   4.630  11.716 -0.8632  0.1101 -0.8188
   76TMC2    C5 1182   2.395   4.493  11.701  0.0130 -0.6943  0.2591
   76TMC2    C6 1183   2.324   4.422  11.608 -0.3572  0.0463 -0.1186
   76TMC2     C 1184   2.336   0.111  11.634 -0.2737 -0.2584 -0.3305
   76TMC2     O 1185   2.269   0.179  11.559 -0.0184 -0.2155  0.2059
   76TMC2     H 1186   2.234   4.699  11.431  0.1967  1.6184  1.1384
   76TMC2    H1 1187   2.434   4.674  11.810  0.7492 -1.4431 -0.6473
   76TMC2    H2 1188   2.296   4.318  11.623 -2.2486  0.4774 -0.6522
   76TMC2    C7 1189   2.456   4.414  11.800 -0.3412 -0.6523 -0.3310
   76TMC2    C8 1190   2.150   4.439  11.447 -0.5638  0.6481  0.4782
   76TMC2    O1 1191   2.414   4.298  11.814  0.4321  0.4302  0.2013
   76TMC2    O2 1192   2.134   4.321  11.428  0.0746 -0.2605 -0.3299
   76TMC2    O5 1193   2.056   4.535  11.418  0.0297  0.2571  0.0808
   76TMC2    H5 1194   2.047   4.603  11.488  0.3026 -0.5774  0.9213
   77MPD2     C 1195   2.413   0.529  11.923 -0.6075  1.0063  0.1690
   77MPD2    C1 1196   2.313   0.508  11.828  0.1087  0.2808 -0.0705
   77MPD2    C2 1197   2.312   0.383  11.768  1.0284 -0.2718 -0.2182
   77MPD2    C3 1198   2.402   0.285  11.802  0.5006 -0.4007  0.2096
   77MPD2    C4 1199   2.496   0.310  11.899  0.5590 -0.6053 -0.3827
   77MPD2    C5 1200   2.505   0.433  11.954  0.1011  0.1295  0.0292
   77MPD2     H 1201   2.230   0.357  11.702  1.5269 -0.4675 -0.7616
   77MPD2    H1 1202   2.564   0.235  11.937  0.6313  0.7294  2.1461
   77MPD2    H2 1203   2.436   0.619  11.979  1.0248 -0.7681  2.3216
   77MPD2    H3 1204   2.579   0.446  12.032  0.1980  0.0111 -0.0425
   77MPD2     N 1205   2.411   0.157  11.745 -0.3827 -0.9198 -0.3485
   77MPD2    H5 1206   2.488   0.100  11.782 -0.8424 -1.3705 -0.0837
   77MPD2    N1 1207   2.216   0.598  11.778  0.4573  0.2545  0.4429
   77MPD2    H7 1208   2.154   0.567  11.704  0.5063 -0.2684  0.6138
   78TMC2    C1 1209   4.334   0.151   1.668 -0.5627  0.4942  0.2001
   78TMC2    C2 1210   4.368   0.082   1.777  0.4314  0.3150  1.0923
   78TMC2    C3 1211   4.494   0.033   1.776 -0.6429 -0.1808 -0.1463
   78TMC2    C4 1212   4.417   0.177   1.561 -0.2196  0.1760  0.0399
   78TMC2    C5 1213   4.544   0.127   1.569 -0.4322  0.0951 -0.0391
   78TMC2    C6 1214   4.585   0.046   1.670  0.1091 -0.0676 -0.6162
   78TMC2     C 1215   4.207   0.214   1.669  0.0906  0.0858 -0.4758
   78TMC2     O 1216   4.123   0.158   1.739 -0.1807  0.7340 -0.1121
   78TMC2     H 1217   4.303   0.057   1.860 -0.1319  2.6133  1.3499
   78TMC2    H1 1218   4.390   0.244   1.480 -0.8714  1.7704  1.5712
   78TMC2    H2 1219   4.679   4.733   1.670  0.3776  0.4057  2.3922
   78TMC2    C7 1220   4.638   0.133   1.455  0.2383 -0.2140 -0.4397
   78TMC2    C8 1221   4.524   4.689   1.885 -0.1653 -0.7899 -0.3815
   78TMC2    O1 1222   0.014   0.119   1.487  0.2790  0.8538 -0.1767
   78TMC2    O2 1223   4.446   4.612   1.943  0.1459  0.2730  0.4771
   78TMC2    O5 1224   4.656   4.695   1.909 -0.1928  0.6543 -0.4218
   78TMC2    H5 1225   4.701   0.036   1.876  0.7858 -0.3032 -1.4120
   79MPD1     C 1226   3.884   0.544   1.457  0.2304  0.7627 -0.9034
   79MPD1    C1 1227   3.855   0.429   1.523  0.4521  0.0520  0.1066
   79MPD1    C2 1228   3.957   0.360   1.581 -0.0488 -0.2730  0.1222
   79MPD1    C3 1229   4.087   0.396   1.553  0.0540 -0.1641  0.3827
   79MPD1    C4 1230   4.120   0.514   1.486 -0.2663 -0.0806  0.1374
   79MPD1    C5 1231   4.013   0.591   1.447 -0.2254  0.3063 -0.1048
   79MPD1     H 1232   3.919   0.277   1.640 -1.4675  0.8198  0.7731
   79MPD1    H1 1233   4.221   0.549   1.473 -0.2468 -0.7920 -1.5748
   79MPD1    H2 1234   3.804   0.608   1.420  1.3309  1.3719 -2.2283
   79MPD1    H3 1235   4.037   0.688   1.406 -2.5500  0.9949  0.1707
   79MPD1     N 1236   4.203   0.324   1.585  0.3948 -0.5085 -0.3048
   79MPD1    H5 1237   4.292   0.361   1.552 -0.0595  0.9995  0.1820
   79MPD1    N1 1238   3.717   0.405   1.563  0.3355  0.5522 -0.4533
   79MPD1    H6 1239   3.648   0.450   1.503  0.4457 -0.3450 -1.2654
   79MPD1    H7 1240   3.692   0.306   1.561  0.6883  0.4345  0.8090
   80TMC2    C1 1241   1.653   4.101  11.980  0.2906 -0.3510 -0.5886
   80TMC2    C2 1242   1.687   4.069  11.853  0.0160 -0.7489  0.0982
   80TMC2    C3 1243   1.588   4.034  11.763  0.0739  0.0682 -0.3294
   80TMC2    C4 1244   1.527   4.070  12.024  0.9665 -0.4239 -0.8663
   80TMC2    C5 1245   1.425   4.038  11.933  0.4056 -0.5103  0.5834
   80TMC2    C6 1246   1.457   4.017  11.803 -0.6468 -0.3610 -0.0772
   80TMC2     C 1247   1.764   4.111  12.068  0.6484  0.0176 -0.0507
   80TMC2     O 1248   1.874   4.065  12.039  0.0685  0.4262 -0.4263
   80TMC2     H 1249   1.786   4.091  11.817  0.9884 -2.1882  1.9141
   80TMC2    H1 1250   1.524   4.065  12.132  1.8118  0.2116 -0.8154
   80TMC2    H2 1251   1.373   4.000  11.736 -0.9903  1.6788 -0.1813
   80TMC2    C7 1252   1.292   4.033  11.975 -1.0052 -0.1240  1.1972
   80TMC2    C8 1253   1.638   3.963  11.643 -0.4905 -0.0656  0.6278
   80TMC2    O1 1254   1.209   4.006  11.889 -0.1073  0.0812  0.0130
   80TMC2    O2 1255   1.762   3.956  11.618  0.2335 -0.2584  0.3877
   80TMC2    O5 1256   1.541   3.961  11.554  0.2013 -0.2501  0.4928
   80TMC2    H5 1257   1.456   3.936  11.598  0.0489 -0.9310 -0.1804
   81MPD2     C 1258   1.902   4.152  12.318 -0.0113  0.0398  0.3129
   81MPD2    C1 1259   1.792   4.224  12.276 -0.6429 -0.5507 -0.3324
   81MPD2    C2 1260   1.736   4.319  12.360  0.7912  0.4882  0.1641
   81MPD2    C3 1261   1.784   4.347  12.488  0.0665  0.1780  0.3302
   81MPD2    C4 1262   1.895   4.280  12.527 -0.1612  0.4729 -0.1213
   81MPD2    C5 1263   1.956   4.188  12.440  0.3663 -0.6282  0.4106
   81MPD2     H 1264   1.643   4.364  12.327  0.7991 -0.5116 -1.2413
   81MPD2    H1 1265   1.948   4.294  12.620 -1.7850  2.8592  0.4561
   81MPD2    H2 1266   1.955   4.082  12.255  0.2769  0.3795  0.1764
   81MPD2    H3 1267   2.047   4.137  12.468 -0.1914 -0.7879  1.8807
   81MPD2     N 1268   1.726   4.443  12.575 -0.4059 -0.3226  0.7293
   81MPD2    H5 1269   1.775   4.472  12.660  0.8001 -0.3764  0.0507
   81MPD2    N1 1270   1.723   4.188  12.168  0.1805 -0.1867 -0.0641
   81MPD2    H7 1271   1.649   4.253  12.149  1.8039  1.6518 -0.0842
   82TMC2    C1 1272   0.026   3.435  11.249 -0.6348  0.2223  0.3431
   82TMC2    C2 1273   0.152   3.404  11.288 -0.1928  0.3183  0.1052
   82TMC2    C3 1274   0.168   3.307  11.382 -0.8197  0.7005  0.1933
   82TMC2    C4 1275   4.650   3.385  11.303  0.7348 -0.2600  0.8879
   82TMC2    C5 1276   4.668   3.289  11.401 -1.1034  0.1643  0.1216
   82TMC2    C6 1277   0.054   3.249  11.444 -0.7096  0.8226 -0.2481
   82TMC2     C 1278   4.739   3.535  11.144 -0.0800 -0.2408 -0.3168
   82TMC2     O 1279   4.628   3.586  11.137 -0.2218 -0.0218 -0.9124
   82TMC2     H 1280   0.236   3.448  11.236  0.5139 -0.3602  0.6625
   82TMC2    H1 1281   4.546   3.407  11.281  0.3894 -0.4863  2.2672
   82TMC2    H2 1282   0.055   3.170  11.519 -1.8971  0.6648 -0.3991
   82TMC2    C7 1283   4.555   3.220  11.459 -0.4989  0.0565  0.0109
   82TMC2    C8 1284   0.284   3.310  11.472  0.0016 -0.4053  0.3503
   82TMC2    O1 1285   4.572   3.168  11.566  0.1241  0.0192  0.4451
   82TMC2    O2 1286   0.320   3.420  11.509 -0.5059  0.1892  0.2202
   82TMC2    O5 1287   0.284   3.200  11.552  0.4380 -0.1189  0.4841
   82TMC2    H5 1288   0.264   3.117  11.505 -0.0397  1.2608 -1.7509
   83MPD2     C 1289   0.131   3.808  10.727  0.0509 -0.5929 -0.5303
   83MPD2    C1 1290   0.003   3.773  10.780 -0.0376  0.2330  0.0407
   83MPD2    C2 1291   4.729   3.703  10.899 -0.3311  0.4217 -0.2083
   83MPD2    C3 1292   0.105   3.674  10.966 -0.0538 -0.4096  0.3267
   83MPD2    C4 1293   0.229   3.731  10.927 -0.2702 -0.3858  0.2820
   83MPD2    C5 1294   0.240   3.798  10.805 -0.4542  0.4172  0.6623
   83MPD2     H 1295   4.638   3.649  10.925 -0.2360 -0.3662 -1.4843
   83MPD2    H1 1296   0.313   3.726  10.995 -1.7435  1.6070  2.2454
   83MPD2    H2 1297   0.135   3.856  10.630 -0.9486  0.9781  0.1923
   83MPD2    H3 1298   0.337   3.836  10.776  1.0164 -1.9597  2.4856
   83MPD2     N 1299   0.113   3.587  11.076 -0.5567 -0.2150 -0.0551
   83MPD2    H5 1300   0.207   3.568  11.107  0.3926  0.6735 -2.4103
   83MPD2    N1 1301   4.631   3.810  10.695  0.2873 -0.1243 -0.4545
   83MPD2    H7 1302   4.661   3.833  10.601  2.3675 -2.1974 -0.3101
   84TMC2    C1 1303   0.811   3.325  10.698  0.2881 -0.0061 -0.5093
   84TMC2    C2 1304   0.862   3.429  10.617 -0.1358  0.2083 -0.6402
   84TMC2    C3 1305   0.894   3.401  10.483 -0.3182 -0.0694 -0.0139
   84TMC2    C4 1306   0.794   3.197  10.650 -0.2593  0.6827 -1.4014
   84TMC2    C5 1307   0.848   3.170  10.525 -0.1458 -0.0390  0.6965
   84TMC2    C6 1308   0.895   3.269  10.441  0.8585  0.1657 -0.2976
   84TMC2     C 1309   0.789   3.346  10.845 -0.1885 -0.3268  0.3710
   84TMC2     O 1310   0.727   3.259  10.906 -0.0105 -0.8682  0.0313
   84TMC2     H 1311   0.855   3.534  10.643 -0.4064  0.2027 -0.6881
   84TMC2    H1 1312   0.761   3.117  10.715 -0.1070 -2.1960 -4.8815
   84TMC2    H2 1313   0.910   3.247  10.336  2.1799  0.4304 -0.1645
   84TMC2    C7 1314   0.842   3.031  10.466  0.0887 -0.8073 -0.1327
   84TMC2    C8 1315   0.914   3.506  10.380 -0.0254 -0.3352 -0.1514
   84TMC2    O1 1316   0.865   3.007  10.346 -0.2895  0.1630 -0.2767
   84TMC2    O2 1317   0.849   3.502  10.275  0.2841 -0.0132 -0.6647
   84TMC2    O5 1318   0.937   3.627  10.438  0.2295 -0.2102  0.2866
   84TMC2    H5 1319   0.999   3.624  10.513 -0.0785 -0.3405  0.5356
   85TMC2    C1 1320   1.958   1.049  15.748 -0.2893  0.1205 -0.4123
   85TMC2    C2 1321   1.825   1.083  15.715 -0.1628 -0.3610 -0.7837
   85TMC2    C3 1322   1.793   1.187  15.632 -0.2091  0.0350  0.1612
   85TMC2    C4 1323   2.059   1.122  15.696  0.0276 -0.5474  0.6345
   85TMC2    C5 1324   2.025   1.215  15.597  0.3537  0.0195  0.2092
   85TMC2    C6 1325   1.895   1.247  15.563 -0.0252  0.5346  0.1629
   85TMC2     C 1326   1.995   0.918  15.806 -0.0040  0.0233 -0.0106
   85TMC2     O 1327   2.112   0.902  15.837  0.3009  0.2542  0.8671
   85TMC2     H 1328   1.739   1.026  15.749 -0.9184  0.4912 -1.2724
   85TMC2    H1 1329   2.164   1.096  15.707 -0.4075 -2.3115  0.5126
   85TMC2    H2 1330   1.870   1.315  15.483 -1.4554 -0.8331 -0.5536
   85TMC2    C7 1331   2.106   1.183  15.481  0.0578 -1.1472 -0.5625
   85TMC2    C8 1332   1.661   1.192  15.578  0.7259 -0.2771 -0.0832
   85TMC2    O1 1333   2.166   1.076  15.480  0.1530 -0.0267  0.2131
   85TMC2    O2 1334   1.580   1.103  15.586  0.3700 -0.1412 -0.4001
   85TMC2    O5 1335   1.635   1.325  15.566  0.3836 -0.1027  0.2349
   85TMC2    H5 1336   1.712   1.376  15.600  2.1764 -2.5563 -0.1303
   86MPD2     C 1337   1.884   0.489  16.061  0.2767 -0.3144  0.0671
   86MPD2    C1 1338   1.781   0.515  15.971 -1.1299  0.0725  0.9718
   86MPD2    C2 1339   1.796   0.621  15.889  1.2522 -0.3699  0.5590
   86MPD2    C3 1340   1.896   0.709  15.904 -0.1384 -0.2371  0.2741
   86MPD2    C4 1341   2.001   0.681  15.994  0.0336  0.3272  0.1541
   86MPD2    C5 1342   1.993   0.570  16.065  0.1379 -0.0478  0.1443
   86MPD2     H 1343   1.713   0.640  15.823  0.3413 -0.5198  1.6643
   86MPD2    H1 1344   2.084   0.749  16.010  0.6741 -0.3661 -0.2461
   86MPD2    H2 1345   1.886   0.400  16.123 -0.0901 -0.4770 -0.1506
   86MPD2    H3 1346   2.075   0.558  16.135  0.5418  2.0080  0.0251
   86MPD2     N 1347   1.890   0.829  15.825 -0.1537 -0.2056  0.5101
   86MPD2    H5 1348   1.805   0.854  15.775 -0.9770 -1.1664  1.4055
   86MPD2    N1 1349   1.667   0.429  15.956  0.1764 -0.4191  0.3099
   86MPD2    H7 1350   1.595   0.448  15.888  1.3059  0.8015 -0.5306
   87TMC2    C1 1351   0.157   4.357   1.058 -0.1361  0.0506 -0.2610
   87TMC2    C2 1352   0.262   4.363   1.147 -0.2803 -0.5780 -0.6924
   87TMC2    C3 1353   0.247   4.426   1.267 -0.2161 -0.7575  0.2287
   87TMC2    C4 1354   0.032   4.413   1.094  0.7612  0.2033  0.4849
   87TMC2    C5 1355   0.023   4.475   1.218  0.3903 -0.0246 -0.4288
   87TMC2    C6 1356   0.126   4.478   1.311  0.7591  0.8052 -0.6083
   87TMC2     C 1357   0.181   4.295   0.930  0.0839  0.2986 -0.5942
   87TMC2     O 1358   0.291   4.246   0.905  0.3382  1.0325 -0.0159
   87TMC2     H 1359   0.356   4.310   1.141 -0.0953 -0.6326  2.5529
   87TMC2    H1 1360   4.680   4.396   1.040  0.6537 -0.0488  0.7443
   87TMC2    H2 1361   0.110   4.523   1.408  0.6831  3.9576 -2.0938
   87TMC2    C7 1362   4.628   4.506   1.262  0.3095  0.3000 -0.1671
   87TMC2    C8 1363   0.361   4.433   1.355 -0.2465  0.2655 -0.5492
   87TMC2    O1 1364   4.567   4.579   1.185  0.3846  0.0591 -0.3486
   87TMC2    O2 1365   0.405   4.324   1.383  0.2117  0.4725 -0.0537
   87TMC2    O5 1366   0.350   4.543   1.437 -0.2198 -0.4977 -0.1404
   87TMC2    H5 1367   0.314   4.625   1.397 -1.4983 -0.1169  1.7694
   88MPD2     C 1368   4.437   4.406   1.567  0.2064  0.2386  0.0249
   88MPD2    C1 1369   4.474   4.481   1.455 -0.3781 -0.3011 -0.2389
   88MPD2    C2 1370   4.386   4.574   1.415 -0.1909  0.1407 -0.1858
   88MPD2    C3 1371   4.258   4.590   1.469 -0.6084  0.2161  0.0358
   88MPD2    C4 1372   4.226   4.518   1.581 -0.0852 -1.0198 -0.4545
   88MPD2    C5 1373   4.315   4.426   1.626  0.0064  0.4242  0.2436
   88MPD2     H 1374   4.408   4.641   1.334 -0.8529 -0.2851 -0.7188
   88MPD2    H1 1375   4.132   4.530   1.635  0.4388 -0.4418  0.3175
   88MPD2    H2 1376   4.500   4.328   1.609  1.1197  0.6423 -0.5981
   88MPD2    H3 1377   4.299   4.381   1.724  1.7698  1.6007  1.0692
   88MPD2     N 1378   4.167   4.684   1.420  0.3671 -0.1435 -0.2326
   88MPD2    H5 1379   4.085   4.690   1.479  1.2463 -1.5293  1.1119
   88MPD2    N1 1380   4.600   4.465   1.392 -0.1128  0.3932  0.5031
   88MPD2    H7 1381   4.663   4.418   1.457 -0.0609 -3.3162 -2.2617
   89TMC2    C1 1382   1.504   2.337   1.430 -0.2867  0.0938 -0.0406
   89TMC2    C2 1383   1.517   2.452   1.506 -0.7259 -0.6303  0.2130
   89TMC2    C3 1384   1.567   2.560   1.439  0.3426  0.7959  0.4595
   89TMC2    C4 1385   1.546   2.321   1.304  0.0506  0.0824  0.7446
   89TMC2    C5 1386   1.627   2.421   1.260  0.8559 -0.3503 -0.3783
   89TMC2    C6 1387   1.628   2.546   1.319  0.1003  0.1467  0.1785
   89TMC2     C 1388   1.457   2.223   1.503  0.3613  0.2803 -0.6023
   89TMC2     O 1389   1.463   2.232   1.624 -0.1482  0.1645 -0.3207
   89TMC2     H 1390   1.469   2.474   1.601  0.0341  1.6429  0.0679
   89TMC2    H1 1391   1.569   2.220   1.271 -0.5875 -0.2263  1.2466
   89TMC2    H2 1392   1.692   2.627   1.287 -1.1016  0.9102 -0.3090
   89TMC2    C7 1393   1.736   2.388   1.171  0.2919 -0.4250 -0.6406
   89TMC2    C8 1394   1.589   2.688   1.505 -1.0503 -0.8584 -0.6212
   89TMC2    O1 1395   1.756   2.272   1.150  0.4604 -0.0370 -0.2738
   89TMC2    O2 1396   1.594   2.697   1.626 -0.3841  0.4751  0.0483
   89TMC2    O5 1397   1.517   2.769   1.426  0.0772  0.0089  0.2719
   89TMC2    H5 1398   1.480   2.722   1.348  1.1228 -0.8028  0.2747
   90MPD2     C 1399   1.265   1.748   1.576 -0.1434  0.0451 -0.4482
   90MPD2    C1 1400   1.257   1.775   1.440  0.7002 -1.2944 -0.1214
   90MPD2    C2 1401   1.307   1.898   1.394 -0.3814 -0.1920 -0.5056
   90MPD2    C3 1402   1.372   1.985   1.480 -0.0680  0.3347  0.3542
   90MPD2    C4 1403   1.377   1.952   1.613  0.5213 -0.2894  0.0136
   90MPD2    C5 1404   1.326   1.837   1.662  0.2347 -0.0666  0.3276
   90MPD2     H 1405   1.280   1.912   1.290  2.0232  1.5363 -0.8973
   90MPD2    H1 1406   1.432   2.017   1.680  0.9887  0.4046 -1.0384
   90MPD2    H2 1407   1.232   1.655   1.621 -1.7563  0.3115 -1.0732
   90MPD2    H3 1408   1.324   1.819   1.769 -0.2053  1.9318  0.6464
   90MPD2     N 1409   1.419   2.109   1.424 -0.8888 -0.6286 -0.0636
   90MPD2    H5 1410   1.394   2.119   1.326  0.3696  0.9002 -0.2313
   90MPD2    N1 1411   1.187   1.697   1.346  0.3802 -0.4740  0.1787
   90MPD2    H7 1412   1.179   1.740   1.255 -1.3913 -1.0075  0.0746
   91TMC2    C1 1413   1.727   1.170  16.614  0.5770 -0.5779  0.6022
   91TMC2    C2 1414   1.816   1.088  16.685  0.2980  0.0840 -0.3233
   91TMC2    C3 1415   1.796   0.953  16.669  0.5011  0.1404  0.5016
   91TMC2    C4 1416   1.619   1.122  16.543 -0.1414  1.0769 -0.5044
   91TMC2    C5 1417   1.607   0.986  16.530 -0.2465 -0.5406 -0.3943
   91TMC2    C6 1418   1.700   0.906  16.587 -0.3431  0.4208  0.0258
   91TMC2     C 1419   1.737   1.306  16.631  0.5836 -0.8427  0.1964
   91TMC2     O 1420   1.637   1.375  16.637 -0.5559  0.1223 -0.3355
   91TMC2     H 1421   1.876   1.123  16.768 -0.9901  1.6279 -0.0546
   91TMC2    H1 1422   1.546   1.197  16.513  0.3076  2.3203  1.4897
   91TMC2    H2 1423   1.694   0.800  16.566 -2.5398  0.7309 -0.9646
   91TMC2    C7 1424   1.492   0.924  16.460 -0.5005  0.9470 -1.1066
   91TMC2    C8 1425   1.903   0.871  16.709  0.5278  0.0080 -1.1064
   91TMC2    O1 1426   1.459   0.807  16.474 -0.2675  0.1757  0.5700
   91TMC2    O2 1427   2.018   0.905  16.701  0.3394 -0.1943  0.4040
   91TMC2    O5 1428   1.855   0.763  16.773 -0.6617 -0.2836 -0.3034
   91TMC2    H5 1429   1.759   0.744  16.776 -1.0591  1.6072 -1.7664
   92MPD2     C 1430   1.828   1.579  16.671  0.6407  0.2806 -0.0556
   92MPD2    C1 1431   1.915   1.472  16.648 -0.0203 -0.0871 -0.5266
   92MPD2    C2 1432   2.046   1.503  16.624  0.0059  0.0393  0.3483
   92MPD2    C3 1433   2.095   1.627  16.625  0.3109  0.0547  0.3574
   92MPD2    C4 1434   2.006   1.730  16.644 -0.0602  0.2238 -0.2085
   92MPD2    C5 1435   1.878   1.706  16.668 -0.1341  0.2127 -0.5474
   92MPD2     H 1436   2.111   1.422  16.591 -1.2237  0.3769 -2.7960
   92MPD2    H1 1437   2.027   1.837  16.647 -1.1167  0.3714  2.2591
   92MPD2    H2 1438   1.723   1.575  16.699  0.6476 -2.5710 -0.3667
   92MPD2    H3 1439   1.809   1.786  16.694 -1.6235 -1.5548  0.9721
   92MPD2     N 1440   2.232   1.660  16.619 -0.1562 -0.8475 -0.2142
   92MPD2    H5 1441   2.288   1.575  16.613 -0.4938 -1.0555 -0.4793
   92MPD2    N1 1442   1.867   1.338  16.639  0.2022 -0.2784  0.3343
   92MPD2    H7 1443   1.939   1.270  16.615  1.4393  0.1839  2.7258
   93TMC2    C1 1444   3.624   1.780  14.193 -0.3554  0.4551 -0.6882
   93TMC2    C2 1445   3.550   1.874  14.256  0.1854 -0.2684 -0.4583
   93TMC2    C3 1446   3.615   1.976  14.317 -0.1460 -0.3751  0.3848
   93TMC2    C4 1447   3.755   1.792  14.166 -0.2262  0.3955 -0.2371
   93TMC2    C5 1448   3.820   1.897  14.216  0.0797 -0.1616 -0.4513
   93TMC2    C6 1449   3.758   1.981  14.307 -0.6362  0.0175  0.0267
   93TMC2     C 1450   3.559   1.674  14.120 -0.4405  0.2968  0.8030
   93TMC2     O 1451   3.620   1.570  14.104  0.6005 -0.9205 -0.4878
   93TMC2     H 1452   3.441   1.872  14.260  0.2327  0.5552  1.0669
   93TMC2    H1 1453   3.810   1.724  14.102 -0.6914  1.1384 -1.4109
   93TMC2    H2 1454   3.805   2.073  14.344  1.8281 -0.8325 -0.9951
   93TMC2    C7 1455   3.949   1.930  14.166 -0.4825 -0.4565 -1.2663
   93TMC2    C8 1456   3.569   1.990  14.454 -0.1696  0.7368  0.3010
   93TMC2    O1 1457   4.009   1.844  14.104  0.2655  0.4571 -0.1421
   93TMC2    O2 1458   3.455   2.011  14.487 -0.7365  0.1108 -0.1467
   93TMC2    O5 1459   3.656   1.924  14.535 -0.0625 -0.2738  0.4840
   93TMC2    H5 1460   3.742   1.895  14.497 -1.1580 -2.0032 -0.6948
   94MPD2     C 1461   3.355   1.502  14.006  0.0651  0.2903  0.8239
   94MPD2    C1 1462   3.350   1.635  14.005 -0.0915 -0.1106 -0.2482
   94MPD2    C2 1463   3.250   1.697  13.938  0.3554 -0.4802  0.1654
   94MPD2    C3 1464   3.147   1.624  13.879  0.5887 -0.3140  0.0100
   94MPD2    C4 1465   3.136   1.489  13.897 -0.2396 -0.3969 -0.0076
   94MPD2    C5 1466   3.248   1.430  13.954 -0.2353 -0.4437 -0.0968
   94MPD2     H 1467   3.253   1.805  13.942 -0.1785 -0.4518 -0.1906
   94MPD2    H1 1468   3.057   1.429  13.853  0.1381 -0.3765 -0.7184
   94MPD2    H2 1469   3.443   1.445  14.034 -0.1281  0.2084  1.2664
   94MPD2    H3 1470   3.248   1.321  13.950 -1.6638 -0.4176 -0.7609
   94MPD2     N 1471   3.046   1.687  13.799 -0.0884 -0.6288  0.2580
   94MPD2    H5 1472   2.982   1.618  13.763  0.4215 -0.1635 -1.5392
   94MPD2    N1 1473   3.442   1.719  14.068  0.2602  0.5043  0.2585
   94MPD2    H7 1474   3.432   1.820  14.066  1.2631  0.6006  0.3582
   95TMC2    C1 1475   4.142   2.869  15.638  0.2940 -0.7721 -0.6025
   95TMC2    C2 1476   4.254   2.802  15.677 -0.5201 -0.1874  0.4135
   95TMC2    C3 1477   4.253   2.728  15.789 -0.5225 -0.4054  0.4665
   95TMC2    C4 1478   4.027   2.856  15.710  0.2997 -0.3431 -0.3819
   95TMC2    C5 1479   4.034   2.774  15.822  0.1488  0.7248 -0.3061
   95TMC2    C6 1480   4.141   2.709  15.867  0.4497 -0.4207  0.2445
   95TMC2     C 1481   4.158   2.979  15.548 -0.4209 -0.1354  0.0008
   95TMC2     O 1482   4.264   3.043  15.549  0.4027 -0.0052 -0.2813
   95TMC2     H 1483   4.348   2.817  15.625  0.4814  0.9605  2.5384
   95TMC2    H1 1484   3.950   2.930  15.694 -0.6414 -1.0153  1.0749
   95TMC2    H2 1485   4.138   2.655  15.961 -0.8232  2.0932  1.6433
   95TMC2    C7 1486   3.914   2.770  15.907 -0.6087 -0.0623 -0.5137
   95TMC2    C8 1487   4.357   2.629  15.812 -0.3716  0.0485  0.5109
   95TMC2    O1 1488   3.933   2.700  16.005  0.1717 -0.0620  0.3652
   95TMC2    O2 1489   4.324   2.523  15.866  0.4834  0.3249 -0.4856
   95TMC2    O5 1490   4.464   2.701  15.848 -0.5201  0.3336  0.0961
   95TMC2    H5 1491   4.468   2.791  15.810  0.2442  0.1222 -0.3176
   96MPD2     C 1492   3.913   3.342  15.299 -0.2717 -0.2037 -0.3024
   96MPD2    C1 1493   4.046   3.345  15.352  0.0265 -0.4726 -0.0357
   96MPD2    C2 1494   4.095   3.224  15.397  0.5022 -0.2354  0.2483
   96MPD2    C3 1495   4.008   3.119  15.413 -0.4809 -0.7096 -0.3506
   96MPD2    C4 1496   3.876   3.121  15.369 -0.5754 -0.5780  0.1445
   96MPD2    C5 1497   3.827   3.236  15.313 -0.3060 -1.4114  0.1213
   96MPD2     H 1498   4.201   3.214  15.420  0.1657  0.3914  2.1491
   96MPD2    H1 1499   3.812   3.035  15.381  0.3730 -1.6719 -2.6831
   96MPD2    H2 1500   3.860   3.432  15.270  1.3782  0.2540 -1.8658
   96MPD2    H3 1501   3.726   3.257  15.281 -0.0699  1.1417  1.0284
   96MPD2     N 1502   4.042   3.008  15.485  0.0766 -0.8827  0.2518
   96MPD2    H5 1503   3.975   2.933  15.500  0.4542 -1.4991 -1.1657
   96MPD2    N1 1504   4.129   3.461  15.335  0.7004  0.2007 -0.2209
   96MPD2    H7 1505   4.086   3.549  15.309  1.6252  0.4366 -0.9491
   97TMC2    C1 1506   2.388   1.453  17.570  0.1913 -0.2051  1.2003
   97TMC2    C2 1507   2.511   1.393  17.559  0.5575 -0.0856 -0.0866
   97TMC2    C3 1508   2.600   1.448  17.477  0.0080  0.7361 -0.6841
   97TMC2    C4 1509   2.359   1.568  17.506  0.3890  0.9000  0.4112
   97TMC2    C5 1510   2.447   1.615  17.415 -0.2473  0.3191 -0.7719
   97TMC2    C6 1511   2.571   1.556  17.399  0.2408 -0.0512  0.9084
   97TMC2     C 1512   2.288   1.403  17.660  0.2569 -0.5228 -0.1093
   97TMC2     O 1513   2.203   1.479  17.704  1.0710  0.0596 -0.4396
   97TMC2     H 1514   2.534   1.298  17.604 -2.0985 -1.6832 -2.1074
   97TMC2    H1 1515   2.256   1.602  17.510 -0.2786 -0.6911 -3.3632
   97TMC2    H2 1516   2.641   1.604  17.331  0.6668 -1.0938  0.5928
   97TMC2    C7 1517   2.437   1.753  17.382 -0.0022  0.8131 -0.1940
   97TMC2    C8 1518   2.734   1.398  17.483  0.4326 -0.4241 -0.1407
   97TMC2    O1 1519   2.545   1.811  17.402  0.4435 -0.0985 -0.2611
   97TMC2    O2 1520   2.782   1.346  17.582 -0.0914 -0.3875 -0.2310
   97TMC2    O5 1521   2.803   1.431  17.363  0.1064 -0.2512 -0.0103
   97TMC2    H5 1522   2.755   1.474  17.289  0.5926 -0.0364 -0.2045
   98MPD2     C 1523   1.980   1.033   0.101  0.0918  0.2176 -0.2593
   98MPD2    C1 1524   1.988   1.168   0.136  1.0317 -1.2867 -0.3411
   98MPD2    C2 1525   2.085   1.250   0.072  0.1093  0.1141 -0.3587
   98MPD2    C3 1526   2.178   1.196  17.740  0.1440  0.1158 -0.1293
   98MPD2    C4 1527   2.168   1.059  17.705 -0.5360  0.1092  0.2411
   98MPD2    C5 1528   2.066   0.986   0.006 -0.4278  0.3206  0.6756
   98MPD2     H 1529   2.079   1.357   0.092  0.1440  0.2034 -0.8410
   98MPD2    H1 1530   2.230   1.014  17.629 -1.1456  0.5358 -0.5162
   98MPD2    H2 1531   1.911   0.970   0.156  0.6685 -0.1921 -0.0016
   98MPD2    H3 1532   2.067   0.882  17.732  0.8951  0.1018  1.4805
   98MPD2     N 1533   2.279   1.268  17.666  0.0192 -0.4742 -0.5646
   98MPD2    H5 1534   2.352   1.213  17.620  0.0826  0.2531 -1.3235
   98MPD2    N1 1535   1.891   1.214   0.226  0.3529  0.3686 -1.0925
   98MPD2    H7 1536   1.838   1.142   0.274 -1.2270  2.8989  0.9597
   99TMC2    C1 1537   1.118   3.671   0.983 -0.2775 -0.6323  0.5971
   99TMC2    C2 1538   1.198   3.782   0.976 -0.3520 -0.1123 -0.5198
   99TMC2    C3 1539   1.154   3.899   1.036 -0.5198  0.5662 -0.0532
   99TMC2    C4 1540   1.004   3.663   1.062 -0.1427  0.7471 -0.6435
   99TMC2    C5 1541   0.966   3.784   1.110  0.1225 -0.2053  1.0056
   99TMC2    C6 1542   1.034   3.903   1.093 -0.4169 -0.0444  0.0427
   99TMC2     C 1543   1.163   3.563   0.893  0.7722 -0.3390 -0.6842
   99TMC2     O 1544   1.283   3.568   0.858 -0.2012 -0.4859  0.8194
   99TMC2     H 1545   1.297   3.789   0.933 -0.3413  1.3218 -0.2764
   99TMC2    H1 1546   0.964   3.566   1.089  1.2266 -0.1470 -1.8110
   99TMC2    H2 1547   0.999   3.999   1.130 -0.5441  0.1426 -0.5665
   99TMC2    C7 1548   0.845   3.791   1.196  0.1791  0.7835 -0.3397
   99TMC2    C8 1549   1.191   4.020   0.965  0.1820  0.7491  0.3159
   99TMC2    O1 1550   0.844   3.879   1.281  0.3753  0.0971  0.3323
   99TMC2    O2 1551   1.232   4.014   0.851  0.4332  0.3396 -0.4546
   99TMC2    O5 1552   1.195   4.128   1.047  0.0747 -0.1172 -0.5380
   99TMC2    H5 1553   1.168   4.105   1.139  0.1279  1.9160 -0.0283
  100MPD2     C 1554   1.206   3.280   0.805 -0.0334 -0.0468 -0.5016
  100MPD2    C1 1555   1.088   3.346   0.806  0.2208  0.3896 -0.0325
  100MPD2    C2 1556   0.978   3.274   0.772  0.6782  0.4073  0.1998
  100MPD2    C3 1557   0.975   3.140   0.735 -0.9179  0.2738 -0.4771
  100MPD2    C4 1558   1.095   3.071   0.749  1.1053 -0.0309 -0.6544
  100MPD2    C5 1559   1.210   3.150   0.757 -0.2536  0.2201  0.0513
  100MPD2     H 1560   0.890   3.338   0.761  1.1164  0.7013 -1.7324
  100MPD2    H1 1561   1.104   2.963   0.745 -0.6545 -0.1552 -1.1944
  100MPD2    H2 1562   1.301   3.320   0.839  0.8514 -3.0772  0.5599
  100MPD2    H3 1563   1.307   3.101   0.751 -0.2554  0.0616  1.2374
  100MPD2     N 1564   0.855   3.089   0.691  0.1654 -0.1405 -0.2004
  100MPD2    H5 1565   0.778   3.155   0.680 -0.1141 -0.4596 -0.1570
  100MPD2    N1 1566   1.067   3.477   0.856  0.1429  0.1158 -0.2091
  100MPD2    H7 1567   0.970   3.500   0.874  0.3757  0.5997  0.4442
  101TMC2    C1 1568   0.314   0.180  12.995  0.6770 -0.6625 -0.6736
  101TMC2    C2 1569   0.216   0.260  13.032  0.2741 -0.8325 -0.1934
  101TMC2    C3 1570   0.214   0.387  12.982 -0.5798 -0.7352  0.0988
  101TMC2    C4 1571   0.415   0.221  12.916 -0.2825 -0.0305  0.2197
  101TMC2    C5 1572   0.405   0.350  12.860  0.4330 -0.2136  0.4299
  101TMC2    C6 1573   0.301   0.434  12.891 -0.6567 -0.2720 -0.0420
  101TMC2     C 1574   0.300   0.038  13.020 -0.0439  0.5881  0.2384
  101TMC2     O 1575   0.226   0.020  13.114 -0.4118 -0.1893 -0.1996
  101TMC2     H 1576   0.139   0.218  13.096 -1.0093 -1.1511 -1.9290
  101TMC2    H1 1577   0.510   0.169  12.916 -0.1128  0.2592 -1.1029
  101TMC2    H2 1578   0.298   0.536  12.854  2.6891  0.1099  0.7672
  101TMC2    C7 1579   0.503   0.377  12.763  0.1642  1.2778  0.1984
  101TMC2    C8 1580   0.120   0.483  13.030  0.4458  0.2185  0.3455
  101TMC2    O1 1581   0.559   0.275  12.725 -0.0490  0.5865 -0.0169
  101TMC2    O2 1582   0.176   0.587  13.060  0.1352 -0.0680  0.0982
  101TMC2    O5 1583   0.033   0.419  13.110  0.8747  0.5704 -0.2081
  101TMC2    H5 1584   0.004   0.340  13.059  0.3649  1.4325 -1.2337
  102MPD2     C 1585   0.470   4.485  12.875 -0.2709  0.2892 -0.2485
  102MPD2    C1 1586   0.386   4.554  12.958 -0.5199 -0.1898  0.1813
  102MPD2    C2 1587   0.294   4.484  13.042  0.7181 -0.2225 -0.0362
  102MPD2    C3 1588   0.296   4.342  13.048 -0.1154 -0.3448  0.0464
  102MPD2    C4 1589   0.389   4.275  12.965  0.5077  0.3586  0.5122
  102MPD2    C5 1590   0.475   4.343  12.884  0.2694  0.4298 -0.4695
  102MPD2     H 1591   0.221   4.535  13.104  2.5882  2.5422 -0.1209
  102MPD2    H1 1592   0.406   4.170  12.984 -1.2618  0.1735  1.0262
  102MPD2    H2 1593   0.529   4.543  12.805 -0.2463 -0.0292 -0.4953
  102MPD2    H3 1594   0.546   4.295  12.818 -0.0696 -1.6774  0.6956
  102MPD2     N 1595   0.212   4.271  13.134 -0.6744 -0.3552  0.0014
  102MPD2    H5 1596   0.128   4.315  13.168  0.5153  2.8967 -1.2519
  102MPD2    N1 1597   0.375   4.694  12.941  0.5922 -0.6029  0.3413
  102MPD2    H7 1598   0.433   4.735  12.868 -0.2812  0.6136  0.3391
  103TMC2    C1 1599   3.231   4.550  11.985 -0.7879 -0.0604  0.1456
  103TMC2    C2 1600   3.298   4.617  11.888  0.3789  0.0438  0.8543
  103TMC2    C3 1601   3.402   4.700  11.924  0.2608  0.1065 -0.6543
  103TMC2    C4 1602   3.265   4.558  12.117 -0.2100  0.2931  0.2964
  103TMC2    C5 1603   3.369   4.641  12.145  0.8766  0.2816 -0.3540
  103TMC2    C6 1604   3.437   4.712  12.052 -0.2504  0.2000 -0.7140
  103TMC2     C 1605   3.088   4.541  11.955  0.7080  0.2968  0.0744
  103TMC2     O 1606   3.035   4.616  11.874  0.3700  0.3448  0.7849
  103TMC2     H 1607   3.255   4.602  11.789 -0.2473 -0.8408  1.2659
  103TMC2    H1 1608   3.218   4.496  12.192 -1.3671 -0.7721 -1.3197
  103TMC2    H2 1609   3.495   0.058  12.085 -1.8050  2.2760 -3.4129
  103TMC2    C7 1610   3.404   4.646  12.284  0.0655 -0.5009  0.5861
  103TMC2    C8 1611   3.454   0.054  11.821  0.9625 -0.1700  0.2472
  103TMC2    O1 1612   3.320   4.617  12.371  0.0304  0.2665 -0.1571
  103TMC2    O2 1613   3.393   0.075  11.715  0.8262 -0.2387  0.2792
  103TMC2    O5 1614   3.584   0.062  11.852  0.4402  0.0151 -0.3033
  103TMC2    H5 1615   3.614   0.024  11.938  3.4608  0.1340 -1.3017
  104MPD2     C 1616   2.849   4.302  12.114  0.2903 -0.1457  0.0812
  104MPD2    C1 1617   2.893   4.405  12.028 -0.2403  0.9364 -0.7123
  104MPD2    C2 1618   2.792   4.459  11.948 -0.1348 -0.3302 -0.3233
  104MPD2    C3 1619   2.658   4.417  11.937  0.0142 -0.0149  0.0451
  104MPD2    C4 1620   2.626   4.309  12.011  0.3033  0.8384  0.5401
  104MPD2    C5 1621   2.723   4.261  12.097  0.1539 -0.1263  0.0775
  104MPD2     H 1622   2.817   4.531  11.871 -0.0948 -0.6533 -0.6141
  104MPD2    H1 1623   2.531   4.256  12.016 -0.2263  1.7721  0.3514
  104MPD2    H2 1624   2.911   4.256  12.190 -1.4679  1.7191  2.6285
  104MPD2    H3 1625   2.691   4.176  12.155 -3.3342  0.4950 -0.9176
  104MPD2     N 1626   2.572   4.475  11.848  0.0634  0.0760 -0.3296
  104MPD2    H5 1627   2.603   4.552  11.790 -0.2164  1.3461  1.2183
  104MPD2    N1 1628   3.033   4.442  12.034  0.2076 -0.0695  0.2499
  104MPD2    H7 1629   3.089   4.389  12.099 -0.8700 -0.6683  0.6858
  105TMC2    C1 1630   0.493   3.627   0.384  0.1329 -0.2000 -0.3402
  105TMC2    C2 1631   0.545   3.577   0.498  0.0467 -0.7275 -0.2765
  105TMC2    C3 1632   0.480   3.613   0.610 -0.2946  0.3451 -0.0094
  105TMC2    C4 1633   0.370   3.693   0.372  0.4003  0.6344 -0.5242
  105TMC2    C5 1634   0.310   3.730   0.487  0.8609 -0.4538 -0.6106
  105TMC2    C6 1635   0.365   3.691   0.609 -0.1786 -0.2336 -0.2538
  105TMC2     C 1636   0.542   3.559   0.271 -0.1811 -0.8760 -0.0768
  105TMC2     O 1637   0.597   3.450   0.294 -0.4947  0.1782 -0.0263
  105TMC2     H 1638   0.643   3.533   0.507  0.3893  0.1207  0.1801
  105TMC2    H1 1639   0.317   3.721   0.281  0.1308 -2.8982 -1.4245
  105TMC2    H2 1640   0.314   3.728   0.697 -3.4582 -1.0885 -1.8158
  105TMC2    C7 1641   0.198   3.818   0.482  0.6406 -0.8498 -0.2971
  105TMC2    C8 1642   0.540   3.584   0.734 -0.4865 -0.0176 -0.0048
  105TMC2    O1 1643   0.116   3.787   0.399  0.0449  0.1044 -0.2292
  105TMC2    O2 1644   0.545   3.669   0.820  0.6658  0.1410 -0.0251
  105TMC2    O5 1645   0.589   3.459   0.738  0.4408 -0.2219  0.0360
  105TMC2    H5 1646   0.558   3.392   0.674 -0.6520  1.8647 -1.5844
  106MPD2     C 1647   0.678   3.537  17.521 -0.2206 -0.0003  0.2044
  106MPD2    C1 1648   0.574   3.625  17.548 -0.3088 -0.2827 -0.3204
  106MPD2    C2 1649   0.529   3.655  17.673  0.3292  0.0298 -0.5583
  106MPD2    C3 1650   0.568   3.587   0.025  0.0875 -0.3187  0.1332
  106MPD2    C4 1651   0.666   3.494   0.014 -0.0436  0.2848  0.5705
  106MPD2    C5 1652   0.720   3.471  17.639 -0.0705 -0.1477  0.7892
  106MPD2     H 1653   0.436   3.710  17.685  1.7213  1.9129  1.5575
  106MPD2    H1 1654   0.714   3.457   0.104 -0.3013 -0.6306  0.3292
  106MPD2    H2 1655   0.736   3.515  17.432 -1.0137 -0.6227 -0.1641
  106MPD2    H3 1656   0.812   3.414  17.636 -0.2273 -0.5264  2.7074
  106MPD2     N 1657   0.519   3.626   0.154 -0.2320 -0.0253 -0.3570
  106MPD2    H5 1658   0.469   3.714   0.154 -0.1077  0.0485 -0.7228
  106MPD2    N1 1659   0.506   3.699  17.452 -0.3084  0.0377  0.6511
  106MPD2    H7 1660   0.433   3.762  17.483  0.7554  1.3064  0.6291
  107TMC2    C1 1661   0.577   3.304  11.794 -0.6720 -0.5955  0.7962
  107TMC2    C2 1662   0.642   3.182  11.786  0.0232  0.1710 -0.4097
  107TMC2    C3 1663   0.700   3.148  11.663  0.2420  0.3842  0.0346
  107TMC2    C4 1664   0.573   3.388  11.681  0.6119 -0.2796 -0.5667
  107TMC2    C5 1665   0.645   3.355  11.568 -0.0011 -0.1669 -0.0465
  107TMC2    C6 1666   0.695   3.229  11.552  0.6533 -0.9368 -0.3762
  107TMC2     C 1667   0.470   3.317  11.892 -0.5654 -0.3955 -0.3421
  107TMC2     O 1668   0.485   3.259  11.998 -0.5456 -0.3405 -0.3909
  107TMC2     H 1669   0.640   3.107  11.865  0.0041 -1.3035 -1.8268
  107TMC2    H1 1670   0.510   3.475  11.690  0.4773 -0.3295 -1.0220
  107TMC2    H2 1671   0.731   3.200  11.454  2.4403 -2.7514  0.8146
  107TMC2    C7 1672   0.675   3.461  11.473  0.2495  0.1522 -0.2948
  107TMC2    C8 1673   0.763   3.020  11.657 -0.4731  0.3920 -0.9164
  107TMC2    O1 1674   0.689   3.573  11.512 -1.2111  0.2713  0.0938
  107TMC2    O2 1675   0.715   2.925  11.713  0.3681 -0.1540  0.2771
  107TMC2    O5 1676   0.850   3.013  11.555  0.0075  0.0698  0.0279
  107TMC2    H5 1677   0.896   3.100  11.546  0.1651  0.0174  0.3466
  108MPD2     C 1678   0.115   3.347  11.810 -0.4058 -0.7846  0.6956
  108MPD2    C1 1679   0.232   3.351  11.888  0.1285  0.7128 -0.0749
  108MPD2    C2 1680   0.223   3.375  12.022 -0.2979  0.1327 -0.2732
  108MPD2    C3 1681   0.092   3.405  12.068  0.3953  0.1684 -0.1287
  108MPD2    C4 1682   4.718   3.407  11.996  0.6579 -0.3466  0.2734
  108MPD2    C5 1683   4.730   3.371  11.865  0.0744 -0.2293 -0.9655
  108MPD2     H 1684   0.303   3.387  12.094  1.3866 -3.2030 -1.5845
  108MPD2    H1 1685   4.627   3.446  12.040  1.7816  1.4565  1.0061
  108MPD2    H2 1686   0.124   3.322  11.705 -0.9826 -2.4863  1.0531
  108MPD2    H3 1687   4.646   3.373  11.796 -0.3728 -0.0658 -0.4090
  108MPD2     N 1688   0.069   3.450  12.201  0.0956  0.1862 -0.3442
  108MPD2    H5 1689   4.714   3.482  12.219  0.4189  1.1774 -0.4057
  108MPD2    N1 1690   0.354   3.331  11.820  0.5699 -0.4791 -0.3322
  108MPD2    H7 1691   0.355   3.343  11.720  1.0773  0.8107 -0.1763
  109TMC2    C1 1692   0.636   1.311   0.487 -0.6419  0.2157  0.3650
  109TMC2    C2 1693   0.624   1.421   0.407 -0.2398 -0.2779  0.1026
  109TMC2    C3 1694   0.733   1.506   0.385 -0.0432 -0.6603 -0.4903
  109TMC2    C4 1695   0.749   1.294   0.552 -0.0046  0.4469  0.3196
  109TMC2    C5 1696   0.850   1.386   0.538  0.0331 -0.1150  0.4151
  109TMC2    C6 1697   0.850   1.494   0.459  0.3930  0.3716 -0.2312
  109TMC2     C 1698   0.516   1.229   0.502 -0.7950 -0.3559 -0.0271
  109TMC2     O 1699   0.419   1.260   0.437  0.3867  0.1877  0.0365
  109TMC2     H 1700   0.528   1.445   0.363  1.7084  2.4448 -2.6527
  109TMC2    H1 1701   0.758   1.207   0.616 -0.1618  1.0906  1.2319
  109TMC2    H2 1702   0.929   1.568   0.470  1.5917 -1.0757  0.9857
  109TMC2    C7 1703   0.981   1.347   0.581  0.1402 -0.1891 -0.1024
  109TMC2    C8 1704   0.731   1.563   0.251  0.2012 -0.4434  1.2874
  109TMC2    O1 1705   1.076   1.400   0.527 -0.3504 -0.4502 -0.1038
  109TMC2    O2 1706   0.660   1.511   0.168 -0.3380 -0.3484 -0.0424
  109TMC2    O5 1707   0.852   1.612   0.226 -0.0819 -0.2049 -0.5894
  109TMC2    H5 1708   0.871   1.678   0.297  0.8219 -0.6433 -0.4271
  110MPD2     C 1709   0.239   0.861   0.723  0.2421 -0.0661  0.1017
  110MPD2    C1 1710   0.363   0.851   0.776  0.0904  0.1021  0.1254
  110MPD2    C2 1711   0.458   0.932   0.720 -0.1171 -0.5519 -0.3004
  110MPD2    C3 1712   0.429   1.037   0.637 -0.3930 -0.0458  0.0151
  110MPD2    C4 1713   0.296   1.053   0.596  0.3506 -0.0205 -0.3922
  110MPD2    C5 1714   0.208   0.961   0.637  0.2751  0.7357  0.1479
  110MPD2     H 1715   0.558   0.924   0.761  0.3684  0.1560 -1.3456
  110MPD2    H1 1716   0.266   1.131   0.527 -2.8839  2.7450  4.1795
  110MPD2    H2 1717   0.158   0.800   0.760 -0.6437  0.7625 -0.4816
  110MPD2    H3 1718   0.112   0.966   0.587  0.7133 -1.1219 -0.8777
  110MPD2     N 1719   0.536   1.116   0.586  0.3025  0.1534  0.7853
  110MPD2    H5 1720   0.630   1.099   0.621  0.2934 -0.2676  0.5971
  110MPD2    N1 1721   0.381   0.744   0.874  0.6232  0.2223 -0.7902
  110MPD2    H7 1722   0.298   0.697   0.908  0.0809  3.5592  2.5292
  111TMC2    C1 1723   0.452   0.150  11.613 -0.3031 -0.3253  0.2582
  111TMC2    C2 1724   0.355   0.065  11.650 -0.5684 -0.1464  0.5422
  111TMC2    C3 1725   0.394   4.680  11.684 -0.2642 -0.4482  0.6009
  111TMC2    C4 1726   0.584   0.123  11.627  0.4999  0.6859 -0.4100
  111TMC2    C5 1727   0.616   4.736  11.665 -0.1806  0.2102 -0.3810
  111TMC2    C6 1728   0.524   4.636  11.692  0.5453 -0.4031 -0.1119
  111TMC2     C 1729   0.409   0.277  11.561  0.4672 -0.5111  0.0049
  111TMC2     O 1730   0.489   0.339  11.486 -0.3820 -0.1386  0.5698
  111TMC2     H 1731   0.249   0.079  11.631  0.0125  0.9831 -1.7802
  111TMC2    H1 1732   0.661   0.196  11.607  3.2058 -1.6735  1.4233
  111TMC2    H2 1733   0.546   4.531  11.702 -1.0469 -0.6575  0.6897
  111TMC2    C7 1734   0.755   4.700  11.659 -0.0084  0.0083 -0.5110
  111TMC2    C8 1735   0.289   4.586  11.722  0.1974  0.4323 -0.4790
  111TMC2    O1 1736   0.776   4.589  11.610 -0.0886  0.2630  0.4026
  111TMC2    O2 1737   0.315   4.468  11.732 -0.1786  0.4739 -0.5524
  111TMC2    O5 1738   0.210   4.650  11.811  0.1348 -0.0817 -0.2150
  111TMC2    H5 1739   0.207   0.008  11.812  1.6005 -0.0434  0.6467
  112MPD2     C 1740   0.047   0.621  11.451  0.0030 -0.7667  0.2550
  112MPD2    C1 1741   0.148   0.577  11.372 -0.1451 -0.2441 -0.5712
  112MPD2    C2 1742   0.232   0.479  11.421 -0.3429  0.5396 -0.9056
  112MPD2    C3 1743   0.197   0.413  11.539 -0.2767 -0.4379  0.3452
  112MPD2    C4 1744   0.099   0.457  11.618  0.8714 -0.3229 -0.2581
  112MPD2    C5 1745   0.024   0.561  11.570 -0.7418 -0.6493 -0.4934
  112MPD2     H 1746   0.327   0.468  11.371 -0.3553  0.4549 -0.9101
  112MPD2    H1 1747   0.079   0.415  11.716  1.9668  2.7444  1.2768
  112MPD2    H2 1748   4.719   0.701  11.423  2.5811  0.8235 -1.4368
  112MPD2    H3 1749   4.690   0.599  11.640  0.0033  1.6668 -0.9446
  112MPD2     N 1750   0.276   0.308  11.594  0.6228  0.3994  0.0401
  112MPD2    H5 1751   0.235   0.267  11.678  1.1474  1.6089  0.8900
  112MPD2    N1 1752   0.184   0.629  11.244  0.2943 -0.2015  0.6547
  112MPD2    H7 1753   0.263   0.586  11.198 -0.8240 -0.1227 -1.3251
  113TMC2    C1 1754   4.221   3.440   0.503 -0.5129 -0.3638 -0.1078
  113TMC2    C2 1755   4.120   3.524   0.459 -0.3750 -0.0662 -0.5878
  113TMC2    C3 1756   4.005   3.470   0.417  0.3713 -0.8308  0.0154
  113TMC2    C4 1757   4.198   3.304   0.503  0.6803 -0.3778 -0.2292
  113TMC2    C5 1758   4.077   3.252   0.452  0.0745  0.6266  0.7551
  113TMC2    C6 1759   3.978   3.337   0.401 -0.2082 -0.0123  0.3566
  113TMC2     C 1760   4.335   3.497   0.574 -0.0229  0.2670  0.7265
  113TMC2     O 1761   4.310   3.586   0.652  0.1857 -0.4194  0.4529
  113TMC2     H 1762   4.133   3.630   0.477 -0.1533 -0.4656  1.5869
  113TMC2    H1 1763   4.270   3.235   0.546 -0.1386 -0.6591  0.6950
  113TMC2    H2 1764   3.881   3.306   0.364 -1.2428 -0.3844  3.3607
  113TMC2    C7 1765   4.017   3.128   0.505 -0.0143  0.4386 -0.0388
  113TMC2    C8 1766   3.901   3.561   0.386  0.0495  0.1593 -0.5201
  113TMC2    O1 1767   3.906   3.100   0.470  0.1267  0.4151  0.0543
  113TMC2    O2 1768   3.785   3.527   0.370  0.0694 -0.5301  0.1574
  113TMC2    O5 1769   3.963   3.671   0.331  0.2058 -0.1329  0.0035
  113TMC2    H5 1770   4.056   3.661   0.302  0.2908  1.0281 -0.1293
  114MPD2     C 1771   0.081   3.433   0.724 -0.3643 -0.9556  0.2675
  114MPD2    C1 1772   4.734   3.534   0.760 -0.4141  0.2962  0.4248
  114MPD2    C2 1773   4.611   3.535   0.703  0.5250 -0.1518  0.6024
  114MPD2    C3 1774   4.572   3.443   0.601 -0.4855  0.0388  0.3885
  114MPD2    C4 1775   4.660   3.343   0.567 -0.1924 -0.5979  0.1711
  114MPD2    C5 1776   0.044   3.346   0.629 -0.7308  0.2809 -0.2192
  114MPD2     H 1777   4.546   3.613   0.740 -0.8309 -1.0537  0.1277
  114MPD2    H1 1778   4.644   3.261   0.498 -1.2095 -0.7438  0.5875
  114MPD2    H2 1779   0.177   3.415   0.771 -0.4404 -3.3761 -0.5338
  114MPD2    H3 1780   0.112   3.266   0.602  1.5651  2.4426 -0.8762
  114MPD2     N 1781   4.450   3.443   0.530  0.6411 -0.0063 -0.4000
  114MPD2    H5 1782   4.451   3.384   0.447 -1.1903 -0.8572  0.1833
  114MPD2    N1 1783   0.024   3.634   0.858 -0.1360  0.1941 -0.3494
  114MPD2    H7 1784   4.699   3.711   0.869  1.1798  1.5212 -1.8834
  115TMC2    C1 1785   0.123   0.892  17.643  0.0287 -0.2056  1.0364
  115TMC2    C2 1786   0.249   0.858  17.683 -0.0352  0.2556  0.0157
  115TMC2    C3 1787   0.352   0.947  17.690  0.6825  1.0578 -0.1326
  115TMC2    C4 1788   0.105   1.025  17.594 -0.0806 -0.3202  0.1393
  115TMC2    C5 1789   0.215   1.105  17.589  0.4053 -0.2811 -0.0525
  115TMC2    C6 1790   0.342   1.076  17.639  0.3174 -0.1010 -0.7481
  115TMC2     C 1791   0.023   0.787  17.643  0.0212 -0.1782 -0.0837
  115TMC2     O 1792   0.054   0.678  17.690 -0.4507  0.1410 -0.3747
  115TMC2     H 1793   0.273   0.761  17.725  1.6255  0.8964  0.5768
  115TMC2    H1 1794   0.011   1.071  17.564 -1.1705 -3.5872 -1.5022
  115TMC2    H2 1795   0.416   1.149  17.668 -1.4592  1.0558  0.8454
  115TMC2    C7 1796   0.182   1.247  17.592  0.0881  0.9029 -0.2823
  115TMC2    C8 1797   0.483   0.896  17.708 -0.3518  0.0388 -0.4627
  115TMC2    O1 1798   0.074   1.285  17.640 -0.2083  0.1741 -0.5749
  115TMC2    O2 1799   0.509   0.784  17.745 -0.1686 -0.1106 -0.2277
  115TMC2    O5 1800   0.571   0.991  17.679 -0.2152 -0.2386 -0.1728
  115TMC2    H5 1801   0.661   0.953  17.684  0.3189  1.2231  1.4013
  116MPD2     C 1802   4.265   0.667  17.627  0.2560  0.0435 -0.4452
  116MPD2    C1 1803   4.370   0.584  17.639  0.6850 -0.0468  0.1600
  116MPD2    C2 1804   4.500   0.628  17.653 -0.0857 -0.5970 -0.3059
  116MPD2    C3 1805   4.519   0.768  17.631  0.8212  0.0344 -0.1291
  116MPD2    C4 1806   4.409   0.857  17.627 -0.6669 -0.0029  0.4352
  116MPD2    C5 1807   4.283   0.803  17.627 -0.2238  0.2408 -0.3881
  116MPD2     H 1808   4.590   0.569  17.653  1.2323  1.4254 -0.9688
  116MPD2    H1 1809   4.420   0.965  17.618 -1.4118 -0.0058 -0.5730
  116MPD2    H2 1810   4.161   0.637  17.622  0.4079 -0.4810 -0.4455
  116MPD2    H3 1811   4.202   0.873  17.641 -0.5711 -0.6174  1.9079
  116MPD2     N 1812   4.642   0.834  17.613  1.0737 -0.6916 -0.5388
  116MPD2    H5 1813   4.622   0.931  17.591  0.3230 -0.9597 -1.0274
  116MPD2    N1 1814   4.334   0.446  17.650  0.5285  0.6649 -0.1066
  116MPD2    H7 1815   4.236   0.421  17.645  0.5627  0.4527  0.2611
  117TMC2    C1 1816   2.787   2.201  14.110  0.4711  0.3732 -0.1145
  117TMC2    C2 1817   2.854   2.081  14.089  0.2362 -0.6837  0.2511
  117TMC2    C3 1818   2.974   2.079  14.142 -0.3415 -0.2978 -0.6144
  117TMC2    C4 1819   2.841   2.314  14.180  0.3214  0.2590  0.3342
  117TMC2    C5 1820   2.972   2.300  14.225  0.1616 -0.2377 -0.5908
  117TMC2    C6 1821   3.039   2.180  14.208 -0.3900 -0.3532  0.3154
  117TMC2     C 1822   2.652   2.213  14.049 -0.0223 -0.3894  0.6303
  117TMC2     O 1823   2.599   2.115  13.998 -0.1794  0.2819  0.3886
  117TMC2     H 1824   2.816   1.999  14.030 -0.5352  1.3745 -2.1174
  117TMC2    H1 1825   2.799   2.413  14.187 -1.0080 -0.2256 -0.7440
  117TMC2    H2 1826   3.136   2.164  14.253 -0.4836  1.5305  1.2328
  117TMC2    C7 1827   3.056   2.420  14.244  0.5432 -0.2952 -0.2007
  117TMC2    C8 1828   3.033   1.953  14.140 -0.8142 -0.3472 -0.7097
  117TMC2    O1 1829   3.026   2.517  14.178  0.0528 -0.2394 -0.1153
  117TMC2    O2 1830   2.972   1.847  14.149 -0.0720 -0.5410  0.0913
  117TMC2    O5 1831   3.162   1.970  14.095 -0.1467 -0.2553  0.0898
  117TMC2    H5 1832   3.199   2.059  14.080  2.6054 -1.5788 -0.8675
  118MPD2     C 1833   3.347   2.468  14.471 -0.1604  0.2161  0.4155
  118MPD2    C1 1834   3.257   2.497  14.373  0.5498 -0.5045  0.3240
  118MPD2    C2 1835   3.281   2.619  14.305  0.0698  0.1339 -0.1235
  118MPD2    C3 1836   3.383   2.704  14.345 -0.7326  0.2903 -0.0213
  118MPD2    C4 1837   3.473   2.666  14.441 -0.2722 -0.8395 -0.1415
  118MPD2    C5 1838   3.459   2.545  14.501  0.0806 -0.3480  0.4444
  118MPD2     H 1839   3.209   2.651  14.230  1.1884  0.2803 -1.1209
  118MPD2    H1 1840   3.553   2.735  14.464 -2.8444  2.7752 -1.9632
  118MPD2    H2 1841   3.330   2.375  14.522 -0.9801 -0.6273 -1.4010
  118MPD2    H3 1842   3.515   2.522  14.591 -3.5331  0.6204  2.9490
  118MPD2     N 1843   3.417   2.826  14.289  0.2545 -0.3081  0.1096
  118MPD2    H5 1844   3.500   2.875  14.320  0.6800 -0.3151 -1.0038
  118MPD2    N1 1845   3.158   2.404  14.340  0.0501 -0.3365 -0.1835
  118MPD2    H7 1846   3.158   2.319  14.396 -2.3987 -0.2237  0.0212
  119TMC2    C1 1847   1.110   3.940  13.518 -0.2958 -0.7226 -0.3141
  119TMC2    C2 1848   1.201   3.904  13.421 -0.6909 -0.1856  0.1841
  119TMC2    C3 1849   1.192   3.777  13.365 -0.0669 -0.2136 -0.9424
  119TMC2    C4 1850   1.024   3.845  13.576 -0.4297 -0.3170  0.7428
  119TMC2    C5 1851   1.018   3.714  13.527  0.0163  0.3365 -0.1549
  119TMC2    C6 1852   1.098   3.686  13.414 -0.1568 -0.2209 -0.4034
  119TMC2     C 1853   1.108   4.072  13.577 -0.7055 -0.1342 -0.0576
  119TMC2     O 1854   1.024   4.096  13.667 -0.3985  0.0997 -0.4479
  119TMC2     H 1855   1.278   3.973  13.388  0.0318 -1.4155 -0.6805
  119TMC2    H1 1856   0.977   3.853  13.674  1.2759 -0.8193  1.6067
  119TMC2    H2 1857   1.097   3.583  13.381 -0.9562 -0.6134  0.8325
  119TMC2    C7 1858   0.902   3.630  13.540  0.1761  0.0940  0.3549
  119TMC2    C8 1859   1.281   3.732  13.267 -0.3265  0.0939  0.5659
  119TMC2    O1 1860   0.868   3.578  13.433  0.6968 -0.1175 -0.1297
  119TMC2    O2 1861   1.302   3.616  13.239 -0.2247 -0.4533 -0.4965
  119TMC2    O5 1862   1.348   3.836  13.217 -0.0480  0.0892  0.1892
  119TMC2    H5 1863   1.330   3.925  13.255  0.4365  1.3965 -2.6040
  120MPD2     C 1864   1.336   4.528  13.644  0.5568  0.0308 -0.6858
  120MPD2    C1 1865   1.214   4.482  13.692 -0.1687 -0.2751  0.1000
  120MPD2    C2 1866   1.168   4.354  13.658  0.7133 -0.0968 -0.8887
  120MPD2    C3 1867   1.254   4.271  13.589  0.0942  0.0575  0.0300
  120MPD2    C4 1868   1.376   4.315  13.544 -0.0137 -0.2242 -0.1249
  120MPD2    C5 1869   1.421   4.437  13.582 -1.1105  0.1578  0.2585
  120MPD2     H 1870   1.072   4.321  13.696 -0.6420  1.0714 -3.2650
  120MPD2    H1 1871   1.447   4.249  13.495 -1.8040 -1.2719 -1.3308
  120MPD2    H2 1872   1.363   4.630  13.670 -3.1801  0.2117  2.5665
  120MPD2    H3 1873   1.520   4.471  13.554 -0.9908 -0.3008  0.1193
  120MPD2     N 1874   1.221   4.141  13.546  0.1699  0.3436  0.1162
  120MPD2    H5 1875   1.286   4.096  13.483 -0.6917 -0.9467  0.1350
  120MPD2    N1 1876   1.136   4.579  13.759  0.7003 -0.4425 -0.2199
  120MPD2    H7 1877   1.179   4.671  13.758 -0.5560  0.1457 -0.5041
  121TMC2    C1 1878   2.898   0.474  13.877 -0.1465 -0.5126  0.4307
  121TMC2    C2 1879   3.004   0.388  13.891 -0.6101  0.6331 -0.0144
  121TMC2    C3 1880   2.986   0.258  13.849 -0.1234 -0.0896 -0.2639
  121TMC2    C4 1881   2.779   0.439  13.819  0.4844 -0.0673 -0.9389
  121TMC2    C5 1882   2.768   0.302  13.793 -0.3730 -0.1785 -0.3838
  121TMC2    C6 1883   2.864   0.211  13.822  0.4925 -1.1771  0.1284
  121TMC2     C 1884   2.925   0.613  13.893  0.7384 -0.2376 -0.1929
  121TMC2     O 1885   3.027   0.633  13.960 -0.1535 -0.1039 -0.0178
  121TMC2     H 1886   3.096   0.419  13.940  1.0955 -1.1444 -2.1080
  121TMC2    H1 1887   2.693   0.506  13.820  1.4060  1.0752  1.2635
  121TMC2    H2 1888   2.860   0.104  13.806  0.0982 -0.7666 -2.5667
  121TMC2    C7 1889   2.636   0.237  13.799  0.2808  0.1219 -0.5813
  121TMC2    C8 1890   3.098   0.168  13.863  0.4531  0.6292 -0.7443
  121TMC2    O1 1891   2.632   0.119  13.828 -0.7391 -0.3656 -0.3103
  121TMC2    O2 1892   3.148   0.089  13.785  0.1450 -0.1723 -0.2064
  121TMC2    O5 1893   3.087   0.126  13.989 -0.4015 -0.1093 -0.4910
  121TMC2    H5 1894   3.039   0.191  14.045  1.8931 -1.7072  3.3589
  122MPD2     C 1895   2.863   0.885  13.944  0.0880 -0.1042  0.2128
  122MPD2    C1 1896   2.840   0.823  13.822  0.5551 -0.5596  0.4004
  122MPD2    C2 1897   2.798   0.895  13.723  0.6404  0.9647  0.1654
  122MPD2    C3 1898   2.775   1.030  13.726 -0.0492  0.2029 -0.4165
  122MPD2    C4 1899   2.804   1.100  13.839 -0.3117  0.3669  0.6232
  122MPD2    C5 1900   2.831   1.019  13.948  0.7175  0.2933  0.3576
  122MPD2     H 1901   2.783   0.840  13.631  1.0221  2.5605 -0.8435
  122MPD2    H1 1902   2.770   1.201  13.862  0.2257  0.8804 -0.8608
  122MPD2    H2 1903   2.894   0.829  14.031 -0.6443  0.1198  0.6158
  122MPD2    H3 1904   2.842   1.072  14.041 -0.2076  0.4939  0.3465
  122MPD2     N 1905   2.722   1.099  13.616  0.9979  0.4906  0.1281
  122MPD2    H5 1906   2.715   1.200  13.625  2.4137  0.3464  2.8303
  122MPD2    N1 1907   2.852   0.686  13.810  0.1585  0.0459 -0.8332
  122MPD2    H7 1908   2.799   0.640  13.737 -0.1191 -0.5721 -0.2479
  123TMC2    C1 1909   0.668   3.773  10.874 -0.6131  0.3780  0.5910
  123TMC2    C2 1910   0.654   3.797  11.009 -0.5323  0.4478 -0.0598
  123TMC2    C3 1911   0.737   3.890  11.066 -0.0460  0.0108 -0.3806
  123TMC2    C4 1912   0.780   3.822  10.802 -0.3749  0.5344 -0.6836
  123TMC2    C5 1913   0.859   3.907  10.869 -0.1705  0.1214  0.0345
  123TMC2    C6 1914   0.850   3.935  11.006  0.1164  0.1218 -0.0887
  123TMC2     C 1915   0.582   3.677  10.810  0.5525  0.4751 -0.2291
  123TMC2     O 1916   0.510   3.611  10.883  0.0379  0.7481  0.4189
  123TMC2     H 1917   0.572   3.756  11.067 -2.2006  1.5770 -1.6225
  123TMC2    H1 1918   0.805   3.802  10.699  1.4312  0.1985 -0.1736
  123TMC2    H2 1919   0.913   4.011  11.050 -0.2121  2.0381 -2.9481
  123TMC2    C7 1920   0.972   3.944  10.789  0.1128 -0.9919 -0.0566
  123TMC2    C8 1921   0.722   3.931  11.206 -0.5420  0.3944  0.9462
  123TMC2    O1 1922   1.014   3.861  10.707  0.2882  0.2388 -0.2019
  123TMC2    O2 1923   0.820   3.941  11.275  0.0855  0.6073 -0.8381
  123TMC2    O5 1924   0.601   3.990  11.207 -0.2002  0.8959  0.6153
  123TMC2    H5 1925   0.572   4.003  11.114 -0.7236  0.3670  0.7063
  124MPD2     C 1926   0.466   3.382  10.394  0.4074 -0.4921  0.4965
  124MPD2    C1 1927   0.510   3.509  10.363 -0.5492  0.9187 -0.5873
  124MPD2    C2 1928   0.538   3.600  10.458  0.4980 -0.2859 -0.1284
  124MPD2    C3 1929   0.540   3.565  10.590  0.1293 -0.0699 -0.2220
  124MPD2    C4 1930   0.507   3.439  10.629  0.1029 -0.1579 -0.1802
  124MPD2    C5 1931   0.459   3.353  10.529 -0.1585  0.1437  0.6729
  124MPD2     H 1932   0.564   3.701  10.428  2.6362 -0.8447 -0.1087
  124MPD2    H1 1933   0.514   3.398  10.728  0.4684 -0.3593 -0.2927
  124MPD2    H2 1934   0.443   3.311  10.316 -0.0365  0.9021 -0.6458
  124MPD2    H3 1935   0.432   3.251  10.553  0.0456  0.7155  3.3038
  124MPD2     N 1936   0.602   3.665  10.675 -0.0841  0.2334  0.3292
  124MPD2    H5 1937   0.624   3.751  10.625 -0.9385  0.2109 -0.1020
  124MPD2    N1 1938   0.514   3.541  10.227  0.1999 -0.2578 -0.4099
  124MPD2    H7 1939   0.499   3.468  10.158 -0.1098  0.4011 -1.0399
  125TMC2    C1 1940   3.286   2.522   9.017  0.3186  0.0037 -0.2361
  125TMC2    C2 1941   3.391   2.438   8.966  0.3808  0.2068  0.1014
  125TMC2    C3 1942   3.376   2.300   8.964  0.1744 -0.4855 -0.1098
  125TMC2    C4 1943   3.189   2.460   9.089 -0.8693 -0.8917  0.9858
  125TMC2    C5 1944   3.182   2.324   9.097  0.2403 -0.6221 -0.2201
  125TMC2    C6 1945   3.274   2.239   9.034 -0.1503  0.3707  0.7571
  125TMC2     C 1946   3.298   2.666   9.010  0.2490 -0.7527  0.8231
  125TMC2     O 1947   3.207   2.742   9.039  0.0748  0.2669  0.6852
  125TMC2     H 1948   3.465   2.478   8.898  1.5962  0.5819  1.6301
  125TMC2    H1 1949   3.115   2.513   9.148 -0.7541 -0.1937  0.5036
  125TMC2    H2 1950   3.257   2.132   9.026  2.0784  0.1632 -1.3301
  125TMC2    C7 1951   3.084   2.267   9.175 -0.5801 -0.1309  0.1729
  125TMC2    C8 1952   3.478   2.215   8.919 -0.5621 -0.4096  0.2775
  125TMC2    O1 1953   2.995   2.335   9.226  0.1778  0.1438  0.2259
  125TMC2    O2 1954   3.560   2.241   8.830 -0.3564 -0.0568 -0.0959
  125TMC2    O5 1955   3.475   2.103   8.988 -0.0268  0.7867 -0.4742
  125TMC2    H5 1956   3.456   2.110   9.084  1.1306 -1.4352 -0.0823
  126MPD1     C 1957   3.586   3.053   8.856  0.0598 -0.0888  0.0871
  126MPD1    C1 1958   3.665   2.950   8.914  0.5875 -0.0850 -1.0846
  126MPD1    C2 1959   3.611   2.826   8.944  0.3733 -0.0875  0.7650
  126MPD1    C3 1960   3.473   2.819   8.938 -0.2635 -0.3127 -0.4809
  126MPD1    C4 1961   3.400   2.917   8.880 -1.1990 -0.1178  0.8161
  126MPD1    C5 1962   3.454   3.032   8.835  0.3027 -0.1963  0.1401
  126MPD1     H 1963   3.673   2.745   8.980  1.3228  0.6310  0.7580
  126MPD1    H1 1964   3.298   2.897   8.851 -1.6001  0.7980  1.6445
  126MPD1    H2 1965   3.630   3.143   8.813  0.6365  0.4836  1.8519
  126MPD1    H3 1966   3.399   3.109   8.783  2.5280  0.4693 -1.2597
  126MPD1     N 1967   3.423   2.703   8.987 -0.5664  0.1935  0.1440
  126MPD1    H5 1968   3.491   2.633   9.014 -1.7045 -1.1108 -0.3989
  126MPD1    N1 1969   3.801   2.965   8.927  0.0600 -0.3199 -0.0132
  126MPD1    H6 1970   3.844   2.896   8.988 -0.8352 -2.2385 -1.5730
  126MPD1    H7 1971   3.843   3.056   8.948  2.3726 -1.6712  1.1898
  127TMC2    C1 1972   3.378   4.390   9.596  0.2102  0.6045  0.7640
  127TMC2    C2 1973   3.478   4.300   9.622  0.8862 -0.1824  0.0253
  127TMC2    C3 1974   3.437   4.173   9.641 -0.1776  0.5086  0.3158
  127TMC2    C4 1975   3.240   4.357   9.591 -0.0983 -0.3724  0.0831
  127TMC2    C5 1976   3.209   4.221   9.612 -0.1448  0.4316 -0.2069
  127TMC2    C6 1977   3.306   4.128   9.638  0.2456  0.5865 -0.6513
  127TMC2     C 1978   3.423   4.527   9.575  0.2925 -0.2851 -0.3073
  127TMC2     O 1979   3.538   4.548   9.613  0.3341 -0.4715 -0.4172
  127TMC2     H 1980   3.577   4.318   9.581  1.5482 -1.0425  1.2504
  127TMC2    H1 1981   3.160   4.426   9.567  0.4168 -0.2066 -1.1814
  127TMC2    H2 1982   3.294   4.021   9.642  0.2444  0.6749  1.4525
  127TMC2    C7 1983   3.073   4.179   9.583  0.2262  0.3613 -0.0167
  127TMC2    C8 1984   3.518   4.079   9.721  0.5366  0.4839 -0.2108
  127TMC2    O1 1985   3.001   4.250   9.510 -0.5657  0.4096 -0.5378
  127TMC2    O2 1986   3.478   3.975   9.766 -0.1008 -0.5659  0.1582
  127TMC2    O5 1987   3.647   4.099   9.716  0.2055  0.1304 -0.5075
  127TMC2    H5 1988   3.652   4.164   9.642 -0.1966  0.0544 -0.6018
  128MPD2     C 1989   3.326   0.065   9.360 -0.1094  0.4006  1.3202
  128MPD2    C1 1990   3.361   0.007   9.479  0.6378 -0.3679  0.6947
  128MPD2    C2 1991   3.426   0.079   9.574 -0.0668  0.5079  0.3010
  128MPD2    C3 1992   3.444   0.212   9.555 -0.2907  0.1179  0.1911
  128MPD2    C4 1993   3.407   0.275   9.434  0.6805  0.4098  0.0777
  128MPD2    C5 1994   3.336   0.202   9.346  0.3777  0.8176 -0.0117
  128MPD2     H 1995   3.451   0.032   9.668 -0.0413  0.5745  0.3281
  128MPD2    H1 1996   3.418   0.382   9.426  1.2002  0.2629 -1.0918
  128MPD2    H2 1997   3.283   0.006   9.280  0.1716  0.3110  1.2350
  128MPD2    H3 1998   3.297   0.261   9.263  0.5262 -0.3090 -0.8784
  128MPD2     N 1999   3.491   0.281   9.674  0.3577  0.4661  0.4200
  128MPD2    H5 2000   3.496   0.226   9.760  0.8397 -0.0221  0.0778
  128MPD2    N1 2001   3.345   4.603   9.495  0.1044 -0.2235  0.3950
  128MPD2    H7 2002   3.266   4.557   9.450  0.9530 -0.4873 -0.8216
  129TMC2    C1 2003   2.186   0.657   1.125  0.3306  0.1424 -0.5523
  129TMC2    C2 2004   2.303   0.726   1.136  0.2130 -0.1405  0.5115
  129TMC2    C3 2005   2.403   0.679   1.059  0.3834 -0.0298  0.6159
  129TMC2    C4 2006   2.176   0.544   1.055  0.4347  0.6967  0.3479
  129TMC2    C5 2007   2.284   0.499   0.982 -0.1065  0.5890  0.1340
  129TMC2    C6 2008   2.398   0.571   0.976 -1.4485 -0.3839  0.0886
  129TMC2     C 2009   2.071   0.707   1.200 -0.3842 -0.6710  0.4499
  129TMC2     O 2010   1.990   0.625   1.252  0.7762 -0.4131 -0.2675
  129TMC2     H 2011   2.326   0.809   1.202 -0.4139  1.5139 -1.3474
  129TMC2    H1 2012   2.080   0.492   1.049  0.2173  1.4296 -2.6964
  129TMC2    H2 2013   2.483   0.533   0.920 -1.2188  0.9277 -0.4555
  129TMC2    C7 2014   2.259   0.386   0.886 -0.0395  0.2285  0.0517
  129TMC2    C8 2015   2.516   0.768   1.052  0.4338  0.7096  0.0621
  129TMC2    O1 2016   2.168   0.310   0.915  0.1472 -0.3458 -0.5845
  129TMC2    O2 2017   2.496   0.886   1.031  0.1657 -0.1255  0.4587
  129TMC2    O5 2018   2.611   0.691   0.995  0.0976  0.2046  0.2478
  129TMC2    H5 2019   2.619   0.601   1.034 -1.3102 -1.1433 -2.5950
  130MPD2     C 2020   1.861   0.873   1.334 -0.2211 -0.0008  0.5785
  130MPD2    C1 2021   1.976   0.920   1.270 -0.2569  0.0019 -0.5575
  130MPD2    C2 2022   1.990   1.058   1.268 -0.0207  0.1972 -0.0312
  130MPD2    C3 2023   1.900   1.140   1.331  0.4589 -0.1395 -0.5214
  130MPD2    C4 2024   1.795   1.085   1.403  0.1072  0.0259 -0.4008
  130MPD2    C5 2025   1.773   0.950   1.401 -0.0136  0.1256  0.1844
  130MPD2     H 2026   2.074   1.104   1.219  1.6394 -2.8629 -0.0878
  130MPD2    H1 2027   1.723   1.143   1.460  0.8243  0.1649  0.3478
  130MPD2    H2 2028   1.838   0.768   1.350 -0.4464 -0.0878 -0.3159
  130MPD2    H3 2029   1.689   0.908   1.455 -2.2716  2.8026 -1.2121
  130MPD2     N 2030   1.911   1.277   1.301 -0.0506 -0.1761  0.0668
  130MPD2    H5 2031   1.983   1.312   1.238  1.4320  0.0753  1.9148
  130MPD2    N1 2032   2.074   0.841   1.205  0.1211  0.0279  0.0744
  130MPD2    H7 2033   2.143   0.896   1.155  0.8443  0.6192  1.7092
  131TMC2    C1 2034   1.010   4.483  10.108 -0.2074 -0.0495 -0.5985
  131TMC2    C2 2035   0.960   4.489  10.234  0.9507  0.4536  0.0302
  131TMC2    C3 2036   1.024   4.572  10.317 -1.1422  0.0237 -0.7956
  131TMC2    C4 2037   1.122   4.550  10.070 -0.5124 -0.5951  0.3344
  131TMC2    C5 2038   1.188   4.628  10.161  0.2801  0.1829  0.4603
  131TMC2    C6 2039   1.139   4.640  10.286  0.6839  0.2066  0.0802
  131TMC2     C 2040   0.956   4.364  10.033  0.9837 -0.0677 -0.4303
  131TMC2     O 2041   0.895   4.284  10.104  0.3561  0.1474 -1.2122
  131TMC2     H 2042   0.876   4.432  10.271  0.2068  0.5198 -1.5421
  131TMC2    H1 2043   1.168   4.537   9.973  1.5660  2.1037  0.9446
  131TMC2    H2 2044   1.192   4.704  10.356  1.3102  1.4819 -1.5773
  131TMC2    C7 2045   1.303   4.696  10.114 -0.1171 -0.5936  0.2237
  131TMC2    C8 2046   0.965   4.597  10.450 -0.7022  0.1943  0.3480
  131TMC2    O1 2047   1.364   4.642  10.021  0.6476  0.5603  0.1379
  131TMC2    O2 2048   1.033   4.627  10.546  0.1599  0.0590  0.0721
  131TMC2    O5 2049   0.830   4.611  10.429  0.2748  0.0595  0.6260
  131TMC2    H5 2050   0.817   4.607  10.332  1.5286  0.4253  0.4380
  132MPD2     C 2051   0.933   4.297   9.680 -0.4694 -0.2084 -0.1588
  132MPD2    C1 2052   0.931   4.268   9.812 -0.3635  0.5605  0.0467
  132MPD2    C2 2053   0.880   4.146   9.849  0.1903  0.3198 -0.4189
  132MPD2    C3 2054   0.816   4.057   9.763 -0.4756 -0.2418  0.3834
  132MPD2    C4 2055   0.825   4.077   9.626  0.3222 -0.1766  0.3457
  132MPD2    C5 2056   0.877   4.204   9.592  0.5185  0.3901  0.0469
  132MPD2     H 2057   0.892   4.111   9.951  1.1427 -1.4415 -1.1255
  132MPD2    H1 2058   0.777   4.021   9.546  1.2076 -1.5521  0.7652
  132MPD2    H2 2059   0.962   4.398   9.655  2.7113 -0.5324  2.2247
  132MPD2    H3 2060   0.893   4.227   9.487 -0.0349 -1.0341 -0.3432
  132MPD2     N 2061   0.759   3.938   9.819 -0.3022  0.6344 -0.1154
  132MPD2    H5 2062   0.766   3.928   9.919 -0.7227  1.9626  0.0481
  132MPD2    N1 2063   0.978   4.366   9.897  1.0892  0.3635 -0.0480
  132MPD2    H7 2064   1.021   4.446   9.851  2.0779 -1.4889 -2.3190
  133TMC2    C1 2065   0.339   1.089  10.025 -0.7106  0.1985 -0.1509
  133TMC2    C2 2066   0.465   1.071  10.071 -0.6399 -0.1197  0.3009
  133TMC2    C3 2067   0.531   1.174  10.128  0.6663  0.5753 -0.6792
  133TMC2    C4 2068   0.276   1.205  10.038  0.4347 -0.5085  0.5307
  133TMC2    C5 2069   0.345   1.313  10.088 -0.0744 -0.4493 -0.8604
  133TMC2    C6 2070   0.479   1.296  10.133 -0.6600 -0.2149  0.1678
  133TMC2     C 2071   0.310   1.001   9.907 -0.4074 -0.0377  0.5034
  133TMC2     O 2072   0.385   0.902   9.895  0.1465  0.0396  0.1112
  133TMC2     H 2073   0.512   0.974  10.074 -0.3693 -0.0242 -0.8177
  133TMC2    H1 2074   0.172   1.218  10.011  0.8259 -1.4155 -1.4107
  133TMC2    H2 2075   0.534   1.369  10.191 -0.3835  2.3545 -3.3345
  133TMC2    C7 2076   0.265   1.434  10.104  0.1283 -0.4823 -0.2036
  133TMC2    C8 2077   0.672   1.157  10.164  0.1018 -0.5635  0.0998
  133TMC2    O1 2078   0.142   1.432  10.094 -0.2137  0.3178  0.1854
  133TMC2    O2 2079   0.727   1.046  10.164  0.2302  0.0577 -0.5543
  133TMC2    O5 2080   0.720   1.262  10.106  0.4581 -0.6698 -0.5081
  133TMC2    H5 2081   0.663   1.334  10.069  2.4125  1.1217 -0.0469
  134MPD2     C 2082   0.113   1.089   9.603 -0.1167 -0.7584  0.0613
  134MPD2    C1 2083   0.188   1.006   9.688  0.4169 -0.6421  0.4195
  134MPD2    C2 2084   0.191   0.870   9.652  0.1711  0.2121 -0.2360
  134MPD2    C3 2085   0.140   0.830   9.523 -0.6907  0.3973 -0.4273
  134MPD2    C4 2086   0.072   0.916   9.440 -0.1348 -0.6125 -0.9055
  134MPD2    C5 2087   0.056   1.043   9.487  0.3995  0.1634  0.4197
  134MPD2     H 2088   0.224   0.801   9.729 -1.7583  1.1744  1.4670
  134MPD2    H1 2089   0.028   0.883   9.346 -1.1093 -0.4776 -0.4975
  134MPD2    H2 2090   0.115   1.195   9.622  0.3940 -0.4810 -1.5499
  134MPD2    H3 2091   0.015   1.128   9.433  1.0407  0.6250  0.6549
  134MPD2     N 2092   0.133   0.696   9.481 -0.1052  0.7575 -0.3195
  134MPD2    H5 2093   0.090   0.670   9.393 -3.4037 -1.0325  1.7810
  134MPD2    N1 2094   0.232   1.062   9.811 -0.3640  0.1434 -0.1512
  134MPD2    H7 2095   0.204   1.155   9.843 -2.3629 -1.2711  2.2217
  135TMC2    C1 2096   2.420   1.893  10.027 -0.2955  0.4013 -0.1527
  135TMC2    C2 2097   2.282   1.905  10.048  0.3351 -0.5718 -0.8330
  135TMC2    C3 2098   2.214   1.794  10.081 -0.0731 -0.1515 -0.3324
  135TMC2    C4 2099   2.481   1.775  10.046 -0.0310 -0.1819 -0.1259
  135TMC2    C5 2100   2.401   1.666  10.071 -1.0807  0.5184  0.1654
  135TMC2    C6 2101   2.269   1.676  10.106 -0.5275  0.4950  0.0947
  135TMC2     C 2102   2.490   2.019   9.998  0.4641 -0.1883  0.3149
  135TMC2     O 2103   2.445   2.124  10.040  0.4531 -0.5172  0.9793
  135TMC2     H 2104   2.222   1.996  10.044  0.7959 -0.2942 -1.4846
  135TMC2    H1 2105   2.589   1.776  10.034 -0.0869 -0.2058 -0.6579
  135TMC2    H2 2106   2.211   1.595  10.148  0.4460 -0.7661 -0.9841
  135TMC2    C7 2107   2.458   1.534  10.055  0.3094  0.4220  0.1179
  135TMC2    C8 2108   2.082   1.807  10.137  0.0002  0.8314  0.0765
  135TMC2    O1 2109   2.555   1.525   9.980 -0.4813 -0.1267 -0.1959
  135TMC2    O2 2110   2.049   1.903  10.212  0.4924  0.4337  0.2360
  135TMC2    O5 2111   2.003   1.715  10.071  0.0757 -0.3452 -0.1342
  135TMC2    H5 2112   2.049   1.660  10.004  0.5034 -0.5793  0.3454
  136MPD2     C 2113   2.718   2.198   9.954  0.5503 -0.2568  0.0478
  136MPD2    C1 2114   2.702   2.078   9.887 -0.3175 -1.2052  0.6322
  136MPD2    C2 2115   2.806   2.032   9.798 -0.0672  0.2875  0.3098
  136MPD2    C3 2116   2.924   2.105   9.790  0.2512 -0.0699 -0.6556
  136MPD2    C4 2117   2.933   2.226   9.857 -0.6998 -0.4782  0.1649
  136MPD2    C5 2118   2.833   2.271   9.941 -0.8781  0.5584  0.0107
  136MPD2     H 2119   2.799   1.935   9.750  1.9157  0.3389 -0.1244
  136MPD2    H1 2120   3.024   2.285   9.854 -0.8698 -0.3295 -1.9937
  136MPD2    H2 2121   2.640   2.236  10.018 -0.0310  0.1784 -0.9201
  136MPD2    H3 2122   2.835   2.359  10.004 -2.1092  2.2596 -2.3233
  136MPD2     N 2123   3.033   2.058   9.714 -0.3053  0.1669 -0.1232
  136MPD2    H5 2124   3.116   2.116   9.711 -1.6575  2.1736  1.7242
  136MPD2    N1 2125   2.596   1.995   9.914  0.1352 -0.2601  0.3881
  136MPD2    H7 2126   2.597   1.906   9.866 -1.0851  0.5680 -1.1885
  137TMC2    C1 2127   2.447   0.931   9.708 -0.1537 -0.0196  1.1009
  137TMC2    C2 2128   2.504   0.970   9.590 -0.1540  0.6903 -0.8353
  137TMC2    C3 2129   2.466   1.100   9.557  0.4297  0.2247 -0.2655
  137TMC2    C4 2130   2.366   1.009   9.787 -0.5831  0.1884  0.1316
  137TMC2    C5 2131   2.332   1.134   9.739 -0.3897  0.4788  0.2369
  137TMC2    C6 2132   2.383   1.187   9.627  0.2803  0.8497 -0.1046
  137TMC2     C 2133   2.470   0.796   9.757 -0.3595 -0.4999  0.7436
  137TMC2     O 2134   2.478   0.792   9.881 -0.2578 -0.0547 -0.7663
  137TMC2     H 2135   2.558   0.906   9.521  1.0773  0.6366  0.1800
  137TMC2    H1 2136   2.322   0.976   9.880  1.1152  1.0970  1.2464
  137TMC2    H2 2137   2.358   1.283   9.584 -0.5685  0.6636 -0.0359
  137TMC2    C7 2138   2.242   1.213   9.827  0.1949  0.1523  0.1568
  137TMC2    C8 2139   2.539   1.160   9.448 -0.2225  0.2365  0.4617
  137TMC2    O1 2140   2.241   1.336   9.815 -0.3273 -0.2574  0.9131
  137TMC2    O2 2141   2.594   1.087   9.363 -0.7237  0.0445 -0.2192
  137TMC2    O5 2142   2.575   1.290   9.480  0.1557  0.1080 -0.3556
  137TMC2    H5 2143   2.534   1.333   9.558  0.1108 -1.2529  0.3640
  138MPD2     C 2144   2.469   0.462   9.587  0.4307 -0.3278  0.8787
  138MPD2    C1 2145   2.478   0.553   9.693  0.1240 -0.4951  0.6877
  138MPD2    C2 2146   2.477   0.505   9.823  0.3273  0.2133  0.1791
  138MPD2    C3 2147   2.446   0.376   9.848  0.5275  0.1447  0.5092
  138MPD2    C4 2148   2.433   0.282   9.743 -0.0779  0.4812  0.0128
  138MPD2    C5 2149   2.448   0.327   9.619 -0.2237 -0.6928  0.3724
  138MPD2     H 2150   2.477   0.567   9.911  1.4082 -1.3508  1.2847
  138MPD2    H1 2151   2.405   0.179   9.759 -0.6637  0.9589  1.9796
  138MPD2    H2 2152   2.463   0.495   9.484  0.7415  0.5742  1.1551
  138MPD2    H3 2153   2.433   0.257   9.537 -0.3939 -1.6979  1.2696
  138MPD2     N 2154   2.429   0.340   9.984 -0.3551 -0.2964  0.0673
  138MPD2    H5 2155   2.462   0.401  10.058  2.3006 -1.9949  0.2839
  138MPD2    N1 2156   2.472   0.692   9.662 -0.6652 -0.6859  0.4206
  138MPD2    H7 2157   2.472   0.712   9.562  2.4343  1.0287  0.7787
  139TMC2    C1 2158   2.526   3.624  13.455 -1.1761 -0.7674 -0.4309
  139TMC2    C2 2159   2.612   3.729  13.418 -0.8397 -0.2192  0.1645
  139TMC2    C3 2160   2.560   3.846  13.379 -0.7524 -0.4606  0.5732
  139TMC2    C4 2161   2.395   3.645  13.479 -0.1257 -0.1026 -0.2210
  139TMC2    C5 2162   2.346   3.769  13.441  0.3267  0.2614  0.0518
  139TMC2    C6 2163   2.422   3.857  13.371  0.0674  0.6438  0.6715
  139TMC2     C 2164   2.589   3.495  13.440 -0.6281 -0.6029 -0.2006
  139TMC2     O 2165   2.695   3.492  13.384  0.6645 -0.3528  0.5128
  139TMC2     H 2166   2.718   3.710  13.403 -0.1874  2.0752  1.7100
  139TMC2    H1 2167   2.325   3.564  13.493  0.6686 -0.3972  2.0731
  139TMC2    H2 2168   2.378   3.949  13.334  0.2826  0.5454  0.1628
  139TMC2    C7 2169   2.213   3.825  13.482  0.1942  0.0810 -0.2876
  139TMC2    C8 2170   2.632   3.920  13.283 -0.3751 -0.7621 -0.7319
  139TMC2    O1 2171   2.186   3.934  13.435 -0.4571  0.8234  0.6139
  139TMC2    O2 2172   2.577   3.976  13.184  0.7740  0.2534 -1.0180
  139TMC2    O5 2173   2.735   3.974  13.350 -0.4292 -0.5422  0.5622
  139TMC2    H5 2174   2.766   3.931  13.433  1.1261 -1.1072 -0.3299
  140MPD2     C 2175   2.438   3.173  13.510 -0.0022 -0.1213 -0.2546
  140MPD2    C1 2176   2.535   3.259  13.478  0.8490  0.0720  0.6279
  140MPD2    C2 2177   2.669   3.218  13.464  0.3558 -0.3159 -0.0961
  140MPD2    C3 2178   2.701   3.080  13.461  0.4060  0.0892  0.2590
  140MPD2    C4 2179   2.597   2.993  13.491 -0.5162 -0.2487 -0.9778
  140MPD2    C5 2180   2.473   3.036  13.520 -0.7920 -0.0123  0.5479
  140MPD2     H 2181   2.748   3.292  13.458  1.3327 -1.3579 -0.1996
  140MPD2    H1 2182   2.618   2.886  13.488  0.5463 -0.0404 -0.8467
  140MPD2    H2 2183   2.346   3.207  13.556  0.5104 -1.0712  1.4860
  140MPD2    H3 2184   2.400   2.961  13.548  1.3837 -0.7527  4.1524
  140MPD2     N 2185   2.832   3.043  13.433  0.5128 -0.1246 -0.1771
  140MPD2    H5 2186   2.896   3.118  13.408 -1.1976  1.8639  1.4379
  140MPD2    N1 2187   2.493   3.394  13.467 -0.3542  0.1139  0.0647
  140MPD2    H7 2188   2.398   3.418  13.494  0.2432  2.1830  0.3096
  141TMC2    C1 2189   3.355   0.120  14.147  0.0736  0.0865  0.0219
  141TMC2    C2 2190   3.318   0.003  14.210  0.0636 -0.1243  0.2522
  141TMC2    C3 2191   3.254   0.014  14.329 -0.2946  0.5729  0.2983
  141TMC2    C4 2192   3.328   0.242  14.194 -0.0154 -0.2669  0.2074
  141TMC2    C5 2193   3.263   0.248  14.313 -0.2280  0.2085  0.6248
  141TMC2    C6 2194   3.222   0.137  14.378 -0.1989  0.6252 -0.0189
  141TMC2     C 2195   3.416   0.103  14.022 -0.4323 -0.4831  0.0550
  141TMC2     O 2196   3.425   0.205  13.948 -0.3228  0.2279  0.3581
  141TMC2     H 2197   3.335   4.647  14.161  0.3260 -0.1823  0.4589
  141TMC2    H1 2198   3.356   0.333  14.142 -3.1218  0.7226  0.3110
  141TMC2    H2 2199   3.181   0.150  14.477 -1.5719  2.7891 -0.8786
  141TMC2    C7 2200   3.265   0.379  14.376 -0.5841  0.0967  0.1740
  141TMC2    C8 2201   3.264   4.635  14.409  0.1851  0.4418 -0.5991
  141TMC2    O1 2202   3.155   0.396  14.429 -0.2064 -0.4496 -0.2541
  141TMC2    O2 2203   3.343   4.542  14.386 -0.5795 -0.6064 -0.5767
  141TMC2    O5 2204   3.200   4.665  14.525 -0.3119  0.0220 -0.0958
  141TMC2    H5 2205   3.120   4.719  14.506 -1.5698 -0.1701  4.5698
  142TMC2    C1 2206   1.131   3.921   9.948  0.0625  0.5522 -0.5237
  142TMC2    C2 2207   1.203   4.016   9.879 -0.0076 -0.2056  0.3180
  142TMC2    C3 2208   1.232   4.128   9.952 -0.2469 -0.1230 -0.2464
  142TMC2    C4 2209   1.096   3.936  10.079 -0.1078  0.1346  0.3150
  142TMC2    C5 2210   1.134   4.049  10.150  0.1393  0.0629  0.0714
  142TMC2    C6 2211   1.212   4.141  10.083  0.0955 -0.8731  0.3382
  142TMC2     C 2212   1.071   3.806   9.885  0.4357  0.7772  0.0985
  142TMC2     O 2213   0.969   3.758   9.934  0.3924 -0.3627 -0.4263
  142TMC2     H 2214   1.223   4.014   9.773  1.2360 -0.2449  0.5514
  142TMC2    H1 2215   1.045   3.853  10.127  0.0586  0.0435  0.3341
  142TMC2    H2 2216   1.227   4.242  10.120  0.4421 -1.0592  0.6994
  142TMC2    C7 2217   1.126   4.044  10.295 -1.1067 -0.0265  0.0208
  142TMC2    C8 2218   1.324   4.221   9.895  0.0844 -0.9468 -0.2125
  142TMC2    O1 2219   1.035   3.973  10.337  0.2820 -0.1307  0.1477
  142TMC2    O2 2220   1.316   4.336   9.924  0.1179 -0.4469  0.1777
  142TMC2    O5 2221   1.446   4.147   9.894 -0.4336  0.6851  0.0658
  142TMC2    H5 2222   1.437   4.054   9.924 -0.2054  0.1398 -1.5618
  143MPD2     C 2223   1.053   3.456   9.498  0.6118 -0.2390  0.1362
  143MPD2    C1 2224   0.967   3.475   9.608 -0.6891 -0.1545 -0.3946
  143MPD2    C2 2225   1.004   3.575   9.700 -0.4090 -0.1813 -1.0246
  143MPD2    C3 2226   1.102   3.667   9.682  0.0967 -0.1654  0.0155
  143MPD2    C4 2227   1.179   3.654   9.572 -1.0986  0.7187 -0.1567
  143MPD2    C5 2228   1.159   3.544   9.487  0.5249  0.1506  0.0538
  143MPD2     H 2229   0.935   3.582   9.783  1.2899 -0.6698  0.4345
  143MPD2    H1 2230   1.259   3.726   9.559 -0.6992  0.5969  1.6606
  143MPD2    H2 2231   1.037   3.374   9.429  0.0681 -1.7594  2.1101
  143MPD2    H3 2232   1.225   3.535   9.401 -2.0466  0.9208 -2.0221
  143MPD2     N 2233   1.130   3.768   9.770  0.5813  0.7514 -0.3472
  143MPD2    H5 2234   1.212   3.822   9.743  0.3809  2.1176  1.8006
  143MPD2    N1 2235   0.856   3.388   9.627 -0.0980 -0.3019 -0.0179
  143MPD2    H7 2236   0.827   3.332   9.547  1.1279 -0.3752 -0.4084
  144TMC2    C1 2237   0.095   2.199   0.421  0.6218  0.3853 -0.3945
  144TMC2    C2 2238   0.150   2.098   0.345  0.4258  0.1169 -0.4791
  144TMC2    C3 2239   0.284   2.100   0.345 -0.0277 -0.5089  0.9404
  144TMC2    C4 2240   0.162   2.312   0.472 -0.3787  0.2256 -0.3474
  144TMC2    C5 2241   0.297   2.303   0.461 -0.2574  0.4053  0.2133
  144TMC2    C6 2242   0.362   2.199   0.403 -0.8301 -0.2262 -0.1434
  144TMC2     C 2243   4.692   2.200   0.424  0.0529 -0.1763 -0.1409
  144TMC2     O 2244   4.639   2.140   0.332 -1.0975 -0.0438 -0.2121
  144TMC2     H 2245   0.105   2.008   0.305  1.1367  0.6499 -2.4685
  144TMC2    H1 2246   0.114   2.389   0.531  1.7143 -0.3103  2.0751
  144TMC2    H2 2247   0.469   2.181   0.405 -0.7311  0.3547 -0.3765
  144TMC2    C7 2248   0.375   2.373   0.562  0.1160  0.0920 -0.5315
  144TMC2    C8 2249   0.335   1.973   0.310  0.5833  0.2786 -0.7457
  144TMC2    O1 2250   0.466   2.307   0.612  0.1987 -0.5741  0.2499
  144TMC2    O2 2251   0.443   1.934   0.347 -0.3425  0.0370 -0.0027
  144TMC2    O5 2252   0.294   1.954   0.187 -0.4085 -0.9723  0.1458
  144TMC2    H5 2253   0.216   1.998   0.148 -1.4242 -0.6650  2.5352
  145MPD2     C 2254   4.227   2.365   0.575  0.7330 -0.1602 -0.1735
  145MPD2    C1 2255   4.261   2.278   0.475  0.6112  0.2814  0.6840
  145MPD2    C2 2256   4.395   2.246   0.462  0.5535 -0.3375 -0.0087
  145MPD2    C3 2257   4.492   2.291   0.545  1.2041 -0.3313  0.0474
  145MPD2    C4 2258   4.454   2.370   0.653  0.0035  0.1306 -0.3760
  145MPD2    C5 2259   4.324   2.412   0.663 -0.7593  0.2416 -0.1365
  145MPD2     H 2260   4.414   2.192   0.370  2.2130 -3.0230  1.9172
  145MPD2    H1 2261   4.529   2.408   0.722 -0.6255 -0.4742  0.6400
  145MPD2    H2 2262   4.127   2.401   0.597 -0.1888 -1.6715 -1.9669
  145MPD2    H3 2263   4.292   2.483   0.740 -2.2831 -0.9476  0.3266
  145MPD2     N 2264   4.631   2.278   0.521  0.5129  0.2903 -0.9166
  145MPD2    H5 2265   4.697   2.325   0.583  0.5887  1.0847 -1.5918
  145MPD2    N1 2266   4.170   2.228   0.381 -0.8096  0.5114 -0.4732
  145MPD2    H7 2267   4.217   2.182   0.303  0.4187 -0.0757  0.6033
  146TMC2    C1 2268   1.042   1.137  11.753  0.2778 -0.3090  0.4343
  146TMC2    C2 2269   1.117   1.131  11.633  0.2719  0.4985 -0.0973
  146TMC2    C3 2270   1.226   1.050  11.637 -0.5629  0.6307  0.3852
  146TMC2    C4 2271   1.070   1.064  11.867 -0.2363 -0.3666  0.5959
  146TMC2    C5 2272   1.179   0.979  11.859  0.1127  0.3339 -0.7161
  146TMC2    C6 2273   1.261   0.977  11.746  0.4571 -0.2605 -0.3464
  146TMC2     C 2274   0.925   1.218  11.755 -0.0643 -0.1160 -0.8171
  146TMC2     O 2275   0.920   1.301  11.664  0.0459 -0.8897  0.5814
  146TMC2     H 2276   1.090   1.198  11.553  1.0026 -0.4562 -1.1491
  146TMC2    H1 2277   1.024   1.087  11.962 -2.6551 -1.2534 -0.3775
  146TMC2    H2 2278   1.342   0.906  11.727  0.9479 -0.3599  2.1023
  146TMC2    C7 2279   1.197   0.875  11.962  0.0801 -0.4494 -0.0835
  146TMC2    C8 2280   1.278   0.999  11.515  0.6724  0.2830  0.1186
  146TMC2    O1 2281   1.293   0.798  11.942 -0.0774  0.0085 -0.0806
  146TMC2    O2 2282   1.385   0.948  11.498 -0.3698  0.3305  0.3974
  146TMC2    O5 2283   1.171   0.969  11.435  0.1853 -0.1305 -0.2738
  146TMC2    H5 2284   1.085   1.003  11.468  1.8596 -0.3776  4.3704
  147MPD2     C 2285   1.123   0.677  12.427  0.4276  0.6084 -0.4407
  147MPD2    C1 2286   1.039   0.784  12.410  0.0242  0.4313  0.3233
  147MPD2    C2 2287   1.023   0.832  12.282 -0.3703  0.0103 -0.5164
  147MPD2    C3 2288   1.113   0.794  12.182 -0.5233  0.5005 -0.7021
  147MPD2    C4 2289   1.215   0.698  12.214 -0.2884  0.8609 -0.5747
  147MPD2    C5 2290   1.223   0.633  12.335 -0.2390  0.0239  0.0738
  147MPD2     H 2291   0.955   0.916  12.271  1.3356  1.8182  2.8277
  147MPD2    H1 2292   1.303   0.693  12.150 -0.0839 -1.2843 -0.1413
  147MPD2    H2 2293   1.151   0.654  12.529 -3.7456  0.2353  0.6111
  147MPD2    H3 2294   1.299   0.558  12.355 -0.5772  0.1219  1.7231
  147MPD2     N 2295   1.113   0.876  12.066  0.0463 -0.1632  0.0577
  147MPD2    H5 2296   1.037   0.943  12.059  1.4068  1.4490  0.6030
  147MPD2    N1 2297   0.970   0.841  12.521 -0.3609 -0.5041 -0.1213
  147MPD2    H7 2298   0.952   0.790  12.607 -0.1878 -0.5701 -0.1239
  148TMC2    C1 2299   0.129   4.680  10.951  0.5791 -1.5008  0.0310
  148TMC2    C2 2300   0.038   4.651  11.051 -0.6736  0.7411 -0.3162
  148TMC2    C3 2301   0.056   4.531  11.114  0.0111  0.9743  0.1855
  148TMC2    C4 2302   0.231   4.598  10.927  0.1224 -0.3041  0.1227
  148TMC2    C5 2303   0.256   4.486  11.005 -0.2920  0.6928  0.2812
  148TMC2    C6 2304   0.163   4.447  11.097 -0.5592  0.2576 -0.4410
  148TMC2     C 2305   0.081   0.004  10.829 -0.1914  0.6346  0.3902
  148TMC2     O 2306   0.025   0.108  10.839 -0.9254  0.8172  0.4530
  148TMC2     H 2307   4.692   4.711  11.080 -0.0583  1.2084  0.5410
  148TMC2    H1 2308   0.300   4.616  10.845  1.2731  1.7682  1.5469
  148TMC2    H2 2309   0.185   4.378  11.177 -3.3501 -0.8250 -0.6137
  148TMC2    C7 2310   0.383   4.400  10.976  0.4485  0.6093  0.9697
  148TMC2    C8 2311   4.718   4.518  11.232 -0.9515  0.4575 -0.1650
  148TMC2    O1 2312   0.371   4.278  10.981  0.0944 -0.3044  0.3412
  148TMC2    O2 2313   0.013   4.593  11.324  0.3815 -0.3591 -0.1949
  148TMC2    O5 2314   4.695   4.386  11.246 -0.7332  0.1590  0.0825
  148TMC2    H5 2315   4.662   4.339  11.166 -1.1444 -0.6437  0.7197
  149MPD2     C 2316   0.024   0.059  10.540 -0.0745 -0.2885 -0.0454
  149MPD2    C1 2317   0.041   4.672  10.594 -0.4121 -0.2935 -0.2553
  149MPD2    C2 2318   0.036   4.562  10.510  0.2076  0.3118 -0.7351
  149MPD2    C3 2319   0.028   4.575  10.373 -0.2226  0.5708  0.4105
  149MPD2    C4 2320   0.012   4.699  10.317 -0.0506 -0.4377  0.1066
  149MPD2    C5 2321   0.012   0.072  10.404  0.1927 -1.0198 -0.4643
  149MPD2     H 2322   0.050   4.467  10.562  1.1291  1.0430  0.3544
  149MPD2    H1 2323   0.006   4.715  10.210  2.5915  0.9230  0.1609
  149MPD2    H2 2324   0.037   0.149  10.598  2.7965 -0.8033  0.1213
  149MPD2    H3 2325   0.003   0.166  10.352  1.6645  0.5343  2.0929
  149MPD2     N 2326   0.037   4.456  10.290  0.5278 -0.5603 -0.1749
  149MPD2    H5 2327   0.004   4.471  10.195 -0.0208  3.3002  0.6102
  149MPD2    N1 2328   0.071   4.651  10.727 -0.2160  0.0957 -0.7713
  149MPD2    H7 2329   0.098   4.555  10.747  1.4195  0.5655 -0.7629
  150TMC2    C1 2330   2.325   3.813  12.208  0.3329 -0.0937 -0.0620
  150TMC2    C2 2331   2.328   3.835  12.071 -0.4659  0.4586  0.0429
  150TMC2    C3 2332   2.442   3.877  12.015 -0.0993  0.6075 -0.0105
  150TMC2    C4 2333   2.431   3.828  12.287 -0.3704 -0.0764 -0.1743
  150TMC2    C5 2334   2.539   3.893  12.235 -0.9078 -0.0653  0.4491
  150TMC2    C6 2335   2.545   3.920  12.099  0.3219  0.0004  0.3677
  150TMC2     C 2336   2.199   3.796  12.278  0.4058 -0.4350  0.4444
  150TMC2     O 2337   2.203   3.730  12.380  0.4962  0.2425 -0.4084
  150TMC2     H 2338   2.256   3.802  11.997 -0.8671 -0.9638  1.0718
  150TMC2    H1 2339   2.422   3.830  12.395 -2.2628  0.2109 -0.3497
  150TMC2    H2 2340   2.633   3.967  12.057  0.3606  1.2150  1.8116
  150TMC2    C7 2341   2.666   3.890  12.300  0.7318 -0.1308 -0.4510
  150TMC2    C8 2342   2.444   3.914  11.877  0.0207 -0.3848 -0.5071
  150TMC2    O1 2343   2.751   3.968  12.262  0.0428  0.6203  0.0467
  150TMC2    O2 2344   2.547   3.949  11.822  0.0630  0.5404  0.5973
  150TMC2    O5 2345   2.320   3.948  11.833  0.3874 -0.1678  0.0205
  150TMC2    H5 2346   2.258   3.958  11.908  1.4177 -2.4442  1.1928
  151MPD2     C 2347   1.712   3.763  12.324 -0.0239 -0.1304  0.0092
  151MPD2    C1 2348   1.743   3.751  12.189 -0.5241  0.2742  0.0092
  151MPD2    C2 2349   1.871   3.784  12.152  0.8218  0.1803 -0.3083
  151MPD2    C3 2350   1.965   3.820  12.243  0.3830 -0.3373 -0.5808
  151MPD2    C4 2351   1.936   3.826  12.377  0.2331 -0.9965 -0.1912
  151MPD2    C5 2352   1.802   3.801  12.415 -0.5895  0.7302  0.2531
  151MPD2     H 2353   1.903   3.790  12.049  0.4955  0.1889 -0.4090
  151MPD2    H1 2354   2.006   3.850  12.455  1.8286 -1.1286 -1.5828
  151MPD2    H2 2355   1.611   3.747  12.360 -0.4438 -0.3510 -1.2696
  151MPD2    H3 2356   1.764   3.802  12.516  3.3970 -1.9122  1.7884
  151MPD2     N 2357   2.096   3.837  12.202 -0.6513  0.2550 -0.0158
  151MPD2    H5 2358   2.108   3.869  12.107 -0.0536 -0.7817 -0.2870
  151MPD2    N1 2359   1.631   3.718  12.106  0.0123  0.0245  0.5590
  151MPD2    H7 2360   1.543   3.705  12.155  1.1390  0.5454  2.6919
  152TMC2    C1 2361   2.108   3.694  12.802  0.3840  0.0645 -0.1443
  152TMC2    C2 2362   2.196   3.584  12.804 -0.0548 -0.3006 -0.0172
  152TMC2    C3 2363   2.321   3.615  12.763  0.2072 -0.8352  0.7338
  152TMC2    C4 2364   2.146   3.824  12.759 -0.7478 -0.2444 -0.4549
  152TMC2    C5 2365   2.279   3.847  12.739 -0.0929  0.6191  0.7830
  152TMC2    C6 2366   2.369   3.743  12.733 -0.8557 -0.2715  0.1180
  152TMC2     C 2367   1.962   3.681  12.833 -0.8166 -0.2318  0.8897
  152TMC2     O 2368   1.882   3.769  12.797 -0.2698 -0.2209  0.1868
  152TMC2     H 2369   2.163   3.482  12.813 -2.8306  0.4072 -2.2854
  152TMC2    H1 2370   2.088   3.915  12.751  0.0124  0.2720 -0.1173
  152TMC2    H2 2371   2.470   3.755  12.697 -2.3750  2.1647 -3.2810
  152TMC2    C7 2372   2.302   3.961  12.658 -0.1657  0.0172 -1.2494
  152TMC2    C8 2373   2.425   3.509  12.772  0.3693  0.1798  0.6144
  152TMC2    O1 2374   2.211   4.014  12.593  0.4355 -0.0877 -0.2910
  152TMC2    O2 2375   2.548   3.525  12.761 -0.0041 -0.8322 -0.2825
  152TMC2    O5 2376   2.369   3.385  12.788  0.1759 -0.1196 -0.4731
  152TMC2    H5 2377   2.423   3.308  12.761  1.2772  0.9553 -1.3250
  153MPD2     C 2378   1.842   3.385  13.019  0.5538 -0.1982  0.3929
  153MPD2    C1 2379   1.829   3.496  12.941 -0.4801 -0.2477  0.5559
  153MPD2    C2 2380   1.705   3.533  12.895  0.2098  0.7627 -0.2551
  153MPD2    C3 2381   1.592   3.467  12.928 -0.1084  0.2357  0.5308
  153MPD2    C4 2382   1.601   3.355  13.013 -0.8036  0.2607  0.4955
  153MPD2    C5 2383   1.725   3.323  13.059  1.2008  0.0999  0.5114
  153MPD2     H 2384   1.702   3.620  12.830  2.0166  1.0707  0.0688
  153MPD2    H1 2385   1.521   3.293  13.051 -1.3880 -0.7193 -2.3422
  153MPD2    H2 2386   1.936   3.349  13.060  0.6578  0.4689  0.7445
  153MPD2    H3 2387   1.728   3.249  13.138 -0.0889  0.0373  0.5002
  153MPD2     N 2388   1.468   3.526  12.885 -0.0956  0.4902 -0.6487
  153MPD2    H5 2389   1.477   3.616  12.841  0.8395  0.5135 -0.4117
  153MPD2    N1 2390   1.949   3.569  12.909 -0.3481 -0.5986  0.1015
  153MPD2    H7 2391   2.031   3.536  12.957  0.5160  0.9947 -0.2765
  154TMC2    C1 2392   4.666   3.932   0.036  0.5156  1.2618 -0.5409
  154TMC2    C2 2393   0.032   3.966   0.113 -0.5954  0.1397  0.1535
  154TMC2    C3 2394   0.161   3.935   0.077 -0.3795 -0.7193 -0.4328
  154TMC2    C4 2395   4.687   3.880  17.674  0.2424  0.2740 -0.9277
  154TMC2    C5 2396   0.077   3.869  17.626 -0.5173  0.3227 -0.7332
  154TMC2    C6 2397   0.183   3.886  17.713 -0.1338 -0.0362  0.0764
  154TMC2     C 2398   4.545   3.971   0.088  0.5189  0.4671  0.1440
  154TMC2     O 2399   4.533   4.041   0.189  0.0240  0.0029 -0.2683
  154TMC2     H 2400   0.022   3.991   0.218  0.1726  0.0756  0.2468
  154TMC2    H1 2401   4.601   3.838  17.624 -2.1373  2.6563  1.1922
  154TMC2    H2 2402   0.284   3.856  17.688 -0.1147  1.3130 -1.3868
  154TMC2    C7 2403   0.115   3.792  17.508 -0.6352  0.1580 -0.2376
  154TMC2    C8 2404   0.280   3.980   0.152  0.4128 -0.7225  0.7228
  154TMC2    O1 2405   0.225   3.738  17.510 -0.6427  0.3194  0.2788
  154TMC2    O2 2406   0.389   3.926   0.133 -0.5009 -0.2143  0.1886
  154TMC2    O5 2407   0.261   4.083   0.237 -0.3326 -0.3324 -0.0839
  154TMC2    H5 2408   0.177   4.131   0.224 -0.2401 -0.3909 -0.8869
  155MPD2     C 2409   4.204   3.933  17.702  0.2324 -0.3061 -0.9195
  155MPD2    C1 2410   4.300   3.955   0.043 -0.2498  0.7230 -0.6945
  155MPD2    C2 2411   4.251   3.979   0.172 -0.1675 -0.3363  0.2221
  155MPD2    C3 2412   4.114   3.996   0.193 -0.6398  0.0516 -0.3801
  155MPD2    C4 2413   4.024   3.972   0.099 -0.1874  0.6468 -0.6430
  155MPD2    C5 2414   4.070   3.932  17.733  0.4946  0.0953 -1.0149
  155MPD2     H 2415   4.325   3.987   0.251  2.6306 -2.7457 -2.1820
  155MPD2    H1 2416   3.916   3.962   0.105  0.1081 -1.9522  0.2941
  155MPD2    H2 2417   4.238   3.897  17.606  0.8110 -4.0522  0.7097
  155MPD2    H3 2418   4.003   3.904  17.653 -1.7163 -1.9005  1.5371
  155MPD2     N 2419   4.068   4.026   0.325  0.2466 -0.0970 -0.0597
  155MPD2    H5 2420   4.143   4.049   0.389  0.6277 -1.2721 -0.0695
  155MPD2    N1 2421   4.433   3.934   0.002  0.1222  0.2313 -0.2322
  155MPD2    H7 2422   4.440   3.907  17.662 -2.4208 -0.7771 -0.1391
  156TMC2    C1 2423   2.507   1.528  11.419 -0.1973  0.9200 -0.3737
  156TMC2    C2 2424   2.639   1.555  11.385 -0.2755  0.4600  0.0356
  156TMC2    C3 2425   2.665   1.688  11.351  0.6294  0.2751  0.3808
  156TMC2    C4 2426   2.400   1.606  11.392  0.2680  0.0008  0.0441
  156TMC2    C5 2427   2.432   1.728  11.341 -0.7132  0.2547 -0.1190
  156TMC2    C6 2428   2.559   1.766  11.317 -0.4532 -0.1363  0.3833
  156TMC2     C 2429   2.477   1.449  11.542 -0.1141 -0.2290 -0.3324
  156TMC2     O 2430   2.375   1.474  11.605  0.1508  0.2886 -0.1171
  156TMC2     H 2431   2.724   1.500  11.425 -0.2476 -1.7669 -3.0549
  156TMC2    H1 2432   2.301   1.571  11.420  0.9458 -0.2841  2.0405
  156TMC2    H2 2433   2.574   1.873  11.306 -1.4714 -0.1348 -0.9451
  156TMC2    C7 2434   2.333   1.834  11.314  0.9614 -0.0658 -0.2201
  156TMC2    C8 2435   2.785   1.728  11.277 -0.0716  0.2324  0.5186
  156TMC2    O1 2436   2.366   1.949  11.281 -0.4725  0.2524  0.3073
  156TMC2    O2 2437   2.783   1.797  11.172 -0.1941 -0.1248 -0.0626
  156TMC2    O5 2438   2.891   1.645  11.310  0.2500  0.2141 -0.2932
  156TMC2    H5 2439   2.879   1.614  11.402  1.3279 -2.0781 -0.9222
  157MPD2     C 2440   2.661   1.179  11.709 -0.0584 -0.1044 -0.0150
  157MPD2    C1 2441   2.597   1.300  11.694 -0.4587  0.4775 -0.2348
  157MPD2    C2 2442   2.574   1.379  11.806 -0.5908  0.6090 -0.4759
  157MPD2    C3 2443   2.627   1.346  11.931  0.0667 -0.2846 -0.6114
  157MPD2    C4 2444   2.697   1.227  11.942  0.2167  0.3998  0.4922
  157MPD2    C5 2445   2.713   1.145  11.834  0.4054  0.5068  0.6173
  157MPD2     H 2446   2.523   1.472  11.784 -0.5967  0.4480 -1.1353
  157MPD2    H1 2447   2.741   1.190  12.034 -1.3109  1.7268  1.7492
  157MPD2    H2 2448   2.675   1.113  11.624  1.1405  1.4583 -1.0509
  157MPD2    H3 2449   2.775   1.057  11.842  0.4949  0.5687  0.5972
  157MPD2     N 2450   2.595   1.434  12.036  0.5970 -0.7550  0.1722
  157MPD2    H5 2451   2.542   1.517  12.011  1.8485  0.1594  0.5714
  157MPD2    N1 2452   2.566   1.352  11.561  0.4809  0.1021  0.6170
  157MPD2    H7 2453   2.624   1.324  11.482  1.6595  2.1688  0.7445
  158TMC2    C1 2454   2.510   0.136  13.074 -0.2539 -0.4955 -0.5885
  158TMC2    C2 2455   2.543   0.133  12.940 -0.1789  1.0104 -0.6065
  158TMC2    C3 2456   2.447   0.126  12.844 -0.9782 -0.9493  0.5276
  158TMC2    C4 2457   2.377   0.122  13.114 -0.1003 -0.4072 -0.2936
  158TMC2    C5 2458   2.284   0.098  13.016 -0.7002 -0.2459 -0.2242
  158TMC2    C6 2459   2.312   0.103  12.880  0.0913  0.0026 -0.1767
  158TMC2     C 2460   2.617   0.124  13.168  0.1767  0.4800  0.3224
  158TMC2     O 2461   2.730   0.167  13.143  0.1698  0.2948 -0.3134
  158TMC2     H 2462   2.649   0.147  12.922  0.7306 -3.0763  1.6184
  158TMC2    H1 2463   2.350   0.143  13.217  1.0095  0.2610 -0.1412
  158TMC2    H2 2464   2.236   0.074  12.808 -1.3948 -0.6132  1.6544
  158TMC2    C7 2465   2.151   0.114  13.057  0.0685 -0.2255  0.5473
  158TMC2    C8 2466   2.488   0.127  12.707 -0.7120  0.0229 -0.2148
  158TMC2    O1 2467   2.080   0.185  12.990  0.4395  0.0697  0.0132
  158TMC2    O2 2468   2.450   0.033  12.636  0.0201 -0.2455 -0.3104
  158TMC2    O5 2469   2.611   0.182  12.698  0.0460  0.7055  0.3076
  158TMC2    H5 2470   2.633   0.257  12.756  0.9637 -0.4304  1.4407
  159MPD2     C 2471   2.750   4.677  13.620  0.9238  1.4045  0.2881
  159MPD2    C1 2472   2.621   4.644  13.602  0.1002 -0.7234 -0.4689
  159MPD2    C2 2473   2.570   4.685  13.481 -0.0203 -0.5670  0.1881
  159MPD2    C3 2474   2.641   0.022  13.389  0.1388  0.5324  0.0209
  159MPD2    C4 2475   2.768   0.053  13.414  0.0529  0.1202  0.5436
  159MPD2    C5 2476   2.827   0.008  13.530  0.1659 -0.5858  0.4940
  159MPD2     H 2477   2.464   4.667  13.471  0.0689 -0.1514 -1.3807
  159MPD2    H1 2478   2.823   0.113  13.342  0.3833 -0.5767  0.2153
  159MPD2    H2 2479   2.806   4.648  13.709  0.7447 -1.3268 -0.5007
  159MPD2    H3 2480   2.929   0.034  13.558 -0.5078  0.6455  1.8094
  159MPD2     N 2481   2.566   0.056  13.271 -0.2749  0.0977 -0.3565
  159MPD2    H5 2482   2.470   0.022  13.271  0.4986 -2.1254  1.5055
  159MPD2    N1 2483   2.554   4.562  13.695 -0.2737  0.3402 -0.5669
  159MPD2    H7 2484   2.604   4.549  13.783 -0.7021 -2.1546 -0.6944
  160TMC2    C1 2485   3.057   3.241   1.019 -0.4456 -0.6295 -0.4939
  160TMC2    C2 2486   2.964   3.173   0.940  0.5235  0.6593  0.6364
  160TMC2    C3 2487   2.968   3.035   0.946 -1.2228 -0.3236 -0.1570
  160TMC2    C4 2488   3.146   3.172   1.098  0.1874 -0.1151  0.8710
  160TMC2    C5 2489   3.151   3.035   1.102  0.0572  0.4794  0.6495
  160TMC2    C6 2490   3.052   2.967   1.028 -0.6102 -0.1368 -0.1314
  160TMC2     C 2491   3.121   3.342   0.946 -0.7055 -0.1017  0.4113
  160TMC2     O 2492   3.232   3.374   0.992  0.3212 -0.2308  0.1849
  160TMC2     H 2493   2.909   3.208   0.854  0.9456 -0.1034  0.0566
  160TMC2    H1 2494   3.208   3.229   1.165 -0.5743  0.1389  1.3643
  160TMC2    H2 2495   3.060   2.859   1.022  0.7247 -0.0747  0.4834
  160TMC2    C7 2496   3.283   2.982   1.093  0.0695 -0.7265 -0.1607
  160TMC2    C8 2497   2.902   2.969   0.836 -0.6599  0.5628  0.4328
  160TMC2    O1 2498   3.301   2.860   1.107  0.3362  0.0212  0.3261
  160TMC2    O2 2499   2.784   2.985   0.826 -0.1592 -0.2932  0.6358
  160TMC2    O5 2500   2.989   2.999   0.736  0.4663  0.5519 -0.0337
  160TMC2    H5 2501   3.086   3.005   0.751  0.3827 -0.5504  0.8984
  161MPD2     C 2502   3.225   3.565   0.782  0.3359  0.7986 -0.9951
  161MPD2    C1 2503   3.087   3.525   0.791  0.2068 -0.0721 -0.8185
  161MPD2    C2 2504   2.997   3.597   0.715  0.4651  1.4211  0.3356
  161MPD2    C3 2505   3.038   3.712   0.653  0.1476 -0.6065 -0.5957
  161MPD2    C4 2506   3.161   3.760   0.657  0.3184  0.4660 -0.1874
  161MPD2    C5 2507   3.249   3.690   0.729  0.3931 -0.2427  0.3776
  161MPD2     H 2508   2.898   3.552   0.720  0.8978  0.5428  1.2055
  161MPD2    H1 2509   3.183   3.848   0.597 -2.5355  0.8802 -0.6391
  161MPD2    H2 2510   3.305   3.511   0.831 -1.4521 -1.5821 -0.7062
  161MPD2    H3 2511   3.351   3.727   0.739  0.1057  0.2969  1.2610
  161MPD2     N 2512   2.945   3.764   0.554  0.3847 -0.7116  0.5314
  161MPD2    H5 2513   2.977   3.836   0.489 -0.2133 -0.6666  0.2877
  161MPD2    N1 2514   3.040   3.409   0.863 -0.2091  0.2196 -0.3560
  161MPD2    H7 2515   2.944   3.377   0.863  0.1903 -1.0162  1.9698
  162TMC2    C1 2516   1.100   0.091   1.184 -0.1897 -0.3825  0.0110
  162TMC2    C2 2517   1.070   0.117   1.315  0.5193  0.7370 -0.1476
  162TMC2    C3 2518   1.164   0.142   1.400 -0.2802  0.0127 -0.3239
  162TMC2    C4 2519   1.229   0.098   1.144 -0.3326 -0.1249 -0.4837
  162TMC2    C5 2520   1.323   0.097   1.239  0.2178 -0.3498  0.0099
  162TMC2    C6 2521   1.293   0.138   1.368 -0.2797 -0.1238  0.5180
  162TMC2     C 2522   1.009   0.027   1.099 -0.2400 -0.3342  0.0006
  162TMC2     O 2523   1.018   0.053   0.979 -0.5862 -0.0877  0.5277
  162TMC2     H 2524   0.970   0.127   1.354  1.0676 -1.4771  1.8334
  162TMC2    H1 2525   1.241   0.080   1.038 -0.8011 -0.9123 -0.4048
  162TMC2    H2 2526   1.377   0.133   1.436  1.4388  1.0615 -1.5244
  162TMC2    C7 2527   1.458   0.108   1.201 -0.2324  0.6035 -0.1165
  162TMC2    C8 2528   1.126   0.165   1.533  0.3751 -1.1928  0.1537
  162TMC2    O1 2529   1.529   0.173   1.275 -0.3989  0.1175  0.2147
  162TMC2    O2 2530   1.010   0.153   1.568 -0.1571  0.4050 -0.5111
  162TMC2    O5 2531   1.204   0.267   1.570 -0.0527  0.2418 -0.2143
  162TMC2    H5 2532   1.298   0.265   1.543 -0.6765 -2.9861 -2.1605
  163MPD2     C 2533   0.594   4.466   0.986 -0.2835  0.6243 -0.1157
  163MPD2    C1 2534   0.686   4.528   0.902  0.1333 -0.0478  0.1597
  163MPD2    C2 2535   0.789   4.602   0.963  0.0601 -0.3498 -0.4352
  163MPD2    C3 2536   0.796   4.624   1.098  0.1639 -0.5138 -1.1683
  163MPD2    C4 2537   0.706   4.564   1.180  0.3262  0.6964 -0.4526
  163MPD2    C5 2538   0.605   4.488   1.119 -0.3780 -0.0369 -0.0081
  163MPD2     H 2539   0.876   4.632   0.905 -0.6390 -1.6399 -2.1375
  163MPD2    H1 2540   0.715   4.564   1.288  0.4439  1.4912 -0.4644
  163MPD2    H2 2541   0.511   4.401   0.960  0.4476 -0.3603 -0.0087
  163MPD2    H3 2542   0.523   4.449   1.178  1.0112 -2.8940  0.0561
  163MPD2     N 2543   0.906   4.692   1.161 -1.2258  0.3050 -0.2843
  163MPD2    H5 2544   0.900   4.683   1.262  0.6994 -0.9768 -0.2967
  163MPD2    N1 2545   0.695   4.487   0.766 -0.2133  0.1415  0.2318
  163MPD2    H7 2546   0.640   4.403   0.754  1.6763 -0.9186 -1.0751
  164TMC2    C1 2547   1.105   4.524  11.293 -0.1682 -0.5513 -0.3046
  164TMC2    C2 2548   1.160   4.635  11.351  0.6923 -0.3530 -0.7768
  164TMC2    C3 2549   1.107   0.010  11.299  0.5291  0.5290 -0.0923
  164TMC2    C4 2550   0.993   4.531  11.215  0.2473  0.1395 -0.2678
  164TMC2    C5 2551   0.929   4.651  11.192  0.1673 -0.5119  0.4084
  164TMC2    C6 2552   0.995   0.024  11.221 -0.5319  0.6339  0.3279
  164TMC2     C 2553   1.153   4.389  11.319  0.0025 -0.0649  0.4041
  164TMC2     O 2554   1.174   4.369  11.437  0.6422  0.2887 -0.1486
  164TMC2     H 2555   1.254   4.636  11.405 -0.4429  1.0961  1.1480
  164TMC2    H1 2556   0.950   4.444  11.165  1.1550  0.9793 -2.5058
  164TMC2    H2 2557   0.955   0.123  11.205  0.1232  0.7403 -0.6733
  164TMC2    C7 2558   0.785   4.674  11.213 -0.5896 -0.3541 -0.2661
  164TMC2    C8 2559   1.155   0.142  11.340 -0.2800  0.4276 -0.1519
  164TMC2    O1 2560   0.736   0.032  11.156  0.2681 -0.1240 -0.1230
  164TMC2    O2 2561   1.082   0.240  11.349 -0.1656  0.0047 -0.1252
  164TMC2    O5 2562   1.287   0.133  11.361  0.6890  0.6741  0.6622
  164TMC2    H5 2563   1.330   0.048  11.336  2.6083  1.5309  1.0538
  165TMC2    C1 2564   3.201   2.957   1.420 -0.1905  0.6715 -0.1548
  165TMC2    C2 2565   3.173   3.087   1.444  0.2679 -0.0778 -0.2917
  165TMC2    C3 2566   3.270   3.177   1.489 -0.4360 -0.1128  0.1107
  165TMC2    C4 2567   3.332   2.909   1.423  0.3825  0.1317 -0.6413
  165TMC2    C5 2568   3.429   2.999   1.478  0.1424  0.3213 -0.1020
  165TMC2    C6 2569   3.397   3.132   1.493  0.0618 -0.0752  0.5283
  165TMC2     C 2570   3.091   2.857   1.401 -1.2290  0.0527  0.8618
  165TMC2     O 2571   2.982   2.903   1.372  0.2094  0.7055 -0.4029
  165TMC2     H 2572   3.069   3.114   1.443  0.6084  1.2621  0.4453
  165TMC2    H1 2573   3.366   2.812   1.391 -0.5357 -0.2895 -0.3495
  165TMC2    H2 2574   3.474   3.205   1.516 -2.1948  2.0432  1.3522
  165TMC2    C7 2575   3.569   2.966   1.474 -0.5525  0.0038  0.6428
  165TMC2    C8 2576   3.252   3.322   1.519 -0.3360  0.5220  0.5168
  165TMC2    O1 2577   3.608   2.907   1.372 -0.0704 -0.1977 -0.3498
  165TMC2    O2 2578   3.348   3.390   1.558  0.1531 -0.9396  0.6188
  165TMC2    O5 2579   3.150   3.368   1.446  1.0499  0.7013 -0.2434
  165TMC2    H5 2580   3.070   3.313   1.453  0.6770  1.0789 -1.5106
  166MPD2     C 2581   2.868   2.410   1.501  0.6542 -0.3706 -0.2058
  166MPD2    C1 2582   2.817   2.520   1.437  0.5042 -0.6113  0.5473
  166MPD2    C2 2583   2.906   2.628   1.415  0.4092  0.6707 -0.4404
  166MPD2    C3 2584   3.037   2.621   1.454 -0.5215 -0.6079 -0.0610
  166MPD2    C4 2585   3.090   2.504   1.507 -0.2489  0.2025 -0.0679
  166MPD2    C5 2586   3.003   2.395   1.524  0.8577  0.0769 -0.1906
  166MPD2     H 2587   2.858   2.714   1.369 -1.1094 -0.6941 -1.4226
  166MPD2    H1 2588   3.195   2.495   1.532  0.1457  1.6713 -1.1994
  166MPD2    H2 2589   2.803   2.327   1.527  0.5223 -1.0306 -2.6759
  166MPD2    H3 2590   3.055   2.315   1.575  1.8646  1.4256  0.9179
  166MPD2     N 2591   3.130   2.729   1.431 -0.3786 -0.4822 -0.3735
  166MPD2    H5 2592   3.226   2.720   1.462 -1.5323 -2.8946  2.5762
  166MPD2    N1 2593   2.678   2.524   1.410  0.0883 -0.1763 -0.7548
  166MPD2    H7 2594   2.627   2.455   1.464  1.0931 -1.2772 -1.2368
  167TMC2    C1 2595   0.088   4.568  12.778  0.0006 -0.4043 -0.4757
  167TMC2    C2 2596   4.721   4.594  12.859  0.1368 -1.1562  0.4987
  167TMC2    C3 2597   4.649   4.492  12.910 -0.1886 -0.6673 -0.6852
  167TMC2    C4 2598   0.124   4.433  12.761 -0.3838 -0.3088  0.4573
  167TMC2    C5 2599   0.041   4.331  12.798 -0.8432  0.2776  0.7729
  167TMC2    C6 2600   4.670   4.361  12.874  0.7391  0.0764 -0.3248
  167TMC2     C 2601   0.163   4.675  12.714  0.4706  0.5554  0.2600
  167TMC2     O 2602   0.149   0.052  12.756  0.1478  0.1256  0.2759
  167TMC2     H 2603   4.685   4.695  12.880  0.4569 -0.9413  0.0152
  167TMC2    H1 2604   0.216   4.419  12.705 -0.8757  0.5775 -0.5830
  167TMC2    H2 2605   4.609   4.279  12.911 -0.2414  1.2669  0.6768
  167TMC2    C7 2606   0.082   4.195  12.795 -0.2456 -0.5742  0.0765
  167TMC2    C8 2607   4.524   4.536  12.968 -0.1073 -0.4146 -1.0648
  167TMC2    O1 2608   0.029   4.119  12.872  0.0073  0.1829  0.0074
  167TMC2    O2 2609   4.465   4.634  12.923  0.0473 -0.3577  0.5418
  167TMC2    O5 2610   4.478   4.432  13.037 -0.2100 -0.7087  0.9514
  167TMC2    H5 2611   4.551   4.383  13.080  0.7391 -0.8239 -0.7882
  168MPD2     C 2612   0.328   0.095  12.530  0.1941 -0.1507 -0.0110
  168MPD2    C1 2613   0.272   4.712  12.504 -0.4385  0.7882  0.1586
  168MPD2    C2 2614   0.290   4.654  12.381  0.3794 -0.3858 -0.3476
  168MPD2    C3 2615   0.363   4.719  12.288 -1.1430  0.4805  0.3958
  168MPD2    C4 2616   0.430   0.098  12.316 -0.6600  0.3210 -0.3266
  168MPD2    C5 2617   0.398   0.162  12.434  0.3678  0.4734  0.2001
  168MPD2     H 2618   0.253   4.553  12.373  1.4307 -0.7940 -0.0768
  168MPD2    H1 2619   0.502   0.142  12.248  1.2388 -0.3248  1.2735
  168MPD2    H2 2620   0.298   0.153  12.617  2.9403  1.5695 -0.1991
  168MPD2    H3 2621   0.433   0.262  12.455 -0.9338  1.1442 -0.7758
  168MPD2     N 2622   0.377   4.663  12.154  0.1363 -0.3211 -0.1667
  168MPD2    H5 2623   0.464   4.684  12.106 -0.1359  1.4442  0.1063
  168MPD2    N1 2624   0.210   4.630  12.594 -0.3415  0.5333  0.4405
  168MPD2    H7 2625   0.186   4.536  12.565  2.4110  0.2273 -0.8614
  169MPD1     C 2626   3.389   0.723   9.033  0.6324 -0.1057  0.4634
  169MPD1    C1 2627   3.510   0.725   9.107  0.1832 -0.4418  0.2101
  169MPD1    C2 2628   3.568   0.606   9.149  0.1412 -0.5680 -0.7572
  169MPD1    C3 2629   3.518   0.491   9.096  0.5019  0.1146 -0.3416
  169MPD1    C4 2630   3.404   0.491   9.013 -0.5723 -0.0361  0.0303
  169MPD1    C5 2631   3.338   0.605   8.987 -0.1233 -0.3231  0.5904
  169MPD1     H 2632   3.645   0.605   9.225 -0.1601  0.3875 -0.4326
  169MPD1    H1 2633   3.366   0.401   8.967  2.8562 -0.3766 -2.1334
  169MPD1    H2 2634   3.328   0.811   9.012  2.7097  1.2449  0.1228
  169MPD1    H3 2635   3.247   0.602   8.927 -0.4441 -0.6494  1.0922
  169MPD1     N 2636   3.590   0.379   9.137  0.1245  0.1997  0.5396
  169MPD1    H5 2637   3.661   0.387   9.209 -0.9531 -1.4691  1.7971
  169MPD1    N1 2638   3.564   0.850   9.162 -0.2714  0.5649  0.0810
  169MPD1    H6 2639   3.529   0.937   9.121  0.0377  0.7080  0.1242
  169MPD1    H7 2640   3.666   0.852   9.159 -0.2406 -0.0001  0.8802
  170MPD1     C 2641   0.995   1.825  12.754 -0.0157  0.4643  1.0551
  170MPD1    C1 2642   0.917   1.911  12.835  0.4330  0.6057  0.5719
  170MPD1    C2 2643   0.937   1.889  12.974  0.0554 -0.0381  0.0236
  170MPD1    C3 2644   1.005   1.781  13.028  0.2158  0.3601 -0.4320
  170MPD1    C4 2645   1.054   1.685  12.937 -0.0456 -0.7490 -0.3569
  170MPD1    C5 2646   1.052   1.712  12.804 -0.0505 -0.1060 -0.4087
  170MPD1     H 2647   0.880   1.955  13.037  0.4060 -0.5791  0.9202
  170MPD1    H1 2648   1.098   1.590  12.963 -2.6355 -1.5708  1.1098
  170MPD1    H2 2649   1.006   1.842  12.647 -0.6180 -1.3451  0.7125
  170MPD1    H3 2650   1.087   1.643  12.728  0.7990 -0.2249  0.0905
  170MPD1     N 2651   1.020   1.783  13.170 -0.5194 -0.0299  0.3745
  170MPD1    H5 2652   0.997   1.875  13.208  0.3891 -0.1089  1.0813
  170MPD1    N1 2653   0.869   2.041  12.786  0.6554 -0.2432  0.2146
  170MPD1    H6 2654   0.792   2.084  12.835  1.3184  1.7444 -0.4833
  170MPD1    H7 2655   0.847   2.043  12.686 -0.8673 -0.2732  0.5659
  171MPD1     C 2656   4.317   2.657  15.169 -0.5853 -0.2503 -0.2449
  171MPD1    C1 2657   4.376   2.758  15.241  0.5219 -0.1086 -0.2966
  171MPD1    C2 2658   4.449   2.725  15.353 -0.0390  0.7561 -0.2130
  171MPD1    C3 2659   4.468   2.590  15.381 -0.2049 -0.1757  0.2475
  171MPD1    C4 2660   4.416   2.491  15.306 -0.3711  0.1552  0.2807
  171MPD1    C5 2661   4.342   2.524  15.199  0.2622 -0.3165 -0.2561
  171MPD1     H 2662   4.490   2.805  15.414  2.1068 -1.2304  0.9573
  171MPD1    H1 2663   4.429   2.385  15.324 -1.6330 -0.2191 -0.9849
  171MPD1    H2 2664   4.241   2.688  15.097  1.7749  0.1475 -2.5492
  171MPD1    H3 2665   4.297   2.448  15.135 -0.4579  0.8450 -1.1259
  171MPD1     N 2666   4.545   2.540  15.484 -0.6872  0.0903  0.8257
  171MPD1    H5 2667   4.522   2.441  15.494 -2.1312  0.4794  1.2919
  171MPD1    N1 2668   4.344   2.888  15.219 -0.6310 -0.2132  0.4422
  171MPD1    H6 2669   4.408   2.952  15.265  1.7867 -2.9821  0.9505
  171MPD1    H7 2670   4.335   2.913  15.121  5.2649  0.2363  0.0245
  172MPD1     C 2671   4.097   2.399  17.439 -0.2150 -0.5359  0.2417
  172MPD1    C1 2672   3.991   2.454  17.514 -0.3028 -0.7406 -0.5640
  172MPD1    C2 2673   4.019   2.481  17.652 -0.0481  0.0406  0.3609
  172MPD1    C3 2674   4.143   2.451  17.710  0.8516 -0.3985  0.1397
  172MPD1    C4 2675   4.237   2.388  17.633  0.5925 -0.1893  0.0275
  172MPD1    C5 2676   4.217   2.375  17.502  0.4556 -0.1566 -0.3305
  172MPD1     H 2677   3.938   2.515  17.716 -1.7197  1.4063 -2.5067
  172MPD1    H1 2678   4.329   2.347  17.674 -0.3472 -1.4083  0.9145
  172MPD1    H2 2679   4.074   2.361  17.340 -0.5843  1.9503 -0.6309
  172MPD1    H3 2680   4.300   2.339  17.442 -0.4717 -0.2170 -1.5806
  172MPD1     N 2681   4.181   2.477   0.090 -0.2483 -0.5598  0.1990
  172MPD1    H5 2682   4.271   2.436   0.111  0.3645 -0.3350 -1.9647
  172MPD1    N1 2683   3.868   2.477  17.449 -0.0610  0.0879 -0.6112
  172MPD1    H6 2684   3.794   2.513  17.510  0.4591  2.0773 -1.1375
  172MPD1    H7 2685   3.837   2.392  17.403 -1.3391  0.7309 -0.9390
  173MPD1     C 2686   0.677   2.317  13.598 -0.0681 -0.1945 -0.2957
  173MPD1    C1 2687   0.571   2.323  13.687  0.2616 -0.1315  0.2051
  173MPD1    C2 2688   0.603   2.308  13.822 -0.4646 -0.6445 -0.4826
  173MPD1    C3 2689   0.728   2.299  13.870 -0.1029 -0.1102 -0.1948
  173MPD1    C4 2690   0.828   2.294  13.777  0.1431  0.2386  0.3106
  173MPD1    C5 2691   0.802   2.292  13.642 -0.0692  0.6033 -0.0064
  173MPD1     H 2692   0.525   2.291  13.895  0.3168 -1.3279  0.1775
  173MPD1    H1 2693   0.929   2.262  13.801  1.2831  1.3060 -3.1410
  173MPD1    H2 2694   0.663   2.311  13.491 -1.2069  1.7643 -0.2557
  173MPD1    H3 2695   0.886   2.284  13.575  1.2300 -0.1395  1.7024
  173MPD1     N 2696   0.751   2.263  14.000 -0.2227  0.3998 -0.6077
  173MPD1    H5 2697   0.672   2.254  14.064  0.2676  1.7054  0.1689
  173MPD1    N1 2698   0.438   2.321  13.647  0.7784 -0.2777 -0.0783
  173MPD1    H6 2699   0.416   2.333  13.548 -0.1131 -0.8822  0.0465
  173MPD1    H7 2700   0.379   2.386  13.697  1.7955  1.6890 -1.4178
  174MPD1     C 2701   1.474   1.725  14.372  0.6655 -0.2538  0.0482
  174MPD1    C1 2702   1.361   1.684  14.442 -0.2478 -0.1392  0.4723
  174MPD1    C2 2703   1.239   1.742  14.409 -0.1446  0.0480  0.6328
  174MPD1    C3 2704   1.234   1.838  14.313  0.7301 -0.6057  0.3415
  174MPD1    C4 2705   1.345   1.871  14.245  0.2325  0.3599  0.5422
  174MPD1    C5 2706   1.460   1.810  14.269 -0.0155 -0.2777  0.2373
  174MPD1     H 2707   1.154   1.709  14.467  1.4932 -1.3822  2.2095
  174MPD1    H1 2708   1.323   1.934  14.160  1.9132 -1.4171 -1.2069
  174MPD1    H2 2709   1.567   1.674  14.390  0.5779 -0.8441 -1.1810
  174MPD1    H3 2710   1.539   1.824  14.197 -1.3457  0.4204 -1.0725
  174MPD1     N 2711   1.116   1.899  14.265  0.1315 -0.5312 -0.3043
  174MPD1    H5 2712   1.133   1.973  14.196 -1.8475  0.9705  0.8212
  174MPD1    N1 2713   1.377   1.590  14.548  0.2239 -0.2342  0.1743
  174MPD1    H6 2714   1.318   1.508  14.533  1.2556 -0.6020 -1.8603
  174MPD1    H7 2715   1.466   1.545  14.527  0.0303  0.3014 -1.7899
  175MPD1     C 2716   3.938   2.609  15.471 -0.2673  0.6707 -0.3152
  175MPD1    C1 2717   3.796   2.599  15.483 -0.3347 -0.2163 -0.5938
  175MPD1    C2 2718   3.754   2.538  15.601  0.0142 -0.3980 -0.4000
  175MPD1    C3 2719   3.844   2.486  15.699 -0.5943  0.0704  0.9489
  175MPD1    C4 2720   3.978   2.477  15.668  0.4411 -0.0332 -0.7775
  175MPD1    C5 2721   4.025   2.544  15.556  0.1812 -0.2364  0.1784
  175MPD1     H 2722   3.652   2.554  15.633  0.0926  0.0224 -0.3673
  175MPD1    H1 2723   4.049   2.421  15.729 -2.5064 -0.1616  2.5269
  175MPD1    H2 2724   3.990   2.657  15.389  0.1405 -0.8568 -0.9456
  175MPD1    H3 2725   4.130   2.538  15.529  0.3634 -2.2800  1.2820
  175MPD1     N 2726   3.812   2.429  15.824  0.3098  0.0291  0.3180
  175MPD1    H5 2727   3.891   2.401  15.882 -0.5735 -2.4016  0.3436
  175MPD1    N1 2728   3.698   2.679  15.410 -0.2512  0.0613  0.0180
  175MPD1    H6 2729   3.597   2.664  15.410 -0.3569  0.8792 -2.4358
  175MPD1    H7 2730   3.738   2.706  15.320  0.1966  0.6944  0.4125
  176MPD1     C 2731   0.679   4.089  17.063  0.3521 -0.1264  0.1146
  176MPD1    C1 2732   0.625   4.204  17.019  0.7265  0.1137 -0.6178
  176MPD1    C2 2733   0.589   4.306  17.106  0.3460  0.4201  0.2495
  176MPD1    C3 2734   0.609   4.296  17.240  0.1050  0.4958  0.0806
  176MPD1    C4 2735   0.663   4.177  17.288 -0.2716 -0.3372 -0.9265
  176MPD1    C5 2736   0.705   4.071  17.199  0.0860 -0.2857  0.1478
  176MPD1     H 2737   0.555   4.397  17.058 -1.0672  0.3444  1.0976
  176MPD1    H1 2738   0.688   4.157  17.392 -0.6995 -0.6589 -0.8874
  176MPD1    H2 2739   0.691   4.014  16.986  0.8000  0.7583 -0.6839
  176MPD1    H3 2740   0.759   3.984  17.233  0.0675 -0.8679 -1.3309
  176MPD1     N 2741   0.572   4.412  17.316  0.0198 -0.1010 -0.0340
  176MPD1    H5 2742   0.538   4.491  17.263  0.5861 -0.8073 -1.4319
  176MPD1    N1 2743   0.581   4.207  16.888  0.3729 -0.1016  0.0770
  176MPD1    H6 2744   0.587   4.305  16.859  1.5607 -0.7322 -1.7713
  176MPD1    H7 2745   0.634   4.146  16.826 -1.0736 -3.3632  2.0464
  177MPD1     C 2746   4.064   0.259  10.370  0.4380 -1.0098 -0.2677
  177MPD1    C1 2747   4.075   0.242  10.229 -0.6840 -0.4944 -0.0981
  177MPD1    C2 2748   3.964   0.267  10.154 -0.2292  0.4070 -0.2465
  177MPD1    C3 2749   3.841   0.298  10.206  0.0638 -0.2356  0.5407
  177MPD1    C4 2750   3.832   0.329  10.348 -0.3966  0.4656 -1.0447
  177MPD1    C5 2751   3.942   0.301  10.425  0.4543  0.1124  0.2262
  177MPD1     H 2752   3.963   0.244  10.048  1.0845 -0.3860 -0.0821
  177MPD1    H1 2753   3.744   0.376  10.391  0.2080  1.2516 -0.6743
  177MPD1    H2 2754   4.144   0.256  10.442  0.2640  0.8857  0.0117
  177MPD1    H3 2755   3.940   0.304  10.534 -0.1956 -0.6835  0.2409
  177MPD1     N 2756   3.728   0.323  10.120 -0.4291 -0.8067 -0.3016
  177MPD1    H5 2757   3.751   0.330  10.021  0.1232  2.0087  0.0360
  177MPD1    N1 2758   4.188   0.178  10.172 -0.6018  0.1322 -0.2464
  177MPD1    H6 2759   4.194   0.176  10.071 -0.1057  1.6417 -0.2402
  177MPD1    H7 2760   4.278   0.183  10.220 -1.2073 -0.9005  1.0292
  178MPD1     C 2761   1.314   0.340   0.228 -0.1164 -0.2947 -0.4186
  178MPD1    C1 2762   1.398   0.446   0.216  0.4189 -0.1116  0.0413
  178MPD1    C2 2763   1.460   0.470   0.097  0.0581 -0.4402 -0.1982
  178MPD1    C3 2764   1.457   0.379  17.744  0.6827 -1.1491 -0.2401
  178MPD1    C4 2765   1.388   0.260   0.020  0.0174  0.5813  0.3100
  178MPD1    C5 2766   1.317   0.242   0.135  0.1517 -0.0769  0.5932
  178MPD1     H 2767   1.509   0.565   0.076 -0.4265  0.1722  1.4654
  178MPD1    H1 2768   1.372   0.183  17.702 -2.5647  1.7190 -0.3115
  178MPD1    H2 2769   1.246   0.317   0.310  1.0256 -0.5300  0.4621
  178MPD1    H3 2770   1.258   0.150   0.142 -0.2599  0.3045  2.1846
  178MPD1     N 2771   1.506   0.406  17.615  0.3074 -0.1410 -0.1989
  178MPD1    H5 2772   1.475   0.340  17.544 -0.2579 -0.8956  0.7454
  178MPD1    N1 2773   1.404   0.543   0.318  0.0699  0.2071  0.0476
  178MPD1    H6 2774   1.496   0.585   0.323 -1.3357  3.1769  1.0805
  178MPD1    H7 2775   1.377   0.518   0.413 -1.1872  0.0453 -0.3448
  179MPD1     C 2776   1.101   4.178  15.765  0.2975  0.4352  0.6433
  179MPD1    C1 2777   1.104   4.086  15.661 -1.0902 -0.0354  0.0776
  179MPD1    C2 2778   1.026   3.972  15.674  0.3677  0.1072 -0.5613
  179MPD1    C3 2779   0.966   3.944  15.795 -0.1275 -0.0917 -0.1270
  179MPD1    C4 2780   0.961   4.038  15.895 -1.0791 -0.3558 -0.2992
  179MPD1    C5 2781   1.020   4.161  15.876  0.1949 -0.0426 -0.5862
  179MPD1     H 2782   1.018   3.902  15.592 -0.8570 -1.9490  1.3172
  179MPD1    H1 2783   0.902   4.021  15.984  0.2827 -0.6370  0.5453
  179MPD1    H2 2784   1.159   4.269  15.758 -1.5461  1.6540  1.0027
  179MPD1    H3 2785   1.018   4.242  15.947 -0.1428  3.5627 -4.6642
  179MPD1     N 2786   0.898   3.822  15.816  0.2154  0.4339  0.2212
  179MPD1    H5 2787   0.860   3.814  15.910  1.3590  1.0417  0.7424
  179MPD1    N1 2788   1.162   4.117  15.538  0.4502  0.1069 -0.1286
  179MPD1    H6 2789   1.204   4.038  15.490  0.6645  0.9610 -1.3659
  179MPD1    H7 2790   1.234   4.188  15.548 -0.4630  0.8098  1.4815
  180MPD1     C 2791   4.576   0.443  15.219 -0.4047 -0.1795  0.4537
  180MPD1    C1 2792   4.517   0.415  15.093 -0.3354 -0.1562 -0.2881
  180MPD1    C2 2793   4.608   0.418  14.990  0.3896 -0.1005  0.4289
  180MPD1    C3 2794   0.002   0.467  15.005 -0.3597 -0.5227  0.2035
  180MPD1    C4 2795   0.041   0.513  15.130  0.6099  0.4411  0.4984
  180MPD1    C5 2796   4.703   0.495  15.236 -0.2090  0.2651  0.0643
  180MPD1     H 2797   4.579   0.367  14.899  2.2891  3.5637 -2.2302
  180MPD1    H1 2798   0.143   0.530  15.164  1.2170 -1.3093 -0.4221
  180MPD1    H2 2799   4.523   0.416  15.310  0.1010 -0.9048  0.5328
  180MPD1    H3 2800   4.734   0.504  15.339 -1.8706  1.0654  0.5094
  180MPD1     N 2801   0.086   0.444  14.892  0.7001 -0.3985  0.7868
  180MPD1    H5 2802   0.050   0.394  14.812  0.7382  0.7891  0.0300
  180MPD1    N1 2803   4.396   0.341  15.096 -0.3421  0.2676  0.1812
  180MPD1    H6 2804   4.336   0.371  15.172 -0.2187 -1.2588  0.8714
  180MPD1    H7 2805   4.347   0.334  15.007  1.4814  1.7626 -0.9626
  181MPD1     C 2806   2.325   2.795  10.136 -0.5656  0.9146  0.4822
  181MPD1    C1 2807   2.427   2.807  10.042 -0.8185 -0.1688 -0.3725
  181MPD1    C2 2808   2.538   2.738  10.069 -0.0640 -0.4382  0.0023
  181MPD1    C3 2809   2.575   2.691  10.194  0.1360  0.8294  0.3972
  181MPD1    C4 2810   2.481   2.702  10.292  0.2012 -1.0193  0.3036
  181MPD1    C5 2811   2.349   2.747  10.262  0.1003  0.6765 -0.6680
  181MPD1     H 2812   2.607   2.729   9.986 -1.6792 -2.1471 -1.1524
  181MPD1    H1 2813   2.503   2.683  10.397 -0.9858 -0.5797  0.6344
  181MPD1    H2 2814   2.220   2.813  10.116 -0.6464 -1.9080 -1.6784
  181MPD1    H3 2815   2.273   2.738  10.340  2.8465  0.8478  2.0214
  181MPD1     N 2816   2.701   2.640  10.227  0.4255 -0.4079  0.5163
  181MPD1    H5 2817   2.722   2.617  10.324  1.4628  1.3140  0.6818
  181MPD1    N1 2818   2.403   2.843   9.908  0.6929  0.9887 -0.2550
  181MPD1    H6 2819   2.341   2.923   9.897  1.6855  1.8229  0.2398
  181MPD1    H7 2820   2.485   2.860   9.851  1.9891 -1.2800  0.9358
  182MPD1     C 2821   4.387   0.527   1.137 -0.0644  0.1098 -0.6924
  182MPD1    C1 2822   4.510   0.589   1.176  0.1879 -0.0564 -0.1811
  182MPD1    C2 2823   4.505   0.729   1.187  0.5735 -0.0674  0.2990
  182MPD1    C3 2824   4.395   0.803   1.163  0.2591  0.1134  0.8926
  182MPD1    C4 2825   4.281   0.746   1.111 -0.5371  0.6416  0.2775
  182MPD1    C5 2826   4.282   0.606   1.102 -0.2542 -0.0759 -0.2484
  182MPD1     H 2827   4.596   0.772   1.227  2.2370 -1.9944 -1.4217
  182MPD1    H1 2828   4.195   0.804   1.080 -0.1843  2.1587  2.1435
  182MPD1    H2 2829   4.385   0.422   1.108 -3.3274 -0.0461  0.1527
  182MPD1    H3 2830   4.195   0.554   1.062 -0.2100 -0.6682  0.4109
  182MPD1     N 2831   4.398   0.945   1.178 -0.6614 -0.0278 -0.4981
  182MPD1    H5 2832   4.310   0.991   1.156 -0.7345  0.4430  0.7472
  182MPD1    N1 2833   4.617   0.521   1.226 -0.2659  0.2353  1.1600
  182MPD1    H6 2834   4.702   0.572   1.204 -1.0253  0.9109 -0.2040
  182MPD1    H7 2835   4.616   0.422   1.203  0.1261  0.5360 -0.1241
  183MPD1     C 2836   4.648   2.628   8.796 -0.3898 -0.1586 -0.0939
  183MPD1    C1 2837   4.519   2.643   8.742 -0.5836  0.0622 -0.1000
  183MPD1    C2 2838   4.417   2.593   8.812  0.0952  0.5580 -0.7645
  183MPD1    C3 2839   4.430   2.542   8.940 -0.6542  0.2086  0.1328
  183MPD1    C4 2840   4.556   2.535   8.997 -0.3622  0.4647  0.6857
  183MPD1    C5 2841   4.667   2.570   8.915  0.3389 -0.3901  0.3502
  183MPD1     H 2842   4.319   2.587   8.767  0.2733  1.8765 -1.3231
  183MPD1    H1 2843   4.587   2.503   9.096 -2.4532 -1.0079  0.8408
  183MPD1    H2 2844   4.732   2.646   8.731 -0.1723  2.0062  0.8039
  183MPD1    H3 2845   0.028   2.574   8.955  0.4565 -0.0594  0.0180
  183MPD1     N 2846   4.310   2.499   9.000  0.3257 -0.1396 -0.2838
  183MPD1    H5 2847   4.224   2.513   8.948  0.0264 -0.7815  0.0290
  183MPD1    N1 2848   4.499   2.683   8.606 -0.3362  0.7843  0.0222
  183MPD1    H6 2849   4.564   2.744   8.557  0.2347  0.7948  0.7951
  183MPD1    H7 2850   4.407   2.727   8.595 -1.3496 -1.0775  1.0368
  184MPD1     C 2851   3.349   3.957  10.383  0.1673  0.0024  0.0224
  184MPD1    C1 2852   3.426   4.010  10.278  0.4464  0.5094  0.2679
  184MPD1    C2 2853   3.364   4.091  10.183 -0.1653 -0.1679 -0.4593
  184MPD1    C3 2854   3.233   4.125  10.201  0.6456 -0.2670  0.0922
  184MPD1    C4 2855   3.162   4.081  10.304 -0.3972  0.3737 -1.0661
  184MPD1    C5 2856   3.221   4.002  10.402  0.0274  0.0957  0.0108
  184MPD1     H 2857   3.419   4.126  10.097 -0.0822  0.9561  0.0491
  184MPD1    H1 2858   3.059   4.109  10.322 -1.0509 -2.6445  0.0202
  184MPD1    H2 2859   3.388   3.880  10.448  0.9162  0.5075  0.1783
  184MPD1    H3 2860   3.149   3.971  10.477  0.3587 -1.4068 -0.3050
  184MPD1     N 2861   3.160   4.200  10.105 -0.3337  0.4251 -0.6864
  184MPD1    H5 2862   3.059   4.199  10.114 -0.3603  0.8323 -0.9564
  184MPD1    N1 2863   3.544   3.953  10.251 -0.8344  0.0973  0.4694
  184MPD1    H6 2864   3.604   4.003  10.186  0.6578 -1.3648  0.7315
  184MPD1    H7 2865   3.597   3.922  10.333 -1.1326  0.1394  0.6751
  185MPD1     C 2866   2.404   3.983   9.844 -0.0350 -1.0548 -0.2139
  185MPD1    C1 2867   2.430   4.063   9.734 -0.0931  0.5868  0.7986
  185MPD1    C2 2868   2.521   4.167   9.751 -0.1802  0.0980 -0.7343
  185MPD1    C3 2869   2.604   4.160   9.860 -0.5545 -0.6479 -0.4377
  185MPD1    C4 2870   2.592   4.058   9.950 -0.3856  0.5411  0.4723
  185MPD1    C5 2871   2.489   3.970   9.947  0.5444  0.3066 -0.7330
  185MPD1     H 2872   2.524   4.239   9.670 -0.6823 -0.6622 -1.4385
  185MPD1    H1 2873   2.665   4.044  10.029  0.0818 -1.5442 -0.3254
  185MPD1    H2 2874   2.317   3.918   9.838 -0.6381 -0.2153 -0.4801
  185MPD1    H3 2875   2.470   3.897  10.024 -0.2235 -0.3261 -1.5213
  185MPD1     N 2876   2.719   4.241   9.874 -0.3742  0.1712  0.5653
  185MPD1    H5 2877   2.793   4.211   9.937 -0.6641 -0.8385  0.4267
  185MPD1    N1 2878   2.330   4.065   9.639  0.2590 -0.3747  0.4564
  185MPD1    H6 2879   2.364   4.115   9.557 -2.8436 -0.0671 -0.6220
  185MPD1    H7 2880   2.298   3.976   9.603  0.5018  0.9885 -3.1411
  186MPD1     C 2881   1.407   3.606  15.606 -0.4064  0.0630  0.1584
  186MPD1    C1 2882   1.418   3.570  15.743  0.0303  0.2003  0.1128
  186MPD1    C2 2883   1.372   3.650  15.847 -0.0060  0.1665  0.5374
  186MPD1    C3 2884   1.321   3.772  15.808  0.0273  0.0649  0.4177
  186MPD1    C4 2885   1.321   3.810  15.676  0.5186  0.2393 -0.3288
  186MPD1    C5 2886   1.359   3.725  15.576 -0.0194 -0.5953 -0.1028
  186MPD1     H 2887   1.377   3.624  15.952  1.7201  1.6646  0.8376
  186MPD1    H1 2888   1.285   3.909  15.650 -2.2346 -0.8688 -0.8121
  186MPD1    H2 2889   1.455   3.548  15.528  0.7437  0.4329  0.5927
  186MPD1    H3 2890   1.367   3.752  15.472  1.7562  2.0895  0.7299
  186MPD1     N 2891   1.278   3.873  15.901 -0.0230 -0.1629 -0.2533
  186MPD1    H5 2892   1.244   3.960  15.862  1.6271  0.7684  0.4040
  186MPD1    N1 2893   1.487   3.450  15.766  0.7461  0.3415 -0.2713
  186MPD1    H6 2894   1.459   3.388  15.843  0.4450 -0.5620 -1.1098
  186MPD1    H7 2895   1.498   3.390  15.685  1.3989 -1.3274  1.0585
  187MPD1     C 2896   1.455   0.868  17.446 -0.7219 -0.0799 -0.0434
  187MPD1    C1 2897   1.356   0.915  17.531 -0.0731 -0.1432 -0.2237
  187MPD1    C2 2898   1.239   0.963  17.475 -0.0770  0.3383  0.5647
  187MPD1    C3 2899   1.223   0.974  17.332  0.0484 -0.6089  0.3717
  187MPD1    C4 2900   1.329   0.939  17.249 -0.2755 -0.4888 -0.6782
  187MPD1    C5 2901   1.443   0.886  17.312 -0.3107 -0.1479 -0.5244
  187MPD1     H 2902   1.165   0.989  17.550 -0.4693  0.9045 -0.0173
  187MPD1    H1 2903   1.336   0.941  17.141  2.9439 -4.4239 -0.5574
  187MPD1    H2 2904   1.546   0.822  17.484 -0.9073 -0.7479 -0.4174
  187MPD1    H3 2905   1.520   0.859  17.240  0.3177  4.2189 -1.4689
  187MPD1     N 2906   1.096   1.006  17.280 -0.3383 -0.6100  0.0760
  187MPD1    H5 2907   1.094   0.992  17.180 -0.5463  0.2487 -0.0336
  187MPD1    N1 2908   1.360   0.872  17.667 -0.2177 -0.1799 -0.1883
  187MPD1    H6 2909   1.454   0.871  17.705  0.1104  1.2737 -0.9501
  187MPD1    H7 2910   1.304   0.929  17.731 -1.9036 -0.2728 -1.5510
  188MPD1     C 2911   0.136   2.041  10.660 -0.4546 -0.6431  0.0989
  188MPD1    C1 2912   0.016   1.990  10.616  0.2373 -0.8934 -0.1830
  188MPD1    C2 2913   0.012   1.862  10.562 -0.0323 -0.3153 -0.5758
  188MPD1    C3 2914   0.124   1.785  10.533 -0.3029 -0.2629  0.4133
  188MPD1    C4 2915   0.242   1.839  10.576  0.1341  0.0250  0.0307
  188MPD1    C5 2916   0.243   1.959  10.643 -0.0375  0.4258  0.2877
  188MPD1     H 2917   4.657   1.819  10.532 -1.2448  1.6513  0.4697
  188MPD1    H1 2918   0.337   1.787  10.569 -0.0623  0.2897 -4.5360
  188MPD1    H2 2919   0.152   2.141  10.697 -0.2432 -1.0646  1.1665
  188MPD1    H3 2920   0.338   2.002  10.670  0.9754 -1.5616 -0.1282
  188MPD1     N 2921   0.121   1.652  10.484  0.2950  0.2575 -0.0096
  188MPD1    H5 2922   0.207   1.598  10.479 -0.3695 -0.7045 -0.9974
  188MPD1    N1 2923   4.633   2.048  10.655 -0.3322  0.2737 -0.9494
  188MPD1    H6 2924   4.565   2.030  10.582 -2.2307  1.1282  0.6356
  188MPD1    H7 2925   4.647   2.149  10.652 -0.4536  0.3418  0.3983
  189MPD1     C 2926   3.058   2.402   0.308 -0.6554 -0.5900  0.2256
  189MPD1    C1 2927   3.036   2.293   0.230  0.1615  0.7308  0.5599
  189MPD1    C2 2928   2.976   2.320   0.107 -0.3490  0.3337  0.3573
  189MPD1    C3 2929   2.932   2.446   0.068  0.2232 -0.1964  0.6963
  189MPD1    C4 2930   2.952   2.551   0.158 -0.1700  0.3080  0.0611
  189MPD1    C5 2931   3.018   2.526   0.273  0.2138  0.3955  0.0382
  189MPD1     H 2932   2.968   2.245   0.030  0.1632 -0.1046  0.7256
  189MPD1    H1 2933   2.929   2.653   0.130  3.2523  1.4051  1.2493
  189MPD1    H2 2934   3.115   2.395   0.400 -0.8351  1.1864  0.4639
  189MPD1    H3 2935   3.051   2.613   0.330  1.2128 -1.4798  2.3027
  189MPD1     N 2936   2.847   2.456  17.707  0.0197  0.3581  0.0322
  189MPD1    H5 2937   2.822   2.372  17.657 -0.7955  0.7950 -0.3037
  189MPD1    N1 2938   3.088   2.168   0.274 -0.2874 -0.2276  0.0764
  189MPD1    H6 2939   3.037   2.089   0.235 -1.1305  0.8504 -1.0513
  189MPD1    H7 2940   3.077   2.157   0.374 -3.6646 -2.8575 -0.5774
  190MPD1     C 2941   1.057   1.076  15.347  0.3434 -0.0300 -0.3421
  190MPD1    C1 2942   0.989   0.963  15.325  0.1970  0.2327 -0.8643
  190MPD1    C2 2943   1.052   0.840  15.343  0.3816 -0.3520  0.0956
  190MPD1    C3 2944   1.181   0.832  15.395 -0.2951  0.4097  0.3103
  190MPD1    C4 2945   1.249   0.944  15.423  0.4865 -0.3023  0.1780
  190MPD1    C5 2946   1.187   1.067  15.389 -0.8111 -0.5900  0.3123
  190MPD1     H 2947   0.990   0.754  15.321  0.5958 -0.9756  1.8619
  190MPD1    H1 2948   1.352   0.952  15.457  0.7444 -0.9145 -0.4683
  190MPD1    H2 2949   1.010   1.173  15.334  0.0476 -0.3428 -1.6654
  190MPD1    H3 2950   1.230   1.160  15.425 -1.5575 -0.0381 -0.1940
  190MPD1     N 2951   1.234   0.703  15.404 -0.1198 -0.3417  0.8567
  190MPD1    H5 2952   1.169   0.632  15.369 -0.6452  0.8169 -0.5098
  190MPD1    N1 2953   0.853   0.971  15.293  0.4118  0.3162 -0.2017
  190MPD1    H6 2954   0.820   0.888  15.243 -2.5472  1.8732 -0.7775
  190MPD1    H7 2955   0.831   1.057  15.244  1.4196  0.4635 -0.4104
  191MPD1     C 2956   4.617   1.856  13.304 -0.7369  0.5583 -0.5749
  191MPD1    C1 2957   0.007   1.880  13.262  0.1812  0.1709 -0.1926
  191MPD1    C2 2958   0.029   2.009  13.218  0.2628  0.2925  1.2002
  191MPD1    C3 2959   4.677   2.113  13.224 -0.2551  0.2525 -0.2813
  191MPD1    C4 2960   4.553   2.089  13.277 -0.0949  0.4152 -0.0630
  191MPD1    C5 2961   4.528   1.963  13.323 -0.0383 -0.1821  0.4675
  191MPD1     H 2962   0.132   2.034  13.196  0.4773  0.0405  1.9198
  191MPD1    H1 2963   4.476   2.164  13.294 -0.4855  0.3402 -1.4895
  191MPD1    H2 2964   4.582   1.755  13.323  0.9267 -0.0558 -0.7493
  191MPD1    H3 2965   4.431   1.939  13.365 -1.5330 -0.4637 -3.0667
  191MPD1     N 2966   4.721   2.240  13.176  0.4679  0.5968  0.6188
  191MPD1    H5 2967   0.081   2.262  13.178  0.8458 -1.1940  0.9238
  191MPD1    N1 2968   0.088   1.769  13.221  0.0726  0.0918  0.3869
  191MPD1    H6 2969   0.184   1.801  13.208 -0.4713  1.8505  0.6974
  191MPD1    H7 2970   0.099   1.699  13.295  0.5660 -0.4390 -0.1916
  192MPD1     C 2971   4.320   3.087  13.462  0.8659 -0.1191 -0.6168
  192MPD1    C1 2972   4.352   3.126  13.335  0.0034 -0.0898  0.7128
  192MPD1    C2 2973   4.406   3.024  13.253  0.8256 -0.0869 -0.4299
  192MPD1    C3 2974   4.425   2.890  13.302  0.4021  0.0083 -0.7714
  192MPD1    C4 2975   4.366   2.861  13.423  0.7216 -0.3756  0.3167
  192MPD1    C5 2976   4.312   2.960  13.502 -0.6646  0.1502 -0.0072
  192MPD1     H 2977   4.459   3.047  13.162  1.6837  0.2207  0.1475
  192MPD1    H1 2978   4.368   2.761  13.463  1.5348 -0.2842  0.5067
  192MPD1    H2 2979   4.294   3.165  13.532 -2.8991 -1.0127 -1.0271
  192MPD1    H3 2980   4.278   2.945  13.604  2.7739 -0.4038  1.0609
  192MPD1     N 2981   4.505   2.791  13.244 -0.4138 -0.3602  0.4096
  192MPD1    H5 2982   4.496   2.697  13.280 -0.8213 -1.1519 -1.8235
  192MPD1    N1 2983   4.370   3.258  13.300 -0.1069  0.0268 -0.0549
  192MPD1    H6 2984   4.363   3.282  13.201 -1.6912  2.3289  0.5923
  192MPD1    H7 2985   4.310   3.319  13.356 -1.2480 -0.8494 -0.3261
  193MPD1     C 2986   0.113   2.482  17.423  0.2334 -0.3045  0.2923
  193MPD1    C1 2987   0.196   2.419  17.334 -0.8760 -0.2366 -0.1449
  193MPD1    C2 2988   0.211   2.473  17.214 -0.6543 -0.8450  0.1324
  193MPD1    C3 2989   0.161   2.596  17.181  0.0634 -0.4169  0.4727
  193MPD1    C4 2990   0.072   2.656  17.265  0.1047  0.0209  0.4933
  193MPD1    C5 2991   0.053   2.597  17.383  0.5076  0.2295  0.3736
  193MPD1     H 2992   0.264   2.415  17.139 -1.3242 -1.9749  0.5367
  193MPD1    H1 2993   0.024   2.751  17.244 -0.9484 -0.4261  0.8812
  193MPD1    H2 2994   0.084   2.446  17.521  1.6432  0.0046  0.8306
  193MPD1    H3 2995   4.711   2.638  17.442 -1.5865 -1.8285 -1.1377
  193MPD1     N 2996   0.182   2.666  17.058  0.0913 -0.2442  0.2910
  193MPD1    H5 2997   0.126   2.749  17.048 -0.2133 -0.3378  1.2938
  193MPD1    N1 2998   0.241   2.285  17.357 -0.1955  0.3914 -0.0554
  193MPD1    H6 2999   0.257   2.254  17.452 -2.9375 -1.9323 -0.3335
  193MPD1    H7 3000   0.323   2.268  17.300  1.4725  0.4808  2.3084
  194MPD1     C 3001   2.580   0.025  16.768  0.3671 -0.1039  0.0505
  194MPD1    C1 3002   2.522   4.686  16.672  0.0575 -0.6448 -0.0302
  194MPD1    C2 3003   2.553   4.549  16.667  0.6068  0.4607  0.1972
  194MPD1    C3 3004   2.641   4.496  16.764  0.2493 -0.6037  0.6594
  194MPD1    C4 3005   2.694   4.574  16.866  0.2836  0.6143  0.2202
  194MPD1    C5 3006   2.658   4.706  16.864  0.2262 -0.1830 -0.2628
  194MPD1     H 3007   2.520   4.488  16.584 -1.1598 -2.3664  2.9352
  194MPD1    H1 3008   2.760   4.542  16.947 -1.4623 -3.4689  0.0326
  194MPD1    H2 3009   2.572   0.132  16.780 -0.8449 -0.4060  1.9729
  194MPD1    H3 3010   2.700   0.029  16.941  0.1777 -1.3387  0.7008
  194MPD1     N 3011   2.678   4.359  16.769 -0.3985 -0.2410 -0.1981
  194MPD1    H5 3012   2.740   4.329  16.844 -0.5707  3.7026  1.5128
  194MPD1    N1 3013   2.421   0.009  16.600 -0.0256  0.4978 -0.3758
  194MPD1    H6 3014   2.395   4.707  16.510 -2.0698 -0.7911  0.8166
  194MPD1    H7 3015   2.443   0.107  16.583 -0.4981  0.7504  0.5013
  195MPD1     C 3016   0.974   1.225   0.205  0.1435 -0.4964 -0.3578
  195MPD1    C1 3017   1.015   1.117   0.287  0.2851 -0.4566  0.2900
  195MPD1    C2 3018   0.926   1.017   0.304  0.4521 -0.3354 -1.2669
  195MPD1    C3 3019   0.794   1.023   0.275  0.3276 -0.4895  0.2905
  195MPD1    C4 3020   0.751   1.136   0.213  0.3578 -0.3263 -0.2057
  195MPD1    C5 3021   0.839   1.229   0.173  0.2769 -0.6251  0.3268
  195MPD1     H 3022   0.965   0.928   0.352  1.1918  0.1135 -1.0429
  195MPD1    H1 3023   0.651   1.154   0.177 -0.0673 -2.6154 -0.1774
  195MPD1    H2 3024   1.045   1.298   0.168  0.6452  0.0531  1.6830
  195MPD1    H3 3025   0.804   1.310   0.109  1.6941  0.0552  0.4123
  195MPD1     N 3026   0.693   0.928   0.320  0.8023  0.5275  1.0103
  195MPD1    H5 3027   0.601   0.970   0.315  0.7451  0.2427 -0.3526
  195MPD1    N1 3028   1.157   1.105   0.305 -0.4284 -0.0371  0.1370
  195MPD1    H6 3029   1.207   1.190   0.328  0.8937 -1.0181  0.9212
  195MPD1    H7 3030   1.196   1.040   0.374 -1.2014  1.4275  1.9740
  196MPD1     C 3031   4.387   0.877   0.639  0.0624 -0.6703  0.2668
  196MPD1    C1 3032   4.425   0.826   0.760  0.9355 -0.0870  0.0576
  196MPD1    C2 3033   4.528   0.887   0.822  0.4605 -0.5222 -1.4098
  196MPD1    C3 3034   4.589   1.001   0.766  0.2969  0.0982 -0.4364
  196MPD1    C4 3035   4.539   1.060   0.651 -0.0125 -0.1938  0.3475
  196MPD1    C5 3036   4.438   0.991   0.588 -0.1085 -0.0809  0.0860
  196MPD1     H 3037   4.569   0.850   0.916 -0.5193  1.4545 -0.2035
  196MPD1    H1 3038   4.576   1.149   0.600 -0.4164 -0.1247  0.1750
  196MPD1    H2 3039   4.305   0.833   0.583 -1.2032  0.8670  0.9257
  196MPD1    H3 3040   4.387   1.046   0.510 -0.5639  1.6621  1.6102
  196MPD1     N 3041   4.704   1.068   0.817  0.9151 -0.4682 -0.0271
  196MPD1    H5 3042   4.729   1.153   0.767  0.4457  0.4894  1.3909
  196MPD1    N1 3043   4.372   0.704   0.800 -0.6677 -0.2799  0.5379
  196MPD1    H6 3044   4.366   0.703   0.901 -1.0410 -1.4409  0.5075
  196MPD1    H7 3045   4.286   0.674   0.755 -0.6356  0.2798  0.1070
  197MPD1     C 3046   3.764   3.429  17.435 -0.6148  0.3141 -0.6257
  197MPD1    C1 3047   3.694   3.545  17.390  0.3749 -0.0844  0.1797
  197MPD1    C2 3048   3.663   3.542  17.255  0.3746 -0.3881  0.0335
  197MPD1    C3 3049   3.667   3.431  17.176 -0.5675 -0.0259 -0.3783
  197MPD1    C4 3050   3.728   3.316  17.225 -0.7054  0.2865 -0.1238
  197MPD1    C5 3051   3.762   3.316  17.356  0.4764  0.2951 -0.4115
  197MPD1     H 3052   3.633   3.633  17.206  1.7739 -0.1678 -0.4007
  197MPD1    H1 3053   3.721   3.230  17.160 -0.5028  2.3033 -2.8482
  197MPD1    H2 3054   3.807   3.405  17.532 -2.6035 -1.8270 -0.2858
  197MPD1    H3 3055   3.811   3.227  17.392 -0.4812  1.2893  3.3517
  197MPD1     N 3056   3.634   3.431  17.032  0.3175  0.2254 -0.7246
  197MPD1    H5 3057   3.659   3.350  16.977 -0.9350  1.1953 -2.7113
  197MPD1    N1 3058   3.685   3.659  17.476 -0.4448  0.1071  0.0603
  197MPD1    H6 3059   3.690   3.627  17.572  1.1951  0.8331  0.2057
  197MPD1    H7 3060   3.589   3.692  17.465 -0.9847 -1.4121  0.0811
  198MPD1     C 3061   0.855   1.414  15.100 -0.6912 -1.0564 -0.0500
  198MPD1    C1 3062   0.773   1.335  15.181  0.4262 -0.2221 -0.4674
  198MPD1    C2 3063   0.798   1.331  15.315 -0.4562  0.1004 -0.1646
  198MPD1    C3 3064   0.888   1.423  15.368 -0.3481 -0.0987 -0.3261
  198MPD1    C4 3065   0.957   1.502  15.279  0.2847 -0.5825  0.1544
  198MPD1    C5 3066   0.934   1.505  15.150 -0.5376  0.3511  0.2565
  198MPD1     H 3067   0.742   1.268  15.383  1.5099 -1.5362 -0.0707
  198MPD1    H1 3068   1.027   1.579  15.310  0.1029  0.3459 -1.7699
  198MPD1    H2 3069   0.837   1.410  14.993 -1.5176 -0.1666  0.0647
  198MPD1    H3 3070   0.991   1.570  15.085  0.1060 -1.2065 -0.7611
  198MPD1     N 3071   0.899   1.418  15.513  0.4499  0.1389  0.4405
  198MPD1    H5 3072   0.841   1.350  15.562  0.1618  0.7357  0.9175
  198MPD1    N1 3073   0.694   1.232  15.129  0.0129 -0.3775 -0.7418
  198MPD1    H6 3074   0.669   1.243  15.031  0.0846  1.9103 -0.4827
  198MPD1    H7 3075   0.621   1.189  15.186 -0.3546  0.4617 -0.5862
  199MPD1     C 3076   4.277   3.360   9.782  0.0190  0.5374  0.2662
  199MPD1    C1 3077   4.222   3.472   9.849  0.8010  0.0915 -0.5006
  199MPD1    C2 3078   4.096   3.507   9.819  0.3062  0.1017  0.2394
  199MPD1    C3 3079   4.039   3.470   9.697  0.5280  0.7660  0.0013
  199MPD1    C4 3080   4.092   3.363   9.622 -0.1945  0.0797  0.2830
  199MPD1    C5 3081   4.217   3.309   9.666  0.5419  0.0170 -0.4279
  199MPD1     H 3082   4.045   3.570   9.891  1.6770 -1.3254  2.4532
  199MPD1    H1 3083   4.041   3.326   9.533  1.7887 -2.2380  0.1100
  199MPD1    H2 3084   4.377   3.327   9.807 -0.0733  0.6672  0.8040
  199MPD1    H3 3085   4.259   3.224   9.614  0.3051 -0.7255  0.6038
  199MPD1     N 3086   3.918   3.525   9.648 -0.7807  0.2918  0.2318
  199MPD1    H5 3087   3.876   3.486   9.564  0.1143 -0.7694  0.2876
  199MPD1    N1 3088   4.285   3.518   9.965  0.1206  0.1344  0.2668
  199MPD1    H6 3089   4.270   3.616   9.985 -0.1776  0.6227 -2.3412
  199MPD1    H7 3090   4.385   3.499   9.951  0.0465 -0.4747  0.5509
  200MPD1     C 3091   1.571   2.679  15.056  0.0681 -0.6788 -0.1715
  200MPD1    C1 3092   1.602   2.648  14.925 -0.6370 -0.3751  0.8437
  200MPD1    C2 3093   1.731   2.634  14.883  0.5652 -0.0084  0.0037
  200MPD1    C3 3094   1.833   2.657  14.970  0.6235 -0.2679 -0.5065
  200MPD1    C4 3095   1.808   2.694  15.098  0.2968  0.2154 -0.1485
  200MPD1    C5 3096   1.675   2.698  15.138 -0.6164 -0.3512 -0.3391
  200MPD1     H 3097   1.759   2.615  14.781 -0.9817  2.7338 -0.9544
  200MPD1    H1 3098   1.886   2.713  15.170 -0.0802  0.2543  0.2517
  200MPD1    H2 3099   1.470   2.689  15.095  0.5002  1.8144  0.2853
  200MPD1    H3 3100   1.656   2.727  15.240  0.6897 -2.2683  0.4356
  200MPD1     N 3101   1.958   2.659  14.909  0.0837 -0.3228  0.0162
  200MPD1    H5 3102   1.964   2.627  14.813 -1.9243  1.3530 -0.6692
  200MPD1    N1 3103   1.491   2.631  14.840  0.2116  0.1909  0.2115
  200MPD1    H6 3104   1.509   2.574  14.758  1.4895  1.3329 -0.3073
  200MPD1    H7 3105   1.396   2.637  14.875 -0.4400  0.4422 -1.6192
  201MPD1     C 3106   3.266   2.116  13.258  0.0649  0.3740  0.0980
  201MPD1    C1 3107   3.321   2.106  13.130  0.1851  0.5481 -0.3203
  201MPD1    C2 3108   3.427   2.025  13.123  0.6083 -0.7316 -0.0465
  201MPD1    C3 3109   3.470   1.941  13.225 -0.4031  0.7043  0.2414
  201MPD1    C4 3110   3.409   1.940  13.349  0.8011 -0.3810  1.1171
  201MPD1    C5 3111   3.307   2.034  13.363 -0.2292  0.3113  0.4219
  201MPD1     H 3112   3.481   2.023  13.029  0.3020 -0.7526 -0.2207
  201MPD1    H1 3113   3.433   1.868  13.428  1.0651 -0.5408  0.8928
  201MPD1    H2 3114   3.177   2.177  13.266  0.5659  1.0025  0.8068
  201MPD1    H3 3115   3.248   2.028  13.454  2.5866 -1.1448  2.1662
  201MPD1     N 3116   3.569   1.848  13.181 -0.2184 -0.4015 -0.4375
  201MPD1    H5 3117   3.599   1.857  13.085  0.0287  0.0917 -0.3129
  201MPD1    N1 3118   3.277   2.186  13.021 -0.3743  1.0931  0.1998
  201MPD1    H6 3119   3.178   2.209  13.029 -0.3366  0.5262  2.1248
  201MPD1    H7 3120   3.293   2.137  12.933  3.5246  0.8444  1.0340
  202MPD1     C 3121   4.093   1.049   8.979  0.0539  0.3495 -0.5181
  202MPD1    C1 3122   4.017   0.990   9.076  0.0802  0.2502 -0.0018
  202MPD1    C2 3123   4.009   1.069   9.190 -0.3424  0.5518  0.1688
  202MPD1    C3 3124   4.084   1.184   9.217  0.1979  0.0896 -0.0205
  202MPD1    C4 3125   4.157   1.232   9.117  0.8075 -0.1424  0.2606
  202MPD1    C5 3126   4.169   1.158   9.005 -0.1696  0.1711  0.2032
  202MPD1     H 3127   3.920   1.050   9.249  0.7230 -1.2585  1.2148
  202MPD1    H1 3128   4.217   1.322   9.111  1.1596 -0.3821  0.1540
  202MPD1    H2 3129   4.107   0.998   8.884  0.1837 -0.9581  0.1986
  202MPD1    H3 3130   4.231   1.172   8.917  0.3535  1.5702  0.8017
  202MPD1     N 3131   4.066   1.260   9.333  0.0413  0.0434  0.5584
  202MPD1    H5 3132   4.121   1.344   9.348  0.2274 -0.0944  0.6439
  202MPD1    N1 3133   3.910   0.901   9.044 -0.3423 -0.7680  0.1249
  202MPD1    H6 3134   3.942   0.842   8.967  0.0051  0.6615 -0.8067
  202MPD1    H7 3135   3.878   0.840   9.120 -0.4494 -1.2000 -0.2603
  203MPD1     C 3136   2.484   2.511  12.336 -0.0674  0.2296 -0.2570
  203MPD1    C1 3137   2.487   2.416  12.231 -0.0181 -0.2611  0.3364
  203MPD1    C2 3138   2.552   2.297  12.246 -0.4565  0.8775 -0.2080
  203MPD1    C3 3139   2.623   2.271  12.363 -0.3254  0.6770 -0.1630
  203MPD1    C4 3140   2.617   2.367  12.463 -0.2646  0.0434  0.7820
  203MPD1    C5 3141   2.538   2.480  12.453 -0.6021 -0.5930 -0.2512
  203MPD1     H 3142   2.545   2.223  12.167 -0.6007  1.1992 -0.4933
  203MPD1    H1 3143   2.672   2.355  12.556  2.3761 -0.5880 -0.8849
  203MPD1    H2 3144   2.445   2.609  12.311 -2.2218 -0.5761  0.0068
  203MPD1    H3 3145   2.546   2.548  12.538  0.4322  0.0553 -0.8665
  203MPD1     N 3146   2.703   2.154  12.383 -0.0966  0.1224  0.8185
  203MPD1    H5 3147   2.683   2.075  12.322  0.7813 -1.5474  2.6757
  203MPD1    N1 3148   2.446   2.453  12.098 -0.3749 -0.0357 -0.1583
  203MPD1    H6 3149   2.415   2.372  12.044  1.4051 -0.3521 -0.6951
  203MPD1    H7 3150   2.379   2.529  12.090  0.6402  0.7316 -1.1994
  204MPD1     C 3151   2.215   3.698  16.929 -0.4516 -0.4472 -0.1904
  204MPD1    C1 3152   2.298   3.683  16.821  0.5685 -0.0804  0.3368
  204MPD1    C2 3153   2.413   3.597  16.825 -0.1604 -0.1777 -0.8068
  204MPD1    C3 3154   2.442   3.530  16.944 -0.3017 -0.1924  0.3657
  204MPD1    C4 3155   2.368   3.551  17.052  0.2771 -0.5226 -0.0276
  204MPD1    C5 3156   2.251   3.629  17.047  0.4918 -0.7533 -0.2568
  204MPD1     H 3157   2.478   3.574  16.741  1.4046  0.0646  0.3624
  204MPD1    H1 3158   2.379   3.506  17.150 -2.0557  0.0306  0.5008
  204MPD1    H2 3159   2.126   3.760  16.930  1.1337  1.8392 -3.3732
  204MPD1    H3 3160   2.188   3.625  17.135 -0.2362 -1.1462 -0.7965
  204MPD1     N 3161   2.539   3.429  16.941 -0.0181 -0.0960 -0.2679
  204MPD1    H5 3162   2.551   3.382  16.852 -2.7240  1.1793 -1.3072
  204MPD1    N1 3163   2.279   3.770  16.714  0.5509 -0.2834 -0.6106
  204MPD1    H6 3164   2.325   3.724  16.636 -1.0868 -2.4514 -0.3014
  204MPD1    H7 3165   2.179   3.783  16.701  0.0622 -1.0525  2.4435
  205MPD1     C 3166   3.169   1.998  16.988  0.2229 -0.1023  0.3473
  205MPD1    C1 3167   3.117   1.965  17.114 -0.2041 -0.0502 -0.2055
  205MPD1    C2 3168   3.128   2.053  17.226 -0.1297  0.0683 -0.4152
  205MPD1    C3 3169   3.189   2.174  17.206  0.4446  0.4263 -0.2719
  205MPD1    C4 3170   3.238   2.207  17.084  0.5368 -0.4520  1.1430
  205MPD1    C5 3171   3.228   2.120  16.983  0.9050 -0.1779 -0.1267
  205MPD1     H 3172   3.089   2.025  17.323 -1.1671  1.6222 -0.3935
  205MPD1    H1 3173   3.279   2.304  17.057  0.0947 -0.8787 -1.0507
  205MPD1    H2 3174   3.157   1.934  16.901  0.6862 -0.4032  0.4988
  205MPD1    H3 3175   3.264   2.156  16.887  0.9664 -2.2809 -0.8918
  205MPD1     N 3176   3.203   2.260  17.313  0.3335 -0.1735 -0.0217
  205MPD1    H5 3177   3.227   2.354  17.284 -0.1461  0.0101  0.1731
  205MPD1    N1 3178   3.056   1.842  17.127  0.0587 -0.0925 -0.8683
  205MPD1    H6 3179   3.135   1.778  17.115  1.1747  1.3580 -1.2774
  205MPD1    H7 3180   3.038   1.817  17.224 -0.3742 -0.6115 -1.0882
  206MPD1     C 3181   3.301   4.523  16.816 -0.6000  0.1226  0.3136
  206MPD1    C1 3182   3.247   4.415  16.747  0.1294  0.2208 -0.2391
  206MPD1    C2 3183   3.133   4.437  16.668  0.1669  0.2753  0.5307
  206MPD1    C3 3184   3.077   4.559  16.651  0.1620  0.6615 -0.5862
  206MPD1    C4 3185   3.114   4.662  16.735  0.7395 -0.0851 -0.4656
  206MPD1    C5 3186   3.226   4.640  16.817 -0.1233 -0.1454  0.0009
  206MPD1     H 3187   3.094   4.353  16.611  1.5506 -1.4299  2.0800
  206MPD1    H1 3188   3.067   0.020  16.735 -0.5402 -0.6945  0.0004
  206MPD1    H2 3189   3.393   4.523  16.873 -0.7270  2.5619  0.5168
  206MPD1    H3 3190   3.255   4.721  16.883 -2.3402  0.1591  0.5744
  206MPD1     N 3191   2.966   4.585  16.567 -0.4102 -0.0054 -0.5335
  206MPD1    H5 3192   2.931   4.679  16.551 -2.7788 -1.0157 -1.2079
  206MPD1    N1 3193   3.296   4.290  16.758 -0.0335 -0.0391  0.1122
  206MPD1    H6 3194   3.226   4.218  16.776 -0.3452  0.2137 -0.0905
  206MPD1    H7 3195   3.359   4.295  16.838  1.3880 -0.4053 -0.9719
  207MPD1     C 3196   0.166   2.951   9.091 -0.1890  0.3370 -0.0148
  207MPD1    C1 3197   0.233   3.076   9.096 -0.2543  0.7514 -0.2503
  207MPD1    C2 3198   0.325   3.095   9.194 -0.6209  0.8109  0.2900
  207MPD1    C3 3199   0.358   3.001   9.288 -0.2141  0.3382 -0.3380
  207MPD1    C4 3200   0.302   2.877   9.278 -0.0120  0.1772  0.4653
  207MPD1    C5 3201   0.210   2.856   9.185 -0.8273 -0.2242  0.0572
  207MPD1     H 3202   0.367   3.195   9.197 -1.9004  1.3930 -0.8585
  207MPD1    H1 3203   0.328   2.795   9.344 -0.0957  0.3595  0.7253
  207MPD1    H2 3204   0.099   2.910   9.017  3.0746 -0.7629 -2.3597
  207MPD1    H3 3205   0.151   2.765   9.182  0.2359 -0.8887 -1.0881
  207MPD1     N 3206   0.431   3.033   9.400 -0.8457 -0.4539  0.2892
  207MPD1    H5 3207   0.455   2.959   9.465  0.9215 -0.7012 -0.6412
  207MPD1    N1 3208   0.218   3.157   8.982 -0.2179 -0.9109  0.0223
  207MPD1    H6 3209   0.230   3.257   9.001  0.7014 -0.5617 -2.4306
  207MPD1    H7 3210   0.127   3.153   8.936 -0.3591 -2.0163  0.3964
  208MPD1     C 3211   4.222   1.438  17.674  0.5056  0.7506 -0.1733
  208MPD1    C1 3212   4.250   1.404   0.049  0.6880  0.0887  0.2229
  208MPD1    C2 3213   4.167   1.441   0.153  0.0460  0.5281  0.6720
  208MPD1    C3 3214   4.061   1.528   0.120 -0.3380 -0.1299 -0.0890
  208MPD1    C4 3215   4.035   1.567  17.751 -0.0918  0.2969  0.2575
  208MPD1    C5 3216   4.116   1.518  17.652  0.8840 -0.0176  0.4321
  208MPD1     H 3217   4.178   1.411   0.257  1.2415  0.7099  0.6012
  208MPD1    H1 3218   3.947   1.625  17.725 -1.5012 -0.7211  2.7105
  208MPD1    H2 3219   4.284   1.411  17.590  0.6891  1.3948 -0.2400
  208MPD1    H3 3220   4.096   1.557  17.553 -1.8480 -2.0627  0.1717
  208MPD1     N 3221   3.971   1.556   0.224  0.1241  0.0181  0.2946
  208MPD1    H5 3222   3.979   1.501   0.309 -3.1378 -0.7611  0.1101
  208MPD1    N1 3223   4.346   1.303   0.066 -0.0755  0.2350  0.5163
  208MPD1    H6 3224   4.389   1.305   0.158 -0.9310  2.1396  0.8624
  208MPD1    H7 3225   4.418   1.319  17.752  1.5096 -3.0121  1.4020
  209MPD1     C 3226   4.411   2.292  10.698  0.0152  0.5447 -0.0418
  209MPD1    C1 3227   4.448   2.336  10.574  0.7504  0.4253 -0.0833
  209MPD1    C2 3228   4.574   2.382  10.550 -0.0679 -0.0917 -0.0822
  209MPD1    C3 3229   4.672   2.405  10.647 -0.4226 -0.0785 -0.1284
  209MPD1    C4 3230   4.632   2.361  10.774  0.5364 -0.6314  0.0507
  209MPD1    C5 3231   4.506   2.306  10.794  0.0770  0.9139  0.2365
  209MPD1     H 3232   4.593   2.414  10.448  1.1471 -2.5388 -0.6215
  209MPD1    H1 3233   4.694   2.381  10.861  2.1332 -2.1619 -0.7462
  209MPD1    H2 3234   4.314   2.261  10.737  1.9551 -0.7747  3.7165
  209MPD1    H3 3235   4.483   2.280  10.896  1.1926  0.0813  0.2783
  209MPD1     N 3236   0.061   2.451  10.613 -0.1641  0.1384 -0.1651
  209MPD1    H5 3237   0.085   2.462  10.515  0.5558 -0.7463 -0.0859
  209MPD1    N1 3238   4.349   2.346  10.481  0.3316  0.1870 -0.1116
  209MPD1    H6 3239   4.265   2.290  10.496 -0.5384  1.6663  0.5117
  209MPD1    H7 3240   4.382   2.334  10.386 -1.3236  0.7285 -0.7361
  210MPD1     C 3241   0.764   2.822  11.258  0.1682  0.7806 -0.1812
  210MPD1    C1 3242   0.756   2.909  11.150  0.4308 -0.7125 -0.2193
  210MPD1    C2 3243   0.684   2.867  11.041 -0.3460  0.4918  0.2391
  210MPD1    C3 3244   0.633   2.737  11.033 -0.0438  0.2211 -0.0919
  210MPD1    C4 3245   0.666   2.643  11.131  0.4634 -0.1691  1.0407
  210MPD1    C5 3246   0.725   2.688  11.245 -0.5864 -0.3656 -0.4909
  210MPD1     H 3247   0.661   2.934  10.959  2.1453  0.1330 -0.7649
  210MPD1    H1 3248   0.646   2.537  11.118  1.5645 -0.1817 -0.5536
  210MPD1    H2 3249   0.807   2.857  11.352  0.1359 -0.4946  0.3109
  210MPD1    H3 3250   0.751   2.615  11.320 -1.1284  1.1148  1.1406
  210MPD1     N 3251   0.565   2.680  10.921 -0.3911 -0.6919 -0.5448
  210MPD1    H5 3252   0.570   2.579  10.916  0.3123 -0.6131 -1.3625
  210MPD1    N1 3253   0.790   3.046  11.161  0.7455 -0.1672 -0.0393
  210MPD1    H6 3254   0.872   3.044  11.220  0.4951  2.5070  0.4033
  210MPD1    H7 3255   0.818   3.089  11.073  0.5788 -0.0099 -0.0164
  211MPD1     C 3256   3.022   1.198  17.021  0.0234  0.4858 -0.5857
  211MPD1    C1 3257   3.074   1.322  16.989  0.3414 -0.2258  0.0400
  211MPD1    C2 3258   2.994   1.416  16.916 -0.2151 -0.0112  0.0493
  211MPD1    C3 3259   2.864   1.393  16.881  0.0040  0.1427 -0.0709
  211MPD1    C4 3260   2.820   1.261  16.906  0.1771  0.0234  0.0596
  211MPD1    C5 3261   2.898   1.169  16.971  0.0517 -0.2225  0.7606
  211MPD1     H 3262   3.037   1.513  16.894  0.4846 -0.7687 -1.9081
  211MPD1    H1 3263   2.724   1.224  16.871  0.9921 -0.4159 -1.7168
  211MPD1    H2 3264   3.068   1.135  17.096 -0.3402  0.3567 -0.4715
  211MPD1    H3 3265   2.852   1.073  16.993 -1.4693  0.4339  0.4725
  211MPD1     N 3266   2.789   1.493  16.806  0.2166  0.0356  0.0611
  211MPD1    H5 3267   2.837   1.579  16.781  1.6373 -0.6447  0.4016
  211MPD1    N1 3268   3.190   1.361  17.058  0.5667  0.4277  0.0465
  211MPD1    H6 3269   3.255   1.283  17.067 -0.7412 -0.3427  2.5262
  211MPD1    H7 3270   3.239   1.431  17.002 -2.8876  1.6673 -1.4336
  212MPD1     C 3271   2.380   4.609  16.177 -0.0309 -1.1244 -0.3812
  212MPD1    C1 3272   2.339   4.676  16.284  0.2543 -0.1281  0.1013
  212MPD1    C2 3273   2.258   4.610  16.368  0.2994 -0.2040  0.2481
  212MPD1    C3 3274   2.239   4.476  16.364  0.0997  0.5131  0.2617
  212MPD1    C4 3275   2.301   4.404  16.262  0.4142  0.3286 -0.4073
  212MPD1    C5 3276   2.374   4.470  16.168 -0.3168 -0.4571 -0.2554
  212MPD1     H 3277   2.214   4.674  16.444 -0.4875 -2.0455  1.3287
  212MPD1    H1 3278   2.294   4.297  16.251  2.3917  0.2480 -0.8978
  212MPD1    H2 3279   2.430   4.659  16.095 -1.9861 -1.1090 -1.5654
  212MPD1    H3 3280   2.419   4.422  16.082  1.1633  1.2043 -0.4106
  212MPD1     N 3281   2.173   4.411  16.469 -0.3181 -0.2815 -0.6204
  212MPD1    H5 3282   2.165   4.310  16.460  0.2038 -0.4883  1.0549
  212MPD1    N1 3283   2.322   0.073  16.289  0.1977 -0.7308 -0.4530
  212MPD1    H6 3284   2.335   0.101  16.386 -3.5716  0.7013 -0.3523
  212MPD1    H7 3285   2.395   0.122  16.237 -0.0571 -0.5998 -0.6886
  213MPD1     C 3286   4.517   0.624  15.971  0.6438  0.3264  0.1202
  213MPD1    C1 3287   4.442   0.582  15.860 -0.2022 -0.0777 -0.5578
  213MPD1    C2 3288   4.469   0.636  15.735 -0.3684  0.7426 -0.2513
  213MPD1    C3 3289   4.585   0.709  15.711  0.3504  0.6478  0.6966
  213MPD1    C4 3290   4.667   0.741  15.818  1.1267  0.3394  0.1237
  213MPD1    C5 3291   4.635   0.699  15.946  0.3632 -0.9987  0.3296
  213MPD1     H 3292   4.385   0.628  15.666 -0.5724  2.0857 -0.1565
  213MPD1    H1 3293   0.018   0.801  15.806  1.0512  0.0981 -1.6169
  213MPD1    H2 3294   4.505   0.584  16.071  1.6312  0.7297  0.4053
  213MPD1    H3 3295   4.698   0.718  16.032  2.4673  0.2273 -1.4634
  213MPD1     N 3296   4.607   0.760  15.578  0.0172 -0.2976  0.4387
  213MPD1    H5 3297   4.541   0.737  15.505  0.5512  1.5147 -0.6058
  213MPD1    N1 3298   4.308   0.550  15.889  0.0242  0.0809 -0.0919
  213MPD1    H6 3299   4.260   0.507  15.811 -1.8159  1.7746  0.0896
  213MPD1    H7 3300   4.305   0.500  15.977 -1.0250 -0.0249 -0.1875
  214MPD1     C 3301   3.974   0.825  15.087  0.3926  0.4075 -0.1107
  214MPD1    C1 3302   4.058   0.921  15.030 -0.3037 -0.0817  0.0749
  214MPD1    C2 3303   4.193   0.917  15.064  0.7379  0.1056  0.0983
  214MPD1    C3 3304   4.246   0.808  15.133 -0.1351 -0.1455 -0.3709
  214MPD1    C4 3305   4.157   0.714  15.186 -0.3554  0.2253 -0.3998
  214MPD1    C5 3306   4.022   0.725  15.160  0.5858 -0.6793 -0.3106
  214MPD1     H 3307   4.250   1.007  15.044 -2.5686  1.9068 -1.2224
  214MPD1    H1 3308   4.191   0.627  15.241 -0.2731 -0.9580 -2.3565
  214MPD1    H2 3309   3.867   0.837  15.068  0.4055  0.4620 -0.1504
  214MPD1    H3 3310   3.958   0.654  15.212 -1.0679 -0.2003 -1.6890
  214MPD1     N 3311   4.380   0.794  15.168  0.5334 -0.3843 -1.1387
  214MPD1    H5 3312   4.410   0.721  15.232 -0.0654  1.5279  1.3295
  214MPD1    N1 3313   4.000   1.038  14.972  0.2703 -0.1395 -0.4345
  214MPD1    H6 3314   3.908   1.021  14.933 -0.1056 -2.1456  1.2677
  214MPD1    H7 3315   4.054   1.092  14.905 -2.9368  3.0735 -0.4124
  215MPD1     C 3316   3.817   2.672  11.202 -0.5425 -0.2732  0.2958
  215MPD1    C1 3317   3.916   2.585  11.246  0.0746  0.6658  0.6263
  215MPD1    C2 3318   4.040   2.616  11.190 -0.5476 -0.2615 -0.2450
  215MPD1    C3 3319   4.058   2.691  11.075  0.2784  0.4008 -0.0810
  215MPD1    C4 3320   3.955   2.765  11.019 -0.4488 -0.6068  0.3252
  215MPD1    C5 3321   3.837   2.756  11.092 -0.8356 -0.1311 -0.2379
  215MPD1     H 3322   4.128   2.571  11.235 -0.7563 -0.7087 -0.2890
  215MPD1    H1 3323   3.975   2.829  10.934  0.3735 -0.1357  0.8777
  215MPD1    H2 3324   3.722   2.673  11.254 -0.2897 -0.6390  0.7612
  215MPD1    H3 3325   3.763   2.831  11.067  0.5074  1.2117 -0.1916
  215MPD1     N 3326   4.186   2.681  11.016 -0.2667 -0.3754 -0.3452
  215MPD1    H5 3327   4.238   2.628  11.086 -0.5441  0.0796  0.2052
  215MPD1    N1 3328   3.896   2.510  11.366 -0.0911 -0.6165  0.0224
  215MPD1    H6 3329   3.804   2.466  11.363  0.7702 -2.3737 -0.5602
  215MPD1    H7 3330   3.959   2.431  11.378  0.1739 -0.6312 -1.5160
  216MPD1     C 3331   2.163   0.039  17.459  0.1139 -0.3893  0.3117
  216MPD1    C1 3332   2.294   0.001  17.447  1.5111 -0.2063 -0.3229
  216MPD1    C2 3333   2.325   4.606  17.451 -0.2095  0.4738  0.3637
  216MPD1    C3 3334   2.224   4.507  17.472  0.3750  0.3888  0.3300
  216MPD1    C4 3335   2.097   4.553  17.487  0.3921  0.6842  0.3206
  216MPD1    C5 3336   2.068   4.687  17.481  0.5088  0.0322  0.0363
  216MPD1     H 3337   2.425   4.565  17.450 -0.5917 -0.4476 -1.8851
  216MPD1    H1 3338   2.009   4.495  17.510  1.3089 -0.9703 -0.4027
  216MPD1    H2 3339   2.133   0.142  17.452 -1.8604 -1.0744 -1.3554
  216MPD1    H3 3340   1.963   4.711  17.489  0.6795  0.8140 -0.0601
  216MPD1     N 3341   2.265   4.371  17.482 -0.0215 -0.2399  0.2292
  216MPD1    H5 3342   2.362   4.345  17.466  0.1267 -0.5454  1.6608
  216MPD1    N1 3343   2.388   0.088  17.405  0.7299 -0.9965 -0.2150
  216MPD1    H6 3344   2.370   0.178  17.449  1.5633 -1.2738  0.7085
  216MPD1    H7 3345   2.474   0.068  17.456  1.4342  0.6668 -0.7366
  217MPD1     C 3346   3.524   2.609   9.312  0.1512  0.6213 -0.8729
  217MPD1    C1 3347   3.564   2.499   9.245  0.1694  0.1864 -0.1497
  217MPD1    C2 3348   3.504   2.376   9.273  0.1916 -0.1372 -0.4289
  217MPD1    C3 3349   3.420   2.359   9.382 -0.1357  0.2154  0.2322
  217MPD1    C4 3350   3.387   2.475   9.451 -0.2232  0.2247  0.0561
  217MPD1    C5 3351   3.446   2.597   9.421  0.1848 -0.7681  0.1605
  217MPD1     H 3352   3.527   2.287   9.216 -1.0009 -0.8668  0.2295
  217MPD1    H1 3353   3.323   2.476   9.538 -0.9440 -1.4142 -0.4446
  217MPD1    H2 3354   3.561   2.710   9.293 -0.3582  0.6989 -1.4394
  217MPD1    H3 3355   3.421   2.687   9.475  1.0120  1.1706 -2.7445
  217MPD1     N 3356   3.365   2.236   9.418  1.0552  0.0952  0.0640
  217MPD1    H5 3357   3.300   2.241   9.495 -1.1382 -0.7524 -1.7248
  217MPD1    N1 3358   3.635   2.514   9.131  0.0446  0.7540 -0.2316
  217MPD1    H6 3359   3.688   2.601   9.133 -0.1590  0.8710  0.0368
  217MPD1    H7 3360   3.691   2.434   9.104 -0.1604  0.7358 -0.6090
  218MPD1     C 3361   4.089   2.677  13.030 -0.2553  0.3563 -0.1920
  218MPD1    C1 3362   4.050   2.568  12.963 -0.9832  0.1090 -0.1894
  218MPD1    C2 3363   4.151   2.491  12.904 -0.3280  0.0549 -0.0680
  218MPD1    C3 3364   4.284   2.519  12.911  0.2568 -0.8655 -0.1177
  218MPD1    C4 3365   4.319   2.634  12.989 -0.4921 -0.2761 -0.1750
  218MPD1    C5 3366   4.219   2.709  13.044  0.2488  0.3652 -0.3262
  218MPD1     H 3367   4.118   2.421  12.828  0.3503 -0.8240  0.4571
  218MPD1    H1 3368   4.422   2.665  13.001 -0.4201 -0.2374 -0.8718
  218MPD1    H2 3369   4.015   2.742  13.077 -1.0462 -1.8001  1.5031
  218MPD1    H3 3370   4.237   2.802  13.096  0.0741  0.1341  0.1491
  218MPD1     N 3371   4.377   2.443  12.838  0.1329  0.0192  0.3361
  218MPD1    H5 3372   4.354   2.352  12.800 -1.7288 -0.1822  1.9468
  218MPD1    N1 3373   3.915   2.542  12.927 -0.6911 -0.2101 -0.0626
  218MPD1    H6 3374   3.851   2.579  12.997 -0.0414  0.6877  0.0689
  218MPD1    H7 3375   3.892   2.444  12.913 -0.1157 -0.3226 -0.2278
  219MPD1     C 3376   0.523   2.462  12.174  0.1143 -0.3109 -0.1581
  219MPD1    C1 3377   0.463   2.573  12.234  0.0323 -0.0548  0.0615
  219MPD1    C2 3378   0.359   2.545  12.327  0.0395  0.0850  0.0671
  219MPD1    C3 3379   0.297   2.421  12.332  0.4034 -0.4620 -0.4102
  219MPD1    C4 3380   0.351   2.319  12.254 -0.1741  0.3592 -1.0139
  219MPD1    C5 3381   0.456   2.349  12.176 -0.4895  0.2661  0.0228
  219MPD1     H 3382   0.325   2.618  12.400 -1.3541  0.2995 -0.7894
  219MPD1    H1 3383   0.295   2.227  12.241  2.0226 -1.2791  1.2298
  219MPD1    H2 3384   0.617   2.475  12.122  0.9735 -0.3158  1.3982
  219MPD1    H3 3385   0.505   2.268  12.123 -0.9273  0.6426 -0.9696
  219MPD1     N 3386   0.188   2.382  12.406  0.7202 -0.1913  0.7016
  219MPD1    H5 3387   0.162   2.284  12.409 -0.0489 -0.0999 -3.7436
  219MPD1    N1 3388   0.529   2.696  12.232 -0.4845  0.8829  0.1043
  219MPD1    H6 3389   0.569   2.705  12.139  0.9756  1.4843  0.8005
  219MPD1    H7 3390   0.461   2.772  12.241 -0.9967  0.5137 -0.7041
  220MPD1     C 3391   4.291   2.941   9.127  1.1263  0.1016 -0.0361
  220MPD1    C1 3392   4.394   2.849   9.150 -0.3768  0.4017  1.0524
  220MPD1    C2 3393   4.390   2.775   9.265  0.4211  0.4673 -0.0450
  220MPD1    C3 3394   4.282   2.779   9.352  0.2466  0.0473  0.2911
  220MPD1    C4 3395   4.183   2.865   9.326  0.0644 -0.1677 -0.2958
  220MPD1    C5 3396   4.188   2.945   9.210 -0.7464  0.1890 -0.1661
  220MPD1     H 3397   4.472   2.709   9.289 -2.8588 -3.4481  0.3903
  220MPD1    H1 3398   4.091   2.880   9.382  1.1161  3.0964  0.5691
  220MPD1    H2 3399   4.297   3.014   9.047  1.2587  0.9947  0.7786
  220MPD1    H3 3400   4.106   3.016   9.207  0.1861  1.2631 -0.5991
  220MPD1     N 3401   4.287   2.692   9.466  0.4706  1.1553  0.3655
  220MPD1    H5 3402   4.375   2.644   9.480 -1.7649 -3.1236  0.0195
  220MPD1    N1 3403   4.510   2.860   9.066  0.1090 -0.3291 -0.2444
  220MPD1    H6 3404   4.557   2.770   9.057 -0.6674 -0.4774 -2.8803
  220MPD1    H7 3405   4.489   2.886   8.970 -1.1387  0.2901  0.2101
  221MPD1     C 3406   2.216   0.787  16.421  1.0012 -0.1498 -0.7133
  221MPD1    C1 3407   2.309   0.769  16.522  0.1715  0.4352  0.3532
  221MPD1    C2 3408   2.437   0.746  16.474 -0.5599  0.4144  0.4224
  221MPD1    C3 3409   2.474   0.755  16.335 -0.0726 -0.5679  0.5939
  221MPD1    C4 3410   2.380   0.779  16.246  0.2045  0.7457  0.0770
  221MPD1    C5 3411   2.253   0.794  16.288  0.4846  0.2662  0.2237
  221MPD1     H 3412   2.515   0.728  16.548  0.1879  1.5950 -0.0614
  221MPD1    H1 3413   2.392   0.769  16.139  0.2089  1.4208  0.0201
  221MPD1    H2 3414   2.111   0.799  16.445  1.4413 -0.4783  1.3900
  221MPD1    H3 3415   2.178   0.813  16.213  1.4646  0.1713 -0.7881
  221MPD1     N 3416   2.596   0.730  16.277  0.3561  0.7686  0.8184
  221MPD1    H5 3417   2.593   0.733  16.175 -1.2458  1.7158  0.9001
  221MPD1    N1 3418   2.259   0.750  16.651 -0.7584 -0.2583  0.7318
  221MPD1    H6 3419   2.323   0.790  16.720 -0.6165  0.2570  0.3042
  221MPD1    H7 3420   2.172   0.802  16.662  0.2012  1.4419  0.4137
  222MPD1     C 3421   1.764   0.148  17.402  0.2063  0.3759 -0.7219
  222MPD1    C1 3422   1.871   0.230  17.389  0.4063 -0.4664  0.8580
  222MPD1    C2 3423   1.909   0.304  17.492  0.3406  0.0905 -0.0089
  222MPD1    C3 3424   1.848   0.289  17.615  0.6709 -0.0426 -0.0634
  222MPD1    C4 3425   1.757   0.191  17.633 -0.3633  0.6110  0.5569
  222MPD1    C5 3426   1.713   0.115  17.524  0.3002 -0.1642  0.4720
  222MPD1     H 3427   1.980   0.383  17.470  0.8800 -0.6814 -1.0166
  222MPD1    H1 3428   1.724   0.173  17.734  0.2240  0.9964  0.8170
  222MPD1    H2 3429   1.731   0.098  17.311 -0.0878 -0.1487 -0.3319
  222MPD1    H3 3430   1.629   0.046  17.527 -1.7026  2.2851  1.3447
  222MPD1     N 3431   1.872   0.383  17.728 -0.0739  0.3348  0.3265
  222MPD1    H5 3432   1.826   0.375   0.061  1.5230  0.8516  1.2015
  222MPD1    N1 3433   1.923   0.244  17.259  0.4927 -0.1326 -0.3432
  222MPD1    H6 3434   2.018   0.282  17.268  0.7827 -0.5717 -1.5360
  222MPD1    H7 3435   1.936   0.156  17.209  0.4405  0.1210 -0.8071
  223MPD1     C 3436   1.562   0.852   0.810  0.0947 -0.4882  0.2981
  223MPD1    C1 3437   1.669   0.932   0.773 -0.2104 -0.5107  0.0836
  223MPD1    C2 3438   1.734   0.909   0.655 -0.5646 -0.3430  0.0763
  223MPD1    C3 3439   1.704   0.807   0.569  0.4785  0.2823  0.0841
  223MPD1    C4 3440   1.607   0.726   0.618 -0.3577 -0.1923  0.4231
  223MPD1    C5 3441   1.528   0.747   0.729 -0.0481 -0.2964  0.0216
  223MPD1     H 3442   1.824   0.966   0.637 -1.7083  1.3146 -0.3588
  223MPD1    H1 3443   1.584   0.636   0.562 -1.4999  0.5005 -0.2395
  223MPD1    H2 3444   1.508   0.858   0.904 -0.1866 -0.5398  0.1412
  223MPD1    H3 3445   1.458   0.668   0.754 -1.9593  0.6328 -2.3485
  223MPD1     N 3446   1.784   0.777   0.456 -0.0331 -0.0491  0.4148
  223MPD1    H5 3447   1.859   0.839   0.426 -0.2738 -0.0641 -0.2095
  223MPD1    N1 3448   1.710   1.043   0.851  0.5949 -0.2295  0.3903
  223MPD1    H6 3449   1.811   1.059   0.854  0.5925 -0.0231 -0.3896
  223MPD1    H7 3450   1.681   1.036   0.948 -1.1930  5.1811  0.2844
  224MPD1     C 3451   3.861   1.797   8.879 -0.4113 -0.7865  0.1004
  224MPD1    C1 3452   3.780   1.904   8.911  0.3324 -0.2830 -0.0667
  224MPD1    C2 3453   3.760   1.933   9.045  0.2499 -0.1789 -0.4335
  224MPD1    C3 3454   3.817   1.863   9.150 -1.0928  0.0814  1.1468
  224MPD1    C4 3455   3.898   1.754   9.122  0.7635  0.5788 -0.0222
  224MPD1    C5 3456   3.921   1.723   8.983 -0.5825 -0.3268 -0.2023
  224MPD1     H 3457   3.701   2.020   9.071  2.8698  1.2227  0.7682
  224MPD1    H1 3458   3.936   1.686   9.197  2.1921  1.2361 -0.1457
  224MPD1    H2 3459   3.889   1.772   8.777  1.1066 -0.6377  0.4667
  224MPD1    H3 3460   3.982   1.642   8.946  2.0530  1.3746  0.4423
  224MPD1     N 3461   3.783   1.885   9.288 -0.0150  0.0757  1.0727
  224MPD1    H5 3462   3.811   1.819   9.360  0.2110 -2.5534 -1.4060
  224MPD1    N1 3463   3.741   1.989   8.804  1.0790  0.1968 -0.5322
  224MPD1    H6 3464   3.727   1.947   8.713  2.6793 -1.0629 -0.1945
  224MPD1    H7 3465   3.660   2.044   8.832  0.0998 -0.5060 -2.0004
  225MPD1     C 3466   0.053   3.016  12.520  0.6062  0.4242 -0.0711
  225MPD1    C1 3467   4.739   2.916  12.444 -0.4920 -0.0272 -0.4692
  225MPD1    C2 3468   4.606   2.882  12.464 -0.0144  0.3534  0.1480
  225MPD1    C3 3469   4.532   2.932  12.561  0.6955 -0.5362 -0.4537
  225MPD1    C4 3470   4.590   3.036  12.631  0.3139 -0.1908  0.3747
  225MPD1    C5 3471   4.712   3.086  12.606 -0.4489  0.1744  0.4956
  225MPD1     H 3472   4.580   2.801  12.396  1.3515  0.9534 -1.0875
  225MPD1    H1 3473   4.533   3.093  12.703 -1.6126 -0.6550 -0.7780
  225MPD1    H2 3474   0.152   3.055  12.500  0.4610  0.3501 -0.9154
  225MPD1    H3 3475   0.010   3.174  12.658  1.6246  0.1479 -0.9678
  225MPD1     N 3476   4.396   2.886  12.587  0.5321  0.1443 -0.3591
  225MPD1    H5 3477   4.339   2.932  12.658  0.4091 -1.1863  0.3997
  225MPD1    N1 3478   0.079   2.845  12.352 -0.0969  0.1134 -0.0281
  225MPD1    H6 3479   0.166   2.896  12.350 -0.1451  0.1631 -0.7160
  225MPD1    H7 3480   0.107   2.757  12.395 -0.7132 -0.1112 -0.0806
  226MPD1     C 3481   3.161   3.314   8.758  0.9532  1.3065 -0.0844
  226MPD1    C1 3482   3.169   3.294   8.888  0.9127 -0.1976 -0.2228
  226MPD1    C2 3483   3.291   3.332   8.948  0.0971 -0.6871 -0.3779
  226MPD1    C3 3484   3.403   3.377   8.877 -0.5266 -0.1509  0.3282
  226MPD1    C4 3485   3.387   3.383   8.738  0.2895  0.4523 -0.4087
  226MPD1    C5 3486   3.269   3.347   8.680 -0.4093 -0.3105  0.0999
  226MPD1     H 3487   3.296   3.323   9.056  0.7243 -0.2937 -0.3733
  226MPD1    H1 3488   3.468   3.414   8.674 -0.0705  1.7077 -0.2449
  226MPD1    H2 3489   3.074   3.286   8.700  1.0392 -2.3181  1.5399
  226MPD1    H3 3490   3.262   3.328   8.574  0.1271  1.0553 -0.1907
  226MPD1     N 3491   3.520   3.420   8.942  0.6328 -0.1007  0.5923
  226MPD1    H5 3492   3.536   3.396   9.039 -1.8292 -0.9572  0.7835
  226MPD1    N1 3493   3.057   3.260   8.961  0.3417 -0.4208  0.2404
  226MPD1    H6 3494   3.068   3.216   9.053 -0.6024 -0.9083  0.1228
  226MPD1    H7 3495   2.978   3.218   8.912 -1.4687  1.0149  1.8953
  227MPD1     C 3496   3.943   4.288   8.983 -0.3650  0.6505  0.2154
  227MPD1    C1 3497   3.804   4.256   8.989  0.3253 -0.7216  0.4467
  227MPD1    C2 3498   3.770   4.125   9.027  0.5820 -0.8541 -0.1182
  227MPD1    C3 3499   3.861   4.040   9.075 -0.2412 -0.2481  0.4225
  227MPD1    C4 3500   3.992   4.085   9.093 -0.4814  0.1637  0.1144
  227MPD1    C5 3501   4.033   4.209   9.051  0.1537 -0.1117  0.5921
  227MPD1     H 3502   3.669   4.088   9.010  0.5031 -0.9589  0.6051
  227MPD1    H1 3503   4.065   4.015   9.134  0.5260  1.3215  0.2888
  227MPD1    H2 3504   3.970   4.387   8.947  0.1858 -0.6405 -2.9221
  227MPD1    H3 3505   4.138   4.231   9.059 -0.5669  3.4114  0.2978
  227MPD1     N 3506   3.817   3.906   9.075  0.0825  0.2233  0.3133
  227MPD1    H5 3507   3.724   3.886   9.040  0.6962 -2.3567  0.2050
  227MPD1    N1 3508   3.706   4.345   8.941  0.0713  0.1514 -0.2220
  227MPD1    H6 3509   3.616   4.324   8.983  0.0146  1.0560  0.1150
  227MPD1    H7 3510   3.736   4.442   8.938 -0.7305  0.4734  1.7702
  228MPD1     C 3511   0.655   1.760  12.647 -0.6473  0.1761 -0.3754
  228MPD1    C1 3512   0.743   1.712  12.552 -1.1029  1.0528 -0.4788
  228MPD1    C2 3513   0.803   1.589  12.588  0.5146  0.2283  0.0767
  228MPD1    C3 3514   0.792   1.527  12.715  0.0051 -0.3565  0.3317
  228MPD1    C4 3515   0.713   1.588  12.804 -0.3983  0.3294 -0.0301
  228MPD1    C5 3516   0.638   1.703  12.772 -0.2772  0.2282 -0.3840
  228MPD1     H 3517   0.867   1.532  12.520  2.7015 -0.1186  2.4147
  228MPD1    H1 3518   0.716   1.560  12.909 -2.1276  1.3317  0.2980
  228MPD1    H2 3519   0.599   1.852  12.631  0.1332  1.0031  1.6529
  228MPD1    H3 3520   0.580   1.744  12.854 -0.1297 -1.3263  0.4921
  228MPD1     N 3521   0.852   1.402  12.731 -0.2150  0.2413 -0.0246
  228MPD1    H5 3522   0.902   1.357  12.655 -0.4488 -1.0924  0.6068
  228MPD1    N1 3523   0.745   1.762  12.423 -0.3131 -0.4339 -1.0154
  228MPD1    H6 3524   0.827   1.742  12.365 -0.6011  1.0160 -1.9217
  228MPD1    H7 3525   0.731   1.863  12.426  0.5032 -0.4378  2.5112
  229MPD1     C 3526   0.878   3.909  14.173 -0.0296 -0.4580 -1.1239
  229MPD1    C1 3527   0.953   3.808  14.227 -0.7599  0.0128  0.3072
  229MPD1    C2 3528   0.992   3.810  14.358  0.0292 -0.3594 -0.2344
  229MPD1    C3 3529   0.967   3.924  14.435  0.1094  0.6857  0.1333
  229MPD1    C4 3530   0.888   4.029  14.383  0.6451 -0.3408  0.5134
  229MPD1    C5 3531   0.846   4.020  14.255 -0.1311  0.0571 -0.8914
  229MPD1     H 3532   1.045   3.722  14.392  1.1579  0.7860  1.0256
  229MPD1    H1 3533   0.855   4.106  14.452  1.5649 -0.7449  1.4029
  229MPD1    H2 3534   0.842   3.893  14.072  0.7500 -3.4338 -0.9179
  229MPD1    H3 3535   0.801   4.102  14.201  0.9589  1.2774  0.0713
  229MPD1     N 3536   0.996   3.930  14.575 -0.8494 -0.0709 -0.0395
  229MPD1    H5 3537   0.947   4.007  14.619 -2.4185 -0.8033 -0.4906
  229MPD1    N1 3538   0.946   3.680  14.166  0.0578 -0.0383  0.6761
  229MPD1    H6 3539   0.955   3.692  14.065 -0.4568 -1.9922  0.4010
  229MPD1    H7 3540   1.022   3.614  14.183 -1.2587 -1.8459 -0.4899
  230MPD1     C 3541   0.658   4.302  15.412 -0.5679  0.3923  0.2460
  230MPD1    C1 3542   0.772   4.245  15.458  0.7021  0.2859 -1.4898
  230MPD1    C2 3543   0.841   4.153  15.379  0.0232  0.4509  0.5485
  230MPD1    C3 3544   0.812   4.145  15.248  0.6446  0.3571  1.2008
  230MPD1    C4 3545   0.705   4.221  15.197  0.3704  0.5328  0.2833
  230MPD1    C5 3546   0.624   4.291  15.282 -0.2322 -0.6315  0.4616
  230MPD1     H 3547   0.925   4.097  15.417 -0.2606 -1.4599 -1.6010
  230MPD1    H1 3548   0.683   4.206  15.092 -0.7586  0.4493  0.5278
  230MPD1    H2 3549   0.596   4.358  15.481 -1.4549 -2.0395  1.4130
  230MPD1    H3 3550   0.533   4.338  15.246 -0.4964  0.4376  2.5257
  230MPD1     N 3551   0.890   4.058  15.170  0.4185 -0.0574 -0.1878
  230MPD1    H5 3552   0.937   3.984  15.222  0.4343  0.3309  0.3541
  230MPD1    N1 3553   0.820   4.256  15.588 -0.3195 -0.3333  0.0458
  230MPD1    H6 3554   0.790   4.345  15.628 -3.5055 -0.7274 -1.4463
  230MPD1    H7 3555   0.918   4.241  15.607 -0.7948 -1.9293  1.2272
  231MPD1     C 3556   4.528   1.098  15.542 -0.4892  0.5451  0.7815
  231MPD1    C1 3557   4.467   1.078  15.425  0.3934  0.9074  0.3957
  231MPD1    C2 3558   4.504   1.152  15.313  0.1737 -0.5119 -0.5443
  231MPD1    C3 3559   4.607   1.239  15.319 -0.8773 -0.0714  0.3453
  231MPD1    C4 3560   4.676   1.256  15.436 -0.2226 -0.2818 -0.0702
  231MPD1    C5 3561   4.635   1.186  15.544  0.0420 -0.0075 -0.1179
  231MPD1     H 3562   4.456   1.143  15.216 -1.1096 -0.4720  0.0886
  231MPD1    H1 3563   0.016   1.329  15.449  1.0745 -1.9292  1.2069
  231MPD1    H2 3564   4.511   1.032  15.626 -0.2169 -1.3897 -0.6617
  231MPD1    H3 3565   4.691   1.203  15.635 -0.1031 -1.9796  0.3272
  231MPD1     N 3566   4.654   1.307  15.200 -0.3456 -0.2467  0.3746
  231MPD1    H5 3567   4.608   1.285  15.113  2.1974  1.2434 -1.3690
  231MPD1    N1 3568   4.372   0.977  15.418  0.0586 -0.1707 -0.0733
  231MPD1    H6 3569   4.328   0.964  15.508  0.5171  1.6554  0.4155
  231MPD1    H7 3570   4.304   0.999  15.345 -2.1659 -1.0451  1.7627
  232MPD1     C 3571   1.009   2.873  17.269 -0.2215 -0.2563  0.7446
  232MPD1    C1 3572   1.135   2.899  17.313  0.2289  0.0796 -0.1146
  232MPD1    C2 3573   1.212   2.789  17.345  0.4083 -0.3412  0.5885
  232MPD1    C3 3574   1.171   2.661  17.355  0.0860 -0.3834 -1.0715
  232MPD1    C4 3575   1.037   2.641  17.325 -0.9149 -0.0890  0.0913
  232MPD1    C5 3576   0.960   2.745  17.271 -0.2064 -0.0221 -0.4933
  232MPD1     H 3577   1.313   2.821  17.366  0.4431 -0.9265  1.2963
  232MPD1    H1 3578   0.993   2.543  17.336 -1.6717  0.3240  0.6843
  232MPD1    H2 3579   0.948   2.957  17.237  1.2118 -0.1991 -1.7746
  232MPD1    H3 3580   0.858   2.729  17.238 -0.1467  0.3823 -0.8829
  232MPD1     N 3581   1.268   2.564  17.401  1.1207 -0.2411 -0.9144
  232MPD1    H5 3582   1.354   2.600  17.440  1.1201 -1.7546  0.4693
  232MPD1    N1 3583   1.201   3.027  17.303  0.0919  0.3177 -0.5359
  232MPD1    H6 3584   1.125   3.094  17.300  0.7316  1.0362 -0.5308
  232MPD1    H7 3585   1.265   3.046  17.380  1.8199 -0.5656 -1.7654
  233MPD1     C 3586   0.885   1.987   1.046 -0.1116 -0.1320 -0.0781
  233MPD1    C1 3587   0.912   1.977   1.183  0.2531 -0.4597  0.1058
  233MPD1    C2 3588   0.838   1.878   1.254  1.0082  0.7165  0.0533
  233MPD1    C3 3589   0.716   1.826   1.206 -0.1455 -0.1072  0.4708
  233MPD1    C4 3590   0.682   1.851   1.074  0.4870  0.3239  0.2571
  233MPD1    C5 3591   0.766   1.936   0.999  0.1305  0.5992 -0.1740
  233MPD1     H 3592   0.863   1.873   1.359  0.2215 -0.5611  0.1813
  233MPD1    H1 3593   0.595   1.807   1.026  2.5265 -0.5790 -2.6423
  233MPD1    H2 3594   0.946   2.044   0.976 -0.3559  0.4964  0.2278
  233MPD1    H3 3595   0.740   1.956   0.896 -0.0178  0.2713 -0.1979
  233MPD1     N 3596   0.625   1.747   1.285 -0.1867  0.7832  0.0750
  233MPD1    H5 3597   0.544   1.704   1.242  1.5405 -0.1015 -2.2854
  233MPD1    N1 3598   1.029   2.034   1.240 -0.0681  0.1201  0.7247
  233MPD1    H6 3599   1.067   2.116   1.192 -1.5115  0.2539 -0.2000
  233MPD1    H7 3600   1.017   2.053   1.339 -1.7637 -0.3386  0.6097
  234MPD1     C 3601   4.316   0.702   9.483 -0.4070  0.1066  0.6002
  234MPD1    C1 3602   4.259   0.808   9.421  0.2813 -0.1407  0.0772
  234MPD1    C2 3603   4.153   0.865   9.488 -0.9744  0.4825  0.1384
  234MPD1    C3 3604   4.100   0.825   9.606 -0.1719  0.1990  0.0742
  234MPD1    C4 3605   4.163   0.718   9.667 -0.8188  0.1174  0.0402
  234MPD1    C5 3606   4.276   0.668   9.606 -0.3042 -1.0908 -0.0715
  234MPD1     H 3607   4.108   0.955   9.448  1.2004  0.5901 -2.0330
  234MPD1    H1 3608   4.145   0.684   9.769  1.5652 -1.9829 -0.2401
  234MPD1    H2 3609   4.402   0.651   9.441 -0.9642 -1.1117  0.9127
  234MPD1    H3 3610   4.332   0.592   9.658 -0.7059 -0.9378  0.5815
  234MPD1     N 3611   3.987   0.892   9.654 -0.3925 -0.1205  0.5769
  234MPD1    H5 3612   3.949   0.966   9.594 -0.5795  1.6800  2.9088
  234MPD1    N1 3613   4.300   0.867   9.301 -0.1788  0.8611 -0.0444
  234MPD1    H6 3614   4.230   0.893   9.232 -0.4727  1.3917  0.4571
  234MPD1    H7 3615   4.378   0.820   9.256 -0.5620  0.9197 -0.7703
  235MPD1     C 3616   0.137   3.055   9.704  0.3634  0.0857 -0.3481
  235MPD1    C1 3617   0.173   3.077   9.837 -0.0182  0.3971 -0.7673
  235MPD1    C2 3618   0.225   3.189   9.881  0.3086 -0.2029  0.1198
  235MPD1    C3 3619   0.240   3.295   9.797 -0.3839 -0.4088 -0.0394
  235MPD1    C4 3620   0.193   3.285   9.669 -1.0199  0.3021 -0.0183
  235MPD1    C5 3621   0.145   3.164   9.619 -0.6565 -0.5163 -0.5402
  235MPD1     H 3622   0.263   3.199   9.982 -1.9414  3.0669  0.6665
  235MPD1    H1 3623   0.186   3.368   9.600  2.1695 -0.2485 -1.0437
  235MPD1    H2 3624   0.094   2.968   9.657  1.7699  0.0218 -1.4969
  235MPD1    H3 3625   0.098   3.151   9.522 -1.0509  1.7218 -0.6423
  235MPD1     N 3626   0.304   3.407   9.853 -0.5723  0.3052 -0.0684
  235MPD1    H5 3627   0.338   3.399   9.948 -0.0440 -2.0135 -0.4409
  235MPD1    N1 3628   0.132   2.989   9.935 -0.0468 -0.4631  0.3236
  235MPD1    H6 3629   0.121   2.892   9.907 -3.4857 -0.6282  2.3264
  235MPD1    H7 3630   0.179   2.996  10.025 -1.5472  0.3160  1.0486
  236MPD1     C 3631   4.683   4.381   9.457  0.4718 -0.0606 -0.6713
  236MPD1    C1 3632   4.695   4.247   9.493  0.0016 -0.0340  0.5927
  236MPD1    C2 3633   4.689   4.213   9.621 -0.7418  0.8003 -0.1197
  236MPD1    C3 3634   4.669   4.301   9.730  0.2545  0.4713  0.1765
  236MPD1    C4 3635   4.650   4.435   9.694  0.3132  0.4462 -0.4622
  236MPD1    C5 3636   4.663   4.469   9.564  0.3069 -0.2086 -0.6625
  236MPD1     H 3637   4.692   4.109   9.652  1.5720  0.2052 -2.2919
  236MPD1    H1 3638   4.630   4.512   9.768  0.1678 -0.8465  0.8363
  236MPD1    H2 3639   4.687   4.418   9.355  0.2395  0.7755 -0.3757
  236MPD1    H3 3640   4.646   4.573   9.540  2.4205  0.4599  0.7836
  236MPD1     N 3641   4.675   4.266   9.871 -0.2196  0.6504  0.2261
  236MPD1    H5 3642   4.657   4.340   9.938  2.2380  0.7293  0.7869
  236MPD1    N1 3643   4.690   4.143   9.400  0.9194  0.0630 -0.0689
  236MPD1    H6 3644   4.715   4.051   9.434  1.9888  0.1958 -0.4955
  236MPD1    H7 3645   4.730   4.165   9.309 -0.8152 -0.3619 -0.9459
  237MPD1     C 3646   4.397   1.756  15.591  0.2432 -0.4896 -0.4197
  237MPD1    C1 3647   4.286   1.751  15.668 -0.0387 -0.5251 -0.3430
  237MPD1    C2 3648   4.162   1.782  15.618 -0.3491  0.0979  1.0199
  237MPD1    C3 3649   4.151   1.816  15.483  0.0208  0.5150  0.4060
  237MPD1    C4 3650   4.263   1.819  15.399  0.2601  0.2204 -0.7428
  237MPD1    C5 3651   4.385   1.799  15.464 -0.7786  0.3479  0.8696
  237MPD1     H 3652   4.080   1.788  15.689 -1.1488  3.0750 -0.1507
  237MPD1    H1 3653   4.251   1.826  15.292  1.9882  0.2992 -0.9295
  237MPD1    H2 3654   4.496   1.725  15.624  1.4262  0.3348 -3.2416
  237MPD1    H3 3655   4.478   1.797  15.407 -0.5023  0.0325  1.3241
  237MPD1     N 3656   4.029   1.845  15.428  0.2677 -0.0827 -0.3205
  237MPD1    H5 3657   4.030   1.866  15.329 -0.7759  0.1665 -0.2751
  237MPD1    N1 3658   4.309   1.744  15.810 -0.8514  0.1337  0.2557
  237MPD1    H6 3659   4.231   1.704  15.861 -0.7559 -0.8646 -0.3826
  237MPD1    H7 3660   4.390   1.691  15.843 -0.3775  0.4566 -0.3912
  238MPD1     C 3661   1.941   0.711  14.999  0.2815 -0.0180 -0.0051
  238MPD1    C1 3662   1.846   0.634  15.056  0.2727  0.5629  0.4210
  238MPD1    C2 3663   1.717   0.648  15.032 -0.7237 -0.2434  0.3406
  238MPD1    C3 3664   1.671   0.754  14.955  0.6480  0.1991  0.7248
  238MPD1    C4 3665   1.768   0.838  14.903 -0.1453 -0.1111  0.2356
  238MPD1    C5 3666   1.901   0.812  14.921 -0.0113 -0.4649  0.2853
  238MPD1     H 3667   1.647   0.568  15.057  0.8110 -1.0165  2.1020
  238MPD1    H1 3668   1.741   0.914  14.830  1.3634 -0.8399 -1.0752
  238MPD1    H2 3669   2.047   0.689  15.004 -0.0335 -1.2458  1.4629
  238MPD1    H3 3670   1.968   0.875  14.864 -0.7620  0.3484  0.2920
  238MPD1     N 3671   1.536   0.766  14.912  0.4420  0.4754 -0.0077
  238MPD1    H5 3672   1.511   0.831  14.838  0.0411 -1.3704 -1.5056
  238MPD1    N1 3673   1.895   0.520  15.121  0.3983  0.1061 -0.1238
  238MPD1    H6 3674   1.978   0.543  15.176  1.3117 -0.7810 -1.1377
  238MPD1    H7 3675   1.831   0.487  15.192  1.3879  1.5974  1.4633
  239MPD1     C 3676   1.627   1.452  14.873 -0.2302 -0.1137  0.9050
  239MPD1    C1 3677   1.743   1.487  14.808  0.0477  0.5400  0.2744
  239MPD1    C2 3678   1.744   1.616  14.748  0.0189  0.3746  0.4227
  239MPD1    C3 3679   1.635   1.702  14.771  0.0956 -0.8274  0.5091
  239MPD1    C4 3680   1.530   1.667  14.855 -0.3580 -0.0793  0.4508
  239MPD1    C5 3681   1.525   1.545  14.904  0.1285 -0.1676 -0.1040
  239MPD1     H 3682   1.823   1.635  14.676 -0.2514 -2.5693 -0.6639
  239MPD1    H1 3683   1.457   1.743  14.883 -1.8232 -0.7543 -1.5365
  239MPD1    H2 3684   1.622   1.351  14.911  0.2830 -0.1783  0.8055
  239MPD1    H3 3685   1.444   1.521  14.971  0.3189 -0.3147  0.0742
  239MPD1     N 3686   1.618   1.816  14.691  0.6579  0.3353 -0.4713
  239MPD1    H5 3687   1.526   1.857  14.684  0.7005  0.4874 -0.0961
  239MPD1    N1 3688   1.842   1.395  14.770 -0.0247 -0.1180  0.2582
  239MPD1    H6 3689   1.843   1.306  14.820  0.0209 -1.3001 -1.8016
  239MPD1    H7 3690   1.935   1.433  14.753  0.9675 -2.5279  0.2801
  240MPD1     C 3691   0.934   1.849  13.833  0.1124 -0.1222 -0.1512
  240MPD1    C1 3692   0.805   1.860  13.891 -0.2690  0.0919 -0.9705
  240MPD1    C2 3693   0.787   1.784  14.005  0.3652  0.0192 -0.6252
  240MPD1    C3 3694   0.875   1.704  14.056 -0.2128  0.1628  0.3743
  240MPD1    C4 3695   0.999   1.693  14.002 -0.1242 -0.7403  0.3956
  240MPD1    C5 3696   1.028   1.764  13.888  0.1120  0.2581 -0.1983
  240MPD1     H 3697   0.686   1.779  14.043  1.2177 -0.7952  1.4811
  240MPD1    H1 3698   1.075   1.623  14.037  0.3553 -0.9477 -1.0779
  240MPD1    H2 3699   0.960   1.892  13.737 -1.4661 -1.2152 -1.0637
  240MPD1    H3 3700   1.110   1.734  13.824 -0.6926  1.1730 -1.6478
  240MPD1     N 3701   0.830   1.633  14.173  0.3644 -0.3421 -0.1639
  240MPD1    H5 3702   0.739   1.655  14.211  0.9787 -2.0101  2.2667
  240MPD1    N1 3703   0.704   1.938  13.830 -0.5025 -0.6560 -0.2536
  240MPD1    H6 3704   0.641   1.968  13.904 -0.0101  0.2476 -0.2039
  240MPD1    H7 3705   0.739   2.027  13.795 -0.3905 -0.9289 -0.8437
  241MPD1     C 3706   1.387   1.160  14.866  0.4813  0.8235  0.0554
  241MPD1    C1 3707   1.257   1.159  14.917  0.2532  0.9351  0.3828
  241MPD1    C2 3708   1.164   1.232  14.843  0.3180 -0.3544 -0.2503
  241MPD1    C3 3709   1.193   1.268  14.710  0.3170  0.0135  0.0980
  241MPD1    C4 3710   1.326   1.259  14.657 -0.1928 -0.2870 -0.3849
  241MPD1    C5 3711   1.420   1.213  14.743 -0.2831  0.4573  0.2164
  241MPD1     H 3712   1.072   1.268  14.887  0.2656 -0.0614 -0.5939
  241MPD1    H1 3713   1.353   1.282  14.555 -0.4412  1.9153  0.0341
  241MPD1    H2 3714   1.464   1.113  14.926 -0.5276 -0.4559  0.3595
  241MPD1    H3 3715   1.520   1.205  14.701 -1.1670 -0.2251 -1.7244
  241MPD1     N 3716   1.092   1.319  14.626 -0.3239  0.3275  0.4127
  241MPD1    H5 3717   1.121   1.354  14.536  0.2086  0.4761  0.6396
  241MPD1    N1 3718   1.232   1.128  15.050  0.0903  0.0343  0.3398
  241MPD1    H6 3719   1.136   1.096  15.065 -0.5157  1.4997 -0.4221
  241MPD1    H7 3720   1.295   1.051  15.073 -1.2493 -1.0447  0.3985
  242MPD1     C 3721   0.377   0.227  15.741 -0.2954  0.1975 -0.1229
  242MPD1    C1 3722   0.359   0.095  15.701  0.1118  0.2631 -0.5035
  242MPD1    C2 3723   0.439   0.045  15.607 -0.4046 -0.3955 -0.4435
  242MPD1    C3 3724   0.508   0.135  15.524  0.3236  0.3248  0.1801
  242MPD1    C4 3725   0.519   0.265  15.558  0.3704  0.5779  0.0434
  242MPD1    C5 3726   0.455   0.315  15.673 -0.6798  0.0649 -0.3467
  242MPD1     H 3727   0.452   4.678  15.590  0.4895 -0.7267  2.2036
  242MPD1    H1 3728   0.576   0.330  15.493  1.9607 -0.5223  0.3359
  242MPD1    H2 3729   0.324   0.265  15.828 -1.8215 -3.2258  0.4327
  242MPD1    H3 3730   0.467   0.418  15.705  2.1057 -0.1306 -0.7340
  242MPD1     N 3731   0.574   0.090  15.407  0.6221  0.0883 -0.0418
  242MPD1    H5 3732   0.638   0.158  15.367 -0.6018  0.2940 -1.6764
  242MPD1    N1 3733   0.287   0.004  15.780  0.2851 -0.1495  0.1572
  242MPD1    H6 3734   0.203   0.053  15.808 -1.0145 -1.8582 -0.7708
  242MPD1    H7 3735   0.249   4.664  15.728  0.8358 -1.0423  1.1189
  243MPD1     C 3736   1.667   3.225  17.591  0.2326  0.6348  0.3151
  243MPD1    C1 3737   1.770   3.310  17.635  0.3897  0.4409 -0.0455
  243MPD1    C2 3738   1.875   3.312  17.543 -0.6182 -0.3646 -0.3016
  243MPD1    C3 3739   1.877   3.234  17.428 -0.4119  0.0434 -0.0511
  243MPD1    C4 3740   1.770   3.156  17.390  0.1922 -0.0827  0.0439
  243MPD1    C5 3741   1.666   3.151  17.478 -0.1438 -0.4609 -0.5837
  243MPD1     H 3742   1.954   3.383  17.567  0.2695 -1.7565  0.8798
  243MPD1    H1 3743   1.763   3.116  17.290  0.9321 -2.4050  0.9215
  243MPD1    H2 3744   1.589   3.202  17.662  1.9731 -1.1249  1.6771
  243MPD1    H3 3745   1.579   3.091  17.457 -1.3593  1.9365 -2.3930
  243MPD1     N 3746   1.985   3.257  17.343 -0.2705  0.2870 -0.2149
  243MPD1    H5 3747   2.066   3.300  17.386  0.1967 -1.9174  1.1029
  243MPD1    N1 3748   1.773   3.367   0.010  0.2598  0.0965 -0.0888
  243MPD1    H6 3749   1.832   3.449   0.017  0.1206  0.2774 -1.0155
  243MPD1    H7 3750   1.683   3.391   0.050 -0.0648 -2.3226  0.6316
  244MPD1     C 3751   2.780   3.126  17.664  0.8364  0.5256 -0.0033
  244MPD1    C1 3752   2.692   3.238  17.673  0.3375 -0.0365  0.0723
  244MPD1    C2 3753   2.586   3.230  17.590  0.1799  0.7007  0.2319
  244MPD1    C3 3754   2.577   3.137  17.487 -0.0320 -0.1029  1.2273
  244MPD1    C4 3755   2.659   3.033  17.478 -0.4705 -0.5687  0.4959
  244MPD1    C5 3756   2.764   3.031  17.569 -0.3277  0.0003  0.2617
  244MPD1     H 3757   2.511   3.306  17.608  1.1954  2.0820 -1.4233
  244MPD1    H1 3758   2.644   2.949  17.411  1.8296 -1.8534  1.5776
  244MPD1    H2 3759   2.865   3.115  17.730 -1.6332 -1.8315  2.7918
  244MPD1    H3 3760   2.836   2.950  17.566  0.4576  0.6988  0.1941
  244MPD1     N 3761   2.466   3.155  17.399 -0.7676  0.9688  0.4369
  244MPD1    H5 3762   2.408   3.233  17.430 -0.6153  1.0224  0.5895
  244MPD1    N1 3763   2.692   3.336   0.015 -0.2003  0.4022  0.0631
  244MPD1    H6 3764   2.785   3.378   0.019  0.9907 -2.2316  0.1029
  244MPD1    H7 3765   2.622   3.409   0.002 -0.6175 -0.0636 -0.2872
  245MPD1     C 3766   3.944   3.854  12.914  0.1556 -0.6494  0.5495
  245MPD1    C1 3767   3.984   3.821  13.041  0.2566 -0.0847  0.0656
  245MPD1    C2 3768   4.044   3.922  13.120 -0.3017 -0.2576 -0.8110
  245MPD1    C3 3769   4.062   4.044  13.066  0.1042  0.9259  0.1997
  245MPD1    C4 3770   4.023   4.080  12.939 -0.2184 -0.5390 -0.3424
  245MPD1    C5 3771   3.966   3.977  12.867 -0.0822  0.9825 -0.0250
  245MPD1     H 3772   4.073   3.905  13.223  2.2295  1.7605 -1.1956
  245MPD1    H1 3773   4.027   4.180  12.899  0.2492 -0.3276  0.2318
  245MPD1    H2 3774   3.885   3.795  12.845  0.6625 -1.5193  0.8667
  245MPD1    H3 3775   3.930   3.996  12.767 -1.7440  0.4183  0.4526
  245MPD1     N 3776   4.113   4.148  13.149  0.0333 -0.2552  0.1341
  245MPD1    H5 3777   4.127   4.123  13.246 -0.5706 -0.5693  0.1404
  245MPD1    N1 3778   3.929   3.705  13.102 -0.4661  0.0289 -0.2683
  245MPD1    H6 3779   3.978   3.671  13.185  0.3427  2.8457  0.3842
  245MPD1    H7 3780   3.922   3.629  13.034  0.8235  1.2781 -1.7972
  246MPD1     C 3781   0.240   1.940  10.238  0.1581  0.7172  0.8771
  246MPD1    C1 3782   0.364   1.889  10.255 -0.3103 -0.1468 -0.3123
  246MPD1    C2 3783   0.393   1.757  10.224 -0.3432  0.0903  0.3087
  246MPD1    C3 3784   0.300   1.667  10.177  0.1324 -0.0806  0.0874
  246MPD1    C4 3785   0.174   1.711  10.166  0.6375 -0.7928 -0.0232
  246MPD1    C5 3786   0.154   1.847  10.176 -0.3883  0.0081  0.0433
  246MPD1     H 3787   0.498   1.732  10.225  0.2396  2.5275 -0.2958
  246MPD1    H1 3788   0.089   1.655  10.128 -0.7996  1.5834 -0.3221
  246MPD1    H2 3789   0.206   2.042  10.251  0.5411  1.0801 -0.9226
  246MPD1    H3 3790   0.051   1.881  10.176 -0.6287 -0.7309 -0.8086
  246MPD1     N 3791   0.344   1.538  10.151 -0.0006 -0.2256  0.3962
  246MPD1    H5 3792   0.443   1.518  10.164  0.3939  0.2223 -1.8247
  246MPD1    N1 3793   0.469   1.977  10.292  0.0629  0.1519 -0.1270
  246MPD1    H6 3794   0.443   2.065  10.337 -0.2675  0.5581 -1.0955
  246MPD1    H7 3795   0.528   1.936  10.364  0.2518  2.5975  1.1084
  247MPD1     C 3796   3.443   2.814  16.069  0.3210 -0.0022  0.4558
  247MPD1    C1 3797   3.564   2.811  16.142 -0.2923 -0.3462  0.6624
  247MPD1    C2 3798   3.679   2.813  16.069 -0.1532 -0.1976  0.0596
  247MPD1    C3 3799   3.683   2.828  15.928 -0.3863 -0.0841  0.3038
  247MPD1    C4 3800   3.562   2.854  15.864  0.1105  0.3490 -0.0843
  247MPD1    C5 3801   3.443   2.834  15.934 -0.1506  0.2258  0.9527
  247MPD1     H 3802   3.773   2.802  16.120 -0.8273 -1.9702  0.9432
  247MPD1    H1 3803   3.556   2.855  15.756 -1.0734  0.5362 -0.0204
  247MPD1    H2 3804   3.358   2.798  16.134  0.1059 -0.3534  0.0882
  247MPD1    H3 3805   3.349   2.848  15.882  0.9407 -0.7500 -1.2845
  247MPD1     N 3806   3.802   2.830  15.858 -0.2243 -0.2354  0.2368
  247MPD1    H5 3807   3.802   2.860  15.761 -1.4430  0.7414  0.5327
  247MPD1    N1 3808   3.562   2.814  16.285 -0.6014 -0.2266 -0.1479
  247MPD1    H6 3809   3.650   2.787  16.329  0.1907 -0.3636 -1.8399
  247MPD1    H7 3810   3.499   2.741  16.316  1.1828 -0.6256  2.5947
  248MPD1     C 3811   0.031   3.593  17.038 -0.5839  0.3084 -0.4409
  248MPD1    C1 3812   4.663   3.672  17.076  0.4310 -0.3125  0.3337
  248MPD1    C2 3813   4.665   3.735  17.197  0.0372  0.0385 -0.3664
  248MPD1    C3 3814   0.023   3.718  17.287  0.3280  0.1589  0.3650
  248MPD1    C4 3815   0.123   3.629  17.257  0.3147  0.0181  0.0901
  248MPD1    C5 3816   0.126   3.570  17.138  0.9834  0.6389 -0.5607
  248MPD1     H 3817   4.588   3.807  17.221  0.4394 -0.8717  3.5505
  248MPD1    H1 3818   0.200   3.602  17.328  0.6100  0.6785  0.0166
  248MPD1    H2 3819   0.037   3.544  16.941  1.7417 -0.9049  0.3094
  248MPD1    H3 3820   0.209   3.508  17.107  1.5025  1.0696 -0.0360
  248MPD1     N 3821   0.014   3.776  17.416 -0.3188 -0.4105  0.3309
  248MPD1    H5 3822   4.673   3.830  17.445  2.5465  3.4087  1.1983
  248MPD1    N1 3823   4.568   3.722  16.984  0.2158  0.2341 -0.5611
  248MPD1    H6 3824   4.485   3.749  17.037 -0.2406 -0.5807 -0.8760
  248MPD1    H7 3825   4.533   3.661  16.911 -0.7933  1.4960 -1.1372
  249MPD1     C 3826   0.987   3.053   9.633  0.0042  0.2131 -0.0444
  249MPD1    C1 3827   0.993   3.052   9.771 -0.3636  0.5968 -0.0291
  249MPD1    C2 3828   0.924   2.956   9.833 -0.3796 -0.2795 -0.2145
  249MPD1    C3 3829   0.837   2.862   9.767  0.3036  0.1737 -0.2946
  249MPD1    C4 3830   0.815   2.888   9.635 -0.2415 -0.3140 -0.8662
  249MPD1    C5 3831   0.892   2.977   9.572  0.5124  0.2646  0.1849
  249MPD1     H 3832   0.941   2.949   9.940 -1.6430 -1.3705 -0.0863
  249MPD1    H1 3833   0.733   2.842   9.582 -0.5200  1.3429 -1.8879
  249MPD1    H2 3834   1.043   3.114   9.563 -1.1041  1.9750  0.6242
  249MPD1    H3 3835   0.866   2.991   9.468 -0.3582 -1.9787  0.0985
  249MPD1     N 3836   0.786   2.747   9.838 -0.3883 -0.0849  0.8177
  249MPD1    H5 3837   0.792   2.758   9.939 -0.7406 -3.0224  1.1847
  249MPD1    N1 3838   1.093   3.134   9.829 -0.2204 -0.3299  0.0207
  249MPD1    H6 3839   1.094   3.230   9.796 -1.2102 -1.2960 -2.8465
  249MPD1    H7 3840   1.078   3.131   9.929 -0.0654  0.2661  0.0603
  250MPD2     C 3841   2.617   2.640  13.259  0.1066 -0.4891 -0.4597
  250MPD2    C1 3842   2.530   2.678  13.160 -0.5239  0.1391 -0.0087
  250MPD2    C2 3843   2.440   2.589  13.105  0.6219 -0.0438 -0.4464
  250MPD2    C3 3844   2.432   2.461  13.158  0.5664  0.0175  0.3369
  250MPD2    C4 3845   2.501   2.428  13.275  0.4806 -0.1059  0.0586
  250MPD2    C5 3846   2.595   2.520  13.319 -0.2467 -0.8382  0.5922
  250MPD2     H 3847   2.395   2.620  13.012  1.3570  1.7343 -0.2187
  250MPD2    H1 3848   2.484   2.336  13.330 -1.2748  1.6379  2.4398
  250MPD2    H2 3849   2.685   2.714  13.298 -0.9399  0.9169 -1.2991
  250MPD2    H3 3850   2.648   2.495  13.410 -1.1866 -0.7553  1.1667
  250MPD2     N 3851   2.343   2.362  13.110  0.5232  0.4036  0.4624
  250MPD2    H5 3852   2.346   2.268  13.148  0.7700  0.6197  0.9787
  250MPD2    N1 3853   2.536   2.814  13.116 -0.0557 -0.5868  0.1930
  250MPD2    H7 3854   2.612   2.873  13.150  0.8580 -0.7232 -1.6127
  251TMC3    C1 3855   2.468   3.020  13.040  0.4176  0.7387 -0.4556
  251TMC3    C2 3856   2.364   3.105  13.073 -0.0774  0.5696 -0.0522
  251TMC3    C3 3857   2.409   3.232  13.098 -0.0539 -0.4080  0.3626
  251TMC3    C4 3858   2.599   3.051  13.044 -0.1941  0.1163  0.5427
  251TMC3    C5 3859   2.634   3.176  13.083  0.1002  0.2752 -0.0895
  251TMC3    C6 3860   2.541   3.274  13.112 -0.3699  0.4868 -0.2199
  251TMC3     C 3861   2.435   2.880  13.056 -0.5567 -0.3988  0.5278
  251TMC3     O 3862   2.321   2.836  13.054  0.1939 -0.4446 -0.4848
  251TMC3     H 3863   2.260   3.075  13.062  0.1815  0.3911 -2.0517
  251TMC3    H1 3864   2.670   2.979  13.006  1.6873  0.8752  2.6134
  251TMC3    H2 3865   2.562   3.368  13.164  0.0401 -0.7233  1.8192
  251TMC3    C7 3866   2.773   3.194  13.110 -0.2478  0.1596 -0.3103
  251TMC3    C8 3867   2.303   3.333  13.116  0.1825 -0.7272  0.4583
  251TMC3    O1 3868   2.827   3.084  13.125  0.4321  0.1526 -0.3959
  251TMC3    O2 3869   2.193   3.285  13.116 -0.1420  0.7208  0.4571
  252TMC3    C1 3870   3.629   0.141   9.137  0.2722  0.0218  0.4502
  252TMC3    C2 3871   3.681   0.157   9.262 -0.1153 -0.3238 -0.0298
  252TMC3    C3 3872   3.699   0.047   9.340 -0.4639  0.8636  0.0407
  252TMC3    C4 3873   3.582   0.021   9.099 -0.2350  0.2284 -0.0733
  252TMC3    C5 3874   3.577   4.656   9.188  0.0936 -0.0879  0.2761
  252TMC3    C6 3875   3.647   4.662   9.308  0.4396  0.7433 -0.4612
  252TMC3     C 3876   3.579   0.258   9.069  0.3782  0.7186  0.3328
  252TMC3     O 3877   3.498   0.230   8.978 -0.4949 -0.0258  0.5684
  252TMC3     H 3878   3.739   0.248   9.278  0.1628 -0.8609  2.0399
  252TMC3    H1 3879   3.526   0.003   9.007 -0.8345 -0.4127  0.4168
  252TMC3    H2 3880   3.646   4.580   9.380  1.7453  1.6539  0.5993
  252TMC3    C7 3881   3.486   4.546   9.167 -0.3927  0.5250  0.3614
  252TMC3    C8 3882   3.791   0.057   9.453 -0.1964 -0.4571  0.3369
  252TMC3    O1 3883   3.390   4.565   9.089 -1.1232 -0.8054  0.7891
  252TMC3    O2 3884   3.884   0.140   9.446 -0.2725 -0.0272 -0.0295
  253MPD2     C 3885   3.882   2.403  15.118  0.2768 -0.1538 -0.0060
  253MPD2    C1 3886   3.747   2.420  15.135 -0.2303  0.2673  0.6070
  253MPD2    C2 3887   3.692   2.360  15.240 -0.3164 -1.0421 -0.4187
  253MPD2    C3 3888   3.777   2.297  15.332 -0.4407 -0.1200  0.8016
  253MPD2    C4 3889   3.912   2.292  15.319  0.6862 -0.2910  0.3234
  253MPD2    C5 3890   3.962   2.350  15.211 -0.0143 -0.3847  0.1667
  253MPD2     H 3891   3.591   2.387  15.266  1.5426  3.8470  1.6272
  253MPD2    H1 3892   3.982   2.238  15.382 -0.2746 -2.1830 -0.2323
  253MPD2    H2 3893   3.926   2.453  15.032 -1.3631  0.3375 -0.5481
  253MPD2    H3 3894   4.068   2.355  15.193 -0.0480  0.2200  0.1351
  253MPD2     N 3895   3.722   2.237  15.444  0.2940 -0.0105  0.1906
  253MPD2    H5 3896   3.791   2.199  15.507 -2.2426  0.2549  3.1073
  253MPD2    N1 3897   3.659   2.481  15.050 -0.5297 -0.6977  0.7520
  253MPD2    H7 3898   3.560   2.474  15.072 -0.6942 -0.6892  0.0362
  254TMC3    C1 3899   3.564   2.152  15.601  0.3077 -0.2757 -0.3096
  254TMC3    C2 3900   3.437   2.099  15.617 -0.1650 -0.2817 -0.4243
  254TMC3    C3 3901   3.422   2.010  15.725 -0.0435  0.0386 -0.2669
  254TMC3    C4 3902   3.667   2.138  15.694 -0.2736  0.0607  0.0831
  254TMC3    C5 3903   3.649   2.057  15.795  0.1957 -0.3502 -0.5474
  254TMC3    C6 3904   3.530   1.987  15.813 -0.4525  0.4211 -0.0521
  254TMC3     C 3905   3.590   2.218  15.473  0.3268  0.3737  0.0657
  254TMC3     O 3906   3.494   2.231  15.399  0.1884  0.3554 -0.3279
  254TMC3     H 3907   3.355   2.126  15.551  0.5523  0.6221 -0.9398
  254TMC3    H1 3908   3.751   2.202  15.671 -1.0440  1.1405  0.2921
  254TMC3    H2 3909   3.518   1.909  15.887 -1.2226 -0.3414 -0.9835
  254TMC3    C7 3910   3.738   2.057  15.910  0.1844 -0.4031  0.3641
  254TMC3    C8 3911   3.288   2.021  15.788 -0.6775 -0.3616  0.3766
  254TMC3    O1 3912   3.698   2.000  16.006  0.2003 -0.1120  0.3333
  254TMC3    O2 3913   3.294   1.987  15.905  0.3911 -0.7091  0.7047
  255MPD2     C 3914   1.859   0.272  10.380  0.0081  0.2296  0.6755
  255MPD2    C1 3915   1.983   0.309  10.423  0.0210 -0.2241  0.4382
  255MPD2    C2 3916   2.091   0.215  10.424 -0.5725 -0.4237  0.9149
  255MPD2    C3 3917   2.055   0.078  10.405  0.1647  0.1123  1.1155
  255MPD2    C4 3918   1.927   0.042  10.374  0.0863 -0.3656  0.4475
  255MPD2    C5 3919   1.827   0.143  10.363  0.1445 -0.0844 -0.8897
  255MPD2     H 3920   2.193   0.246  10.443 -0.7886  1.0835 -0.3956
  255MPD2    H1 3921   1.904   4.679  10.351 -1.3393  0.2243 -0.7145
  255MPD2    H2 3922   1.784   0.350  10.373  1.1004  1.3326  1.3780
  255MPD2    H3 3923   1.727   0.111  10.337 -0.5168  1.5724 -0.3242
  255MPD2     N 3924   2.146   4.712  10.415  0.0980  0.4650 -0.2658
  255MPD2    H5 3925   2.097   4.624  10.421  0.2692  0.5187  1.8405
  255MPD2    N1 3926   1.998   0.450  10.462 -0.2724 -0.5531  0.0131
  255MPD2    H7 3927   1.926   0.519  10.444 -0.0665 -0.3585 -0.0722
  256TMC3    C1 3928   2.100   0.648  10.525 -0.4996 -0.2148 -0.2437
  256TMC3    C2 3929   2.208   0.711  10.477  0.4433 -0.3641  0.2179
  256TMC3    C3 3930   2.213   0.843  10.444 -1.0724 -0.9382  0.3420
  256TMC3    C4 3931   1.986   0.723  10.545  0.1323 -0.6453 -0.5166
  256TMC3    C5 3932   1.986   0.859  10.525  0.9258 -0.3540 -0.2298
  256TMC3    C6 3933   2.095   0.916  10.466 -0.1967  0.1681  0.1188
  256TMC3     C 3934   2.113   0.505  10.510 -0.2129  0.4652  0.0798
  256TMC3     O 3935   2.222   0.457  10.544  0.3498  0.1299  0.5490
  256TMC3     H 3936   2.293   0.646  10.464  0.2682 -0.5128 -0.2017
  256TMC3    H1 3937   1.899   0.681  10.594 -0.8828  0.5271 -1.3385
  256TMC3    H2 3938   2.084   1.010  10.412 -1.1065  0.7027  1.2161
  256TMC3    C7 3939   1.856   0.928  10.536 -0.1635 -0.0539 -0.0392
  256TMC3    C8 3940   2.308   0.882  10.348  0.2685  0.1819 -0.0790
  256TMC3    O1 3941   1.763   0.856  10.552 -0.3760 -0.0287 -0.5735
  256TMC3    O2 3942   2.368   0.796  10.289  0.3378 -0.6034  0.3062
  257MPD2     C 3943   1.187   2.513  13.507 -0.0589  0.4077  0.2735
  257MPD2    C1 3944   1.130   2.464  13.391  0.6389  1.0327  0.4447
  257MPD2    C2 3945   1.092   2.329  13.396  0.0816 -0.1429 -0.0753
  257MPD2    C3 3946   1.139   2.248  13.492 -0.0612 -0.6934 -0.3368
  257MPD2    C4 3947   1.193   2.304  13.605 -0.0040  0.1141  0.0649
  257MPD2    C5 3948   1.213   2.433  13.610 -0.0520  0.4771  0.2395
  257MPD2     H 3949   1.015   2.298  13.326 -0.9839  0.8971  0.6341
  257MPD2    H1 3950   1.248   2.253  13.682 -1.5293 -0.5215  0.7397
  257MPD2    H2 3951   1.217   2.617  13.513 -1.5151  0.7681  1.3408
  257MPD2    H3 3952   1.252   2.480  13.699 -1.6876  1.5698  0.3957
  257MPD2     N 3953   1.119   2.110  13.487 -0.0537 -0.1415  0.1099
  257MPD2    H5 3954   1.098   2.074  13.394  1.7039  1.4054 -0.8791
  257MPD2    N1 3955   1.101   2.543  13.281  0.5156 -0.1899 -0.1747
  257MPD2    H7 3956   1.048   2.500  13.206 -1.2842  2.0344 -0.1784
  258TMC3    C1 3957   1.154   1.891  13.537  0.6139  0.2081 -0.3047
  258TMC3    C2 3958   1.093   1.860  13.418 -0.0900  0.0365 -0.2412
  258TMC3    C3 3959   1.111   1.727  13.380  0.6751  1.0468 -0.4834
  258TMC3    C4 3960   1.243   1.810  13.603 -0.7402 -0.3303  1.0506
  258TMC3    C5 3961   1.253   1.679  13.558 -0.1737  0.0571 -0.1163
  258TMC3    C6 3962   1.188   1.630  13.448 -0.3783 -0.0997 -1.0162
  258TMC3     C 3963   1.131   2.021  13.591 -0.0548 -0.2970 -0.4548
  258TMC3     O 3964   1.149   2.036  13.709 -0.1803  0.8974 -0.7098
  258TMC3     H 3965   1.003   1.911  13.386  0.8232  1.3931 -0.6511
  258TMC3    H1 3966   1.288   1.845  13.695 -0.0145  1.0773  0.1728
  258TMC3    H2 3967   1.195   1.525  13.425 -2.2822 -0.6254  0.8111
  258TMC3    C7 3968   1.318   1.584  13.651  0.8634 -0.1870  0.3008
  258TMC3    C8 3969   1.079   1.689  13.244 -0.1502  0.0509 -0.4187
  258TMC3    O1 3970   1.260   1.480  13.669 -0.4439 -0.1782  0.3066
  258TMC3    O2 3971   1.095   1.570  13.219  0.0051  0.5432  0.2586
  259MPD2     C 3972   1.161   3.449  17.743  0.1114  1.0246  0.7905
  259MPD2    C1 3973   1.134   3.403   0.112 -0.6425  0.0346  0.0035
  259MPD2    C2 3974   1.144   3.268   0.137 -0.2263  0.1217 -1.0278
  259MPD2    C3 3975   1.176   3.178   0.034  0.2666 -0.1998 -0.1625
  259MPD2    C4 3976   1.196   3.227  17.665 -0.6211 -0.0135  0.8506
  259MPD2    C5 3977   1.177   3.362  17.634 -0.0295  0.8610  0.0759
  259MPD2     H 3978   1.125   3.236   0.239 -1.8112 -0.6550 -1.5688
  259MPD2    H1 3979   1.224   3.157  17.587 -2.1057 -1.3642  1.5245
  259MPD2    H2 3980   1.162   3.554  17.714  0.7752  1.0079  0.7482
  259MPD2    H3 3981   1.198   3.412  17.540  0.4614  0.7556  0.1317
  259MPD2     N 3982   1.185   3.036   0.069 -0.0360 -0.0438 -0.5601
  259MPD2    H5 3983   1.154   3.008   0.161  0.9120  1.3926  0.1834
  259MPD2    N1 3984   1.116   3.501   0.214  0.5676 -0.2363  0.0171
  259MPD2    H7 3985   1.140   3.595   0.184 -2.2235  0.7857  0.9733
  260TMC3    C1 3986   1.190   2.811   0.060 -1.1543  0.2014  0.4013
  260TMC3    C2 3987   1.149   2.706  17.739 -0.4302 -0.2055 -0.1640
  260TMC3    C3 3988   1.096   2.599   0.042 -0.4340  0.7316 -0.3350
  260TMC3    C4 3989   1.184   2.803   0.199  0.2581 -0.1492 -0.0536
  260TMC3    C5 3990   1.105   2.699   0.252 -0.6610 -0.3796  0.3902
  260TMC3    C6 3991   1.074   2.589   0.177 -0.1362  0.4247  0.4637
  260TMC3     C 3992   1.214   2.936  17.741 -0.7855 -0.6792  0.9923
  260TMC3     O 3993   1.244   2.945  17.624 -0.0366  0.5860 -0.5447
  260TMC3     H 3994   1.167   2.707  17.632 -1.1790 -0.2125 -0.2911
  260TMC3    H1 3995   1.210   2.885   0.264  1.0217 -0.3739 -0.0748
  260TMC3    H2 3996   1.002   2.522   0.222  1.1166 -0.9259  0.4657
  260TMC3    C7 3997   1.046   2.707   0.383  0.1056 -0.1465 -0.8005
  260TMC3    C8 3998   1.021   2.512  17.722  0.0209  0.1720  0.4926
  260TMC3    O1 3999   1.071   2.616   0.463 -0.3474  0.1986  0.1103
  260TMC3    O2 4000   0.961   2.555  17.627 -0.0104  0.3921  0.1597
  261MPD2     C 4001   2.078   2.237  12.480  0.4059 -0.3717 -0.1274
  261MPD2    C1 4002   2.046   2.333  12.572 -0.1230  0.5388 -0.4432
  261MPD2    C2 4003   2.067   2.463  12.545  0.4569  0.3162  0.1258
  261MPD2    C3 4004   2.129   2.507  12.430  0.6812 -0.0804  0.6232
  261MPD2    C4 4005   2.162   2.414  12.337 -0.4693  0.3588  0.0370
  261MPD2    C5 4006   2.135   2.281  12.360 -0.1181 -0.3632  0.4075
  261MPD2     H 4007   2.042   2.533  12.625 -3.9188 -1.8758  0.7139
  261MPD2    H1 4008   2.210   2.430  12.241 -1.8761  2.8577 -0.2628
  261MPD2    H2 4009   2.066   2.131  12.500 -0.8934 -0.3905 -1.0283
  261MPD2    H3 4010   2.171   2.209  12.287 -0.8594  0.4075 -0.7253
  261MPD2     N 4011   2.133   2.648  12.412  0.4229  0.3790 -0.1360
  261MPD2    H5 4012   2.136   2.698  12.501  1.4817 -0.2289  0.1634
  261MPD2    N1 4013   2.005   2.303  12.701  0.3417  0.1254  0.2687
  261MPD2    H7 4014   2.012   2.379  12.767  1.6279  0.5861 -0.4113
  262TMC3    C1 4015   2.183   2.845  12.303  0.2943 -0.2189  0.1176
  262TMC3    C2 4016   2.081   2.902  12.371  0.3187  0.3082  0.6984
  262TMC3    C3 4017   2.044   3.028  12.325 -0.5046 -0.7647 -0.5680
  262TMC3    C4 4018   2.250   2.903  12.200  0.3677  0.5305  0.5694
  262TMC3    C5 4019   2.205   3.021  12.148  0.3415  0.2983  0.1529
  262TMC3    C6 4020   2.109   3.089  12.218 -0.6336 -0.0397 -0.6008
  262TMC3     C 4021   2.177   2.705  12.293 -0.0052  0.2800 -0.0764
  262TMC3     O 4022   2.209   2.663  12.183 -0.3518 -0.2399  0.2884
  262TMC3     H 4023   2.009   2.856  12.437 -1.0851 -0.6974 -1.5087
  262TMC3    H1 4024   2.329   2.845  12.153  0.5221 -0.2675  1.7972
  262TMC3    H2 4025   2.073   3.183  12.177  2.5125  0.6023 -1.8668
  262TMC3    C7 4026   2.197   3.016  12.007  0.0112 -0.0625 -0.3345
  262TMC3    C8 4027   1.907   3.048  12.291 -0.6349  0.6455  0.1426
  262TMC3    O1 4028   2.298   2.986  11.949  0.3647 -0.8669 -0.7659
  262TMC3    O2 4029   1.880   3.065  12.173  0.1801 -0.7919  0.5974
  263MPD2     C 4030   2.742   1.981  11.601  0.7856 -0.8337  0.2271
  263MPD2    C1 4031   2.850   1.992  11.512  0.2810 -0.2556  0.1856
  263MPD2    C2 4032   2.829   2.064  11.392 -0.8289  0.1362  0.3306
  263MPD2    C3 4033   2.720   2.142  11.372 -0.0569  0.0862 -0.4909
  263MPD2    C4 4034   2.624   2.153  11.475 -0.3078 -0.1797 -0.2481
  263MPD2    C5 4035   2.635   2.068  11.585  0.4888  0.2700 -0.7448
  263MPD2     H 4036   2.910   2.069  11.319 -1.9297  1.9696 -0.7397
  263MPD2    H1 4037   2.530   2.204  11.456 -1.3552 -1.3645  1.6874
  263MPD2    H2 4038   2.732   1.910  11.681 -0.4770 -0.2701  0.5688
  263MPD2    H3 4039   2.548   2.065  11.650 -0.8047  1.7779 -2.4052
  263MPD2     N 4040   2.713   2.207  11.250 -0.5096 -0.4825 -0.3167
  263MPD2    H5 4041   2.767   2.184  11.168 -0.4860  1.5498 -0.8689
  263MPD2    N1 4042   2.964   1.917  11.547  0.5807  0.3887 -0.1085
  263MPD2    H7 4043   2.953   1.871  11.637  0.5765 -1.8722 -1.2461
  264TMC3    C1 4044   2.620   2.373  11.093 -0.3110  0.3485 -0.7874
  264TMC3    C2 4045   2.551   2.490  11.078  0.0572  0.8901  0.1850
  264TMC3    C3 4046   2.588   2.585  10.989  0.4744 -0.5381  0.3730
  264TMC3    C4 4047   2.716   2.339  11.003  0.0697 -0.3982  0.2970
  264TMC3    C5 4048   2.737   2.426  10.905  0.2279  0.0234  0.0283
  264TMC3    C6 4049   2.689   2.556  10.896 -0.4979 -0.7629 -0.8146
  264TMC3     C 4050   2.615   2.305  11.225 -0.1636 -0.4714  0.2963
  264TMC3     O 4051   2.535   2.360  11.296 -0.6829 -0.0958  0.0360
  264TMC3     H 4052   2.459   2.503  11.134  1.2456 -1.2611  2.6704
  264TMC3    H1 4053   2.769   2.245  10.997 -0.2499 -0.4479 -1.6317
  264TMC3    H2 4054   2.703   2.627  10.816  0.2390 -0.1264 -0.1166
  264TMC3    C7 4055   2.824   2.381  10.794  0.0595 -0.5444  0.0796
  264TMC3    C8 4056   2.612   2.716  11.052  0.2118 -0.2908 -0.4868
  264TMC3    O1 4057   2.816   2.266  10.757 -0.0549  0.4451  0.3048
  264TMC3    O2 4058   2.678   2.798  10.984 -0.2457 -0.4674  0.5927
  265MPD2     C 4059   0.095   1.890  15.559  0.6574 -0.6321 -0.4591
  265MPD2    C1 4060   0.133   2.005  15.485 -0.0678  0.5173 -1.2532
  265MPD2    C2 4061   0.227   1.986  15.383  0.3469 -0.9354 -1.3183
  265MPD2    C3 4062   0.290   1.860  15.365  0.4946  0.5595  0.4035
  265MPD2    C4 4063   0.250   1.756  15.450 -0.1685  0.1280 -0.4841
  265MPD2    C5 4064   0.148   1.765  15.537 -0.2092  0.2885 -0.7505
  265MPD2     H 4065   0.241   2.066  15.312  1.0408  0.0759 -0.0226
  265MPD2    H1 4066   0.299   1.659  15.444 -1.5009 -0.5451 -0.5361
  265MPD2    H2 4067   0.018   1.894  15.635  1.4909  1.5699  0.2450
  265MPD2    H3 4068   0.121   1.679  15.598 -3.0273  1.2268 -0.6349
  265MPD2     N 4069   0.383   1.828  15.262  0.4315  0.0585 -0.5428
  265MPD2    H5 4070   0.398   1.728  15.253  1.1271  0.0785  0.2846
  265MPD2    N1 4071   0.095   2.134  15.524 -0.1053 -0.0422 -0.2850
  265MPD2    H7 4072   0.125   2.214  15.469 -0.5569 -1.4167 -2.5218
  266TMC3    C1 4073   0.028   2.296  15.685 -1.4252  0.2196 -0.9331
  266TMC3    C2 4074   0.053   2.326  15.814  0.4392  0.5432 -0.0405
  266TMC3    C3 4075   0.047   2.454  15.864  0.3378  0.3043  0.2804
  266TMC3    C4 4076   4.736   2.393  15.591  0.6755 -0.3990 -0.4127
  266TMC3    C5 4077   4.719   2.519  15.644 -0.3909 -0.2892  0.7285
  266TMC3    C6 4078   0.013   2.556  15.776 -0.4233  0.1871  0.0562
  266TMC3     C 4079   0.039   2.154  15.648 -0.1469  0.2546  0.0832
  266TMC3     O 4080   0.013   2.085  15.739 -0.0731  0.5860 -0.0463
  266TMC3     H 4081   0.077   2.239  15.875 -1.7267 -1.4675 -2.0875
  266TMC3    H1 4082   4.711   2.373  15.488 -0.9227  0.6356 -0.2386
  266TMC3    H2 4083   0.010   2.660  15.806  1.0388  0.2148  0.1093
  266TMC3    C7 4084   4.629   2.610  15.563 -0.7663 -0.3088  0.3093
  266TMC3    C8 4085   0.146   2.471  15.972 -0.3703  0.1924 -0.1091
  266TMC3    O1 4086   4.669   2.728  15.549 -0.5128 -0.3902 -0.5736
  266TMC3    O2 4087   0.202   2.377  16.016 -0.1808  0.1482  0.7341
  267MPD2     C 4088   2.920   4.017   0.121  0.4737  0.5573  0.4537
  267MPD2    C1 4089   2.876   3.912   0.045  0.3280  0.7102 -0.3732
  267MPD2    C2 4090   2.748   3.917   0.003 -0.1437 -0.1732  0.3241
  267MPD2    C3 4091   2.664   4.025   0.016 -0.2405 -0.1620 -0.0403
  267MPD2    C4 4092   2.708   4.132   0.092  0.1386 -0.0990 -0.2162
  267MPD2    C5 4093   2.838   4.126   0.140  0.0851  0.1953 -0.2024
  267MPD2     H 4094   2.716   3.830  17.704 -0.0801  0.0910 -0.1264
  267MPD2    H1 4095   2.652   4.223   0.113  0.1619 -0.1666  0.1469
  267MPD2    H2 4096   3.013   4.013   0.176  0.1141 -1.6228  0.8848
  267MPD2    H3 4097   2.879   4.208   0.198 -0.4766  0.1845  0.2086
  267MPD2     N 4098   2.525   4.025  17.731  0.0743 -0.0532  1.1476
  267MPD2    H5 4099   2.468   4.106  17.753 -0.4795 -0.4344  1.1191
  267MPD2    N1 4100   2.966   3.803   0.032  0.3993  0.2357  0.1796
  267MPD2    H7 4101   3.052   3.804   0.085 -1.0469 -0.0021  2.5462
  268TMC3    C1 4102   3.072   3.621  17.693 -0.1648 -0.4311 -0.6121
  268TMC3    C2 4103   3.112   3.602  17.559 -0.0687 -0.0992  0.1146
  268TMC3    C3 4104   3.246   3.581  17.537 -0.4271 -0.0927 -0.2136
  268TMC3    C4 4105   3.161   3.624   0.041  0.5130 -0.5737  0.2980
  268TMC3    C5 4106   3.290   3.598   0.010  0.4387 -0.4007 -0.3577
  268TMC3    C6 4107   3.339   3.578  17.637 -0.4120  0.0231 -0.4415
  268TMC3     C 4108   2.946   3.693  17.712 -0.8567  0.4505  0.8609
  268TMC3     O 4109   2.847   3.666  17.644 -0.1174  0.2595  0.1877
  268TMC3     H 4110   3.043   3.604  17.476  0.1785 -0.3372 -0.0967
  268TMC3    H1 4111   3.131   3.637   0.145 -1.7215 -0.6697 -0.3464
  268TMC3    H2 4112   3.442   3.563  17.609 -1.1028 -1.6379 -2.0877
  268TMC3    C7 4113   3.383   3.621   0.125  0.5156  0.5049 -0.0816
  268TMC3    C8 4114   3.298   3.667  17.432 -0.4603 -0.5145 -0.2169
  268TMC3    O1 4115   3.461   3.531   0.152 -0.3058 -0.2393  0.1411
  268TMC3    O2 4116   3.394   3.734  17.463 -0.5240 -0.2820  0.2993
  269MPD2     C 4117   2.779   2.547  15.745 -0.0274  0.2462 -0.5260
  269MPD2    C1 4118   2.674   2.633  15.749  0.4779  0.6861  0.1239
  269MPD2    C2 4119   2.688   2.763  15.696 -0.1406  0.2584 -0.2115
  269MPD2    C3 4120   2.797   2.795  15.622 -0.3533 -0.5168 -0.4992
  269MPD2    C4 4121   2.903   2.707  15.611 -0.3125 -0.1638  0.1276
  269MPD2    C5 4122   2.896   2.590  15.679 -0.1904 -0.2133  0.2028
  269MPD2     H 4123   2.604   2.830  15.712  0.0642  0.1792  1.1165
  269MPD2    H1 4124   2.997   2.737  15.566 -0.4282  0.8767  0.5787
  269MPD2    H2 4125   2.779   2.458  15.808 -1.0815  0.2414 -0.5341
  269MPD2    H3 4126   2.980   2.522  15.693  1.3904  1.6316 -0.3195
  269MPD2     N 4127   2.783   2.911  15.545  0.4758 -0.4295  0.1673
  269MPD2    H5 4128   2.693   2.956  15.559  1.1957  0.7880  0.7996
  269MPD2    N1 4129   2.566   2.583  15.811  0.1853 -0.7008  0.3675
  269MPD2    H7 4130   2.567   2.486  15.841  2.2192  0.6180  4.5665
  270TMC3    C1 4131   2.348   2.538  15.863 -0.4114  0.0231 -0.2480
  270TMC3    C2 4132   2.232   2.510  15.790  0.2862 -0.8649  0.8398
  270TMC3    C3 4133   2.169   2.389  15.801 -0.1915  1.0101  0.6839
  270TMC3    C4 4134   2.402   2.445  15.948 -0.1355  0.9655 -0.0698
  270TMC3    C5 4135   2.341   2.322  15.947 -0.0628 -0.4775  0.3032
  270TMC3    C6 4136   2.229   2.292  15.874 -0.7035  0.4785 -0.2463
  270TMC3     C 4137   2.434   2.632  15.802 -0.0043  0.3928 -0.0406
  270TMC3     O 4138   2.390   2.729  15.737 -0.2239 -0.1539 -0.1044
  270TMC3     H 4139   2.200   2.581  15.715  2.2179  0.3504  1.1615
  270TMC3    H1 4140   2.486   2.469  16.012 -1.1572 -0.5534  1.8488
  270TMC3    H2 4141   2.180   2.195  15.875  0.5997 -0.1831 -0.8845
  270TMC3    C7 4142   2.424   2.222  16.006  1.3311  0.0057 -1.2825
  270TMC3    C8 4143   2.080   2.348  15.698 -0.1870  0.2651  0.0131
  270TMC3    O1 4144   2.545   2.236  16.016  0.2319  0.0837  0.3353
  270TMC3    O2 4145   1.983   2.418  15.665  0.1477  0.0037 -0.9317
  271MPD2     C 4146   1.968   2.307  13.871  0.5299 -0.8150  0.1525
  271MPD2    C1 4147   1.943   2.352  14.000  0.2402 -0.6556  0.1592
  271MPD2    C2 4148   1.872   2.471  14.008  0.1172 -0.3306  0.2144
  271MPD2    C3 4149   1.825   2.542  13.900 -0.3824  0.0739  0.1369
  271MPD2    C4 4150   1.847   2.489  13.777  0.2866 -0.1278  0.9309
  271MPD2    C5 4151   1.920   2.374  13.759 -0.0097  0.1676  0.3694
  271MPD2     H 4152   1.868   2.518  14.106 -1.4526  3.3516 -1.6234
  271MPD2    H1 4153   1.800   2.534  13.691 -0.3599 -1.2559  0.6877
  271MPD2    H2 4154   2.003   2.206  13.856 -0.6546 -1.5208  2.1524
  271MPD2    H3 4155   1.938   2.339  13.659 -2.6974 -0.2505  0.0308
  271MPD2     N 4156   1.761   2.672  13.920 -0.5131 -0.2214  0.0202
  271MPD2    H5 4157   1.739   2.723  13.835 -0.4295  0.3245  0.3220
  271MPD2    N1 4158   1.989   2.287  14.117  0.2762 -0.7378 -0.2522
  271MPD2    H7 4159   1.971   2.341  14.202  3.0246  0.4513 -0.4142
  272TMC3    C1 4160   2.124   2.150  14.255  0.2327  0.0192  0.0476
  272TMC3    C2 4161   2.248   2.096  14.264 -0.3486  0.0236  0.0315
  272TMC3    C3 4162   2.305   2.074  14.385 -0.8063  0.5599 -0.0341
  272TMC3    C4 4163   2.054   2.150  14.364 -0.1379  0.2207 -0.0487
  272TMC3    C5 4164   2.106   2.126  14.492  0.5180 -0.4186 -0.5414
  272TMC3    C6 4165   2.246   2.098  14.503 -0.0582  0.2766  0.2564
  272TMC3     C 4166   2.066   2.176  14.123  0.1589 -0.3004  0.3348
  272TMC3     O 4167   2.103   2.102  14.035 -0.1655  0.0686 -0.3205
  272TMC3     H 4168   2.302   2.083  14.171 -1.7872 -0.8410 -0.6841
  272TMC3    H1 4169   1.950   2.180  14.355  0.2687  1.9381  1.0270
  272TMC3    H2 4170   2.301   2.085  14.596 -1.1844  0.6842  0.9684
  272TMC3    C7 4171   2.030   2.168  14.609 -0.2419 -0.0436  0.3327
  272TMC3    C8 4172   2.447   2.055  14.381  0.5445 -0.2106  0.0646
  272TMC3    O1 4173   1.912   2.191  14.586  0.2039  0.2906  0.2189
  272TMC3    O2 4174   2.516   2.097  14.289 -0.0918  0.0095 -0.1087
  273MPD2     C 4175   2.929   0.799  12.100  0.9199  0.5113  0.6030
  273MPD2    C1 4176   3.031   0.861  12.036 -0.4412 -0.0510  0.2683
  273MPD2    C2 4177   3.015   0.862  11.892 -0.1377  0.0307  0.8541
  273MPD2    C3 4178   2.910   0.795  11.825  0.3724  0.2727  0.0240
  273MPD2    C4 4179   2.819   0.737  11.909  0.5107 -0.3979 -0.4528
  273MPD2    C5 4180   2.825   0.733  12.041 -0.0094  0.5828  0.1555
  273MPD2     H 4181   3.092   0.908  11.830  1.2547 -0.1035  2.4804
  273MPD2    H1 4182   2.731   0.689  11.868  1.5056 -1.7626 -1.0003
  273MPD2    H2 4183   2.937   0.794  12.208  1.5612  1.6796  0.6043
  273MPD2    H3 4184   2.742   0.696  12.101 -0.6122  0.8061 -0.5464
  273MPD2     N 4185   2.893   0.784  11.684 -0.3454 -0.4910 -0.7926
  273MPD2    H5 4186   2.825   0.718  11.648  0.0728  1.6250 -5.4935
  273MPD2    N1 4187   3.141   0.905  12.110  0.0376 -0.2720  0.3406
  273MPD2    H7 4188   3.146   0.891  12.211  0.1085  0.1833  0.4004
  274TMC3    C1 4189   2.949   0.802  11.457 -0.1898 -0.6612  0.9368
  274TMC3    C2 4190   2.829   0.754  11.407 -0.1428 -0.5362  0.4685
  274TMC3    C3 4191   2.807   0.741  11.270 -0.0068 -0.7290 -0.2745
  274TMC3    C4 4192   3.043   0.850  11.372  0.7636 -0.3165 -0.0418
  274TMC3    C5 4193   3.019   0.844  11.238 -0.1574 -0.6129  0.1029
  274TMC3    C6 4194   2.907   0.785  11.182  0.3897  0.7376 -0.0784
  274TMC3     C 4195   2.966   0.857  11.590 -0.5441 -0.6370 -0.1798
  274TMC3     O 4196   3.026   0.962  11.595  0.1556 -0.0305 -0.3121
  274TMC3     H 4197   2.751   0.739  11.481 -1.1216 -3.7663 -1.2061
  274TMC3    H1 4198   3.128   0.906  11.410  0.4246  1.0357 -1.2501
  274TMC3    H2 4199   2.891   0.811  11.078 -2.7944  0.4218  0.3138
  274TMC3    C7 4200   3.067   0.942  11.142 -0.0728 -0.9500 -0.4503
  274TMC3    C8 4201   2.668   0.736  11.218  0.1336  0.6575  0.3798
  274TMC3    O1 4202   3.087   0.906  11.026  0.1053 -0.3595  0.5500
  274TMC3    O2 4203   2.580   0.787  11.285  0.2537 -0.2070  0.2501
  275MPD2     C 4204   3.186   3.400  14.178  0.2383  0.3645  0.4690
  275MPD2    C1 4205   3.236   3.379  14.308 -0.2452 -0.0883  0.2708
  275MPD2    C2 4206   3.216   3.257  14.368 -0.5015  0.4185  0.3894
  275MPD2    C3 4207   3.124   3.169  14.309 -0.5191  0.6083 -0.1102
  275MPD2    C4 4208   3.082   3.192  14.177 -0.8884 -0.3357  0.2441
  275MPD2    C5 4209   3.117   3.303  14.108  0.7072 -0.3148  0.3135
  275MPD2     H 4210   3.245   3.245  14.471 -0.7831 -1.9251  0.1807
  275MPD2    H1 4211   3.003   3.129  14.136 -0.8639 -0.8566  0.9939
  275MPD2    H2 4212   3.202   3.494  14.125 -0.1766  0.6894  0.9176
  275MPD2    H3 4213   3.090   3.323  14.005  0.9156  3.0014  0.8859
  275MPD2     N 4214   3.088   3.049  14.379  0.7467  0.6172  0.3285
  275MPD2    H5 4215   3.010   2.998  14.337  1.3527  0.3485 -0.4670
  275MPD2    N1 4216   3.301   3.484  14.385 -0.3664 -0.4932  0.1801
  275MPD2    H7 4217   3.338   3.454  14.474  1.0841 -0.2705 -0.3489
  276TMC3    C1 4218   3.353   3.681  14.476 -0.6218  0.1460 -0.2279
  276TMC3    C2 4219   3.265   3.649  14.581  0.5179  0.1773  0.1448
  276TMC3    C3 4220   3.301   3.666  14.707 -0.4443 -0.2869  0.6131
  276TMC3    C4 4221   3.482   3.720  14.498  0.2526 -0.5372 -0.6988
  276TMC3    C5 4222   3.519   3.720  14.633  0.4537  0.4096  0.4598
  276TMC3    C6 4223   3.434   3.689  14.735  0.1246  0.1518  0.2826
  276TMC3     C 4224   3.328   3.615  14.355  0.0273  0.1577 -0.0998
  276TMC3     O 4225   3.309   3.678  14.252 -0.1933 -0.1074  0.1715
  276TMC3     H 4226   3.165   3.612  14.562  1.7974 -2.1659 -2.0439
  276TMC3    H1 4227   3.545   3.729  14.410  1.6799 -1.0237  0.2649
  276TMC3    H2 4228   3.465   3.692  14.839 -1.8199 -1.8209  0.9231
  276TMC3    C7 4229   3.654   3.744  14.673 -0.3054  0.4526  0.0750
  276TMC3    C8 4230   3.229   3.579  14.797  0.0657  0.1124  0.3124
  276TMC3    O1 4231   3.669   3.738  14.797  0.0417  0.1749 -0.0509
  276TMC3    O2 4232   3.116   3.620  14.830 -0.1075 -0.1181  0.3450
  277MPD2     C 4233   0.300   2.475  13.340  0.8497  0.0813 -0.2621
  277MPD2    C1 4234   0.189   2.510  13.411 -0.3221  0.0226  0.4852
  277MPD2    C2 4235   0.113   2.413  13.472 -0.2673 -0.1358 -0.0238
  277MPD2    C3 4236   0.156   2.278  13.469  0.1925 -0.0367 -0.3737
  277MPD2    C4 4237   0.257   2.242  13.390 -0.3068 -0.5837  0.0395
  277MPD2    C5 4238   0.328   2.339  13.325 -0.0390  1.1156 -0.0875
  277MPD2     H 4239   0.020   2.443  13.519  2.1979  4.4077  1.9842
  277MPD2    H1 4240   0.273   2.137  13.373  2.5180 -0.4416  1.8381
  277MPD2    H2 4241   0.364   2.544  13.286 -0.6402 -0.0688 -2.1995
  277MPD2    H3 4242   0.400   2.306  13.252  0.9524  1.5155  0.7069
  277MPD2     N 4243   0.091   2.184  13.552 -0.5053  0.5662  0.2381
  277MPD2    H5 4244   0.014   2.222  13.607  0.6883  1.2645  1.4210
  277MPD2    N1 4245   0.155   2.649  13.413 -0.3098 -0.2235 -0.1639
  277MPD2    H7 4246   0.222   2.710  13.367 -0.4359 -0.9984 -1.3934
  278TMC3    C1 4247   0.034   1.983  13.662 -0.3205  0.0081  0.3067
  278TMC3    C2 4248   4.738   1.852  13.641  1.1557 -0.3761 -0.1057
  278TMC3    C3 4249   4.619   1.805  13.691  0.1712  0.1814 -0.1356
  278TMC3    C4 4250   4.689   2.060  13.740 -0.4126 -0.0092 -0.0727
  278TMC3    C5 4251   4.579   2.008  13.791  0.3461  0.4758 -0.0268
  278TMC3    C6 4252   4.532   1.885  13.759 -0.6236 -0.3881  0.2007
  278TMC3     C 4253   0.115   2.047  13.553 -0.1290 -0.3024  0.2698
  278TMC3     O 4254   0.205   1.981  13.511 -0.7879 -0.0038 -0.5165
  278TMC3     H 4255   0.058   1.790  13.574  2.9572 -0.0427  1.1879
  278TMC3    H1 4256   4.737   2.137  13.799  1.1834 -1.5500  0.6086
  278TMC3    H2 4257   4.439   1.844  13.798  0.0083 -1.1534  0.8897
  278TMC3    C7 4258   4.487   2.112  13.837 -0.4750 -0.9811 -0.2502
  278TMC3    C8 4259   4.567   1.682  13.633  0.6036  0.2948  0.1612
  278TMC3    O1 4260   4.525   2.229  13.824 -0.2674 -0.2155 -0.9327
  278TMC3    O2 4261   4.657   1.599  13.617 -0.3747 -0.1505  0.2722
  279MPD2     C 4262   4.645   2.354   0.076 -0.4498 -0.0820 -1.0031
  279MPD2    C1 4263   4.600   2.481   0.119  0.4179 -0.5252 -0.3046
  279MPD2    C2 4264   4.543   2.564   0.028  0.0215  0.1242  0.1525
  279MPD2    C3 4265   4.523   2.526  17.651 -0.5718 -0.1190 -0.0214
  279MPD2    C4 4266   4.566   2.399  17.616 -0.1822 -0.5539  0.5403
  279MPD2    C5 4267   4.630   2.315  17.705 -0.2484  0.1674  0.2734
  279MPD2     H 4268   4.520   2.665   0.059  0.9664 -0.2475  2.0336
  279MPD2    H1 4269   4.549   2.367  17.514 -1.3321 -2.0743  1.2038
  279MPD2    H2 4270   4.698   2.293   0.149 -0.9019 -2.4000 -2.6288
  279MPD2    H3 4271   4.668   2.218  17.675 -0.0355 -0.5127  2.7325
  279MPD2     N 4272   4.464   2.612  17.556 -0.0778 -0.1978  0.1024
  279MPD2    H5 4273   4.472   2.577  17.461 -0.6668 -0.2699  0.0845
  279MPD2    N1 4274   4.623   2.518   0.252  0.0648  0.3947  0.0195
  279MPD2    H7 4275   4.703   2.469   0.291 -1.2030 -1.4190  0.3561
  280TMC3    C1 4276   4.431   2.660   0.286 -0.1626  0.8549  0.3519
  280TMC3    C2 4277   4.338   2.563   0.262 -0.7513 -0.5287 -0.1176
  280TMC3    C3 4278   4.206   2.596   0.286 -0.1036 -0.2611  0.0470
  280TMC3    C4 4279   4.402   2.785   0.323  0.3979 -0.5936 -0.1028
  280TMC3    C5 4280   4.269   2.816   0.353  0.1150 -0.3710 -0.1868
  280TMC3    C6 4281   4.172   2.725   0.329 -0.0241 -0.1396  0.0882
  280TMC3     C 4282   4.561   2.613   0.326 -0.2148 -0.3748 -0.2937
  280TMC3     O 4283   4.600   2.656   0.433 -0.2710  0.2821 -0.6877
  280TMC3     H 4284   4.377   2.461   0.260 -1.4292 -0.8090  1.2211
  280TMC3    H1 4285   4.487   2.850   0.333  0.2277 -0.3955  0.0460
  280TMC3    H2 4286   4.068   2.740   0.355  0.3952  0.6211  1.3217
  280TMC3    C7 4287   4.232   2.952   0.314  0.3044 -0.8429 -0.1578
  280TMC3    C8 4288   4.121   2.562   0.178 -0.1215 -0.0531 -0.4327
  280TMC3    O1 4289   4.320   3.034   0.331 -0.3527 -0.2725  0.0166
  280TMC3    O2 4290   4.022   2.632   0.155  0.1752  0.1152  0.1189
  281TMC3    C1 4291   2.993   2.899  13.340  0.4300  0.7851 -0.9390
  281TMC3    C2 4292   3.083   3.005  13.319  0.2733 -0.7636  0.0206
  281TMC3    C3 4293   3.161   2.994  13.208  0.5314 -0.3077 -0.6046
  281TMC3    C4 4294   2.999   2.782  13.273  0.3699 -0.3807 -0.2136
  281TMC3    C5 4295   3.079   2.780  13.165  0.3634  0.6001  0.5562
  281TMC3    C6 4296   3.164   2.882  13.133 -0.0882  0.2519  0.1959
  281TMC3     C 4297   2.878   2.914  13.417 -0.0911  0.1324 -0.3273
  281TMC3     O 4298   2.824   2.806  13.442 -0.2280 -0.5089 -0.1490
  281TMC3     H 4299   3.079   3.099  13.372  0.7108  0.2221 -1.7082
  281TMC3    H1 4300   2.933   2.698  13.292 -1.8688  1.8677  1.9493
  281TMC3    H2 4301   3.234   2.874  13.051 -1.0222  2.1248 -0.7621
  281TMC3    C7 4302   3.067   2.662  13.079  0.1597 -0.1732  0.0985
  281TMC3    C8 4303   3.290   3.066  13.211 -0.6472 -0.0384 -0.7384
  281TMC3    O1 4304   3.089   2.669  12.959  0.8768 -0.1912 -0.1898
  281TMC3    O2 4305   3.388   2.991  13.200 -0.0257  0.6321 -0.1226
  282MPD2     C 4306   4.638   3.919  14.978 -1.0846 -0.0707 -0.3792
  282MPD2    C1 4307   4.532   3.986  15.034 -0.7445 -0.5868 -0.2057
  282MPD2    C2 4308   4.423   4.013  14.946  0.3850 -0.1316  1.0963
  282MPD2    C3 4309   4.423   3.980  14.811 -0.2689  0.1476  0.0004
  282MPD2    C4 4310   4.524   3.902  14.763  0.1816  0.4721 -0.3729
  282MPD2    C5 4311   4.636   3.884  14.845  0.0254 -0.2730 -0.8483
  282MPD2     H 4312   4.339   4.073  14.980  0.8651  0.8751  0.5047
  282MPD2    H1 4313   4.509   3.869  14.661 -1.8076 -0.9741  0.3803
  282MPD2    H2 4314   4.731   3.896  15.029 -0.9708  1.7143  0.1996
  282MPD2    H3 4315   4.728   3.851  14.798  1.5287  0.8143  1.3052
  282MPD2     N 4316   4.304   4.016  14.734 -0.2384 -0.5947  0.3861
  282MPD2    H5 4317   4.224   4.057  14.781 -1.8797 -1.4457 -1.6782
  282MPD2    N1 4318   4.527   4.024  15.171 -0.3989  0.3426  0.9071
  282MPD2    H7 4319   4.435   4.058  15.198 -1.2459 -1.4602  0.3320
  283TMC3    C1 4320   4.590   4.004  15.400 -0.6204  0.7727  0.6153
  283TMC3    C2 4321   4.585   4.134  15.445  0.3097  0.3257 -0.1232
  283TMC3    C3 4322   4.568   4.151  15.580 -0.3077  0.6725 -0.6878
  283TMC3    C4 4323   4.599   3.899  15.481 -0.3392 -0.1303  0.2489
  283TMC3    C5 4324   4.575   3.916  15.614  0.6809  0.1204  0.6642
  283TMC3    C6 4325   4.556   4.040  15.667  0.2842  0.6131 -0.0881
  283TMC3     C 4326   4.627   3.992  15.261  0.1891 -0.2830  0.2693
  283TMC3     O 4327   4.729   3.925  15.247  0.3086  0.5844 -0.3603
  283TMC3     H 4328   4.590   4.218  15.376 -0.9887  1.1571  0.8039
  283TMC3    H1 4329   4.640   3.809  15.436 -1.4906 -1.0749  1.1093
  283TMC3    H2 4330   4.527   4.064  15.769  2.1678  0.9337  0.3638
  283TMC3    C7 4331   4.504   3.806  15.669  0.4748  0.1609  0.0293
  283TMC3    C8 4332   4.560   4.286  15.644 -0.8980  0.1012  0.2986
  283TMC3    O1 4333   4.385   3.819  15.689  0.6293 -0.4126  0.1587
  283TMC3    O2 4334   4.545   4.298  15.763  0.0488 -0.5731 -0.0226
  284MPD2     C 4335   2.969   3.416  12.283  0.2390 -0.2889 -0.9393
  284MPD2    C1 4336   3.085   3.493  12.305 -0.6946  0.2577 -0.1785
  284MPD2    C2 4337   3.190   3.453  12.381  0.2140 -0.2642 -0.0051
  284MPD2    C3 4338   3.183   3.328  12.442 -0.2974  0.5502  0.3741
  284MPD2    C4 4339   3.081   3.241  12.413 -0.4306  0.2883 -0.2897
  284MPD2    C5 4340   2.971   3.295  12.342 -0.9148  0.0285 -0.0524
  284MPD2     H 4341   3.272   3.522  12.396 -1.6356  2.0420 -0.5570
  284MPD2    H1 4342   3.076   3.138  12.445  0.1430 -0.6442 -3.2763
  284MPD2    H2 4343   2.881   3.455  12.234 -1.7453 -3.1377  0.3604
  284MPD2    H3 4344   2.884   3.234  12.320 -1.2010  0.3624  0.1536
  284MPD2     N 4345   3.291   3.277  12.510 -0.1429  0.5864 -0.1344
  284MPD2    H5 4346   3.304   3.178  12.524 -0.5622  0.5918  0.2947
  284MPD2    N1 4347   3.100   3.613  12.240  0.0673  0.2173  0.1808
  284MPD2    H7 4348   3.191   3.654  12.253 -0.0819  1.3559 -2.3839
  285TMC3    C1 4349   3.095   3.754  12.064 -0.0386 -0.1923  0.4197
  285TMC3    C2 4350   3.207   3.696  11.998 -0.4082 -0.0315  0.0660
  285TMC3    C3 4351   3.251   3.760  11.888 -0.0949 -0.0811  0.5058
  285TMC3    C4 4352   3.040   3.877  12.017 -0.1432 -0.1914 -0.5171
  285TMC3    C5 4353   3.104   3.939  11.904 -0.1810 -0.0405  0.3192
  285TMC3    C6 4354   3.207   3.876  11.838 -0.2965 -0.3189  0.0334
  285TMC3     C 4355   3.021   3.664  12.146 -0.5343  1.0233 -0.0876
  285TMC3     O 4356   2.906   3.636  12.106 -0.3027 -0.0541 -0.1882
  285TMC3     H 4357   3.248   3.597  12.013  1.8222  0.9295  0.3369
  285TMC3    H1 4358   2.956   3.922  12.067 -2.4691 -2.5334 -2.3215
  285TMC3    H2 4359   3.223   3.905  11.735 -1.0415  0.4567  0.1328
  285TMC3    C7 4360   3.056   4.063  11.857 -0.0391  0.1564 -0.4215
  285TMC3    C8 4361   3.310   3.671  11.784 -0.8571 -0.3400 -0.1561
  285TMC3    O1 4362   2.947   4.108  11.895 -0.1010 -0.1201 -0.3352
  285TMC3    O2 4363   3.260   3.559  11.792  0.6740  0.8660 -0.1990
  286MPD2     C 4364   0.072   2.432   1.296 -0.2551  0.1306  0.3520
  286MPD2    C1 4365   4.698   2.390   1.227  0.0953 -0.5794  0.0289
  286MPD2    C2 4366   4.704   2.271   1.160  0.0320  0.4584  0.1815
  286MPD2    C3 4367   0.078   2.187   1.173  0.0699 -0.3258  0.1458
  286MPD2    C4 4368   0.181   2.230   1.254 -0.3495  0.0140 -0.2222
  286MPD2    C5 4369   0.186   2.359   1.308  0.2926  0.2392  0.2067
  286MPD2     H 4370   4.615   2.243   1.105  0.9977 -0.2006 -1.0636
  286MPD2    H1 4371   0.272   2.172   1.265 -0.0134  0.5643 -0.0800
  286MPD2    H2 4372   0.082   2.537   1.318  0.9842 -0.0145  0.4464
  286MPD2    H3 4373   0.269   2.409   1.357  0.0186  0.7932  0.1056
  286MPD2     N 4374   0.102   2.059   1.120  0.5038  0.7790  0.0620
  286MPD2    H5 4375   0.180   2.001   1.147 -0.0388 -0.9904 -2.1547
  286MPD2    N1 4376   4.581   2.464   1.211 -0.1492 -0.4536 -0.0589
  286MPD2    H7 4377   4.513   2.431   1.143  0.5581 -0.8829 -0.5502
  287TMC3    C1 4378   0.035   1.851   1.045 -0.5677 -0.8165  0.0923
  287TMC3    C2 4379   4.671   1.781   1.000 -0.4754  0.0107 -0.6799
  287TMC3    C3 4380   4.674   1.646   1.022 -0.0471  0.1985 -0.3004
  287TMC3    C4 4381   0.141   1.804   1.118 -0.3305 -0.3853  0.1908
  287TMC3    C5 4382   0.130   1.671   1.157 -0.0495  0.0258  0.2929
  287TMC3    C6 4383   0.030   1.595   1.103  0.0096 -0.4758 -0.1857
  287TMC3     C 4384   4.736   1.992   1.066 -0.0131  0.2872 -0.0448
  287TMC3     O 4385   4.631   2.036   1.026 -0.8973  0.3870 -0.0714
  287TMC3     H 4386   4.601   1.827   0.932 -1.5526 -1.5832 -0.6510
  287TMC3    H1 4387   0.230   1.855   1.154 -1.0333 -0.9403  2.7434
  287TMC3    H2 4388   0.021   1.488   1.119  0.4731 -0.3054  1.2436
  287TMC3    C7 4389   0.253   1.601   1.192 -0.0380 -0.1422  0.5070
  287TMC3    C8 4390   4.610   1.550   0.934  0.1662  0.2088 -0.7794
  287TMC3    O1 4391   0.362   1.657   1.180  0.1111 -0.2581  0.2096
  287TMC3    O2 4392   4.606   1.432   0.968 -0.1603 -0.6441  0.1930
  288TMC3    C1 4393   0.902   1.992  14.285 -0.2010 -0.1848 -0.7145
  288TMC3    C2 4394   0.777   1.991  14.349 -0.0838 -0.3883  0.4395
  288TMC3    C3 4395   0.697   2.102  14.337  0.2390 -0.8465 -0.4312
  288TMC3    C4 4396   0.949   2.097  14.212 -0.0451  0.5541 -0.7950
  288TMC3    C5 4397   0.863   2.197  14.195  0.0794 -0.0349 -0.1379
  288TMC3    C6 4398   0.741   2.205  14.259  0.5062  1.1587 -0.1340
  288TMC3     C 4399   0.990   1.882  14.321 -0.1831 -0.3024 -0.8134
  288TMC3     O 4400   0.943   1.810  14.405  0.1343 -0.2953 -0.3032
  288TMC3     H 4401   0.757   1.905  14.412 -0.7167 -1.2971 -0.9770
  288TMC3    H1 4402   1.046   2.096  14.163 -0.2414 -0.3595 -1.1564
  288TMC3    H2 4403   0.671   2.288  14.248  0.7774  1.4481  0.3285
  288TMC3    C7 4404   0.870   2.254  14.063 -0.4469  0.1717  0.2761
  288TMC3    C8 4405   0.598   2.135  14.442  0.4931 -0.7871  0.2167
  288TMC3    O1 4406   0.979   2.279  14.020 -0.4509  0.2716  0.4155
  288TMC3    O2 4407   0.572   2.250  14.458  0.1495  0.2729  0.3047
  289MPD2     C 4408   0.491   0.905  14.412  0.2506  0.0747 -0.2028
  289MPD2    C1 4409   0.470   1.035  14.359  0.5790 -0.1974  0.3150
  289MPD2    C2 4410   0.367   1.058  14.271 -0.3985  0.1206  0.2595
  289MPD2    C3 4411   0.290   0.950  14.228 -0.2259 -0.2675 -0.0183
  289MPD2    C4 4412   0.316   0.821  14.276 -0.4231  0.6545  0.3337
  289MPD2    C5 4413   0.412   0.804  14.368  0.1282 -0.2061 -0.3146
  289MPD2     H 4414   0.350   1.158  14.233  2.1808  2.0057  4.0737
  289MPD2    H1 4415   0.268   0.729  14.243  0.0526  0.4767  0.1318
  289MPD2    H2 4416   0.573   0.890  14.481 -0.1305 -1.3648 -0.0626
  289MPD2    H3 4417   0.426   0.705  14.409 -0.0164 -0.8423 -1.7907
  289MPD2     N 4418   0.194   0.955  14.124 -0.1473 -0.0030  0.8075
  289MPD2    H5 4419   0.166   0.868  14.080 -0.4001  0.4943 -0.0097
  289MPD2    N1 4420   0.563   1.129  14.404  0.0728  0.0129 -0.2942
  289MPD2    H7 4421   0.647   1.095  14.449  0.8116  0.3453 -1.4024
  290TMC3    C1 4422   0.006   1.051  14.013  0.6081 -0.5488  0.0607
  290TMC3    C2 4423   4.687   1.167  13.969  0.4202  0.0452 -0.4728
  290TMC3    C3 4424   4.552   1.164  13.941  0.2157 -0.0273 -1.7881
  290TMC3    C4 4425   4.671   0.945  14.043 -0.2644  0.1134 -0.2834
  290TMC3    C5 4426   4.535   0.943  14.018  0.4789 -0.0257  0.1626
  290TMC3    C6 4427   4.475   1.055  13.967  0.5751  0.2570  0.1719
  290TMC3     C 4428   0.118   1.071  14.101 -1.0618 -0.6044 -0.0178
  290TMC3     O 4429   0.122   1.173  14.163  0.5627 -0.0702  0.4122
  290TMC3     H 4430   0.005   1.257  13.953 -0.1533  0.3662 -0.7747
  290TMC3    H1 4431   4.715   0.868  14.106 -1.7609  0.0413  0.6677
  290TMC3    H2 4432   4.368   1.052  13.950  0.4000  1.7933  1.0815
  290TMC3    C7 4433   4.459   0.880  14.120  0.0435  0.2620  0.6578
  290TMC3    C8 4434   4.473   1.284  13.938  0.6543  0.2546  0.3385
  290TMC3    O1 4435   4.387   0.953  14.180 -0.0233 -0.1294  0.3449
  290TMC3    O2 4436   4.352   1.262  13.934  0.3643 -0.2360  0.2935
  291MPD2     C 4437   4.595   0.993   0.175 -0.6652 -0.2124  0.5836
  291MPD2    C1 4438   4.597   0.865   0.228 -0.3533  0.1926  0.0757
  291MPD2    C2 4439   4.720   0.815   0.264  0.0769 -0.0444  0.6296
  291MPD2    C3 4440   0.093   0.896   0.266  0.0475 -0.0964 -0.8432
  291MPD2    C4 4441   0.081   1.021   0.207  0.2763 -0.7197 -0.7984
  291MPD2    C5 4442   4.706   1.072   0.161 -0.0798 -0.2834  0.0690
  291MPD2     H 4443   4.729   0.710   0.288 -0.2009 -0.5575 -1.5829
  291MPD2    H1 4444   0.172   1.080   0.202 -1.6090  2.2126 -0.4723
  291MPD2    H2 4445   4.504   1.035   0.135 -0.1531 -0.1363 -0.5279
  291MPD2    H3 4446   4.712   1.169   0.112 -0.2051 -0.9006 -1.1840
  291MPD2     N 4447   0.220   0.851   0.316 -0.0210  0.2755 -0.0819
  291MPD2    H5 4448   0.301   0.905   0.290 -0.6769  1.1099 -0.3831
  291MPD2    N1 4449   4.485   0.780   0.234 -0.3918  0.0564 -0.1645
  291MPD2    H7 4450   4.500   0.683   0.260 -0.7483  0.0728  0.1084
  292TMC3    C1 4451   4.248   0.740   0.260  0.2073  0.0347 -0.1513
  292TMC3    C2 4452   4.153   0.789   0.335  0.2677  0.0398 -0.6771
  292TMC3    C3 4453   4.076   0.705   0.412 -0.5560 -0.1551  0.3686
  292TMC3    C4 4454   4.268   0.606   0.251  0.7463 -0.0453  0.7705
  292TMC3    C5 4455   4.184   0.523   0.312 -0.0645 -0.2696 -0.2148
  292TMC3    C6 4456   4.083   0.567   0.402 -0.1163  0.0770 -0.8305
  292TMC3     C 4457   4.355   0.828   0.220 -0.3074 -0.6432 -0.3172
  292TMC3     O 4458   4.319   0.944   0.214 -0.3521 -0.4441  0.2179
  292TMC3     H 4459   4.147   0.896   0.354 -0.8796 -0.4564  1.6689
  292TMC3    H1 4460   4.347   0.571   0.186  1.7601 -0.3470  2.1584
  292TMC3    H2 4461   4.013   0.507   0.459  0.7091 -1.0884 -1.0549
  292TMC3    C7 4462   4.171   0.386   0.254 -0.0704 -0.1447 -0.0475
  292TMC3    C8 4463   4.025   0.763   0.533 -0.0724 -0.1981 -0.6365
  292TMC3    O1 4464   4.271   0.344   0.197  0.0616 -0.0386  0.5943
  292TMC3    O2 4465   3.991   0.881   0.529 -0.1201 -0.2798 -0.1021
  293MPD2     C 4466   1.362   2.690  12.663 -1.0431 -0.2836  0.2753
  293MPD2    C1 4467   1.276   2.623  12.746 -0.4198  0.0167  0.3014
  293MPD2    C2 4468   1.308   2.602  12.885 -0.0629 -0.5230 -0.6585
  293MPD2    C3 4469   1.425   2.659  12.934 -0.4564  0.5855  0.1535
  293MPD2    C4 4470   1.506   2.732  12.850  0.5933 -0.0320 -0.6536
  293MPD2    C5 4471   1.471   2.755  12.715 -0.4455 -0.1350 -0.1241
  293MPD2     H 4472   1.245   2.548  12.955 -0.8412  0.8649 -0.2861
  293MPD2    H1 4473   1.606   2.757  12.886  0.7837 -0.2740 -1.0122
  293MPD2    H2 4474   1.327   2.703  12.561  1.9350 -2.7651 -1.0625
  293MPD2    H3 4475   1.542   2.809  12.653 -1.9899 -0.0493 -1.8143
  293MPD2     N 4476   1.455   2.629  13.068 -0.1923  0.5122 -0.6686
  293MPD2    H5 4477   1.393   2.564  13.115  1.2528 -1.0971 -0.9853
  293MPD2    N1 4478   1.158   2.575  12.678  0.2567  0.0014 -0.4761
  293MPD2    H7 4479   1.149   2.603  12.581 -1.2878 -2.6647 -1.1163
  294TMC3    C1 4480   0.940   2.487  12.638 -0.5098 -0.9075  0.3560
  294TMC3    C2 4481   0.812   2.481  12.688  0.5449 -0.4748  0.2982
  294TMC3    C3 4482   0.707   2.492  12.598  0.1837  0.3698  0.4030
  294TMC3    C4 4483   0.973   2.510  12.502 -0.5817 -0.1349  0.1506
  294TMC3    C5 4484   0.867   2.521  12.417  0.7780 -0.5624 -0.4710
  294TMC3    C6 4485   0.744   2.513  12.465  0.4050  0.2467 -0.1296
  294TMC3     C 4486   1.049   2.501  12.737  0.0747  0.8594 -0.8457
  294TMC3     O 4487   1.029   2.465  12.858 -0.0984 -0.5680 -0.0729
  294TMC3     H 4488   0.810   2.454  12.793  1.4495 -0.0584  0.4228
  294TMC3    H1 4489   1.070   2.500  12.455  0.4427  0.4350  2.1584
  294TMC3    H2 4490   0.672   2.542  12.389 -0.2614 -2.4156 -0.5103
  294TMC3    C7 4491   0.885   2.465  12.286  0.3323  0.6065  0.0684
  294TMC3    C8 4492   0.614   2.381  12.610  0.1733 -0.0833  0.2176
  294TMC3    O1 4493   0.809   2.374  12.257  0.1130  0.0997  0.5756
  294TMC3    O2 4494   0.569   2.362  12.721 -0.2090  0.2066 -0.7255
  295MPD2     C 4495   2.544   1.773   0.833 -0.6415 -0.2808  0.1441
  295MPD2    C1 4496   2.437   1.697   0.781  0.5662 -0.5247 -0.0343
  295MPD2    C2 4497   2.330   1.671   0.862  0.4085  0.6720 -0.1584
  295MPD2    C3 4498   2.309   1.727   0.987  0.0147 -0.8968 -0.9832
  295MPD2    C4 4499   2.410   1.806   1.036  0.3796 -0.3634 -0.0880
  295MPD2    C5 4500   2.520   1.829   0.955 -0.0361 -0.6887  0.2336
  295MPD2     H 4501   2.257   1.601   0.824  0.2307  0.2767  0.9024
  295MPD2    H1 4502   2.407   1.851   1.135  0.4790 -3.2245  1.2070
  295MPD2    H2 4503   2.637   1.796   0.783 -0.8692 -1.9244 -1.0408
  295MPD2    H3 4504   2.593   1.904   0.984  1.7185 -0.9396 -3.5301
  295MPD2     N 4505   2.192   1.718   1.066 -0.0264  0.0674 -0.3622
  295MPD2    H5 4506   2.196   1.752   1.161 -0.4287  0.5250 -0.5088
  295MPD2    N1 4507   2.441   1.650   0.651 -0.0532 -0.5072 -0.4659
  295MPD2    H7 4508   2.365   1.591   0.620  0.6318 -1.0784 -1.0713
  296TMC3    C1 4509   1.993   1.638   1.152  0.1671  0.5548 -0.2894
  296TMC3    C2 4510   1.975   1.747   1.231  0.3449  0.5499  0.5136
  296TMC3    C3 4511   1.885   1.739   1.337  0.4132 -0.0737  0.0829
  296TMC3    C4 4512   1.937   1.518   1.179 -0.0008  0.1230 -0.0467
  296TMC3    C5 4513   1.859   1.507   1.297  0.2269 -0.0770  1.2565
  296TMC3    C6 4514   1.832   1.616   1.379 -0.2141  0.6148  0.3345
  296TMC3     C 4515   2.076   1.653   1.030 -0.3454  0.2766  0.0301
  296TMC3     O 4516   2.065   1.574   0.938 -0.2239 -0.6546 -0.5243
  296TMC3     H 4517   2.009   1.842   1.192  1.1998 -0.4501 -1.1744
  296TMC3    H1 4518   1.963   1.437   1.111  0.2551  0.6542 -0.5821
  296TMC3    H2 4519   1.762   1.600   1.461 -1.4366  0.1624 -0.7971
  296TMC3    C7 4520   1.836   1.380   1.361  0.1994  0.4869  0.0589
  296TMC3    C8 4521   1.835   1.856   1.406  0.6219 -0.1671  0.5839
  296TMC3    O1 4522   1.752   1.371   1.448 -0.1251 -0.2501 -0.1895
  296TMC3    O2 4523   1.746   1.829   1.485  0.0612  0.6970  0.1625
  297MPD2     C 4524   4.069   2.649  16.478 -0.0745  0.2602 -0.0521
  297MPD2    C1 4525   4.045   2.663  16.341  0.0748 -0.3644 -0.2405
  297MPD2    C2 4526   4.101   2.767  16.269  0.5439 -0.3524 -0.0062
  297MPD2    C3 4527   4.162   2.870  16.334 -0.3252 -0.4746 -0.6295
  297MPD2    C4 4528   4.193   2.851  16.468 -0.7602  0.7869  0.5264
  297MPD2    C5 4529   4.150   2.742  16.536 -0.1591  0.2856  0.3742
  297MPD2     H 4530   4.079   2.772  16.163  1.2005  0.5291 -0.0947
  297MPD2    H1 4531   4.257   2.916  16.526 -1.4115  0.6517  1.4067
  297MPD2    H2 4532   4.041   2.558  16.529 -1.9042  0.5225 -0.5908
  297MPD2    H3 4533   4.170   2.732  16.642 -2.3160  1.0828  0.8724
  297MPD2     N 4534   4.201   2.982  16.255 -0.0720  0.2516  0.4205
  297MPD2    H5 4535   4.196   2.963  16.155 -1.1569 -1.4335  0.7936
  297MPD2    N1 4536   3.960   2.575  16.269  0.6090  0.1725  0.0912
  297MPD2    H7 4537   3.947   2.602  16.173 -0.2507 -0.4713  0.0240
  298TMC3    C1 4538   3.765   2.466  16.232  0.3531 -0.1810  0.0617
  298TMC3    C2 4539   3.785   2.452  16.098 -0.0102 -0.7310  0.0422
  298TMC3    C3 4540   3.679   2.410  16.027 -0.4673 -0.6657 -0.2362
  298TMC3    C4 4541   3.644   2.456  16.293  0.0055  0.3709  0.2374
  298TMC3    C5 4542   3.537   2.421  16.217  0.1292 -0.5237  1.1112
  298TMC3    C6 4543   3.549   2.412  16.079 -0.0871 -0.3665 -0.1926
  298TMC3     C 4544   3.870   2.482  16.326 -0.2480  1.2498  0.7065
  298TMC3     O 4545   3.851   2.454  16.441  0.1726 -0.6153 -0.0794
  298TMC3     H 4546   3.886   2.449  16.058 -0.7753  0.3500 -1.9241
  298TMC3    H1 4547   3.635   2.462  16.401 -1.2681 -2.5606  0.3009
  298TMC3    H2 4548   3.465   2.383  16.016 -0.6339  0.2133  0.2712
  298TMC3    C7 4549   3.417   2.484  16.265 -0.5679  0.8399 -0.3990
  298TMC3    C8 4550   3.686   2.430  15.883 -0.3540  0.9074 -0.2555
  298TMC3    O1 4551   3.438   2.567  16.356 -0.0308  0.0203 -0.1803
  298TMC3    O2 4552   3.581   2.432  15.820  0.1685  0.4834  0.3379
  299MPD2     C 4553   4.191   2.990   9.803 -0.3861 -0.3503 -0.8582
  299MPD2    C1 4554   4.186   2.975   9.943  0.0480 -0.2331  0.1425
  299MPD2    C2 4555   4.079   2.905  10.002  0.1906  0.0257  0.4108
  299MPD2    C3 4556   3.975   2.862   9.923  0.0651  0.9590  0.2790
  299MPD2    C4 4557   3.972   2.893   9.790 -0.3423 -0.5710 -0.7042
  299MPD2    C5 4558   4.082   2.952   9.731  0.1374 -0.1696 -0.2891
  299MPD2     H 4559   4.080   2.885  10.109 -1.1109 -0.1338  0.3956
  299MPD2    H1 4560   3.887   2.865   9.728 -0.2539  0.6806 -1.3824
  299MPD2    H2 4561   4.270   3.045   9.755 -0.5627  0.3167 -0.3790
  299MPD2    H3 4562   4.076   2.974   9.625 -2.3223 -0.3202 -0.1961
  299MPD2     N 4563   3.867   2.782   9.977 -0.3671 -1.0631 -0.1263
  299MPD2    H5 4564   3.783   2.801   9.923  1.3462  0.2954 -2.3270
  299MPD2    N1 4565   4.291   3.031  10.011  0.3307 -0.2439 -0.1639
  299MPD2    H7 4566   4.361   3.084   9.961  0.4338 -1.2757 -1.1074
  300TMC3    C1 4567   3.728   2.717  10.156  0.2329  0.4505 -0.3981
  300TMC3    C2 4568   3.646   2.822  10.133 -0.4292 -0.1273 -0.3661
  300TMC3    C3 4569   3.551   2.855  10.225 -0.1926 -0.2189 -0.4819
  300TMC3    C4 4570   3.728   2.645  10.274 -0.0404 -0.2934 -0.4094
  300TMC3    C5 4571   3.651   2.699  10.374 -0.6685  0.8346 -0.2933
  300TMC3    C6 4572   3.562   2.803  10.353  0.2804 -0.3734 -0.1623
  300TMC3     C 4573   3.860   2.723  10.098  0.6478 -0.0172  0.1480
  300TMC3     O 4574   3.954   2.687  10.169 -0.6652 -0.1492  0.6304
  300TMC3     H 4575   3.662   2.890  10.050  1.4885 -1.1540 -0.8557
  300TMC3    H1 4576   3.791   2.560  10.295  0.0834  0.3400  1.8663
  300TMC3    H2 4577   3.486   2.819  10.428 -0.1843  0.0414 -0.7248
  300TMC3    C7 4578   3.687   2.649  10.512  0.0217 -0.0198 -0.1228
  300TMC3    C8 4579   3.512   2.989  10.213  0.8720  0.4981 -0.2733
  300TMC3    O1 4580   3.750   2.549  10.525  0.0189 -0.1124  0.1501
  300TMC3    O2 4581   3.585   3.067  10.152 -0.2485  0.2529 -0.4043
  301MPD2     C 4582   2.739   4.631   0.391 -0.2116 -0.0675 -0.1413
  301MPD2    C1 4583   2.647   4.553   0.319  0.7555 -0.3506 -0.4546
  301MPD2    C2 4584   2.628   4.420   0.350 -0.0955  0.1130  0.0821
  301MPD2    C3 4585   2.704   4.357   0.446  0.3901 -1.0492 -0.2180
  301MPD2    C4 4586   2.797   4.431   0.513 -0.6685  0.1126  0.5623
  301MPD2    C5 4587   2.814   4.568   0.489  0.1979  0.0546 -0.0979
  301MPD2     H 4588   2.582   4.355   0.276 -2.4662  2.6724 -0.6957
  301MPD2    H1 4589   2.859   4.388   0.591  0.0891  1.1174  0.5231
  301MPD2    H2 4590   2.740   4.739   0.388  0.0693 -0.0737 -0.3181
  301MPD2    H3 4591   2.880   4.633   0.546 -0.3822  0.5940 -0.0360
  301MPD2     N 4592   2.697   4.216   0.464  0.3222 -0.2512 -0.2377
  301MPD2    H5 4593   2.768   4.168   0.519  0.7931  2.1951  1.2823
  301MPD2    N1 4594   2.559   4.621   0.219 -0.5306 -0.1232  0.0500
  301MPD2    H7 4595   2.486   4.556   0.190 -0.8758 -0.3680  1.4805
  302TMC3    C1 4596   2.621   3.997   0.403 -0.2034  0.0640  0.0816
  302TMC3    C2 4597   2.725   3.934   0.461  0.8642 -1.3538  0.0790
  302TMC3    C3 4598   2.744   3.799   0.449 -0.0708 -0.1048  0.8739
  302TMC3    C4 4599   2.526   3.927   0.333 -0.7376  0.3006  0.1460
  302TMC3    C5 4600   2.547   3.794   0.316  0.0015 -0.5766  0.1353
  302TMC3    C6 4601   2.658   3.721   0.368  0.5038  0.5623  0.8788
  302TMC3     C 4602   2.593   4.142   0.420 -0.3292 -0.2907  0.1203
  302TMC3     O 4603   2.483   4.178   0.389 -0.3317 -0.2569  0.0213
  302TMC3     H 4604   2.796   3.985   0.525  0.7231 -1.4880  0.3407
  302TMC3    H1 4605   2.456   3.986   0.274  0.2931  2.4332  1.0862
  302TMC3    H2 4606   2.662   3.615   0.347  0.1272  0.5969  0.6366
  302TMC3    C7 4607   2.450   3.715   0.246 -0.2207 -0.4789 -0.5000
  302TMC3    C8 4608   2.812   3.733   0.556  0.4506  0.1523  0.0958
  302TMC3    O1 4609   2.485   3.600   0.229 -0.4513  0.1971 -1.1329
  302TMC3    O2 4610   2.737   3.679   0.636  0.3624  0.2384  0.4773
  303MPD2     C 4611   2.587   3.152  10.287  0.5491  0.3721 -0.0514
  303MPD2    C1 4612   2.523   3.139  10.164 -0.5174 -0.0550  0.7761
  303MPD2    C2 4613   2.586   3.090  10.057 -0.3791  0.4050 -0.1855
  303MPD2    C3 4614   2.717   3.061  10.070  0.7724 -0.0569  0.6381
  303MPD2    C4 4615   2.787   3.075  10.182  0.5222 -0.8216 -0.3523
  303MPD2    C5 4616   2.722   3.133  10.287  0.3649 -0.0288 -0.4545
  303MPD2     H 4617   2.547   3.064   9.960 -0.9930 -3.4124  1.0960
  303MPD2    H1 4618   2.891   3.043  10.189  0.5758 -0.5763 -0.0130
  303MPD2    H2 4619   2.529   3.182  10.373  1.1643  1.4968 -0.0361
  303MPD2    H3 4620   2.784   3.143  10.375  1.5148 -1.2128 -1.1365
  303MPD2     N 4621   2.773   3.012   9.950  0.2013  0.8600 -0.1621
  303MPD2    H5 4622   2.716   2.992   9.869 -1.0302 -1.6174  1.3314
  303MPD2    N1 4623   2.383   3.169  10.160 -0.1345  0.4478  0.0718
  303MPD2    H7 4624   2.341   3.198  10.248 -0.4022 -1.1985  0.4857
  304TMC3    C1 4625   2.176   3.237  10.077 -0.7016 -0.1812 -0.0801
  304TMC3    C2 4626   2.115   3.294   9.968 -0.0122 -0.7734  0.2229
  304TMC3    C3 4627   1.983   3.261   9.958 -0.4574 -0.5192  0.6139
  304TMC3    C4 4628   2.114   3.171  10.175 -0.3531  0.9529  0.4451
  304TMC3    C5 4629   1.980   3.149  10.166  0.4450 -0.5585  0.2953
  304TMC3    C6 4630   1.915   3.196  10.056  0.1898 -0.2029  0.0215
  304TMC3     C 4631   2.305   3.177  10.047 -0.2205  0.1234  0.3197
  304TMC3     O 4632   2.333   3.170   9.928 -0.2926  0.7992 -0.1131
  304TMC3     H 4633   2.169   3.327   9.879  0.5521 -0.1568  0.7911
  304TMC3    H1 4634   2.169   3.140  10.262 -0.5049 -0.4803  0.0288
  304TMC3    H2 4635   1.811   3.166  10.045  0.2117 -0.3740  0.2811
  304TMC3    C7 4636   1.950   3.016  10.193  0.2542 -0.5885 -0.3200
  304TMC3    C8 4637   1.946   3.222   9.827 -0.5604  0.7010 -0.8151
  304TMC3    O1 4638   1.886   2.962  10.104 -0.7943 -0.1217 -0.7665
  304TMC3    O2 4639   1.963   3.310   9.743  0.0306 -0.1281 -0.0298
  305MPD2     C 4640   0.045   3.714  14.047 -0.5166 -0.4276 -0.3106
  305MPD2    C1 4641   0.131   3.814  14.008  0.2644 -0.6720 -0.3519
  305MPD2    C2 4642   0.127   3.861  13.879  0.4240 -0.0922  1.1844
  305MPD2    C3 4643   0.050   3.801  13.780  0.3699 -0.1917 -0.1920
  305MPD2    C4 4644   4.702   3.709  13.820 -0.5108  0.3283  0.1028
  305MPD2    C5 4645   4.699   3.664  13.949  0.2519  0.4395 -0.2431
  305MPD2     H 4646   0.206   3.931  13.856 -0.0342  0.5673  1.6169
  305MPD2    H1 4647   4.637   3.659  13.749 -0.0047 -0.1659 -0.0125
  305MPD2    H2 4648   0.041   3.677  14.148 -0.2144 -0.9213 -0.4815
  305MPD2    H3 4649   4.640   3.574  13.966  1.8983 -0.0797  2.8084
  305MPD2     N 4650   0.036   3.847  13.646  0.3887 -0.2664 -0.0334
  305MPD2    H5 4651   4.708   3.806  13.584  0.7098 -1.3529  0.3429
  305MPD2    N1 4652   0.223   3.880  14.094  0.4456  0.8424  0.0217
  305MPD2    H7 4653   0.263   3.965  14.054 -0.4560  0.3429 -1.9068
  306TMC3    C1 4654   0.382   3.923  14.255 -0.0424 -0.4221 -0.5820
  306TMC3    C2 4655   0.463   3.849  14.334 -0.3259 -0.7793  0.5410
  306TMC3    C3 4656   0.544   3.911  14.427  0.6609  0.7275  0.0655
  306TMC3    C4 4657   0.359   4.059  14.271  0.1928 -0.3373 -0.2451
  306TMC3    C5 4658   0.442   4.113  14.367  0.3021 -0.4368  0.1744
  306TMC3    C6 4659   0.537   4.048  14.439 -0.2786  0.2078  0.2928
  306TMC3     C 4660   0.276   3.842  14.207 -0.6878  0.0245 -0.4118
  306TMC3     O 4661   0.238   3.752  14.276  0.4451 -0.1054 -0.0067
  306TMC3     H 4662   0.485   3.747  14.305 -0.2497 -0.0752 -1.8506
  306TMC3    H1 4663   0.298   4.120  14.206 -2.2093 -2.8414 -0.3683
  306TMC3    H2 4664   0.618   4.107  14.480  0.6814 -0.2313 -0.9785
  306TMC3    C7 4665   0.451   4.253  14.374 -0.3259 -0.4343  0.4122
  306TMC3    C8 4666   0.622   3.820  14.519 -0.1060  0.0210  0.7233
  306TMC3    O1 4667   0.436   4.310  14.265 -0.2962  0.6449 -0.0995
  306TMC3    O2 4668   0.650   3.709  14.479  0.1669 -0.0287 -0.7131
  307MPD2     C 4669   3.310   2.255   0.633  0.0045  0.1306 -0.3956
  307MPD2    C1 4670   3.253   2.375   0.670 -0.2015  0.1786  0.1264
  307MPD2    C2 4671   3.124   2.388   0.696 -0.2189 -0.0175  0.4712
  307MPD2    C3 4672   3.037   2.281   0.680  0.4585 -0.5009  0.4546
  307MPD2    C4 4673   3.093   2.157   0.647 -0.0567  0.3208 -0.0123
  307MPD2    C5 4674   3.226   2.150   0.618  0.5042 -0.4059  0.5013
  307MPD2     H 4675   3.088   2.473   0.753 -2.1274  1.3322 -2.7586
  307MPD2    H1 4676   3.036   2.064   0.650  2.1696 -0.9831  1.6118
  307MPD2    H2 4677   3.415   2.240   0.612  0.1108  1.5129 -0.8134
  307MPD2    H3 4678   3.269   2.056   0.585 -0.8079 -1.8139  2.8085
  307MPD2     N 4679   2.896   2.288   0.713  0.3317  0.3824 -0.0418
  307MPD2    H5 4680   2.862   2.375   0.754 -0.2403  0.4891 -0.7476
  307MPD2    N1 4681   3.339   2.491   0.674 -0.6429  0.0076  0.3880
  307MPD2    H7 4682   3.440   2.482   0.669 -0.8330 -0.1151 -2.8925
  308TMC3    C1 4683   2.469   2.122   0.806  0.5480  0.3692 -0.3978
  308TMC3    C2 4684   2.452   2.225   0.901 -0.6534  0.3610 -0.0543
  308TMC3    C3 4685   2.549   2.324   0.904 -0.1484 -0.8521 -0.1439
  308TMC3    C4 4686   2.579   2.127   0.731 -0.2024  0.2238  0.1207
  308TMC3    C5 4687   2.667   2.233   0.730  0.7895  0.1246  0.6994
  308TMC3    C6 4688   2.652   2.341   0.815 -0.1036 -0.0039 -0.1336
  308TMC3     C 4689   2.348   2.055   0.766 -0.5367 -0.4653  0.2013
  308TMC3     O 4690   2.252   2.099   0.825 -0.2115  0.0445 -0.4514
  308TMC3     H 4691   2.377   2.229   0.980  0.0712  0.7723  0.6187
  308TMC3    H1 4692   2.603   2.044   0.665  0.8019 -0.1771  0.9962
  308TMC3    H2 4693   2.726   2.413   0.847 -0.6194 -0.1550  1.4003
  308TMC3    C7 4694   2.803   2.196   0.689  0.1245  0.5980 -0.1620
  308TMC3    C8 4695   2.495   2.442   0.955 -0.3071 -0.1779  0.0375
  308TMC3    O1 4696   2.814   2.099   0.612 -0.3711 -0.3139 -0.5281
  308TMC3    O2 4697   2.469   2.450   1.069  0.3617 -0.1451 -0.0414
  309MPD2     C 4698   2.062   2.871  17.223 -0.2138 -0.7678  1.2446
  309MPD2    C1 4699   2.015   2.862  17.096  0.5778  0.1623  1.0813
  309MPD2    C2 4700   1.874   2.842  17.084  0.1843  0.2141  0.2732
  309MPD2    C3 4701   1.797   2.829  17.195  0.1452  0.4324 -0.5313
  309MPD2    C4 4702   1.847   2.827  17.320 -0.5382  0.2505 -0.1278
  309MPD2    C5 4703   1.982   2.853  17.335 -0.3263 -0.2341  0.3278
  309MPD2     H 4704   1.825   2.841  16.987  0.3807  2.5984  0.1649
  309MPD2    H1 4705   1.786   2.809  17.408 -1.1909 -0.5132 -0.7314
  309MPD2    H2 4706   2.168   2.886  17.238 -0.3141  0.4363  0.7092
  309MPD2    H3 4707   2.028   2.861  17.433 -0.1589  1.2337  0.1249
  309MPD2     N 4708   1.653   2.799  17.184  0.1900  0.6077  0.1892
  309MPD2    H5 4709   1.611   2.757  17.266  0.1547 -0.0241 -0.1467
  309MPD2    N1 4710   2.099   2.861  16.983 -0.4915  0.7366  0.3000
  309MPD2    H7 4711   2.051   2.850  16.894 -2.0014  1.4781  1.0159
  310TMC3    C1 4712   2.282   2.830  16.849 -0.3024 -0.0197 -0.0154
  310TMC3    C2 4713   2.194   2.868  16.747  0.1195  1.2304 -0.7964
  310TMC3    C3 4714   2.183   2.790  16.632  0.2751  0.6775 -1.0546
  310TMC3    C4 4715   2.351   2.709  16.845  0.4700  0.4977  0.2152
  310TMC3    C5 4716   2.346   2.644  16.727 -0.3795  0.2214 -0.1413
  310TMC3    C6 4717   2.262   2.677  16.623  0.3420 -0.7732 -0.6360
  310TMC3     C 4718   2.236   2.855  16.980  0.0854  0.0094 -0.6028
  310TMC3     O 4719   2.322   2.841  17.066 -0.1316  0.1204  0.6049
  310TMC3     H 4720   2.150   2.965  16.727  1.2735  1.9382  0.0383
  310TMC3    H1 4721   2.413   2.661  16.920 -0.1776  1.3005  1.2661
  310TMC3    H2 4722   2.251   2.606  16.542  1.2699 -1.7503  0.1130
  310TMC3    C7 4723   2.431   2.524  16.708  0.1298  0.2031  0.0846
  310TMC3    C8 4724   2.058   2.791  16.557 -0.0495  0.1927  0.2222
  310TMC3    O1 4725   2.377   2.433  16.645  0.3522  0.4146  0.3594
  310TMC3    O2 4726   2.002   2.902  16.549 -0.4764  0.1177  0.0845
  311MPD2     C 4727   3.766   4.080  12.485  0.0025  0.3260 -0.5835
  311MPD2    C1 4728   3.781   4.205  12.538  0.1002 -0.2751  0.9692
  311MPD2    C2 4729   3.679   4.294  12.536  0.3244  0.3333  0.2434
  311MPD2    C3 4730   3.549   4.248  12.502  0.0094  0.4649 -0.0667
  311MPD2    C4 4731   3.526   4.127  12.441 -0.2046 -0.2167  0.6582
  311MPD2    C5 4732   3.642   4.045  12.438  0.1343 -0.0899  0.8745
  311MPD2     H 4733   3.702   4.394  12.570 -0.0138  0.9987 -1.4769
  311MPD2    H1 4734   3.432   4.083  12.411  0.1308 -0.1433 -0.4745
  311MPD2    H2 4735   3.851   4.015  12.466 -0.1577 -0.9152  3.0202
  311MPD2    H3 4736   3.615   3.950  12.395  0.4237  0.4793 -0.5729
  311MPD2     N 4737   3.440   4.341  12.530 -0.5528 -0.0628  0.4296
  311MPD2    H5 4738   3.465   4.418  12.591 -0.2366  0.4364 -0.3367
  311MPD2    N1 4739   3.910   4.259  12.576  0.2832 -0.1320 -0.3465
  311MPD2    H7 4740   3.915   4.341  12.635 -0.3954  0.2942 -0.8688
  312TMC3    C1 4741   3.217   4.349  12.619 -0.5356 -0.4233  0.4873
  312TMC3    C2 4742   3.085   4.304  12.621  0.1697  0.5219 -0.0974
  312TMC3    C3 4743   3.016   4.306  12.737 -0.3902 -0.2747 -0.0889
  312TMC3    C4 4744   3.273   4.391  12.746  0.1143  0.0655 -0.3628
  312TMC3    C5 4745   3.191   4.388  12.861 -0.2103 -0.4553  0.7975
  312TMC3    C6 4746   3.061   4.360  12.851  1.0472 -0.5850 -0.6667
  312TMC3     C 4747   3.311   4.308  12.517 -1.3994  0.1764 -0.2436
  312TMC3     O 4748   3.263   4.233  12.434  0.0478  0.0751  0.6472
  312TMC3     H 4749   3.050   4.243  12.539 -1.0862  1.2395 -0.0940
  312TMC3    H1 4750   3.370   4.437  12.739  0.1430 -0.0564 -0.7432
  312TMC3    H2 4751   2.998   4.368  12.938  3.1560 -1.8752  0.9733
  312TMC3    C7 4752   3.223   4.500  12.951 -0.6733 -0.5518 -0.0211
  312TMC3    C8 4753   2.876   4.253  12.737 -0.9734 -0.2240  0.0963
  312TMC3    O1 4754   3.258   4.603  12.895  0.0063  0.2634 -0.3719
  312TMC3    O2 4755   2.831   4.211  12.843 -0.5515 -0.1912  0.0788
  313MPD2     C 4756   2.533   3.835  11.376 -0.0966  0.3133  0.3254
  313MPD2    C1 4757   2.604   3.813  11.263 -0.4355  0.1136 -0.7887
  313MPD2    C2 4758   2.656   3.685  11.238 -0.2786  0.2234 -0.8054
  313MPD2    C3 4759   2.646   3.588  11.329 -0.8397 -0.8064 -0.7442
  313MPD2    C4 4760   2.601   3.622  11.454 -0.3504 -0.1378 -0.6906
  313MPD2    C5 4761   2.534   3.742  11.472 -0.0402 -0.2351  0.8557
  313MPD2     H 4762   2.716   3.666  11.150 -1.1001  1.3341 -1.5968
  313MPD2    H1 4763   2.596   3.551  11.536  2.0898 -0.2299 -0.6229
  313MPD2    H2 4764   2.477   3.926  11.395  0.6677  0.7530  0.4975
  313MPD2    H3 4765   2.487   3.758  11.569  1.2090  2.5556  1.0030
  313MPD2     N 4766   2.684   3.456  11.290 -0.2987 -0.2144 -0.6938
  313MPD2    H5 4767   2.717   3.452  11.194 -2.8242 -1.7567 -1.4980
  313MPD2    N1 4768   2.629   3.917  11.166 -0.3682  0.7469  0.4256
  313MPD2    H7 4769   2.673   3.897  11.076 -0.0394 -0.8441  0.9402
  314TMC3    C1 4770   2.718   4.130  11.102  0.1354  0.2585  0.3821
  314TMC3    C2 4771   2.830   4.184  11.162  0.1486 -0.0780  0.1235
  314TMC3    C3 4772   2.916   4.256  11.074 -0.6042  0.5260 -0.2737
  314TMC3    C4 4773   2.691   4.129  10.969  0.3795  0.3361 -0.9323
  314TMC3    C5 4774   2.779   4.204  10.887 -0.1199 -0.9850  0.4122
  314TMC3    C6 4775   2.894   4.265  10.937 -0.0924  0.0795 -0.2148
  314TMC3     C 4776   2.627   4.054  11.185  1.0515 -0.0010 -1.1019
  314TMC3     O 4777   2.575   4.122  11.271  0.5496  0.3319  0.0631
  314TMC3     H 4778   2.842   4.188  11.270  0.6561  1.0714  0.0235
  314TMC3    H1 4779   2.596   4.103  10.923  1.1633  1.7697 -3.3555
  314TMC3    H2 4780   2.961   4.333  10.885  0.2211  1.0279  1.4129
  314TMC3    C7 4781   2.749   4.220  10.744  0.4937  0.6401 -0.3036
  314TMC3    C8 4782   3.059   4.251  11.107  0.1674  0.6295  0.6324
  314TMC3    O1 4783   2.638   4.205  10.699  0.3789  0.1320 -0.3261
  314TMC3    O2 4784   3.134   4.334  11.055 -0.1343  0.5824 -0.2684
  315MPD2     C 4785   3.575   2.292  17.546  0.4666 -0.2535  0.0228
  315MPD2    C1 4786   3.616   2.379  17.650 -0.1221  0.0622  0.3254
  315MPD2    C2 4787   3.610   2.514  17.638 -1.0424  0.4599  0.0940
  315MPD2    C3 4788   3.560   2.570  17.520 -0.0115  0.3059  0.3263
  315MPD2    C4 4789   3.523   2.487  17.425 -0.3199 -0.3670 -0.2394
  315MPD2    C5 4790   3.523   2.353  17.438 -0.4929 -0.2916  0.3783
  315MPD2     H 4791   3.666   2.572  17.709 -0.4466 -1.7307  1.4291
  315MPD2    H1 4792   3.482   2.519  17.330 -0.2494  1.6983  0.4192
  315MPD2    H2 4793   3.597   2.186  17.548 -0.4699 -0.4299  1.2369
  315MPD2    H3 4794   3.504   2.289  17.352 -0.1219 -0.5140  0.4627
  315MPD2     N 4795   3.549   2.711  17.519 -0.3487 -0.0126  0.5776
  315MPD2    H5 4796   3.588   2.757  17.601  0.6051  1.5585 -0.7473
  315MPD2    N1 4797   3.680   2.326   0.005  0.4324  0.2047  0.5103
  315MPD2    H7 4798   3.746   2.383   0.056  0.9871  0.5335 -0.5758
  316TMC3    C1 4799   3.511   2.940  17.432 -0.7889  0.2114 -0.5131
  316TMC3    C2 4800   3.586   2.993  17.533 -0.3215 -0.1228  0.4859
  316TMC3    C3 4801   3.571   3.121  17.566  0.3092  0.6314  0.6486
  316TMC3    C4 4802   3.437   3.021  17.348 -0.1261 -0.5362  0.5340
  316TMC3    C5 4803   3.408   3.149  17.394  0.3313 -0.6301  0.2631
  316TMC3    C6 4804   3.479   3.202  17.502  0.1346  0.3311  0.1043
  316TMC3     C 4805   3.507   2.791  17.413 -0.2568 -0.1139 -0.3046
  316TMC3     O 4806   3.432   2.756  17.321  0.0559  0.1749  0.2856
  316TMC3     H 4807   3.641   2.922  17.593 -1.4756 -1.4149  0.0248
  316TMC3    H1 4808   3.395   2.973  17.260 -2.9972 -0.4187  1.8466
  316TMC3    H2 4809   3.440   3.294  17.544 -1.1837 -0.6892  1.1209
  316TMC3    C7 4810   3.351   3.252  17.303 -1.3295 -0.2088 -0.0512
  316TMC3    C8 4811   3.658   3.183  17.669  0.8544 -0.5364 -0.3344
  316TMC3    O1 4812   3.307   3.355  17.355  0.5388 -0.0273 -0.0930
  316TMC3    O2 4813   3.635   3.297  17.714  0.2062  0.4357  0.1702
  317MPD2     C 4814   0.689   1.367  11.798 -0.7714 -0.1395 -0.1017
  317MPD2    C1 4815   0.709   1.248  11.861  0.3140  0.1645 -0.0790
  317MPD2    C2 4816   0.619   1.198  11.956 -0.3842  0.1475  0.4656
  317MPD2    C3 4817   0.511   1.270  11.999 -0.1002 -0.4770  0.4857
  317MPD2    C4 4818   0.487   1.386  11.932 -0.0675  0.7262 -0.0440
  317MPD2    C5 4819   0.568   1.425  11.822 -0.4211 -0.0504  0.0504
  317MPD2     H 4820   0.642   1.101  11.998  0.0812  0.3465  0.6671
  317MPD2    H1 4821   0.403   1.448  11.961  1.0161  1.5680  1.2602
  317MPD2    H2 4822   0.749   1.409  11.718 -0.0233  1.1395  1.1276
  317MPD2    H3 4823   0.543   1.515  11.766 -2.2713 -0.6503 -0.0792
  317MPD2     N 4824   0.438   1.214  12.106 -0.5578 -0.8856  0.5755
  317MPD2    H5 4825   0.480   1.127  12.136  0.8200 -0.9231 -1.4852
  317MPD2    N1 4826   0.827   1.175  11.838  0.2134  0.4817  0.4522
  317MPD2    H7 4827   0.844   1.087  11.887  0.6614  1.1390  1.4905
  318TMC3    C1 4828   0.287   1.196  12.288  0.6913 -0.0800  0.4476
  318TMC3    C2 4829   0.277   1.061  12.262  0.5745 -0.4498 -0.0378
  318TMC3    C3 4830   0.200   0.990  12.347 -0.7129 -0.2040 -0.4682
  318TMC3    C4 4831   0.233   1.252  12.398 -0.1490 -0.7284  0.3831
  318TMC3    C5 4832   0.167   1.176  12.491  0.2269  0.5269 -0.2443
  318TMC3    C6 4833   0.143   1.039  12.460  0.8302 -0.2877  0.5649
  318TMC3     C 4834   0.344   1.282  12.190  0.7528  0.3182 -0.6242
  318TMC3     O 4835   0.314   1.397  12.180 -0.1365 -0.6618 -0.7488
  318TMC3     H 4836   0.300   1.020  12.164  0.5932  0.4371 -0.4009
  318TMC3    H1 4837   0.260   1.354  12.422 -1.8937  0.5621 -3.1019
  318TMC3    H2 4838   0.088   0.981  12.533  0.9167 -1.3241 -0.2042
  318TMC3    C7 4839   0.139   1.238  12.618  0.4588  0.2137 -0.2370
  318TMC3    C8 4840   0.141   0.872  12.292 -0.5477 -0.2943 -0.1369
  318TMC3    O1 4841   0.127   1.358  12.622 -0.0024  0.0834  0.1154
  318TMC3    O2 4842   0.214   0.794  12.229  0.3727 -0.3410 -0.5949
  319MPD2     C 4843   1.152   2.289  16.753 -0.1854  0.0541 -0.0143
  319MPD2    C1 4844   1.233   2.177  16.729  0.3343  0.2162 -0.1373
  319MPD2    C2 4845   1.200   2.100  16.622 -0.5032  0.0666  0.2970
  319MPD2    C3 4846   1.095   2.136  16.537 -0.0556  0.4538  0.5889
  319MPD2    C4 4847   1.025   2.249  16.562 -0.2033  0.8003  0.0622
  319MPD2    C5 4848   1.050   2.322  16.676 -0.7161  0.4320 -0.2742
  319MPD2     H 4849   1.265   2.020  16.588 -3.9545 -2.0653 -1.3078
  319MPD2    H1 4850   0.950   2.272  16.486  1.0390  0.5036 -1.2609
  319MPD2    H2 4851   1.180   2.348  16.840 -0.1689 -1.0196  0.7149
  319MPD2    H3 4852   0.985   2.398  16.717  0.6260 -0.5204  3.6091
  319MPD2     N 4853   1.060   2.073  16.416  0.7528  0.2834 -0.3686
  319MPD2    H5 4854   1.001   2.129  16.357  2.1103  1.2030 -0.8545
  319MPD2    N1 4855   1.345   2.153  16.818 -0.2648 -0.0934 -0.2311
  319MPD2    H7 4856   1.358   2.216  16.896  0.9079 -1.0529  0.3433
  320TMC3    C1 4857   1.010   1.887  16.284  0.1608  0.0439  0.3901
  320TMC3    C2 4858   0.947   1.973  16.192 -0.2219  0.1303 -0.8473
  320TMC3    C3 4859   0.855   1.930  16.101  0.3067  0.0916  0.3746
  320TMC3    C4 4860   0.968   1.760  16.296  0.2390 -0.2046 -0.3570
  320TMC3    C5 4861   0.865   1.718  16.204 -0.2033 -0.1133  0.1922
  320TMC3    C6 4862   0.807   1.801  16.115  0.9044  0.1122 -0.4453
  320TMC3     C 4863   1.099   1.949  16.383 -0.0714 -0.5565  0.3297
  320TMC3     O 4864   1.165   1.869  16.448  0.1116 -0.2507  0.2343
  320TMC3     H 4865   0.975   2.077  16.180  1.5041 -0.7568 -4.5890
  320TMC3    H1 4866   0.997   1.692  16.375  1.1515  0.5331 -0.0637
  320TMC3    H2 4867   0.736   1.759  16.045 -0.4333 -0.6709  1.3675
  320TMC3    C7 4868   0.808   1.588  16.214  0.1939  0.2932  0.0893
  320TMC3    C8 4869   0.794   2.031  16.012 -0.4268  0.3390 -0.0261
  320TMC3    O1 4870   0.706   1.575  16.142 -0.3350  0.1137 -0.4710
  320TMC3    O2 4871   0.863   2.127  15.982 -0.3978 -0.4944  0.8596
  321TMC3    C1 4872   1.555   2.060  16.877 -0.1499 -0.5091 -0.0091
  321TMC3    C2 4873   1.614   1.941  16.910  0.3327  0.0092  0.1997
  321TMC3    C3 4874   1.733   1.955  16.976  0.5217 -0.2391 -0.2509
  321TMC3    C4 4875   1.600   2.181  16.913  0.6945  0.1537 -0.2286
  321TMC3    C5 4876   1.705   2.189  16.999  0.3628 -0.3615  0.4779
  321TMC3    C6 4877   1.767   2.076  17.034 -0.1634  0.1339 -0.2588
  321TMC3     C 4878   1.444   2.060  16.782  0.3824 -0.5461 -0.3626
  321TMC3     O 4879   1.437   1.979  16.691  0.0806  0.1298  0.4468
  321TMC3     H 4880   1.584   1.850  16.859  1.3124 -0.9937  1.4326
  321TMC3    H1 4881   1.555   2.276  16.888  1.5865  0.2441 -1.5147
  321TMC3    H2 4882   1.835   2.083  17.119 -3.1947 -0.9549  2.2448
  321TMC3    C7 4883   1.792   2.311  17.009  0.0822 -0.7247  0.5828
  321TMC3    C8 4884   1.815   1.837  16.991  0.4248  0.2945  0.1321
  321TMC3    O1 4885   1.744   2.422  17.039  0.1053 -0.3683  0.2163
  321TMC3    O2 4886   1.766   1.728  16.989  0.6807 -0.7688 -0.2084
  322MPD2     C 4887   0.280   3.276  13.486  0.0228 -0.0856 -0.3354
  322MPD2    C1 4888   0.268   3.215  13.613  0.1480  0.3163  0.6036
  322MPD2    C2 4889   0.315   3.086  13.626 -0.5028 -0.8165  0.6478
  322MPD2    C3 4890   0.383   3.018  13.527  0.0720  0.2022  0.2628
  322MPD2    C4 4891   0.395   3.081  13.400  0.1969 -0.0603 -0.0798
  322MPD2    C5 4892   0.344   3.207  13.383  0.6168  0.1922 -0.0359
  322MPD2     H 4893   0.299   3.025  13.714 -1.1040  2.1049  2.5874
  322MPD2    H1 4894   0.446   3.029  13.320 -1.8433 -0.1609 -1.3375
  322MPD2    H2 4895   0.250   3.378  13.464  0.5380  0.6289  2.3340
  322MPD2    H3 4896   0.365   3.256  13.288 -0.0072 -0.7918 -0.6886
  322MPD2     N 4897   0.433   2.888  13.547 -0.3825  0.3595  0.4585
  322MPD2    H5 4898   0.466   2.864  13.640 -1.6752 -3.0733  0.0388
  322MPD2    N1 4899   0.206   3.291  13.716  0.0023  0.0819  0.4050
  322MPD2    H7 4900   0.190   3.389  13.697 -3.1665 -0.4130  0.4876
  323TMC3    C1 4901   0.212   3.367  13.929 -1.1691 -0.0360 -0.7691
  323TMC3    C2 4902   0.303   3.462  13.885  0.8689  0.3368 -0.1492
  323TMC3    C3 4903   0.358   3.542  13.982 -0.4207 -0.7902  0.4774
  323TMC3    C4 4904   0.190   3.344  14.063  0.1006 -0.0213 -0.1162
  323TMC3    C5 4905   0.243   3.429  14.154 -0.2470 -0.6295  0.3438
  323TMC3    C6 4906   0.322   3.529  14.114  0.1147 -0.6975 -0.4985
  323TMC3     C 4907   0.203   3.252  13.847 -0.0580  0.3522 -0.3011
  323TMC3     O 4908   0.209   3.141  13.900 -0.0368  0.4887  1.0063
  323TMC3     H 4909   0.354   3.450  13.790 -1.2254  1.1123 -1.3866
  323TMC3    H1 4910   0.128   3.261  14.094  1.0512 -1.2689 -1.5442
  323TMC3    H2 4911   0.372   3.596  14.183 -0.9534  0.2372 -0.6399
  323TMC3    C7 4912   0.252   3.378  14.292 -0.1212  0.0432  0.0508
  323TMC3    C8 4913   0.448   3.648  13.939  0.0239 -0.3742 -0.2830
  323TMC3    O1 4914   0.215   3.261  14.309 -0.0490  0.1892  0.7558
  323TMC3    O2 4915   0.514   3.703  14.027  0.2808 -0.1504  0.6090
  324MPD2     C 4916   1.965   4.562  14.263  0.0683  0.6672  0.5573
  324MPD2    C1 4917   1.980   4.671  14.341  0.3591  0.8587 -0.3748
  324MPD2    C2 4918   1.868   4.739  14.387  0.2315  0.7280 -0.5079
  324MPD2    C3 4919   1.745   4.693  14.339 -0.1156  0.3259 -0.2075
  324MPD2    C4 4920   1.729   4.575  14.270 -0.5729  0.2548  0.3372
  324MPD2    C5 4921   1.841   4.503  14.232  0.0588 -0.3486  0.0831
  324MPD2     H 4922   1.878   0.090  14.445 -1.5269  0.7291 -0.2044
  324MPD2    H1 4923   1.632   4.542  14.234 -1.0204  2.2319 -0.2368
  324MPD2    H2 4924   2.050   4.500  14.235 -2.5725 -1.6488 -2.3103
  324MPD2    H3 4925   1.815   4.418  14.170 -1.6914  0.1572  0.1212
  324MPD2     N 4926   1.615   0.005  14.375  0.5358  0.0978  0.5032
  324MPD2    H5 4927   1.537   4.681  14.362  2.1421 -1.8474  0.4538
  324MPD2    N1 4928   2.109   4.716  14.384 -0.0116  0.1566 -0.3799
  324MPD2    H7 4929   2.115   0.066  14.431 -1.5681 -0.9962  1.9873
  325TMC3    C1 4930   1.461   0.160  14.459  1.1125  0.8907  0.8794
  325TMC3    C2 4931   1.358   0.073  14.434  0.9653 -0.1151  0.3241
  325TMC3    C3 4932   1.233   0.104  14.484  0.1283  0.0426 -0.0593
  325TMC3    C4 4933   1.423   0.290  14.507 -0.0561 -0.4503 -0.1943
  325TMC3    C5 4934   1.299   0.321  14.560  0.0384  0.3838 -0.1373
  325TMC3    C6 4935   1.202   0.224  14.545 -0.6377  0.3702  0.3693
  325TMC3     C 4936   1.592   0.134  14.419  0.0779 -0.2486  0.5327
  325TMC3     O 4937   1.668   0.229  14.403 -0.3406  0.3073  0.0248
  325TMC3     H 4938   1.368   4.724  14.373 -3.1109  0.2055 -0.8417
  325TMC3    H1 4939   1.499   0.367  14.504  0.2722 -0.8892 -3.5170
  325TMC3    H2 4940   1.097   0.243  14.562 -1.0453 -1.4781 -0.1227
  325TMC3    C7 4941   1.253   0.448  14.512  0.4665 -0.5846 -0.3664
  325TMC3    C8 4942   1.125   0.056  14.404  1.3019  0.3256 -0.0871
  325TMC3    O1 4943   1.288   0.467  14.395  0.2452  0.4536 -0.5717
  325TMC3    O2 4944   1.049   0.138  14.355  0.1267 -0.1970  0.0651
  326MPD2     C 4945   2.519   1.117  11.315  0.5803  0.9296 -0.1749
  326MPD2    C1 4946   2.468   1.208  11.224 -0.3767  0.5231  0.3574
  326MPD2    C2 4947   2.559   1.289  11.161 -0.5371 -0.2108 -1.0387
  326MPD2    C3 4948   2.694   1.262  11.165  0.2788  0.4818 -0.2345
  326MPD2    C4 4949   2.750   1.172  11.256  0.2720  0.2845 -0.6978
  326MPD2    C5 4950   2.658   1.096  11.328  0.1661  0.1609 -0.1345
  326MPD2     H 4951   2.526   1.365  11.091  0.9674 -0.5187 -2.0995
  326MPD2    H1 4952   2.854   1.146  11.267  0.1789 -0.2842 -1.1514
  326MPD2    H2 4953   2.441   1.064  11.368  1.3297 -1.3683 -1.3766
  326MPD2    H3 4954   2.691   1.026  11.404  0.3563  0.2027 -0.1781
  326MPD2     N 4955   2.794   1.333  11.099  0.1961  0.6795 -0.2770
  326MPD2    H5 4956   2.889   1.302  11.114 -0.0869 -0.1207 -0.1447
  326MPD2    N1 4957   2.336   1.231  11.200  0.0436 -0.4422  0.0791
  326MPD2    H7 4958   2.316   1.307  11.135 -2.0143 -1.6681 -0.7051
  327TMC3    C1 4959   2.122   1.169  11.160 -0.3902  0.1040  0.0081
  327TMC3    C2 4960   2.124   1.288  11.098  0.1096 -0.4300 -0.4435
  327TMC3    C3 4961   2.081   1.295  10.966  0.3896  0.3143 -0.3500
  327TMC3    C4 4962   2.084   1.060  11.087 -0.4909  0.4125  0.3032
  327TMC3    C5 4963   2.073   1.068  10.951 -0.5270 -0.0885  0.6243
  327TMC3    C6 4964   2.070   1.190  10.889  0.2909 -0.1733  0.3060
  327TMC3     C 4965   2.241   1.138  11.223  0.1259  0.0043  0.8404
  327TMC3     O 4966   2.251   1.016  11.253  0.4426  0.1726  0.0553
  327TMC3     H 4967   2.144   1.375  11.160 -1.7358 -0.9635  0.8982
  327TMC3    H1 4968   2.064   0.961  11.126 -0.2194  0.8603  1.5737
  327TMC3    H2 4969   2.027   1.197  10.790  1.1002 -1.1847 -0.1212
  327TMC3    C7 4970   2.143   0.965  10.875 -0.2821 -0.6780  0.2562
  327TMC3    C8 4971   2.080   1.430  10.910 -0.9009  0.4256  0.2611
  327TMC3    O1 4972   2.169   0.975  10.756 -0.4569 -0.5524  0.1433
  327TMC3    O2 4973   2.096   1.449  10.793 -0.0514 -0.0581  0.4720
  328MPD2     C 4974   0.795   0.455  17.541 -0.8681 -0.0007  0.3794
  328MPD2    C1 4975   0.703   0.380  17.478  0.1205  0.0682 -0.5525
  328MPD2    C2 4976   0.641   0.431  17.365 -1.1849  0.8664 -0.7707
  328MPD2    C3 4977   0.679   0.547  17.311  0.1018  0.2100  0.0612
  328MPD2    C4 4978   0.796   0.599  17.356 -0.0391  0.4603 -0.3778
  328MPD2    C5 4979   0.843   0.568  17.477 -0.8736 -0.7340  0.0264
  328MPD2     H 4980   0.562   0.376  17.315 -1.2746 -1.1662  1.6085
  328MPD2    H1 4981   0.837   0.692  17.317  0.0724 -0.1428 -1.6777
  328MPD2    H2 4982   0.837   0.414  17.632  0.6800 -1.2388 -0.9003
  328MPD2    H3 4983   0.926   0.622  17.521  0.3564 -0.0888 -3.0508
  328MPD2     N 4984   0.600   0.594  17.200  0.5117  0.4235 -0.0887
  328MPD2    H5 4985   0.506   0.561  17.184  0.3605 -0.6157  2.9724
  328MPD2    N1 4986   0.670   0.256  17.528  0.5537  0.0104 -0.1263
  328MPD2    H7 4987   0.712   0.235  17.618 -1.0435 -0.3216  0.5296
  329TMC3    C1 4988   0.595   0.031  17.522  0.0753 -0.3549 -0.0831
  329TMC3    C2 4989   0.566   0.034  17.662 -0.8276  0.4397  0.1504
  329TMC3    C3 4990   0.508   4.666  17.717  0.2289 -0.2682 -0.2380
  329TMC3    C4 4991   0.578   4.652  17.445 -0.2564  0.6818 -0.9382
  329TMC3    C5 4992   0.538   4.539  17.515  0.1419  0.0344 -0.4002
  329TMC3    C6 4993   0.490   4.547  17.649  0.0250  0.3872 -0.1066
  329TMC3     C 4994   0.619   0.153  17.451 -0.3324 -0.6502  0.3192
  329TMC3     O 4995   0.602   0.146  17.332  0.1520  0.0993 -0.5994
  329TMC3     H 4996   0.572   0.129  17.713  0.7545  0.8360 -0.7650
  329TMC3    H1 4997   0.636   4.641  17.355  0.4084  0.0196 -0.4316
  329TMC3    H2 4998   0.432   4.461  17.682  0.6169 -0.6563 -1.7914
  329TMC3    C7 4999   0.567   4.411  17.454  0.1506 -0.2271 -0.2344
  329TMC3    C8 5000   0.484   4.653   0.101  0.3140 -0.2565  0.1477
  329TMC3    O1 5001   0.596   4.320  17.534  0.2110 -0.3525  0.3405
  329TMC3    O2 5002   0.410   4.567   0.143 -0.8001 -0.4327  0.2286
  330TMC3    C1 5003   3.490   0.625   9.996 -0.1873  0.5517  0.6974
  330TMC3    C2 5004   3.514   0.588   9.867 -0.3991 -0.7667  0.0543
  330TMC3    C3 5005   3.523   0.457   9.838  1.0901 -0.0114 -0.3554
  330TMC3    C4 5006   3.485   0.530  10.094  0.9348 -0.9873 -0.6020
  330TMC3    C5 5007   3.514   0.400  10.066 -0.2593 -0.0903  0.0387
  330TMC3    C6 5008   3.528   0.359   9.934 -0.2305  0.1188  0.0885
  330TMC3     C 5009   3.450   0.761  10.029  0.7255  0.0627  0.6488
  330TMC3     O 5010   3.460   0.795  10.143 -0.7681 -0.0395  0.4383
  330TMC3     H 5011   3.523   0.656   9.784  0.5261 -0.4066  0.4472
  330TMC3    H1 5012   3.475   0.568  10.196 -0.7062 -0.6680 -0.8821
  330TMC3    H2 5013   3.565   0.259   9.910 -0.3080  0.1201 -0.0341
  330TMC3    C7 5014   3.596   0.343  10.165  0.3411 -0.7124 -0.1410
  330TMC3    C8 5015   3.509   0.421   9.696  0.2066  0.0405 -0.4515
  330TMC3    O1 5016   3.553   0.340  10.281 -0.2480 -0.2037  0.0176
  330TMC3    O2 5017   3.497   0.513   9.612  0.2464  1.1517 -0.0891
  331MPD2     C 5018   1.155   4.279  13.211 -0.0248 -0.0709 -0.1657
  331MPD2    C1 5019   1.227   4.256  13.092 -0.5778 -1.0300  0.2064
  331MPD2    C2 5020   1.193   4.148  13.015 -0.6037 -0.1978  0.1717
  331MPD2    C3 5021   1.101   4.060  13.061  1.0747 -0.2757 -0.1115
  331MPD2    C4 5022   1.034   4.075  13.179 -0.3832  0.3259  0.4850
  331MPD2    C5 5023   1.059   4.189  13.250  0.9883 -0.1357 -0.4006
  331MPD2     H 5024   1.244   4.130  12.922 -1.6270  2.1596 -0.8410
  331MPD2    H1 5025   0.957   4.015  13.225 -1.3740  2.2116  1.3038
  331MPD2    H2 5026   1.168   4.369  13.270 -1.5089 -0.6750  1.1074
  331MPD2    H3 5027   0.998   4.219  13.334  0.2292  2.6164 -1.9448
  331MPD2     N 5028   1.108   3.937  12.992 -0.3593  0.0299  0.2712
  331MPD2    H5 5029   1.174   3.924  12.916 -0.7892 -1.4927  0.1649
  331MPD2    N1 5030   1.315   4.355  13.050 -0.4448 -0.6284  0.0517
  331MPD2    H7 5031   1.317   4.448  13.090  0.1576 -0.7892  0.4135
  332TMC3    C1 5032   1.073   3.723  12.919  0.1596 -0.2181 -0.4905
  332TMC3    C2 5033   1.072   3.769  12.790  0.4524 -0.0551  0.0209
  332TMC3    C3 5034   1.163   3.716  12.701  0.0604 -0.3837 -0.1263
  332TMC3    C4 5035   1.147   3.615  12.962  0.3079  0.0666  0.1493
  332TMC3    C5 5036   1.236   3.574  12.873  0.2433  0.0149 -0.1289
  332TMC3    C6 5037   1.252   3.626  12.746 -0.5863  0.3765  0.4627
  332TMC3     C 5038   1.030   3.823  13.019 -1.0236 -0.0074 -0.5336
  332TMC3     O 5039   0.972   3.789  13.120 -0.5048  0.0044  0.1304
  332TMC3     H 5040   1.004   3.850  12.762  0.9539  0.7568  1.1173
  332TMC3    H1 5041   1.149   3.579  13.064  0.6747 -1.0172 -0.2337
  332TMC3    H2 5042   1.317   3.586  12.669  0.9273  3.2196  0.2660
  332TMC3    C7 5043   1.342   3.492  12.929 -0.5948 -0.7298 -0.3750
  332TMC3    C8 5044   1.191   3.775  12.569 -0.2025 -1.0648 -0.2147
  332TMC3    O1 5045   1.316   3.417  13.021 -0.1520  0.1036  0.3259
  332TMC3    O2 5046   1.296   3.746  12.509  0.0444 -0.1703  0.3821
  333MPD2     C 5047   1.816   3.865  11.217  0.2871  0.4238  0.1354
  333MPD2    C1 5048   1.755   3.878  11.094 -0.5951 -0.0602  0.6593
  333MPD2    C2 5049   1.646   3.802  11.063 -0.2213 -0.7898 -1.0067
  333MPD2    C3 5050   1.584   3.736  11.168 -0.2131 -0.3190 -0.1115
  333MPD2    C4 5051   1.643   3.731  11.297 -0.0674 -0.2146 -1.0342
  333MPD2    C5 5052   1.772   3.778  11.313 -0.6285  0.2781 -0.1463
  333MPD2     H 5053   1.605   3.796  10.962 -3.8281 -1.9848  0.5215
  333MPD2    H1 5054   1.606   3.682  11.386  0.5154 -1.0929 -1.2737
  333MPD2    H2 5055   1.901   3.932  11.231  1.0342 -0.2692 -1.0882
  333MPD2    H3 5056   1.827   3.778  11.407 -0.5793  0.1191 -0.1759
  333MPD2     N 5057   1.467   3.656  11.143 -0.7497  0.1181 -0.5664
  333MPD2    H5 5058   1.435   3.643  11.048 -1.6676  1.8030 -0.4929
  333MPD2    N1 5059   1.829   3.955  11.006  0.3922  0.0256 -1.0892
  333MPD2    H7 5060   1.912   4.002  11.040 -1.4267  0.1074  3.1589
  334TMC3    C1 5061   1.886   4.097  10.831  0.1001  0.1188 -0.4199
  334TMC3    C2 5062   2.000   4.111  10.906  0.0185 -0.7191 -0.3878
  334TMC3    C3 5063   2.042   4.240  10.921  0.2234  0.1492  0.4702
  334TMC3    C4 5064   1.822   4.201  10.770  0.3477  0.9126 -0.3083
  334TMC3    C5 5065   1.873   4.324  10.791  0.4149  0.4523  0.0508
  334TMC3    C6 5066   1.981   4.349  10.874 -0.0405 -0.1390  0.3566
  334TMC3     C 5067   1.796   3.992  10.878  0.2319  0.9216 -0.6043
  334TMC3     O 5068   1.690   3.972  10.820  0.3306 -0.0563 -0.3072
  334TMC3     H 5069   2.053   4.024  10.943  2.9579  0.9418 -0.7457
  334TMC3    H1 5070   1.727   4.192  10.718  1.1689  0.9823 -1.8069
  334TMC3    H2 5071   2.022   4.449  10.888  0.5759 -0.5537  1.4754
  334TMC3    C7 5072   1.786   4.439  10.774  0.2585 -0.3856  0.1488
  334TMC3    C8 5073   2.163   4.256  10.998  0.1701  1.0108  0.5022
  334TMC3    O1 5074   1.793   4.527  10.860 -0.7762 -0.1385  0.9785
  334TMC3    O2 5075   2.159   4.196  11.104  0.1841  0.4848  0.4307
  335TMC3    C1 5076   1.623   0.523  17.442  0.1117  0.4393  0.0217
  335TMC3    C2 5077   1.531   0.505  17.346 -0.6229  0.3909 -0.6798
  335TMC3    C3 5078   1.559   0.567  17.226 -0.5093  0.4681  0.4354
  335TMC3    C4 5079   1.746   0.584  17.419 -0.0618  0.3081  0.3778
  335TMC3    C5 5080   1.777   0.631  17.293 -0.1996  0.2489 -0.0532
  335TMC3    C6 5081   1.677   0.624  17.198  0.2047  0.2317 -0.2018
  335TMC3     C 5082   1.591   0.512  17.587  0.0088 -0.7987 -0.1701
  335TMC3     O 5083   1.644   0.596  17.659  0.5671  0.4608  0.2246
  335TMC3     H 5084   1.437   0.453  17.359 -0.5902  0.2026 -1.2000
  335TMC3    H1 5085   1.822   0.591  17.496 -0.1622  0.3485  0.4743
  335TMC3    H2 5086   1.700   0.657  17.098  0.7926 -1.9347 -0.7827
  335TMC3    C7 5087   1.911   0.627  17.243 -0.9067 -0.3168  0.0815
  335TMC3    C8 5088   1.458   0.567  17.120 -0.4211  0.3131  0.2036
  335TMC3    O1 5089   1.919   0.577  17.130 -0.6911  0.0400  0.1120
  335TMC3    O2 5090   1.469   0.655  17.037 -0.4974 -0.4934  0.6615
  336MPD2     C 5091   1.035   3.297  16.387  0.8012  0.5323 -0.6896
  336MPD2    C1 5092   1.072   3.249  16.265  0.0394  0.2172 -0.2102
  336MPD2    C2 5093   1.129   3.124  16.252  0.0289 -0.0575  0.0622
  336MPD2    C3 5094   1.162   3.052  16.368  0.0224 -0.2609  0.1913
  336MPD2    C4 5095   1.138   3.105  16.488 -0.9401 -0.1017  0.3790
  336MPD2    C5 5096   1.062   3.218  16.498 -0.3424  0.6962 -0.3005
  336MPD2     H 5097   1.141   3.079  16.154  0.3152  1.1955 -0.4751
  336MPD2    H1 5098   1.175   3.056  16.578 -1.0351  1.3435  1.1998
  336MPD2    H2 5099   0.980   3.391  16.389 -3.1211 -1.8480  3.3947
  336MPD2    H3 5100   1.037   3.259  16.596  0.3929  1.6423 -0.5154
  336MPD2     N 5101   1.215   2.924  16.366 -0.8686 -0.0763  0.4766
  336MPD2    H5 5102   1.229   2.880  16.457 -0.9005 -2.6095 -0.7507
  336MPD2    N1 5103   1.051   3.318  16.141  0.3093 -0.3038  0.2445
  336MPD2    H7 5104   1.073   3.265  16.058 -2.4514  1.0332 -1.3389
  337TMC3    C1 5105   0.943   3.452  15.984  0.1038 -0.3065 -0.4778
  337TMC3    C2 5106   0.857   3.359  15.932 -0.1126 -0.1988 -0.2254
  337TMC3    C3 5107   0.777   3.385  15.821 -0.3930  0.6966 -0.2908
  337TMC3    C4 5108   0.946   3.574  15.924  0.0444 -0.1464 -0.1095
  337TMC3    C5 5109   0.879   3.593  15.805  0.0677  0.2293  0.0167
  337TMC3    C6 5110   0.796   3.499  15.750  0.0512  0.3273  0.6681
  337TMC3     C 5111   0.981   3.441  16.128  0.0217 -0.3383  0.3197
  337TMC3     O 5112   0.952   3.525  16.212 -0.4111  0.0237  0.4996
  337TMC3     H 5113   0.846   3.269  15.991  0.6672  0.0533  0.3088
  337TMC3    H1 5114   1.012   3.654  15.952  2.5195 -1.8845 -0.9283
  337TMC3    H2 5115   0.742   3.526  15.660  0.9429  0.6111  0.2252
  337TMC3    C7 5116   0.905   3.717  15.728  0.2980 -0.4515 -0.4782
  337TMC3    C8 5117   0.672   3.287  15.791  0.4965 -0.6525 -0.3515
  337TMC3    O1 5118   0.908   3.720  15.605 -0.0604 -0.5026 -0.4044
  337TMC3    O2 5119   0.670   3.180  15.846 -0.5303  0.1928  0.4186
  338MPD2     C 5120   2.444   2.439   0.066 -0.9142  0.1263 -0.1923
  338MPD2    C1 5121   2.313   2.452   0.036 -0.3169  0.3219  0.4380
  338MPD2    C2 5122   2.241   2.568   0.072  0.2257  0.2347 -0.5872
  338MPD2    C3 5123   2.305   2.673   0.138 -0.0766  0.4855  0.0468
  338MPD2    C4 5124   2.439   2.660   0.166  0.8061  0.1201 -0.3540
  338MPD2    C5 5125   2.504   2.545   0.126 -0.1753  0.7956 -0.5726
  338MPD2     H 5126   2.135   2.573   0.052  0.0512  1.3696  0.5980
  338MPD2    H1 5127   2.504   2.723   0.225 -0.5975  0.7959  0.4840
  338MPD2    H2 5128   2.507   2.351   0.056  0.3825  1.1591 -1.0345
  338MPD2    H3 5129   2.608   2.540   0.157  0.0839 -0.5032 -1.6973
  338MPD2     N 5130   2.224   2.776   0.195  0.1047 -0.7894  0.0072
  338MPD2    H5 5131   2.128   2.782   0.161 -0.1864  0.2781  1.0075
  338MPD2    N1 5132   2.237   2.345  17.736 -0.2074  0.6305  0.0802
  338MPD2    H7 5133   2.139   2.356  17.712 -0.9162  2.2314  3.6797
  339TMC3    C1 5134   2.160   2.927   0.370 -0.2043  0.2518 -0.0962
  339TMC3    C2 5135   2.171   2.887   0.497 -0.7144 -1.2739  0.4914
  339TMC3    C3 5136   2.073   2.834   0.571  0.9141 -0.7035 -1.0826
  339TMC3    C4 5137   2.038   2.912   0.301 -0.7153 -0.4264  0.1087
  339TMC3    C5 5138   1.932   2.880   0.385  0.2189  0.1668  0.0153
  339TMC3    C6 5139   1.952   2.827   0.513 -0.7423  0.7820 -0.1816
  339TMC3     C 5140   2.270   2.864   0.293  0.1181  0.0811  0.6554
  339TMC3     O 5141   2.379   2.878   0.333  0.4538  0.0745 -0.4301
  339TMC3     H 5142   2.272   2.885   0.537 -0.9861 -0.1085  1.2544
  339TMC3    H1 5143   2.026   2.938   0.196  3.6869 -1.5915 -0.6856
  339TMC3    H2 5144   1.874   2.764   0.555  0.6325 -1.3246 -0.8369
  339TMC3    C7 5145   1.819   2.832   0.315  0.2593 -0.1881  0.6512
  339TMC3    C8 5146   2.110   2.721   0.652  1.8512 -0.7165 -0.9499
  339TMC3    O1 5147   1.837   2.796   0.200  0.6410 -0.3302 -0.3815
  339TMC3    O2 5148   2.206   2.649   0.617  0.6399 -0.0621 -0.2393
  340MPD2     C 5149   1.552   1.333  10.474  0.5337 -0.2875 -0.3064
  340MPD2    C1 5150   1.523   1.201  10.479 -0.4413  0.5414  0.1381
  340MPD2    C2 5151   1.628   1.117  10.503 -0.1159  0.3485 -0.8704
  340MPD2    C3 5152   1.758   1.155  10.514  0.2441  0.0714 -1.1154
  340MPD2    C4 5153   1.789   1.287  10.511  0.4783 -0.3150  0.0206
  340MPD2    C5 5154   1.686   1.377  10.494 -0.0326  0.6278  0.4850
  340MPD2     H 5155   1.608   1.010  10.497  0.6018  0.2417 -1.4746
  340MPD2    H1 5156   1.884   1.334  10.534  0.3104 -0.7809  1.6382
  340MPD2    H2 5157   1.471   1.403  10.453  0.1266 -0.6993 -0.1134
  340MPD2    H3 5158   1.707   1.483  10.503  0.2442  0.6265 -0.1637
  340MPD2     N 5159   1.867   1.063  10.534 -0.2556 -0.0261  0.4183
  340MPD2    H5 5160   1.958   1.104  10.519 -0.1558 -0.9716 -1.6229
  340MPD2    N1 5161   1.386   1.155  10.468 -0.1780 -0.0064 -0.3854
  340MPD2    H7 5162   1.321   1.227  10.499  1.4160  1.6006 -0.7612
  341TMC3    C1 5163   1.419   0.940  10.354  0.2496 -0.3221  0.3296
  341TMC3    C2 5164   1.396   0.810  10.354 -0.6045  0.2349  0.0644
  341TMC3    C3 5165   1.475   0.723  10.279 -0.0512 -0.5402 -0.5817
  341TMC3    C4 5166   1.499   0.987  10.255  0.0862  0.0230 -0.3563
  341TMC3    C5 5167   1.586   0.904  10.190 -0.0249  0.3619  0.3086
  341TMC3    C6 5168   1.581   0.769  10.208  0.9225 -0.0709 -0.4149
  341TMC3     C 5169   1.342   1.025  10.451  0.2183 -1.0090 -0.2744
  341TMC3     O 5170   1.229   0.982  10.470 -0.7376 -0.5451  0.3918
  341TMC3     H 5171   1.317   0.767  10.415  0.0364  0.4697  1.0584
  341TMC3    H1 5172   1.500   1.092  10.228 -0.9467  0.7940  2.6238
  341TMC3    H2 5173   1.656   0.710  10.156 -0.0996 -1.4360 -0.3248
  341TMC3    C7 5174   1.716   0.945  10.140  0.4959  0.0021 -0.2934
  341TMC3    C8 5175   1.440   0.578  10.271 -0.4189  0.3675 -0.6345
  341TMC3    O1 5176   1.771   0.869  10.058  0.1332  0.2303  0.5247
  341TMC3    O2 5177   1.331   0.540  10.307  0.1390  0.8550  0.2545
  342MPD2     C 5178   3.870   3.857  17.196 -0.2106 -0.0057  0.8350
  342MPD2    C1 5179   4.010   3.856  17.205 -0.0731  0.5274  0.6806
  342MPD2    C2 5180   4.080   3.960  17.263 -0.4527 -0.0209  0.5004
  342MPD2    C3 5181   4.017   4.072  17.313 -0.8083  0.2493 -0.5211
  342MPD2    C4 5182   3.875   4.075  17.295 -0.3705  0.7651 -0.9002
  342MPD2    C5 5183   3.806   3.967  17.243  0.4519  0.2028  0.1396
  342MPD2     H 5184   4.186   3.944  17.278 -0.4185 -0.4928 -0.2442
  342MPD2    H1 5185   3.805   4.149  17.331 -1.2277 -0.0799 -0.8559
  342MPD2    H2 5186   3.814   3.775  17.153 -3.1930  2.7563 -0.6018
  342MPD2    H3 5187   3.698   3.971  17.241  0.4184 -0.1335  1.5906
  342MPD2     N 5188   4.081   4.178  17.373  0.4152  0.3637 -0.1538
  342MPD2    H5 5189   4.034   4.267  17.372  0.9502  0.6538  0.2829
  342MPD2    N1 5190   4.083   3.740  17.183 -0.6359  0.0038 -0.4331
  342MPD2    H7 5191   4.179   3.734  17.215 -0.2068 -0.1363 -1.7671
  343TMC3    C1 5192   4.126   3.515  17.119  0.7844  0.2802 -0.3379
  343TMC3    C2 5193   4.234   3.532  17.034 -0.1839 -0.1632 -0.8346
  343TMC3    C3 5194   4.301   3.421  16.991  0.4659  0.3812 -0.3380
  343TMC3    C4 5195   4.075   3.392  17.143  0.5235 -0.0720 -0.0840
  343TMC3    C5 5196   4.130   3.281  17.085  0.5316  0.2089  0.9149
  343TMC3    C6 5197   4.242   3.298  17.004 -0.8894  0.0710  0.6483
  343TMC3     C 5198   4.032   3.623  17.126  0.2053  0.1753 -0.4079
  343TMC3     O 5199   3.926   3.600  17.069  0.3870 -0.5740 -0.1357
  343TMC3     H 5200   4.283   3.629  17.033 -0.0753 -0.1706  3.2219
  343TMC3    H1 5201   3.971   3.385  17.174  0.1140  0.0317 -1.4479
  343TMC3    H2 5202   4.268   3.209  16.947 -1.2002  0.7118 -0.4896
  343TMC3    C7 5203   4.072   3.151  17.104  0.4765 -0.0499  0.2515
  343TMC3    C8 5204   4.395   3.424  16.890 -0.2947 -0.8726 -0.3692
  343TMC3    O1 5205   4.097   3.057  17.033  0.3370 -0.0964  0.1045
  343TMC3    O2 5206   4.392   3.523  16.818  0.4230  0.6576  0.3486
  344MPD2     C 5207   0.005   3.603   9.946  0.2495  0.4537 -0.6200
  344MPD2    C1 5208   0.022   3.577  10.083 -0.6661  0.1948  0.1587
  344MPD2    C2 5209   0.118   3.655  10.153 -0.4245  0.4377  0.2446
  344MPD2    C3 5210   0.177   3.767  10.093 -0.2172 -0.2597  0.8357
  344MPD2    C4 5211   0.144   3.791   9.958  0.1872 -0.1576  0.0050
  344MPD2    C5 5212   0.069   3.705   9.890  0.1212 -0.4804  0.1718
  344MPD2     H 5213   0.138   3.623  10.254  0.8749 -0.8444 -0.4111
  344MPD2    H1 5214   0.186   3.878   9.908  0.9078  0.1387  1.1263
  344MPD2    H2 5215   4.692   3.541   9.874 -3.8761  2.3418  0.7696
  344MPD2    H3 5216   0.051   3.718   9.783 -0.6161 -1.3151  0.1974
  344MPD2     N 5217   0.253   3.864  10.168 -0.8962 -0.8616 -0.1137
  344MPD2    H5 5218   0.284   3.946  10.117  0.5286 -1.2359  0.1532
  344MPD2    N1 5219   4.703   3.466  10.148 -0.0994 -0.1665 -0.3981
  344MPD2    H7 5220   0.004   3.437  10.237 -1.2911 -0.5613  0.0144
  345TMC3    C1 5221   0.346   3.979  10.350 -0.1400  0.0312 -0.0953
  345TMC3    C2 5222   0.416   3.971  10.461  1.0112 -0.8657 -0.3056
  345TMC3    C3 5223   0.486   4.078  10.505 -0.2027 -0.3222 -0.0472
  345TMC3    C4 5224   0.338   4.089  10.273  0.3005  0.0271 -0.2746
  345TMC3    C5 5225   0.409   4.199  10.325  0.7194 -0.4181 -0.0464
  345TMC3    C6 5226   0.485   4.199  10.435 -0.2703  0.0507 -0.4765
  345TMC3     C 5227   0.281   3.854  10.303  0.3760 -0.2657  0.2398
  345TMC3     O 5228   0.273   3.759  10.378 -0.1528  0.7974  0.1389
  345TMC3     H 5229   0.397   3.887  10.527 -1.0103 -0.5278 -0.4600
  345TMC3    H1 5230   0.267   4.100  10.192 -0.4978 -1.3577  0.2443
  345TMC3    H2 5231   0.525   4.288  10.481 -2.2076  1.0560 -0.7466
  345TMC3    C7 5232   0.397   4.330  10.258 -0.2915 -0.0985  0.6860
  345TMC3    C8 5233   0.570   4.064  10.621 -0.2559  0.5413  0.5758
  345TMC3    O1 5234   0.405   4.427  10.331 -0.7990  0.3653  0.0207
  345TMC3    O2 5235   0.510   4.006  10.711  0.2209 -0.1805  0.2340
  346MPD2     C 5236   0.291   0.103  13.989 -0.0369  0.7747  0.0352
  346MPD2    C1 5237   0.302   0.244  14.000 -0.5452 -0.4047  0.0499
  346MPD2    C2 5238   0.304   0.300  14.124 -0.4774 -0.1727  0.3810
  346MPD2    C3 5239   0.291   0.221  14.239  0.2339  1.0328 -0.3190
  346MPD2    C4 5240   0.268   0.086  14.229 -0.5838 -0.1689  0.3074
  346MPD2    C5 5241   0.277   0.030  14.100 -0.3488  0.4821 -0.0983
  346MPD2     H 5242   0.321   0.405  14.141 -3.0784  0.0033  1.7726
  346MPD2    H1 5243   0.254   0.018  14.312 -1.8853 -0.9685 -0.5534
  346MPD2    H2 5244   0.285   0.039  13.902 -1.3636  0.2264  0.5280
  346MPD2    H3 5245   0.270   4.663  14.086 -1.7219  0.4158  1.0584
  346MPD2     N 5246   0.291   0.300  14.358  0.3467 -0.3860  0.3663
  346MPD2    H5 5247   0.324   0.395  14.349 -1.2882  0.2246  0.7472
  346MPD2    N1 5248   0.304   0.329  13.884 -0.1701  0.4373 -0.2890
  346MPD2    H7 5249   0.312   0.429  13.899  0.7980  0.1715  0.9960
  347TMC3    C1 5250   0.321   0.332  14.580 -0.4244 -0.1501 -0.3054
  347TMC3    C2 5251   0.433   0.397  14.556  0.8977 -0.1807  0.3327
  347TMC3    C3 5252   0.479   0.479  14.659  0.5759 -0.2906  0.4615
  347TMC3    C4 5253   0.246   0.350  14.694  0.2787 -0.6255  0.8714
  347TMC3    C5 5254   0.296   0.433  14.787  0.4505 -0.0473  0.5819
  347TMC3    C6 5255   0.411   0.498  14.774  0.0911 -0.0464 -0.2842
  347TMC3     C 5256   0.267   0.247  14.480  0.9558  0.7886  0.8310
  347TMC3     O 5257   0.223   0.135  14.506 -0.3707 -0.1871  0.0293
  347TMC3     H 5258   0.505   0.377  14.478  1.2616  1.0835  0.3465
  347TMC3    H1 5259   0.162   0.286  14.717  0.4027 -0.7626  0.9450
  347TMC3    H2 5260   0.444   0.560  14.857 -0.5830 -0.6931  0.4816
  347TMC3    C7 5261   0.212   0.498  14.890  0.3496  0.1334 -0.7066
  347TMC3    C8 5262   0.621   0.512  14.660  0.5572 -0.1781 -0.0160
  347TMC3    O1 5263   0.256   0.585  14.956 -0.1703 -0.6294 -0.0349
  347TMC3    O2 5264   0.692   0.495  14.757 -0.5880  0.2161 -0.1863
  348MPD2     C 5265   3.776   0.222  12.321 -0.6591  0.2975  0.8574
  348MPD2    C1 5266   3.882   0.247  12.229  0.0685 -0.0463  0.7273
  348MPD2    C2 5267   3.857   0.306  12.113 -0.6907  0.6851  0.3227
  348MPD2    C3 5268   3.728   0.336  12.072 -0.2507 -0.6462 -0.7044
  348MPD2    C4 5269   3.629   0.311  12.165 -0.2132 -0.4323  1.0161
  348MPD2    C5 5270   3.648   0.248  12.283 -0.0426 -0.1286  0.0072
  348MPD2     H 5271   3.933   0.329  12.040 -1.5390 -0.2933 -0.8760
  348MPD2    H1 5272   3.524   0.328  12.146  0.2104 -0.4041 -1.2730
  348MPD2    H2 5273   3.801   0.161  12.407  0.9697 -1.3406 -0.7790
  348MPD2    H3 5274   3.568   0.221  12.351 -1.1231 -2.6341 -2.2875
  348MPD2     N 5275   3.710   0.391  11.947  0.0325  0.0800  0.4598
  348MPD2    H5 5276   3.792   0.409  11.891 -0.3134  4.3267  1.2979
  348MPD2    N1 5277   4.014   0.214  12.254 -0.0722 -0.4312  0.3378
  348MPD2    H7 5278   4.071   0.228  12.172  1.9835 -1.7963  1.5172
  349TMC3    C1 5279   4.203   0.082  12.307 -0.0186  0.0311 -0.7511
  349TMC3    C2 5280   4.223   4.690  12.338 -0.3153 -0.2011 -0.5767
  349TMC3    C3 5281   4.284   4.607  12.244 -0.4504  0.5905 -0.1045
  349TMC3    C4 5282   4.256   0.131  12.193 -0.4134  0.2376  0.4155
  349TMC3    C5 5283   4.294   0.053  12.092 -1.4522 -0.2306  0.2963
  349TMC3    C6 5284   4.317   4.659  12.124 -0.2966 -0.6283  0.3487
  349TMC3     C 5285   4.073   0.132  12.356  0.1772 -0.5250 -0.1064
  349TMC3     O 5286   4.015   0.086  12.454 -0.1408  0.0008 -0.0992
  349TMC3     H 5287   4.184   4.644  12.429 -2.4053 -0.2446 -1.4943
  349TMC3    H1 5288   4.259   0.238  12.177 -2.2680  0.1902 -0.2474
  349TMC3    H2 5289   4.357   4.592  12.048 -1.5065 -1.2182  0.2315
  349TMC3    C7 5290   4.208   0.070  11.977 -0.1531  0.9211  0.6666
  349TMC3    C8 5291   4.265   4.462  12.261  0.2661 -0.0536  0.0136
  349TMC3    O1 5292   4.185   4.711  11.912 -0.2996  0.2772  0.8146
  349TMC3    O2 5293   4.178   4.431  12.339 -0.0202  0.3712  0.1153
  350MPD2     C 5294   3.191   2.925  10.661 -1.0450 -0.9382 -0.0666
  350MPD2    C1 5295   3.060   2.878  10.635  0.0180  0.0679 -0.0268
  350MPD2    C2 5296   2.955   2.908  10.722  0.0531 -0.2908  0.1484
  350MPD2    C3 5297   2.977   2.991  10.832 -0.2337  0.4275 -0.1434
  350MPD2    C4 5298   3.109   3.027  10.863 -0.4869 -0.3830  0.3924
  350MPD2    C5 5299   3.214   2.989  10.783  0.4898  0.6855 -0.6917
  350MPD2     H 5300   2.854   2.879  10.693 -0.3453  1.6512 -0.3877
  350MPD2    H1 5301   3.140   3.077  10.954 -0.3491 -1.1618  0.7693
  350MPD2    H2 5302   3.284   2.907  10.610 -0.1237  1.6615  0.7001
  350MPD2    H3 5303   3.310   3.030  10.812  0.2839  1.4544 -1.0741
  350MPD2     N 5304   2.869   3.034  10.904 -0.1179  0.4547 -0.1478
  350MPD2    H5 5305   2.783   2.980  10.895 -0.5465  1.3097 -1.3225
  350MPD2    N1 5306   3.032   2.814  10.512  0.1642  0.1611 -0.3817
  350MPD2    H7 5307   2.932   2.797  10.499  0.2026 -0.5110  0.2337
  351TMC3    C1 5308   3.102   2.670  10.321 -0.3389  0.3975 -0.2782
  351TMC3    C2 5309   3.197   2.647  10.222 -0.1760  0.0993 -0.1798
  351TMC3    C3 5310   3.152   2.575  10.110 -0.0918 -0.0796 -0.2900
  351TMC3    C4 5311   2.968   2.647  10.309  0.3130 -0.3341  0.4318
  351TMC3    C5 5312   2.936   2.588  10.186 -0.1496 -0.2116 -0.0374
  351TMC3    C6 5313   3.021   2.540  10.095  0.5063 -0.0583  0.4074
  351TMC3     C 5314   3.131   2.776  10.423 -0.5145 -0.7069 -0.4466
  351TMC3     O 5315   3.248   2.815  10.412  0.3793 -0.4149  0.0685
  351TMC3     H 5316   3.305   2.655  10.234 -0.4924  2.6759  0.7383
  351TMC3    H1 5317   2.895   2.688  10.378  0.5515 -1.7898  1.5440
  351TMC3    H2 5318   2.984   2.485  10.008 -2.8417  0.7041  1.3662
  351TMC3    C7 5319   2.806   2.612  10.134  0.1436 -0.5532  0.0406
  351TMC3    C8 5320   3.244   2.529  10.011 -0.1859 -0.6509 -0.0952
  351TMC3    O1 5321   2.797   2.598  10.012  0.3550 -0.0305 -0.2671
  351TMC3    O2 5322   3.226   2.415   9.967  0.4665 -0.0970  0.3136
  352MPD2     C 5323   2.083   0.549   0.662  0.0599 -0.5875 -0.4345
  352MPD2    C1 5324   2.006   0.451   0.597 -1.4457 -0.1340 -0.2520
  352MPD2    C2 5325   2.057   0.394   0.481  0.0327  0.0005  0.0320
  352MPD2    C3 5326   2.181   0.423   0.429  1.0393  0.1984  0.3476
  352MPD2    C4 5327   2.247   0.538   0.483  0.5033 -0.7117  0.0791
  352MPD2    C5 5328   2.198   0.596   0.601 -0.3050 -0.0015  0.4800
  352MPD2     H 5329   2.005   0.314   0.430  0.7231  0.1282 -0.8678
  352MPD2    H1 5330   2.342   0.568   0.441  0.7370 -1.7581 -0.1551
  352MPD2    H2 5331   2.058   0.592   0.758  2.3148  0.3785 -0.2873
  352MPD2    H3 5332   2.242   0.692   0.625  1.5892 -1.1060  1.4036
  352MPD2     N 5333   2.233   0.360   0.310 -0.5549 -0.0292  0.7386
  352MPD2    H5 5334   2.324   0.394   0.281 -1.3297  0.4910 -1.0845
  352MPD2    N1 5335   1.883   0.413   0.656 -0.0083  0.7918  0.3214
  352MPD2    H7 5336   1.855   0.472   0.735  2.5256 -1.4992  2.9404
  353TMC3    C1 5337   2.254   0.202   0.123  0.3602 -0.1478 -0.5249
  353TMC3    C2 5338   2.377   0.170   0.167 -0.1879 -0.1806  0.1055
  353TMC3    C3 5339   2.425   0.048   0.134  0.5435  0.5384 -0.3796
  353TMC3    C4 5340   2.182   0.114   0.047  0.2193  0.2790  0.7525
  353TMC3    C5 5341   2.234   4.728   0.023 -0.0060 -0.0196  0.0292
  353TMC3    C6 5342   2.355   4.696   0.056  0.8411 -0.5385 -0.4406
  353TMC3     C 5343   2.171   0.254   0.234  0.5386 -0.2505  0.7106
  353TMC3     O 5344   2.056   0.210   0.239  0.1629 -0.4684 -0.2540
  353TMC3     H 5345   2.425   0.229   0.244  0.0695  2.0823 -1.7920
  353TMC3    H1 5346   2.084   0.147   0.015  0.1140  1.5643  2.4040
  353TMC3    H2 5347   2.397   4.601   0.025 -3.1985 -1.9977 -1.4875
  353TMC3    C7 5348   2.131   4.628   0.048  0.0536  0.0679  0.2301
  353TMC3    C8 5349   2.553   0.017   0.196 -0.7509  0.3342 -0.5745
  353TMC3    O1 5350   2.162   4.509   0.041  0.1195 -0.0394 -0.6481
  353TMC3    O2 5351   2.630   0.111   0.229 -0.0940  0.1023  0.4130
  354TMC3    C1 5352   2.662   1.138  13.384  0.1467 -0.2478 -0.6288
  354TMC3    C2 5353   2.708   1.266  13.397 -0.5538 -0.3118  0.2181
  354TMC3    C3 5354   2.720   1.340  13.278  0.0170 -0.0635  0.1872
  354TMC3    C4 5355   2.610   1.082  13.269 -0.7400 -0.2154 -0.5648
  354TMC3    C5 5356   2.641   1.153  13.153 -0.2006 -0.4694  0.1276
  354TMC3    C6 5357   2.703   1.282  13.151  0.6156 -0.0547  0.3783
  354TMC3     C 5358   2.683   1.044  13.496  0.1999 -0.0160 -0.6825
  354TMC3     O 5359   2.649   0.931  13.472 -0.0210 -0.1282  0.2623
  354TMC3     H 5360   2.738   1.304  13.495  0.6091 -0.0088 -0.2541
  354TMC3    H1 5361   2.590   0.976  13.265  1.2182 -0.5893 -0.0348
  354TMC3    H2 5362   2.740   1.333  13.063 -0.6528 -1.7651 -1.1501
  354TMC3    C7 5363   2.657   1.063  13.039 -0.2042  0.6359  0.3156
  354TMC3    C8 5364   2.809   1.455  13.300 -0.4175  1.0423 -0.1854
  354TMC3    O1 5365   2.567   0.976  13.033 -0.2302 -0.1880  0.8674
  354TMC3    O2 5366   2.866   1.469  13.408  0.1838  0.0134 -0.3190
  355MPD2     C 5367   2.974   2.232  12.062 -0.5216  0.4130 -0.1258
  355MPD2    C1 5368   3.037   2.186  11.951 -0.2580  0.5665  1.0596
  355MPD2    C2 5369   3.131   2.082  11.977 -0.4092  0.3693 -0.6513
  355MPD2    C3 5370   3.156   2.036  12.102  0.7744 -0.4818  0.4133
  355MPD2    C4 5371   3.099   2.097  12.207  0.1601  0.1980 -0.4309
  355MPD2    C5 5372   3.008   2.196  12.187 -0.1994 -0.2512 -0.6000
  355MPD2     H 5373   3.188   2.029  11.901 -1.0319 -1.8727  0.4238
  355MPD2    H1 5374   3.119   2.058  12.306 -0.7027  0.4065 -0.1752
  355MPD2    H2 5375   2.911   2.320  12.057 -1.6197 -0.3831 -0.2857
  355MPD2    H3 5376   2.965   2.258  12.265  0.9879  1.9705 -1.6957
  355MPD2     N 5377   3.251   1.934  12.114  0.2290 -0.3080  0.7325
  355MPD2    H5 5378   3.282   1.895  12.026  1.6666  0.0088  1.0963
  355MPD2    N1 5379   3.017   2.250  11.830 -0.3864  0.0267  0.5159
  355MPD2    H7 5380   2.952   2.328  11.827 -2.8179 -1.9631  1.7874
  356TMC3    C1 5381   3.444   1.837  12.213  0.2404 -0.2574  0.3821
  356TMC3    C2 5382   3.505   1.874  12.094  0.8092 -0.4386  0.7362
  356TMC3    C3 5383   3.634   1.940  12.102  0.3897 -0.3042 -0.1838
  356TMC3    C4 5384   3.505   1.856  12.335  0.0159  0.2944  0.4078
  356TMC3    C5 5385   3.632   1.911  12.340  0.0166  0.3115  0.2111
  356TMC3    C6 5386   3.691   1.968  12.227 -0.1985 -0.5827 -0.2828
  356TMC3     C 5387   3.304   1.880  12.224  0.1476 -0.0417 -0.0632
  356TMC3     O 5388   3.261   1.901  12.337 -0.3485  0.0067 -0.1808
  356TMC3     H 5389   3.481   1.849  11.991 -0.0603  0.3212  0.7517
  356TMC3    H1 5390   3.457   1.834  12.430 -1.0377 -1.0273 -0.4329
  356TMC3    H2 5391   3.794   2.001  12.236 -0.0017 -1.2441 -0.0612
  356TMC3    C7 5392   3.654   1.977  12.469 -0.2693 -0.5492  0.1302
  356TMC3    C8 5393   3.697   1.977  11.975 -0.4324 -0.1344  0.0782
  356TMC3    O1 5394   3.610   1.914  12.563  0.3480  0.2657 -0.2582
  356TMC3    O2 5395   3.665   1.911  11.874 -0.4095  0.0071  0.0713
  357MPD2     C 5396   4.523   1.836   1.354 -0.0422 -0.5817  0.5345
  357MPD2    C1 5397   4.584   1.717   1.396  0.1088  1.1018 -0.3007
  357MPD2    C2 5398   4.710   1.725   1.437  0.6639 -0.5875 -0.0190
  357MPD2    C3 5399   0.047   1.842   1.451 -0.2719 -0.6415  0.6841
  357MPD2    C4 5400   4.730   1.963   1.410 -0.2992 -0.6337 -0.1037
  357MPD2    C5 5401   4.601   1.953   1.355 -0.3467  0.0485 -0.2015
  357MPD2     H 5402   0.007   1.627   1.467 -1.3236 -1.4884 -0.5587
  357MPD2    H1 5403   0.044   2.056   1.422 -0.5299 -0.7839  2.1468
  357MPD2    H2 5404   4.423   1.848   1.314  0.0760 -1.9779 -0.1690
  357MPD2    H3 5405   4.559   2.050   1.333 -0.1555  0.0727 -0.4538
  357MPD2     N 5406   0.178   1.837   1.507  0.0401  0.3048  0.0897
  357MPD2    H5 5407   0.229   1.925   1.507  0.5217  0.0162 -1.0765
  357MPD2    N1 5408   4.512   1.599   1.364 -0.0919 -0.3008 -0.1212
  357MPD2    H7 5409   4.414   1.620   1.353  0.1304  0.7035 -0.2255
  358TMC3    C1 5410   4.472   1.376   1.301 -0.5371  0.3036  0.1988
  358TMC3    C2 5411   4.378   1.414   1.211  0.4476  0.1271  0.5963
  358TMC3    C3 5412   4.324   1.319   1.127 -0.5404 -0.3405  0.4554
  358TMC3    C4 5413   4.516   1.250   1.299 -1.2239 -0.3084  0.6159
  358TMC3    C5 5414   4.481   1.161   1.199 -0.0546 -1.1090  0.0708
  358TMC3    C6 5415   4.395   1.203   1.100 -0.5628  0.3855 -0.2642
  358TMC3     C 5416   4.569   1.477   1.344 -0.0582  0.0925 -0.1365
  358TMC3     O 5417   4.685   1.435   1.348 -0.3705 -0.0973 -0.0199
  358TMC3     H 5418   4.336   1.514   1.215  4.7062  1.8278  2.6951
  358TMC3    H1 5419   4.590   1.215   1.370  0.1837 -0.2517 -0.8084
  358TMC3    H2 5420   4.349   1.135   1.029 -0.6326  1.0495 -0.8533
  358TMC3    C7 5421   4.502   1.027   1.225  0.0686  0.1946  0.1396
  358TMC3    C8 5422   4.206   1.352   1.054  0.0303  0.3174 -0.9290
  358TMC3    O1 5423   4.614   1.005   1.275  0.1159  0.8423  0.4859
  358TMC3    O2 5424   4.203   1.338   0.936 -0.4709 -0.3241  0.1601
  359MPD2     C 5425   3.557   0.540  12.517  0.7557 -0.2925 -0.7062
  359MPD2    C1 5426   3.476   0.551  12.410 -0.4077 -0.0200  0.6215
  359MPD2    C2 5427   3.367   0.465  12.385  0.4378 -0.5684 -0.2409
  359MPD2    C3 5428   3.343   0.354  12.472  0.1044 -1.2008 -0.2484
  359MPD2    C4 5429   3.435   0.336  12.570 -0.5302  0.0725  0.6461
  359MPD2    C5 5430   3.535   0.429  12.599  0.1423  0.0530  0.4193
  359MPD2     H 5431   3.306   0.480  12.296  0.3627  0.2773 -0.0426
  359MPD2    H1 5432   3.428   0.256  12.643  1.4293  0.6090  1.4371
  359MPD2    H2 5433   3.642   0.604  12.538 -1.1217  2.5517 -1.6463
  359MPD2    H3 5434   3.603   0.405  12.680  1.5110  1.5822 -0.2665
  359MPD2     N 5435   3.232   0.269  12.453 -0.3793  0.1165 -0.8243
  359MPD2    H5 5436   3.221   0.195  12.522  1.3416  0.4814 -0.1586
  359MPD2    N1 5437   3.497   0.654  12.312 -0.1242 -0.2923 -0.9209
  359MPD2    H7 5438   3.435   0.651  12.231 -0.0682 -0.1659 -0.9679
  360TMC3    C1 5439   3.526   0.888  12.247 -0.2319  0.6296  0.3457
  360TMC3    C2 5440   3.611   0.995  12.231 -0.4827 -0.6108 -0.2112
  360TMC3    C3 5441   3.563   1.107  12.163  0.1388 -0.4083 -0.0265
  360TMC3    C4 5442   3.401   0.885  12.198 -0.7007  0.4082  0.4638
  360TMC3    C5 5443   3.353   1.005  12.139  0.0801 -0.4325 -1.0327
  360TMC3    C6 5444   3.431   1.116  12.126  0.5586  0.0220  0.2698
  360TMC3     C 5445   3.566   0.775  12.334 -0.5370 -0.0547 -0.2447
  360TMC3     O 5446   3.645   0.806  12.422 -0.2208  0.0629 -0.1922
  360TMC3     H 5447   3.708   0.993  12.278 -0.0702  0.3874 -1.0274
  360TMC3    H1 5448   3.334   0.800  12.202 -0.8837  0.6018  1.4113
  360TMC3    H2 5449   3.397   1.212  12.088  1.6479  0.7482  1.0985
  360TMC3    C7 5450   3.238   0.986  12.052 -0.0203  0.5188  0.0164
  360TMC3    C8 5451   3.660   1.200  12.110 -0.0795 -0.8415 -0.4851
  360TMC3    O1 5452   3.250   1.033  11.942  0.4044 -0.1687  0.2594
  360TMC3    O2 5453   3.629   1.317  12.114  0.5725 -0.2095  0.5359
  361MPD2     C 5454   0.348   4.057  16.356 -0.6114  0.5311  0.3807
  361MPD2    C1 5455   0.365   4.090  16.486  0.1174  0.0082 -0.5123
  361MPD2    C2 5456   0.458   4.023  16.566 -0.4106  0.0125 -0.3703
  361MPD2    C3 5457   0.533   3.921  16.507 -0.2839  0.1595  0.1625
  361MPD2    C4 5458   0.510   3.887  16.377 -0.3130 -0.1678  0.5025
  361MPD2    C5 5459   0.424   3.961  16.299  0.0871 -0.1495  0.3457
  361MPD2     H 5460   0.475   4.056  16.668  0.3404 -1.7230  0.0679
  361MPD2    H1 5461   0.548   3.798  16.329  0.5344 -0.4570  1.7020
  361MPD2    H2 5462   0.284   4.111  16.288 -0.5606  0.1725  0.0444
  361MPD2    H3 5463   0.407   3.929  16.197 -1.9333  1.5687  0.1609
  361MPD2     N 5464   0.628   3.845  16.579  0.1918 -0.1837  0.2948
  361MPD2    H5 5465   0.676   3.777  16.521 -0.8607  0.5897 -1.5050
  361MPD2    N1 5466   0.294   4.192  16.550  0.5083  0.4525  0.1778
  361MPD2    H7 5467   0.316   4.213  16.647 -0.2393  0.3246  0.3792
  362TMC3    C1 5468   0.152   4.382  16.588  0.1550 -0.4963 -0.4958
  362TMC3    C2 5469   0.184   4.389  16.723 -0.1140  0.1965  0.4622
  362TMC3    C3 5470   0.117   4.483  16.803  0.2938  0.0112 -0.5886
  362TMC3    C4 5471   0.057   4.470  16.535 -0.7122 -0.7090 -0.5277
  362TMC3    C5 5472   4.734   4.564  16.618  0.0036  0.8656  0.2553
  362TMC3    C6 5473   0.021   4.572  16.754 -0.4233  0.6258  0.9864
  362TMC3     C 5474   0.192   4.266  16.499  0.0717 -0.2273  0.0635
  362TMC3     O 5475   0.121   4.254  16.400 -0.4829  0.4305 -0.1668
  362TMC3     H 5476   0.260   4.329  16.771 -1.5960 -1.1706  1.1249
  362TMC3    H1 5477   0.054   4.481  16.427  1.4278  0.4512 -0.4771
  362TMC3    H2 5478   4.724   4.652  16.818  0.6899  1.4644  0.5798
  362TMC3    C7 5479   4.634   4.651  16.563 -0.5188 -0.2801 -0.4981
  362TMC3    C8 5480   0.170   4.516  16.938  0.7097 -0.6724  0.3975
  362TMC3    O1 5481   4.586   4.732  16.642 -0.0973  0.3422  0.1436
  362TMC3    O2 5482   0.283   4.480  16.966 -0.8165  0.1260 -0.1595
  363TMC3    C1 5483   4.149   2.458   9.173 -0.4918  0.2854 -0.8124
  363TMC3    C2 5484   4.112   2.362   9.270  0.3994  0.3008  0.8011
  363TMC3    C3 5485   3.991   2.386   9.335  0.2660  0.0089  0.1961
  363TMC3    C4 5486   4.081   2.576   9.160 -0.0586  0.1958  0.2446
  363TMC3    C5 5487   3.960   2.588   9.218 -0.2992  0.4265  0.0725
  363TMC3    C6 5488   3.915   2.496   9.306  0.7825  0.1018 -0.4716
  363TMC3     C 5489   4.292   2.449   9.130 -0.1583  0.7481 -0.2228
  363TMC3     O 5490   4.377   2.404   9.206  0.1014 -0.1110  0.1751
  363TMC3     H 5491   4.175   2.276   9.282  0.3373  0.2515  0.7747
  363TMC3    H1 5492   4.109   2.653   9.089 -0.9923 -1.7638 -2.2716
  363TMC3    H2 5493   3.818   2.509   9.353  1.3390  0.5549  0.5319
  363TMC3    C7 5494   3.894   2.721   9.209 -0.6597 -0.3039  0.5243
  363TMC3    C8 5495   3.976   2.328   9.471  0.1295  0.0821  0.1515
  363TMC3    O1 5496   3.892   2.774   9.101  0.4325 -0.1464 -0.2626
  363TMC3    O2 5497   3.887   2.375   9.539  0.2377 -0.2696 -0.1172
  364MPD2     C 5498   2.031   1.924  11.009 -0.3787  0.2337  0.1319
  364MPD2    C1 5499   2.101   1.866  10.904 -0.3803 -0.2465  0.2634
  364MPD2    C2 5500   2.077   1.725  10.886 -0.3022  0.2426 -0.0930
  364MPD2    C3 5501   2.006   1.654  10.978 -0.4679  0.0441  0.5796
  364MPD2    C4 5502   1.931   1.719  11.072  0.8314 -0.8679  0.3599
  364MPD2    C5 5503   1.941   1.854  11.087  0.2312  0.1580  0.5172
  364MPD2     H 5504   2.127   1.677  10.803 -2.9426  0.4747 -1.8142
  364MPD2    H1 5505   1.873   1.660  11.142  1.6277 -0.1445  1.6300
  364MPD2    H2 5506   2.036   2.030  11.031  1.2677 -0.3510  2.6022
  364MPD2    H3 5507   1.879   1.908  11.157  0.0864 -0.0622  0.5595
  364MPD2     N 5508   2.017   1.516  10.998  0.4282 -0.8787 -0.5738
  364MPD2    H5 5509   1.989   1.491  11.092 -0.1195 -0.3512 -0.5948
  364MPD2    N1 5510   2.193   1.950  10.824 -0.0126  0.0838  0.0891
  364MPD2    H7 5511   2.201   2.047  10.855  1.0679 -0.2417  0.8465
  365TMC3    C1 5512   2.341   2.010  10.659 -0.1844 -0.0482 -0.6480
  365TMC3    C2 5513   2.409   1.977  10.541 -0.3991  0.4073 -0.2341
  365TMC3    C3 5514   2.498   2.070  10.494  0.2543 -0.3710 -0.2307
  365TMC3    C4 5515   2.361   2.131  10.720 -0.6018  0.4386  0.2897
  365TMC3    C5 5516   2.448   2.226  10.661  0.5844 -0.2204  0.0648
  365TMC3    C6 5517   2.523   2.191  10.551  0.3245 -0.4486  0.2665
  365TMC3     C 5518   2.272   1.903  10.728  0.2544 -0.1447  0.1412
  365TMC3     O 5519   2.266   1.795  10.668 -0.2385  0.2250 -0.5654
  365TMC3     H 5520   2.381   1.893  10.477 -0.7648 -1.1226  1.9344
  365TMC3    H1 5521   2.308   2.161  10.810 -0.7301  2.5940 -0.4921
  365TMC3    H2 5522   2.587   2.262  10.500 -0.8848  0.5712  0.1687
  365TMC3    C7 5523   2.434   2.367  10.677 -0.1105 -0.0699 -0.5215
  365TMC3    C8 5524   2.603   2.029  10.397  0.1056 -0.7663 -0.2702
  365TMC3    O1 5525   2.515   2.441  10.622 -0.3835 -0.8099  0.4836
  365TMC3    O2 5526   2.672   2.112  10.338 -0.5150  0.2318  0.3995
  366MPD2     C 5527   0.495   2.334  15.441 -0.0113  0.3052 -0.2427
  366MPD2    C1 5528   0.623   2.389  15.439 -0.0451  0.2904 -0.9816
  366MPD2    C2 5529   0.732   2.302  15.450 -0.5190  0.1000 -1.5580
  366MPD2    C3 5530   0.711   2.168  15.455 -0.1055  0.9281  0.0970
  366MPD2    C4 5531   0.581   2.120  15.469 -0.4026 -0.0054 -0.2405
  366MPD2    C5 5532   0.477   2.204  15.467 -0.0413  0.5021 -0.4270
  366MPD2     H 5533   0.833   2.341  15.443 -0.9147  1.7059  1.6247
  366MPD2    H1 5534   0.563   2.016  15.490 -1.3968  0.5904  1.8123
  366MPD2    H2 5535   0.403   2.390  15.429  0.5184  1.5573  1.6202
  366MPD2    H3 5536   0.377   2.165  15.478  0.8324 -1.6205 -0.0750
  366MPD2     N 5537   0.831   2.092  15.453 -0.2636 -0.2011 -0.3365
  366MPD2    H5 5538   0.919   2.143  15.457 -0.5309  0.1687  0.8361
  366MPD2    N1 5539   0.659   2.528  15.424 -0.1643  0.7512 -0.5655
  366MPD2    H7 5540   0.757   2.550  15.410 -0.2169  0.4743 -1.4027
  367TMC3    C1 5541   0.629   2.754  15.353 -0.5135  0.6336 -0.4929
  367TMC3    C2 5542   0.719   2.801  15.447  0.4604 -0.4832  0.3650
  367TMC3    C3 5543   0.747   2.941  15.455 -0.6459 -0.2679 -0.6385
  367TMC3    C4 5544   0.559   2.838  15.270  0.2447 -0.1495  0.6409
  367TMC3    C5 5545   0.589   2.976  15.287 -0.7026 -0.3958 -0.3779
  367TMC3    C6 5546   0.680   3.025  15.379 -0.0001 -0.2713 -0.2502
  367TMC3     C 5547   0.566   2.631  15.386  0.4679 -0.3770 -0.4692
  367TMC3     O 5548   0.455   2.613  15.336  0.5080 -0.6808  0.9897
  367TMC3     H 5549   0.772   2.731  15.510 -0.7906 -0.9837  0.8697
  367TMC3    H1 5550   0.502   2.806  15.183 -1.3266  0.0952  1.5864
  367TMC3    H2 5551   0.695   3.131  15.394 -0.4367  0.0125 -1.8006
  367TMC3    C7 5552   0.519   3.086  15.214  0.3815 -0.3785  0.8289
  367TMC3    C8 5553   0.848   2.978  15.545 -0.5789 -0.3896 -0.7675
  367TMC3    O1 5554   0.570   3.198  15.203 -0.5204  0.0666 -0.1828
  367TMC3    O2 5555   0.878   2.892  15.632 -0.7636  0.3205 -0.5216
  368MPD2     C 5556   1.613   4.583  13.252 -0.6018  0.6551  0.1501
  368MPD2    C1 5557   1.625   4.655  13.131  0.7914 -0.1838  0.1628
  368MPD2    C2 5558   1.733   4.630  13.045 -0.5334  0.4209  0.5147
  368MPD2    C3 5559   1.836   4.536  13.079 -0.2627  0.5384  0.2663
  368MPD2    C4 5560   1.828   4.475  13.198  0.0390  0.6496  0.2799
  368MPD2    C5 5561   1.718   4.500  13.282 -0.1797  0.5475  0.6071
  368MPD2     H 5562   1.736   4.691  12.955  1.2432 -0.3737  0.0562
  368MPD2    H1 5563   1.902   4.404  13.232  1.6115  1.3057 -1.7430
  368MPD2    H2 5564   1.531   4.596  13.321  0.6571 -0.0398  1.8106
  368MPD2    H3 5565   1.706   4.453  13.379  0.1723 -0.6440  0.0691
  368MPD2     N 5566   1.951   4.515  12.996 -0.5238 -0.2150  0.2487
  368MPD2    H5 5567   2.035   4.485  13.043 -0.4276 -0.6192 -0.1770
  368MPD2    N1 5568   1.522   0.014  13.108  0.3045  0.1187 -0.2496
  368MPD2    H7 5569   1.449   0.019  13.178  0.2919 -1.5176 -0.1395
  369TMC3    C1 5570   1.399   0.188  13.007  0.8138 -0.2229 -0.0769
  369TMC3    C2 5571   1.382   0.277  12.902  0.3402  0.8514 -0.1071
  369TMC3    C3 5572   1.267   0.350  12.892 -0.0725  0.0750 -0.0947
  369TMC3    C4 5573   1.292   0.146  13.079 -0.1058  0.1481 -0.1677
  369TMC3    C5 5574   1.179   0.213  13.060  0.1995  0.4665 -0.0831
  369TMC3    C6 5575   1.164   0.324  12.979 -0.2974 -0.3409  0.1919
  369TMC3     C 5576   1.519   0.105  13.004  0.0320 -0.6561 -0.5251
  369TMC3     O 5577   1.582   0.114  12.898 -0.3198 -0.2382  0.7219
  369TMC3     H 5578   1.470   0.295  12.842  0.1496  1.8141 -0.0937
  369TMC3    H1 5579   1.296   0.074  13.161 -1.6701  1.6574  1.2368
  369TMC3    H2 5580   1.073   0.379  12.957  0.6737  1.6712  1.2892
  369TMC3    C7 5581   1.082   0.183  13.157 -0.3888 -0.0053  0.0263
  369TMC3    C8 5582   1.258   0.467  12.802 -0.0477 -0.4317 -0.7005
  369TMC3    O1 5583   1.109   0.179  13.276 -0.1485 -0.3011 -0.6146
  369TMC3    O2 5584   1.177   0.554  12.829  0.3761 -0.3221  0.1057
  370TMC3    C1 5585   1.533   0.237  15.985 -0.2820  0.1080 -0.6014
  370TMC3    C2 5586   1.461   0.181  16.080  0.5699 -0.9576  0.0164
  370TMC3    C3 5587   1.425   0.050  16.064  0.2721  0.1000  0.0546
  370TMC3    C4 5588   1.577   0.172  15.871 -0.6939 -0.0745 -0.3730
  370TMC3    C5 5589   1.554   0.039  15.859  0.9618 -0.3260 -0.5588
  370TMC3    C6 5590   1.473   4.722  15.956  0.0087  0.1070  0.1117
  370TMC3     C 5591   1.631   0.330  16.043 -0.4075 -0.5883 -0.0136
  370TMC3     O 5592   1.669   0.310  16.158 -0.7299 -0.7185  0.1045
  370TMC3     H 5593   1.416   0.250  16.151  1.4550 -0.2781 -0.0859
  370TMC3    H1 5594   1.638   0.221  15.795  0.4207  0.3185  0.7807
  370TMC3    H2 5595   1.425   4.628  15.934  1.0425  0.4159 -3.4742
  370TMC3    C7 5596   1.606   4.710  15.740  0.0185 -0.6177 -0.0606
  370TMC3    C8 5597   1.354   4.721  16.172  0.0706 -0.1722 -0.1618
  370TMC3    O1 5598   1.624   0.042  15.646  0.0387 -1.0452 -0.0995
  370TMC3    O2 5599   1.357   4.598  16.184 -0.7220 -0.6082  0.9533
  371TMC3    C1 5600   2.830   3.096  15.419 -0.3538 -0.6218 -0.5055
  371TMC3    C2 5601   2.703   3.130  15.448 -0.0866 -0.2103  0.2646
  371TMC3    C3 5602   2.686   3.262  15.473  0.6613  0.2386 -0.0139
  371TMC3    C4 5603   2.931   3.181  15.406 -0.6157 -0.6566  0.2816
  371TMC3    C5 5604   2.916   3.318  15.436 -0.1295  0.2203 -0.4507
  371TMC3    C6 5605   2.788   3.352  15.476 -0.2766  0.4996  0.2857
  371TMC3     C 5606   2.874   2.961  15.458  0.2533  0.1779 -0.7790
  371TMC3     O 5607   2.972   2.917  15.410  0.2063 -0.2612 -0.3050
  371TMC3     H 5608   2.618   3.068  15.421  0.2796  0.0297 -1.3972
  371TMC3    H1 5609   3.030   3.148  15.377 -0.0734 -0.5079  1.9571
  371TMC3    H2 5610   2.770   3.458  15.490  1.5539  1.1121 -1.8787
  371TMC3    C7 5611   2.999   3.425  15.388  0.0026 -0.1629 -0.0034
  371TMC3    C8 5612   2.551   3.322  15.474 -0.3477  0.2969  1.4132
  371TMC3    O1 5613   2.944   3.533  15.399  0.5313  0.0214 -0.1362
  371TMC3    O2 5614   2.557   3.439  15.443 -0.2163  0.0750  0.2384
  372MPD2     C 5615   1.910   0.152  13.228  0.3809  0.0490  0.0519
  372MPD2    C1 5616   2.003   0.054  13.248 -0.3595 -0.5942 -0.6992
  372MPD2    C2 5617   1.988   4.705  13.350 -0.2076 -0.6163 -0.0363
  372MPD2    C3 5618   1.881   4.715  13.437  0.0327  0.8633  0.0944
  372MPD2    C4 5619   1.785   0.071  13.422  0.3634  0.0751  0.0033
  372MPD2    C5 5620   1.801   0.153  13.316 -0.7282 -0.0325 -0.1291
  372MPD2     H 5621   2.066   4.630  13.360 -0.5893 -0.9549  0.3781
  372MPD2    H1 5622   1.699   0.081  13.487 -0.6965 -1.0420 -1.2316
  372MPD2    H2 5623   1.904   0.211  13.138  1.5749 -0.5905 -0.4449
  372MPD2    H3 5624   1.722   0.222  13.287 -1.3460 -0.7947 -0.2814
  372MPD2     N 5625   1.877   4.620  13.544  0.3522 -0.0825  0.2824
  372MPD2    H5 5626   1.940   4.541  13.540 -0.6217 -0.7645 -1.8063
  372MPD2    N1 5627   2.122   0.037  13.171  0.4050 -0.2040 -0.6036
  372MPD2    H7 5628   2.198   4.724  13.213  1.9248  1.2962 -1.4404
  373TMC3    C1 5629   1.743   4.483  13.700 -0.9695 -0.4895  0.6839
  373TMC3    C2 5630   1.654   4.479  13.802 -0.2451 -0.4139 -0.6553
  373TMC3    C3 5631   1.600   4.356  13.833  0.4343  0.7691 -0.1142
  373TMC3    C4 5632   1.780   4.373  13.627 -0.6738  0.3478 -0.1421
  373TMC3    C5 5633   1.726   4.256  13.665 -0.5594  0.2789  0.4252
  373TMC3    C6 5634   1.625   4.246  13.758  0.3145  0.1388  0.5306
  373TMC3     C 5635   1.781   4.616  13.646  0.3301 -0.1624  0.0926
  373TMC3     O 5636   1.697   4.700  13.687 -0.0877 -0.0851 -0.5336
  373TMC3     H 5637   1.643   4.563  13.870  2.2031 -0.2396 -0.4660
  373TMC3    H1 5638   1.867   4.384  13.563 -0.6058 -1.0454 -0.2963
  373TMC3    H2 5639   1.595   4.148  13.793 -2.6819  0.3372 -1.4440
  373TMC3    C7 5640   1.816   4.145  13.649 -0.4639 -0.4471 -0.3613
  373TMC3    C8 5641   1.542   4.329  13.960 -0.1699 -0.2801  0.6749
  373TMC3    O1 5642   1.922   4.177  13.600 -0.0142 -0.1221 -0.8854
  373TMC3    O2 5643   1.450   4.409  13.984 -0.4511 -0.0491 -0.1189
  374TMC3    C1 5644   3.112   4.351   9.925 -0.1214  0.6798  0.7613
  374TMC3    C2 5645   3.152   4.477   9.882 -0.3448 -0.3483  0.2658
  374TMC3    C3 5646   3.060   4.553   9.819  0.4761 -0.3365  0.2509
  374TMC3    C4 5647   2.984   4.297   9.897 -0.3938  0.4089  0.2022
  374TMC3    C5 5648   2.894   4.380   9.830 -0.5521  0.9815  0.5958
  374TMC3    C6 5649   2.933   4.509   9.799  0.0170  0.1141 -0.8665
  374TMC3     C 5650   3.208   4.280  10.006 -0.0207  0.1475  0.3578
  374TMC3     O 5651   3.326   4.307   9.980 -0.2089  0.6003 -0.5961
  374TMC3     H 5652   3.256   4.501   9.903 -0.8812  0.5589  1.9001
  374TMC3    H1 5653   2.965   4.191   9.909 -3.4766  0.9686  0.1678
  374TMC3    H2 5654   2.853   4.574   9.765  1.3669  0.9048 -2.5374
  374TMC3    C7 5655   2.760   4.339   9.798  0.5146  0.0678  0.5283
  374TMC3    C8 5656   3.092   4.690   9.793 -0.8269  0.1941  0.2559
  374TMC3    O1 5657   2.692   4.413   9.727  0.0062  0.4297 -0.1030
  374TMC3    O2 5658   3.028   0.002   9.703  0.2487 -0.3247  0.1885
  375MPD2     C 5659   3.126   0.312  16.683  0.0006 -0.5278 -0.6457
  375MPD2    C1 5660   3.027   0.293  16.586 -0.2322  0.6734  0.4752
  375MPD2    C2 5661   3.053   0.211  16.477  0.5283 -0.5828 -0.6117
  375MPD2    C3 5662   3.172   0.134  16.476  0.1841  0.1979 -0.6485
  375MPD2    C4 5663   3.271   0.156  16.572  0.0859  0.4735  0.5299
  375MPD2    C5 5664   3.248   0.245  16.676  0.2272  0.0849 -0.5256
  375MPD2     H 5665   2.980   0.201  16.397 -0.7694  2.8945  0.1328
  375MPD2    H1 5666   3.371   0.115  16.568  0.5554  1.6430  0.2752
  375MPD2    H2 5667   3.112   0.384  16.763 -1.1437  1.0466 -2.2629
  375MPD2    H3 5668   3.325   0.266  16.749 -0.1391  2.7651 -0.9188
  375MPD2     N 5669   3.202   0.037  16.376 -0.6095  0.5226  0.2791
  375MPD2    H5 5670   3.289   4.729  16.395 -0.3558  1.3571  1.2311
  375MPD2    N1 5671   2.894   0.351  16.599  0.2063  0.2358  0.7815
  375MPD2    H7 5672   2.824   0.340  16.527  1.3668 -1.3157 -0.0830
  376TMC3    C1 5673   3.189   4.654  16.169 -0.1265 -0.5326  0.5697
  376TMC3    C2 5674   3.247   4.550  16.224 -0.0825  0.2842 -0.8222
  376TMC3    C3 5675   3.351   4.495  16.158  0.0310  0.3597 -0.2371
  376TMC3    C4 5676   3.199   4.685  16.035 -0.5117 -0.0401 -0.0144
  376TMC3    C5 5677   3.294   4.615  15.962  0.3044  0.0494 -0.2987
  376TMC3    C6 5678   3.373   4.517  16.022 -0.5043  0.4667  0.1863
  376TMC3     C 5679   3.125   0.015  16.263  0.9757 -0.1233 -0.1499
  376TMC3     O 5680   3.028   0.074  16.220  0.3039  0.2852 -0.0777
  376TMC3     H 5681   3.220   4.523  16.326 -0.9590 -0.8976 -1.3619
  376TMC3    H1 5682   3.134   0.016  15.985  0.6189  1.5671  0.7991
  376TMC3    H2 5683   3.455   4.474  15.966 -3.0905 -0.3149 -3.0336
  376TMC3    C7 5684   3.313   4.644  15.822 -0.6466 -0.3748  0.8005
  376TMC3    C8 5685   3.475   4.526  16.221  0.3232  0.0236  0.8705
  376TMC3    O1 5686   3.346   4.549  15.747  0.0099  0.5563 -0.4135
  376TMC3    O2 5687   3.576   4.540  16.151 -0.3480 -0.1804 -0.1066
  377MPD2     C 5688   0.735   0.629  12.386 -0.4597 -0.2306  0.1598
  377MPD2    C1 5689   0.771   0.514  12.451  0.2448  0.3840 -0.3659
  377MPD2    C2 5690   0.688   0.464  12.550 -0.0644 -0.5013  1.6387
  377MPD2    C3 5691   0.579   0.537  12.595  0.2722 -0.0051 -0.3026
  377MPD2    C4 5692   0.549   0.654  12.541  0.6636 -1.3254 -0.8045
  377MPD2    C5 5693   0.622   0.700  12.433 -0.8937  0.1894  0.2322
  377MPD2     H 5694   0.718   0.370  12.596  1.3658 -1.3434 -1.0212
  377MPD2    H1 5695   0.466   0.718  12.571  0.3510 -1.4656 -1.3874
  377MPD2    H2 5696   0.796   0.669  12.306 -1.6845  0.7050 -0.2998
  377MPD2    H3 5697   0.590   0.795  12.391 -1.7764 -0.4809 -0.6049
  377MPD2     N 5698   0.498   0.496  12.703 -0.2445  0.3684 -0.5052
  377MPD2    H5 5699   0.435   0.564  12.743 -2.3679 -1.4950 -0.6860
  377MPD2    N1 5700   0.889   0.446  12.416 -0.3291  0.1452 -0.1615
  377MPD2    H7 5701   0.934   0.493  12.338  0.1030 -2.9559 -1.7928
  378TMC3    C1 5702   1.171   0.281  12.196  0.2215  0.2276  0.3875
  378TMC3    C2 5703   1.062   0.310  12.261  0.3610  0.0846 -0.6450
  378TMC3    C3 5704   1.074   0.311  12.399  0.0824 -0.3853  0.1391
  378TMC3    C4 5705   1.290   0.235  12.250 -0.2076  0.4886 -0.6523
  378TMC3    C5 5706   1.297   0.234  12.386 -0.5319  0.3902  0.3977
  378TMC3    C6 5707   1.187   0.266  12.464  0.1221  0.2545  0.2709
  378TMC3     C 5708   1.153   0.263  12.050 -0.2226  0.1155 -0.7080
  378TMC3     O 5709   1.064   0.335  12.004  0.0885 -0.2864  0.4004
  378TMC3     H 5710   0.966   0.343  12.222  0.6796  2.0986  0.2723
  378TMC3    H1 5711   1.379   0.231  12.187 -0.5176 -1.8452 -0.9527
  378TMC3    H2 5712   1.194   0.278  12.572  0.2351  2.8102 -0.0190
  378TMC3    C7 5713   1.417   0.204  12.450  0.6290 -1.0314 -1.5515
  378TMC3    C8 5714   0.955   0.342  12.475  0.0769  0.1726  0.3786
  378TMC3    O1 5715   1.405   0.210  12.569 -0.0370 -0.4803 -0.1895
  378TMC3    O2 5716   0.948   0.299  12.588 -0.7129 -0.2584  0.1525
  379MPD2     C 5717   1.718   2.517  16.295  0.4162  0.2484 -0.6611
  379MPD2    C1 5718   1.750   2.651  16.279  0.3235 -0.6638 -0.2610
  379MPD2    C2 5719   1.849   2.702  16.363  0.6067  0.4709 -0.0807
  379MPD2    C3 5720   1.910   2.624  16.457 -0.5209 -0.4543 -0.4993
  379MPD2    C4 5721   1.872   2.494  16.468 -0.3639 -0.3049 -0.0773
  379MPD2    C5 5722   1.785   2.441  16.384 -0.3632  0.9688  0.1308
  379MPD2     H 5723   1.877   2.806  16.347 -1.0236  0.5169 -2.6562
  379MPD2    H1 5724   1.909   2.423  16.542  1.9626 -0.2868 -1.2426
  379MPD2    H2 5725   1.647   2.468  16.229 -0.9017  2.1117 -0.6280
  379MPD2    H3 5726   1.763   2.335  16.385  1.5020  0.6048  3.1110
  379MPD2     N 5727   2.018   2.669  16.538  0.6063  0.2553 -0.5693
  379MPD2    H5 5728   2.067   2.597  16.590 -0.5502 -0.4524 -0.4557
  379MPD2    N1 5729   1.690   2.729  16.174  0.1267 -0.7045 -0.1206
  379MPD2    H7 5730   1.643   2.670  16.106 -1.3461  0.1510  0.1670
  380TMC3    C1 5731   1.611   2.903  16.048 -0.6492  0.4560 -0.0315
  380TMC3    C2 5732   1.638   2.830  15.934  0.7613  0.7604  0.3306
  380TMC3    C3 5733   1.568   2.860  15.820  0.2184  0.1723 -0.3271
  380TMC3    C4 5734   1.534   3.013  16.045  0.2463 -0.1096  0.1200
  380TMC3    C5 5735   1.456   3.026  15.930  0.1538 -0.0118 -0.1702
  380TMC3    C6 5736   1.470   2.954  15.812  0.0626 -0.1720 -0.9645
  380TMC3     C 5737   1.678   2.863  16.169 -0.6796 -0.0914  0.2689
  380TMC3     O 5738   1.686   2.953  16.255 -0.5934  0.3782 -0.0098
  380TMC3     H 5739   1.717   2.755  15.931 -1.0972 -1.1634 -0.2129
  380TMC3    H1 5740   1.531   3.078  16.131  0.5495 -0.4083  0.3560
  380TMC3    H2 5741   1.441   2.994  15.715 -0.2218 -0.1421 -0.8686
  380TMC3    C7 5742   1.356   3.129  15.925  0.2279  0.5572 -0.4347
  380TMC3    C8 5743   1.628   2.840  15.691  0.2876 -0.3246 -0.5002
  380TMC3    O1 5744   1.380   3.240  15.978  0.5631  0.6228  0.4884
  380TMC3    O2 5745   1.573   2.840  15.582 -0.2216  0.5910 -0.0459
  381TMC3    C1 5746   1.255   3.991  16.099 -0.4200 -0.2292 -0.5446
  381TMC3    C2 5747   1.326   4.099  16.051 -0.3273 -0.5725 -0.2278
  381TMC3    C3 5748   1.370   4.182  16.147 -0.5359 -0.1436 -0.0206
  381TMC3    C4 5749   1.220   3.974  16.227  0.2524 -0.3622 -0.1324
  381TMC3    C5 5750   1.246   4.074  16.317 -0.3855 -0.2370 -0.0536
  381TMC3    C6 5751   1.336   4.171  16.279 -0.1170 -0.1420  0.7831
  381TMC3     C 5752   1.277   3.866  16.036  0.0444 -0.3695 -0.4621
  381TMC3     O 5753   1.286   3.765  16.108  0.3368  0.1219  0.4645
  381TMC3     H 5754   1.372   4.100  15.953 -0.0854  0.5667 -0.0941
  381TMC3    H1 5755   1.158   3.889  16.256 -1.3110 -0.2188 -3.0814
  381TMC3    H2 5756   1.352   4.250  16.352 -0.4289 -0.5260  1.2708
  381TMC3    C7 5757   1.241   4.041  16.459  0.1084 -0.0142  0.2158
  381TMC3    C8 5758   1.477   4.273  16.111 -0.7018  0.1592  0.7378
  381TMC3    O1 5759   1.255   3.919  16.470  0.3639 -0.0083  0.2495
  381TMC3    O2 5760   1.537   4.239  16.011  0.8577 -0.4883 -0.9136
  382MPD2     C 5761   0.662   1.538  16.539  0.6866  0.0281  0.4843
  382MPD2    C1 5762   0.758   1.561  16.630 -0.5799  0.9369  0.3721
  382MPD2    C2 5763   0.801   1.462  16.718  0.7420 -0.0936 -0.2509
  382MPD2    C3 5764   0.729   1.343  16.738 -0.3031 -1.0082 -0.8272
  382MPD2    C4 5765   0.639   1.316  16.634  0.3513  0.5915  0.2093
  382MPD2    C5 5766   0.608   1.413  16.540 -0.6323  0.3431  0.4334
  382MPD2     H 5767   0.885   1.487  16.782  0.7663 -0.0119 -0.3145
  382MPD2    H1 5768   0.594   1.219  16.620  1.3435  0.2851 -0.7479
  382MPD2    H2 5769   0.633   1.610  16.464 -0.7303  0.0831  1.0833
  382MPD2    H3 5770   0.545   1.381  16.457 -2.7855  3.4690  0.8522
  382MPD2     N 5771   0.732   1.256  16.845  0.1747 -0.4514  0.4163
  382MPD2    H5 5772   0.656   1.188  16.845 -0.8757  0.7429 -3.6292
  382MPD2    N1 5773   0.817   1.691  16.647 -0.1007  0.2693  0.1953
  382MPD2    H7 5774   0.884   1.707  16.722 -0.6144  1.1197  0.4711
  383TMC3    C1 5775   0.800   1.161  17.051  0.1654  0.2170 -0.0988
  383TMC3    C2 5776   0.675   1.163  17.106 -0.6503 -0.6129  0.0610
  383TMC3    C3 5777   0.651   1.112  17.230  0.2566  0.1333  0.4788
  383TMC3    C4 5778   0.906   1.124  17.130  1.0147  0.7427 -0.9287
  383TMC3    C5 5779   0.875   1.083  17.256  0.2760 -0.6901  0.3322
  383TMC3    C6 5780   0.750   1.065  17.302  0.5434 -0.6010  0.1919
  383TMC3     C 5781   0.820   1.262  16.952  0.2647 -0.0972  0.1868
  383TMC3     O 5782   0.918   1.337  16.963 -0.3686  0.0896 -0.4866
  383TMC3     H 5783   0.593   1.210  17.054  1.2901  1.5476 -1.0795
  383TMC3    H1 5784   1.004   1.137  17.087  0.7246  3.6646 -0.7499
  383TMC3    H2 5785   0.732   1.047  17.408  2.3273 -0.7503  0.4739
  383TMC3    C7 5786   0.981   1.040  17.349 -0.1451 -0.1310 -0.2879
  383TMC3    C8 5787   0.518   1.068  17.253 -0.2103  0.7779 -0.5425
  383TMC3    O1 5788   0.965   1.046  17.470 -0.6382 -0.7199 -0.8763
  383TMC3    O2 5789   0.432   1.139  17.206 -0.0266 -0.3256 -0.7196
  384MPD2     C 5790   2.007   3.461  12.026 -1.0784 -0.1430 -0.0848
  384MPD2    C1 5791   2.074   3.447  12.142 -0.3621 -0.2459 -0.2273
  384MPD2    C2 5792   2.201   3.400  12.138 -0.3747  0.5250 -0.1212
  384MPD2    C3 5793   2.269   3.372  12.020 -0.6754  0.1660 -0.1345
  384MPD2    C4 5794   2.203   3.395  11.906  0.3944  0.0402  0.0874
  384MPD2    C5 5795   2.073   3.441  11.908  0.7001  0.3298  0.0659
  384MPD2     H 5796   2.252   3.374  12.230  1.0822  1.2030 -0.7444
  384MPD2    H1 5797   2.242   3.370  11.808  0.5475 -2.0774  0.6738
  384MPD2    H2 5798   1.907   3.501  12.019 -0.5274  1.3107  0.3339
  384MPD2    H3 5799   2.028   3.482  11.818  2.5161 -0.0094 -0.9941
  384MPD2     N 5800   2.395   3.317  12.041  0.1024 -0.5872 -0.0098
  384MPD2    H5 5801   2.410   3.289  12.137  1.1496 -0.5925 -0.1690
  384MPD2    N1 5802   2.018   3.462  12.271  0.0647 -0.9549  0.2677
  384MPD2    H7 5803   2.080   3.471  12.351  1.3701 -0.5051 -0.8019
  385TMC3    C1 5804   2.595   3.205  11.999  0.0823 -0.2517  0.2161
  385TMC3    C2 5805   2.599   3.077  11.950 -0.0064 -0.0157 -0.4435
  385TMC3    C3 5806   2.610   2.969  12.033  0.3177 -0.0115  0.5729
  385TMC3    C4 5807   2.628   3.223  12.133  0.0046  0.0986 -0.1731
  385TMC3    C5 5808   2.632   3.117  12.218 -0.2773 -0.2512 -1.1177
  385TMC3    C6 5809   2.634   2.989  12.166  0.6995  0.2714 -0.0828
  385TMC3     C 5810   2.487   3.282  11.947  0.1060  0.2381  0.3584
  385TMC3     O 5811   2.480   3.314  11.827 -0.0521 -0.2821 -0.3135
  385TMC3     H 5812   2.561   3.048  11.852 -0.1594  2.5956 -1.1624
  385TMC3    H1 5813   2.632   3.324  12.173 -0.0926  0.8104 -1.9845
  385TMC3    H2 5814   2.633   2.901  12.230 -0.2400  0.0594 -0.3844
  385TMC3    C7 5815   2.525   3.133  12.321  0.0361  0.4241  0.6383
  385TMC3    C8 5816   2.627   2.837  11.979 -0.4703  0.9429  1.0941
  385TMC3    O1 5817   2.460   3.235  12.304  0.2788 -0.2848  0.2499
  385TMC3    O2 5818   2.714   2.771  12.036  0.3631 -0.7620 -0.1911
  386TMC3    C1 5819   2.103   0.794  11.740 -0.0941 -0.5498  0.2659
  386TMC3    C2 5820   2.097   0.775  11.606  0.1837  0.1514 -0.5185
  386TMC3    C3 5821   1.995   0.827  11.532  0.5084 -0.0133 -0.4641
  386TMC3    C4 5822   2.005   0.868  11.802  0.1726  0.0695 -0.1168
  386TMC3    C5 5823   1.897   0.905  11.727 -0.4276  0.2913  0.0738
  386TMC3    C6 5824   1.891   0.891  11.595  0.1835 -0.0531  0.0168
  386TMC3     C 5825   2.199   0.724  11.829 -0.3295  0.3486 -0.1258
  386TMC3     O 5826   2.240   0.760  11.938 -0.1403 -0.1286  0.0573
  386TMC3     H 5827   2.177   0.718  11.558 -0.1481  0.6927 -1.7256
  386TMC3    H1 5828   2.006   0.887  11.909  1.0052 -2.2180  0.2789
  386TMC3    H2 5829   1.808   0.933  11.540  1.7225  2.0076 -0.7462
  386TMC3    C7 5830   1.801   0.983  11.799 -0.8696 -0.6425 -0.5104
  386TMC3    C8 5831   1.960   0.776  11.401 -0.3650  0.5483  0.6182
  386TMC3    O1 5832   1.802   0.987  11.919 -1.2835 -0.1454 -0.3483
  386TMC3    O2 5833   1.847   0.792  11.365  0.0876 -0.5268 -0.2051
  387MPD2     C 5834   4.539   1.031   9.970 -0.2261 -0.1519 -0.2503
  387MPD2    C1 5835   4.612   0.991  10.083 -0.1304  0.3767  0.0543
  387MPD2    C2 5836   4.683   0.875  10.082  0.4418  0.4569 -0.0390
  387MPD2    C3 5837   4.684   0.796   9.965 -0.6811 -0.1621  0.6581
  387MPD2    C4 5838   4.612   0.833   9.857 -0.6369  0.8733  0.4773
  387MPD2    C5 5839   4.534   0.948   9.863  0.1581  0.6343  0.3164
  387MPD2     H 5840   0.000   0.840  10.167  0.2680 -1.8157 -0.8586
  387MPD2    H1 5841   4.624   0.784   9.761 -1.6942  2.4447 -0.4577
  387MPD2    H2 5842   4.469   1.114   9.975 -1.8795 -1.5474 -0.4009
  387MPD2    H3 5843   4.482   0.971   9.771  0.0407  0.1860  0.2712
  387MPD2     N 5844   0.032   0.690   9.964 -0.2806 -0.1971  0.5604
  387MPD2    H5 5845   0.086   0.664  10.046 -0.8488  1.9853  1.6199
  387MPD2    N1 5846   4.620   1.065  10.206 -0.4125  0.1124  0.0554
  387MPD2    H7 5847   4.680   1.026  10.278  2.0055  1.8180 -1.0264
  388TMC3    C1 5848   4.656   1.258  10.334 -0.1367  0.4657 -0.7738
  388TMC3    C2 5849   4.666   1.398  10.322  0.2757  0.1690  0.1876
  388TMC3    C3 5850   0.039   1.461  10.371 -0.3119 -0.7167 -0.2677
  388TMC3    C4 5851   0.017   1.181  10.382  0.2146  0.3850  0.0133
  388TMC3    C5 5852   0.129   1.255  10.407  0.1806 -0.6925 -0.0281
  388TMC3    C6 5853   0.146   1.391  10.407  0.2787  0.3280  0.0643
  388TMC3     C 5854   4.580   1.194  10.220 -0.3060  0.1925  0.3765
  388TMC3     O 5855   4.523   1.263  10.135  0.0245  0.2080 -0.0605
  388TMC3     H 5856   4.581   1.459  10.292 -0.4674 -1.4303 -0.9641
  388TMC3    H1 5857   4.727   1.086  10.425  1.6067 -1.0140 -2.1025
  388TMC3    H2 5858   0.238   1.437  10.442 -0.4904  1.3921  0.6602
  388TMC3    C7 5859   0.251   1.176  10.417 -0.2610  0.4134  0.2910
  388TMC3    C8 5860   0.014   1.595  10.422  0.4592  0.4747 -0.8888
  388TMC3    O1 5861   0.356   1.230  10.427  0.1535  0.6975 -0.0163
  388TMC3    O2 5862   4.645   1.642  10.396 -0.0424 -0.2827 -0.2815
  389MPD2     C 5863   3.949   3.747  11.019 -0.3022  0.1087 -0.3557
  389MPD2    C1 5864   3.891   3.642  10.956 -0.2070  0.3070 -0.3927
  389MPD2    C2 5865   3.876   3.517  11.018 -0.6078  0.3795 -0.1838
  389MPD2    C3 5866   3.904   3.512  11.158 -0.0299 -0.5877 -0.3189
  389MPD2    C4 5867   3.956   3.618  11.221  0.1521  0.0720  0.3127
  389MPD2    C5 5868   3.980   3.734  11.155  0.2459  0.2714 -0.4645
  389MPD2     H 5869   3.827   3.432  10.973  1.4066 -0.4426 -0.8511
  389MPD2    H1 5870   3.990   3.611  11.323  1.3926 -1.1643 -0.1799
  389MPD2    H2 5871   3.955   3.844  10.970  2.2867 -0.3938 -1.0344
  389MPD2    H3 5872   3.999   3.821  11.217  0.1823  0.2026 -0.3504
  389MPD2     N 5873   3.893   3.397  11.231  0.3693  0.5324  0.5478
  389MPD2    H5 5874   3.919   3.406  11.329 -0.0896 -0.5256  0.7629
  389MPD2    N1 5875   3.870   3.665  10.810 -0.1985  0.5412  0.1047
  389MPD2    H7 5876   3.919   3.743  10.767 -0.9485 -0.0480 -1.8414
  390TMC3    C1 5877   3.849   3.182  11.303  0.2400 -0.1061  0.5098
  390TMC3    C2 5878   3.750   3.084  11.316  0.9320 -0.3000  0.2317
  390TMC3    C3 5879   3.726   3.036  11.442  0.0234  0.4570  1.0599
  390TMC3    C4 5880   3.918   3.224  11.416  0.3818 -0.0450 -0.0079
  390TMC3    C5 5881   3.899   3.171  11.539  0.1897  0.7624 -1.6540
  390TMC3    C6 5882   3.796   3.083  11.557  0.0009  0.2705 -0.1730
  390TMC3     C 5883   3.829   3.280  11.201 -0.4630 -0.4853 -0.4532
  390TMC3     O 5884   3.770   3.247  11.097  0.1416  0.2036 -0.4838
  390TMC3     H 5885   3.683   3.055  11.236  0.2094 -0.1544  0.7822
  390TMC3    H1 5886   4.012   3.273  11.396 -0.8109  1.9882 -0.6884
  390TMC3    H2 5887   3.781   3.029  11.650  0.7194  1.2356  0.4977
  390TMC3    C7 5888   3.976   3.228  11.643 -0.5877  0.3094 -0.2508
  390TMC3    C8 5889   3.602   2.968  11.466 -0.0336  0.4107  0.6929
  390TMC3    O1 5890   4.075   3.290  11.609 -0.1721  0.5591  0.1633
  390TMC3    O2 5891   3.566   2.894  11.377 -0.7252 -0.0083  0.1422
  391MPD2     C 5892   3.226   0.215  11.349  0.1690  0.1058  0.6061
  391MPD2    C1 5893   3.345   0.273  11.321  0.0343  0.2670  0.6816
  391MPD2    C2 5894   3.382   0.279  11.189  0.8666  0.5834  0.2329
  391MPD2    C3 5895   3.296   0.238  11.090  0.5949  0.5008 -0.2937
  391MPD2    C4 5896   3.186   0.157  11.122  0.5328 -0.2595 -0.7947
  391MPD2    C5 5897   3.158   0.142  11.249  0.0936  0.3665 -0.0163
  391MPD2     H 5898   3.472   0.328  11.154  1.4902 -1.3395 -0.8908
  391MPD2    H1 5899   3.112   0.125  11.050 -1.2980 -0.5824  1.2282
  391MPD2    H2 5900   3.201   0.209  11.454  0.6622  2.9676  0.8851
  391MPD2    H3 5901   3.071   0.086  11.283  0.7861 -0.4442  0.4323
  391MPD2     N 5902   3.327   0.269  10.954  0.0749  0.4481 -0.1819
  391MPD2    H5 5903   3.415   0.320  10.943 -1.4814  3.1391 -0.0882
  391MPD2    N1 5904   3.416   0.336  11.426 -0.3181  0.1884 -0.5019
  391MPD2    H7 5905   3.392   0.322  11.524  1.6802 -0.6171 -0.1172
  392TMC3    C1 5906   3.283   0.319  10.720 -0.0598 -0.8134 -0.4654
  392TMC3    C2 5907   3.202   0.298  10.616  1.0998  0.2569 -0.6480
  392TMC3    C3 5908   3.236   0.344  10.488  0.3297  0.5056 -0.1849
  392TMC3    C4 5909   3.387   0.402  10.718  0.6867 -0.0202  0.0536
  392TMC3    C5 5910   3.412   0.461  10.600  0.4200  0.3747  0.2545
  392TMC3    C6 5911   3.343   0.426  10.480  0.7178  0.5183  0.1790
  392TMC3     C 5912   3.243   0.255  10.848 -0.8169  0.0558  0.8289
  392TMC3     O 5913   3.139   0.184  10.839 -0.7006  0.5639 -0.2482
  392TMC3     H 5914   3.111   0.243  10.633  2.3345 -1.8800 -0.8797
  392TMC3    H1 5915   3.448   0.416  10.806 -0.1936  0.3928  0.5986
  392TMC3    H2 5916   3.364   0.476  10.387 -0.8742 -0.7255 -0.8507
  392TMC3    C7 5917   3.528   0.553  10.599 -0.4733 -0.2541 -0.1575
  392TMC3    C8 5918   3.174   0.281  10.368 -0.1702 -0.3806 -0.5907
  392TMC3    O1 5919   3.566   0.603  10.707 -0.1680 -0.9214 -0.5586
  392TMC3    O2 5920   3.128   0.167  10.379 -0.2297  0.2415  0.2590
  393TMC3    C1 5921   1.884   3.375  10.492 -0.0903  0.9639  0.1478
  393TMC3    C2 5922   1.806   3.282  10.435  1.0964  0.5609 -0.3246
  393TMC3    C3 5923   1.736   3.191  10.515 -0.1708  0.2444  0.2685
  393TMC3    C4 5924   1.910   3.367  10.622  0.5790 -0.0361 -0.0309
  393TMC3    C5 5925   1.856   3.263  10.704  0.3705  0.1112  0.7125
  393TMC3    C6 5926   1.762   3.179  10.645 -0.2927 -0.2658  0.4037
  393TMC3     C 5927   1.960   3.476  10.422 -0.4501  0.5614  0.1635
  393TMC3     O 5928   2.049   3.536  10.481 -0.0337 -0.2925  0.4395
  393TMC3     H 5929   1.790   3.277  10.328  1.0068  0.1045 -0.2904
  393TMC3    H1 5930   1.990   3.430  10.660 -1.7401  3.7565 -1.4199
  393TMC3    H2 5931   1.719   3.093  10.695  0.7859 -1.6582 -1.0828
  393TMC3    C7 5932   1.946   3.213  10.809 -0.0108 -0.5329  0.6236
  393TMC3    C8 5933   1.642   3.094  10.457  0.3707  0.0805 -0.1276
  393TMC3    O1 5934   2.061   3.240  10.774 -0.3597  0.1424 -0.0168
  393TMC3    O2 5935   1.595   3.015  10.540  0.0581 -0.5308 -0.6913
  394TMC3    C1 5936   3.811   3.607  10.601 -0.1907  0.1426 -0.4339
  394TMC3    C2 5937   3.692   3.594  10.535 -0.1010 -0.5088  0.1465
  394TMC3    C3 5938   3.701   3.588  10.394  0.1554 -0.2224  0.2373
  394TMC3    C4 5939   3.932   3.617  10.544 -0.7157 -0.6877 -0.3431
  394TMC3    C5 5940   3.934   3.611  10.410  0.2690 -0.1087 -0.0888
  394TMC3    C6 5941   3.823   3.595  10.330  0.3129  0.4542 -0.0290
  394TMC3     C 5942   3.803   3.575  10.738  0.4396  0.2599 -0.1388
  394TMC3     O 5943   3.702   3.518  10.783  0.3633 -0.3067 -0.1203
  394TMC3     H 5944   3.599   3.585  10.591 -0.8435  0.4510 -0.9429
  394TMC3    H1 5945   4.024   3.629  10.600 -1.1405 -1.0648  0.4393
  394TMC3    H2 5946   3.828   3.586  10.222  0.6570  0.0312  0.0207
  394TMC3    C7 5947   4.064   3.610  10.342 -0.1355 -0.1900 -0.4738
  394TMC3    C8 5948   3.611   3.497  10.325  0.1334 -0.0716 -0.3236
  394TMC3    O1 5949   4.086   3.674  10.240 -0.0495 -0.5005 -0.1678
  394TMC3    O2 5950   3.640   3.440  10.219 -0.3697 -0.2061  0.3553
  395TMC3    C1 5951   4.126   0.604  14.743 -1.0531  0.5502  0.0977
  395TMC3    C2 5952   3.990   0.631  14.723  0.3720 -0.8184  1.1195
  395TMC3    C3 5953   3.947   0.756  14.687 -0.6362 -0.0851 -0.3911
  395TMC3    C4 5954   4.219   0.702  14.739 -0.1733  0.2620  0.5865
  395TMC3    C5 5955   4.166   0.829  14.718  0.8202  0.0948 -0.4229
  395TMC3    C6 5956   4.034   0.859  14.696  0.8676  0.7383  0.1463
  395TMC3     C 5957   4.178   0.480  14.787  0.3359 -0.4964 -1.0053
  395TMC3     O 5958   4.301   0.463  14.757 -0.0582  0.2463  0.0350
  395TMC3     H 5959   3.927   0.544  14.735  0.3053 -1.1495 -1.5241
  395TMC3    H1 5960   4.321   0.678  14.765 -0.1825  0.3028  0.6595
  395TMC3    H2 5961   4.005   0.963  14.686 -0.8700  0.3874  1.5142
  395TMC3    C7 5962   4.261   0.924  14.688 -0.6819  0.0309  0.4413
  395TMC3    C8 5963   3.804   0.781  14.672  0.5528 -1.0819  0.2248
  395TMC3    O1 5964   4.239   1.040  14.730 -0.1579  0.0705  0.8018
  395TMC3    O2 5965   3.770   0.877  14.735  0.6461 -0.2968  0.7530
  396MPD2     C 5966   3.541   1.908  17.203  0.7114 -0.0964  0.5548
  396MPD2    C1 5967   3.667   1.858  17.236  0.3033  0.9995 -0.3880
  396MPD2    C2 5968   3.764   1.868  17.137  0.9131  0.3979  0.3182
  396MPD2    C3 5969   3.733   1.923  17.008 -0.3473  0.0674 -0.5454
  396MPD2    C4 5970   3.606   1.956  16.980  0.0287  0.2902 -0.1821
  396MPD2    C5 5971   3.513   1.941  17.074 -0.7978 -0.1252 -0.4491
  396MPD2     H 5972   3.866   1.832  17.151  0.0447 -1.6836  1.2931
  396MPD2    H1 5973   3.589   1.995  16.880  2.0321  1.9292  0.1211
  396MPD2    H2 5974   3.451   1.910  17.263 -1.4851  3.0478 -2.8766
  396MPD2    H3 5975   3.415   1.972  17.040 -1.2952 -1.3087 -0.0756
  396MPD2     N 5976   3.840   1.917  16.918  0.3757 -0.1814 -0.1278
  396MPD2    H5 5977   3.933   1.899  16.953  1.0736 -2.4433 -3.1453
  396MPD2    N1 5978   3.717   1.797  17.354  0.2109 -0.5325  0.3127
  396MPD2    H7 5979   3.810   1.754  17.358  0.3584 -0.1685  0.7480
  397TMC3    C1 5980   3.685   1.675  17.554 -0.4276 -0.2089 -0.1727
  397TMC3    C2 5981   3.756   1.572  17.503 -0.3182  0.2008 -0.6228
  397TMC3    C3 5982   3.727   1.439  17.539  0.1243  0.7117  0.3607
  397TMC3    C4 5983   3.603   1.653  17.656 -0.5774  0.5100 -0.1178
  397TMC3    C5 5984   3.594   1.527  17.712  0.2953 -0.2368 -0.2274
  397TMC3    C6 5985   3.645   1.417  17.653  0.0719  0.1876 -0.1033
  397TMC3     C 5986   3.627   1.771  17.455  0.2569 -0.4594 -0.5102
  397TMC3     O 5987   3.512   1.809  17.467 -0.0504  0.8487 -0.5284
  397TMC3     H 5988   3.819   1.590  17.416  0.1350 -0.8570 -0.5202
  397TMC3    H1 5989   3.566   1.747  17.694  1.9077  0.3150  2.7624
  397TMC3    H2 5990   3.614   1.319  17.687 -0.4002 -0.1007 -1.3766
  397TMC3    C7 5991   3.529   1.523   0.084 -0.4452  0.0275 -0.2016
  397TMC3    C8 5992   3.746   1.329  17.438 -0.0555 -0.0472 -0.5451
  397TMC3    O1 5993   3.461   1.620   0.109  0.8380  0.5323 -0.1892
  397TMC3    O2 5994   3.780   1.377  17.333 -0.4598 -0.4615 -0.5861
  398MPD2     C 5995   2.225   2.993  17.630 -0.5715 -0.4099  0.6921
  398MPD2    C1 5996   2.349   2.949  17.671 -0.4492  0.0721 -0.1905
  398MPD2    C2 5997   2.406   3.011   0.024  0.4459  0.4397 -0.2252
  398MPD2    C3 5998   2.349   3.118   0.082 -0.0392  0.0839 -0.4245
  398MPD2    C4 5999   2.230   3.170   0.037  0.5204  0.6913  0.7005
  398MPD2    C5 6000   2.169   3.102  17.686 -0.2075 -0.0725  0.3034
  398MPD2     H 6001   2.503   2.980   0.064 -0.3511 -2.1176 -0.2728
  398MPD2    H1 6002   2.179   3.257   0.077  0.0362  0.6166  0.2483
  398MPD2    H2 6003   2.168   2.940  17.555  0.0620  1.2472 -0.9694
  398MPD2    H3 6004   2.070   3.125  17.649  0.1018 -1.0794 -1.1612
  398MPD2     N 6005   2.421   3.169   0.193 -0.0318  0.3658  0.0933
  398MPD2    H5 6006   2.511   3.126   0.214 -0.3896  0.3763  1.6354
  398MPD2    N1 6007   2.419   2.838  17.619  0.0572 -0.3120 -0.5621
  398MPD2    H7 6008   2.506   2.811  17.663  0.9089  0.3821 -1.8068
  399TMC3    C1 6009   2.483   2.652  17.487  0.0894  0.1833 -0.3779
  399TMC3    C2 6010   2.605   2.665  17.545 -0.1595 -0.6073  0.2193
  399TMC3    C3 6011   2.684   2.558  17.559  0.0966 -0.4784 -0.0695
  399TMC3    C4 6012   2.431   2.532  17.446 -0.2620  0.3664  0.6391
  399TMC3    C5 6013   2.518   2.423  17.467 -0.2314  0.2471 -0.3002
  399TMC3    C6 6014   2.644   2.435  17.514 -0.4546  0.0885 -0.3553
  399TMC3     C 6015   2.380   2.758  17.513 -0.4604 -0.2164  0.5330
  399TMC3     O 6016   2.285   2.765  17.440  0.0748 -0.2456 -0.2527
  399TMC3     H 6017   2.645   2.766  17.554 -2.4860  0.2533  0.9739
  399TMC3    H1 6018   2.324   2.529  17.425 -0.2140 -1.7816  0.7164
  399TMC3    H2 6019   2.700   2.344  17.534 -0.9662  0.0979  1.1479
  399TMC3    C7 6020   2.468   2.290  17.438  0.2048  0.0077 -0.0040
  399TMC3    C8 6021   2.786   2.571  17.666  0.8309 -0.1977  0.4189
  399TMC3    O1 6022   2.530   2.197  17.488  0.4875 -0.0338 -0.1849
  399TMC3    O2 6023   2.797   2.684  17.706 -0.5761  0.5383 -0.8040
  400TMC3    C1 6024   0.530   0.731  17.023  0.2178  0.0097 -0.0926
  400TMC3    C2 6025   0.416   0.646  17.020  0.3881  0.2598  0.2317
  400TMC3    C3 6026   0.309   0.700  16.969  0.7953 -0.7033 -1.0149
  400TMC3    C4 6027   0.523   0.858  16.972  0.7883 -0.2279 -0.4319
  400TMC3    C5 6028   0.407   0.900  16.917  0.4758  0.2028  0.4394
  400TMC3    C6 6029   0.294   0.828  16.916 -0.3378 -0.1379  0.6591
  400TMC3     C 6030   0.641   0.693  17.111 -0.5375  0.6324 -0.1637
  400TMC3     O 6031   0.742   0.760  17.120 -0.3601 -0.1869 -0.4171
  400TMC3     H 6032   0.411   0.545  17.057 -2.1787  0.2070 -0.2676
  400TMC3    H1 6033   0.612   0.920  16.973 -1.1296  2.5438  0.4392
  400TMC3    H2 6034   0.203   0.885  16.931 -0.3482  0.7279 -2.6685
  400TMC3    C7 6035   0.419   1.028  16.847 -0.1148 -0.2979 -0.7246
  400TMC3    C8 6036   0.182   0.624  17.006  0.4371  0.3420 -0.7231
  400TMC3    O1 6037   0.530   1.083  16.840  0.0071  0.0615  0.7286
  400TMC3    O2 6038   0.188   0.548  17.101 -0.0644  0.2357 -0.1161
  401MPD2     C 6039   3.567   4.598   1.059  0.0911 -0.3089  0.2513
  401MPD2    C1 6040   3.696   4.575   1.082 -0.1705 -0.7516 -0.8428
  401MPD2    C2 6041   3.766   4.491   1.001 -0.5674 -0.6349 -0.2631
  401MPD2    C3 6042   3.697   4.412   0.908  0.4559 -0.3324  0.2519
  401MPD2    C4 6043   3.564   4.448   0.876 -0.0023  0.1396 -0.0404
  401MPD2    C5 6044   3.499   4.539   0.957  0.1361  0.6804 -0.2867
  401MPD2     H 6045   3.873   4.477   1.008 -0.5968 -1.3857 -1.5123
  401MPD2    H1 6046   3.514   4.389   0.801 -0.0613  1.1853 -0.8239
  401MPD2    H2 6047   3.506   4.661   1.123 -0.5446 -0.1214 -0.5540
  401MPD2    H3 6048   3.392   4.547   0.943 -0.0490  0.6339  1.0416
  401MPD2     N 6049   3.767   4.304   0.850 -0.0280 -0.2669  0.2489
  401MPD2    H5 6050   3.858   4.288   0.892  0.5971  3.4108  0.3300
  401MPD2    N1 6051   3.769   4.655   1.178 -0.2965 -0.3349 -0.0174
  401MPD2    H7 6052   3.867   4.634   1.189  0.0948  1.0761 -0.8179
  402TMC3    C1 6053   3.832   4.157   0.688  0.3064 -0.3292 -0.4769
  402TMC3    C2 6054   3.925   4.116   0.781  0.2266  0.0793 -0.1359
  402TMC3    C3 6055   4.034   4.055   0.725  0.0024  0.0237 -0.4716
  402TMC3    C4 6056   3.831   4.140   0.558 -0.1952 -0.1179 -0.3920
  402TMC3    C5 6057   3.934   4.062   0.512 -0.0908  0.2301  0.5482
  402TMC3    C6 6058   4.040   4.029   0.596 -0.2858  0.6070 -0.2355
  402TMC3     C 6059   3.722   4.235   0.738 -0.4985  0.4119  0.0996
  402TMC3     O 6060   3.617   4.235   0.675  0.3688 -0.5559  0.4008
  402TMC3     H 6061   3.912   4.111   0.888  0.8533  3.1629  0.0912
  402TMC3    H1 6062   3.740   4.163   0.503 -2.0268 -2.8826  1.4662
  402TMC3    H2 6063   4.133   3.985   0.562  0.8825  2.5029  0.5246
  402TMC3    C7 6064   3.941   4.037   0.370 -0.1526 -0.1862  0.5949
  402TMC3    C8 6065   4.159   4.042   0.804  0.8503  0.0799  0.2591
  402TMC3    O1 6066   3.842   4.051   0.301  0.0969 -0.8107  0.4256
  402TMC3    O2 6067   4.244   3.971   0.752 -0.0365  0.5374 -0.0466
  403MPD2     C 6068   1.698   3.186  13.592 -0.1446 -0.2991 -0.3892
  403MPD2    C1 6069   1.747   3.056  13.599 -0.1444  0.1311 -0.0167
  403MPD2    C2 6070   1.881   3.040  13.644 -0.9318  0.0079 -0.7688
  403MPD2    C3 6071   1.953   3.148  13.689  0.3169  0.1815  0.6271
  403MPD2    C4 6072   1.900   3.273  13.689 -0.9098  0.1315 -0.1111
  403MPD2    C5 6073   1.780   3.291  13.634  0.7335 -0.6305  0.2189
  403MPD2     H 6074   1.926   2.942  13.634 -0.5020  0.1633 -0.3729
  403MPD2    H1 6075   1.969   3.350  13.721 -0.9575  0.4867 -0.8757
  403MPD2    H2 6076   1.602   3.204  13.543  0.0722 -0.5904 -0.9254
  403MPD2    H3 6077   1.741   3.392  13.632 -2.4892 -1.8372  1.8208
  403MPD2     N 6078   2.085   3.120  13.732  0.3014 -0.2702  0.4004
  403MPD2    H5 6079   2.107   3.020  13.727  0.8688 -0.1043 -0.4921
  403MPD2    N1 6080   1.675   2.953  13.540 -0.1246 -0.2861  0.0433
  403MPD2    H7 6081   1.595   2.973  13.480  0.0149  1.3803  0.4163
  404TMC3    C1 6082   1.610   2.731  13.488  0.2048  1.0363 -0.4657
  404TMC3    C2 6083   1.596   2.606  13.543 -1.1221 -0.0898 -0.8563
  404TMC3    C3 6084   1.551   2.508  13.465 -0.0315  0.1549  0.0112
  404TMC3    C4 6085   1.591   2.761  13.355  0.0503 -0.2462 -0.7421
  404TMC3    C5 6086   1.569   2.648  13.279 -1.1539  0.3682 -0.2600
  404TMC3    C6 6087   1.547   2.517  13.325 -0.3267 -0.3283  0.4444
  404TMC3     C 6088   1.694   2.821  13.566  0.3864 -0.2023  0.2542
  404TMC3     O 6089   1.762   2.775  13.654  0.2027  0.1234 -0.2756
  404TMC3     H 6090   1.618   2.595  13.649  1.4145  0.2681 -1.3523
  404TMC3    H1 6091   1.603   2.859  13.310  0.2347  0.6662  1.2767
  404TMC3    H2 6092   1.509   2.434  13.267  0.5709 -0.3841 -0.0749
  404TMC3    C7 6093   1.569   2.677  13.136  0.3468 -0.4450 -0.3942
  404TMC3    C8 6094   1.562   2.377  13.526  0.0099 -0.1052  0.0820
  404TMC3    O1 6095   1.654   2.764  13.109  1.0046 -0.7530 -0.4169
  404TMC3    O2 6096   1.565   2.282  13.446  0.7441  0.1214  0.1370
  405MPD2     C 6097   2.339   3.298  14.853  0.2580 -0.3056 -0.4886
  405MPD2    C1 6098   2.327   3.189  14.767  0.4120 -0.3225  0.4369
  405MPD2    C2 6099   2.274   3.202  14.642 -0.0376  0.2851 -0.1717
  405MPD2    C3 6100   2.223   3.322  14.600  0.6241  0.2773  0.3299
  405MPD2    C4 6101   2.222   3.428  14.691  0.9394 -0.5904  0.1355
  405MPD2    C5 6102   2.279   3.412  14.813 -0.3850 -0.4037 -0.7559
  405MPD2     H 6103   2.254   3.117  14.577 -1.7858 -0.1496  0.9382
  405MPD2    H1 6104   2.170   3.519  14.663  2.4487  0.5629  1.0400
  405MPD2    H2 6105   2.381   3.285  14.952 -1.2648  1.3154  0.3754
  405MPD2    H3 6106   2.267   3.486  14.891  0.7379 -0.7257 -0.2756
  405MPD2     N 6107   2.163   3.327  14.477 -0.5994  0.2746  0.2346
  405MPD2    H5 6108   2.169   3.243  14.419  1.6715  0.0236  0.8459
  405MPD2    N1 6109   2.373   3.064  14.817 -0.0798  0.2969 -0.1846
  405MPD2    H7 6110   2.385   3.059  14.918  1.9668  0.2531 -0.4263
  406TMC3    C1 6111   1.841   3.380  14.165  0.2368  0.1169 -0.0187
  406TMC3    C2 6112   1.890   3.267  14.107 -0.1659 -0.4000 -0.9462
  406TMC3    C3 6113   2.014   3.221  14.136 -0.0112  0.1700 -0.0309
  406TMC3    C4 6114   1.904   3.432  14.271 -0.5197 -0.4429 -0.0719
  406TMC3    C5 6115   2.037   3.387  14.289 -0.1103 -1.0038 -0.1049
  406TMC3    C6 6116   2.096   3.286  14.225  0.1938 -0.0385 -0.0966
  406TMC3     C 6117   1.710   3.425  14.137 -0.2724  0.3083 -0.0009
  406TMC3     O 6118   1.673   3.448  14.022 -0.5458 -0.6639  0.0657
  406TMC3     H 6119   1.830   3.221  14.029 -0.2245 -0.8412 -0.6363
  406TMC3    H1 6120   1.869   3.523  14.318 -1.9038 -2.0013  1.9034
  406TMC3    H2 6121   2.193   3.255  14.262 -1.4184 -3.2895  1.4224
  406TMC3    C7 6122   2.084   3.427  14.423  0.1361 -0.0797  0.1862
  406TMC3    C8 6123   2.020   3.078  14.126 -0.5233 -0.1219 -0.4939
  406TMC3    O1 6124   2.030   3.528  14.471  0.0094 -0.0473  0.0241
  406TMC3    O2 6125   1.932   3.023  14.060 -0.4617  0.3066  0.5888
  407MPD2     C 6126   4.301   0.311   9.684  0.4278 -0.5509 -0.7261
  407MPD2    C1 6127   4.424   0.355   9.734 -0.2212 -0.3157 -0.5925
  407MPD2    C2 6128   4.428   0.402   9.865  0.0854  0.9842 -0.1395
  407MPD2    C3 6129   4.316   0.422   9.943 -0.2784 -0.8001 -1.3908
  407MPD2    C4 6130   4.199   0.395   9.884 -0.7115  0.5783 -0.0028
  407MPD2    C5 6131   4.192   0.333   9.762  0.4023  0.9894 -0.3051
  407MPD2     H 6132   4.526   0.443   9.891  0.4728  0.0798 -0.1748
  407MPD2    H1 6133   4.112   0.397   9.948 -0.5104 -1.2147  0.3442
  407MPD2    H2 6134   4.287   0.273   9.584 -0.3830 -0.9647 -0.4646
  407MPD2    H3 6135   4.098   0.307   9.716  0.2361  0.0536  0.5384
  407MPD2     N 6136   4.309   0.499  10.062 -0.6577  0.1846 -0.2524
  407MPD2    H5 6137   4.219   0.521  10.104 -1.2354 -0.2798 -1.2653
  407MPD2    N1 6138   4.542   0.364   9.662  0.1208  0.3328 -0.0768
  407MPD2    H7 6139   4.613   0.429   9.696  0.8316 -0.8696  0.7491
  408TMC3    C1 6140   4.704   0.307   9.505  0.1109  0.2595 -0.5143
  408TMC3    C2 6141   0.055   0.208   9.508  0.0924 -0.5288 -0.4651
  408TMC3    C3 6142   0.190   0.240   9.534  0.3810  0.3216 -0.3063
  408TMC3    C4 6143   0.005   0.442   9.506  0.1246 -0.3236  0.6200
  408TMC3    C5 6144   0.143   0.466   9.521 -0.2207  0.2406  0.1626
  408TMC3    C6 6145   0.234   0.372   9.545  0.9506 -0.4631  0.0291
  408TMC3     C 6146   4.577   0.275   9.561 -1.1063 -0.0948 -0.1122
  408TMC3     O 6147   4.527   0.166   9.530  0.2546  0.1871 -0.6230
  408TMC3     H 6148   0.015   0.107   9.513 -0.0103 -0.4206  1.0515
  408TMC3    H1 6149   4.676   0.526   9.511  2.1992  1.3427  1.0520
  408TMC3    H2 6150   0.339   0.400   9.550  0.9742 -0.3930 -0.8855
  408TMC3    C7 6151   0.197   0.599   9.548  0.6700 -0.4997 -0.5603
  408TMC3    C8 6152   0.286   0.134   9.568  0.3430 -1.2375 -0.9620
  408TMC3    O1 6153   0.288   0.611   9.625  0.7627 -0.6772  0.0145
  408TMC3    O2 6154   0.270   0.025   9.513 -0.0368 -0.2150 -0.1289
  409MPD2     C 6155   3.957   0.385  17.239  0.6593 -0.1371 -0.0169
  409MPD2    C1 6156   4.088   0.395  17.290 -0.0178  0.5113  0.2557
  409MPD2    C2 6157   4.169   0.499  17.247  0.2897 -0.0297 -0.0565
  409MPD2    C3 6158   4.118   0.615  17.188  0.2646 -0.8276 -0.2454
  409MPD2    C4 6159   3.984   0.610  17.152 -0.0822 -0.1256 -1.0123
  409MPD2    C5 6160   3.904   0.500  17.182  0.1057  0.1847  0.2841
  409MPD2     H 6161   4.275   0.501  17.269 -0.0642 -0.8506  1.8068
  409MPD2    H1 6162   3.932   0.696  17.112 -1.4645 -1.5969 -2.3416
  409MPD2    H2 6163   3.895   0.300  17.264  0.0710  0.0528 -0.8319
  409MPD2    H3 6164   3.801   0.517  17.151  0.0915 -1.8476 -0.7459
  409MPD2     N 6165   4.197   0.730  17.174  0.2291 -0.1835  0.4500
  409MPD2    H5 6166   4.151   0.812  17.134 -1.6789 -0.8273  1.3097
  409MPD2    N1 6167   4.148   0.299  17.375 -0.2221 -0.1019  0.0076
  409MPD2    H7 6168   4.243   0.311  17.408 -0.4488  2.3894 -0.2648
  410TMC3    C1 6169   4.386   0.871  17.165  0.0189 -0.4799  0.8728
  410TMC3    C2 6170   4.516   0.892  17.206 -0.3295  0.0759  0.0006
  410TMC3    C3 6171   4.606   0.949  17.128  0.1288 -0.4890  0.1416
  410TMC3    C4 6172   4.350   0.916  17.046 -0.8258 -0.1614  0.0498
  410TMC3    C5 6173   4.441   0.984  16.966 -0.2687 -0.2582  0.0285
  410TMC3    C6 6174   4.572   0.992  17.001 -0.3224 -0.2771  0.0425
  410TMC3     C 6175   4.326   0.749  17.212 -0.7707  0.6660  1.0575
  410TMC3     O 6176   4.397   0.683  17.282  0.6016 -0.0005 -0.2033
  410TMC3     H 6177   4.542   0.874  17.310 -0.4402  0.7010  0.1340
  410TMC3    H1 6178   4.254   0.896  17.000 -1.1338 -2.7143  1.7572
  410TMC3    H2 6179   4.648   1.025  16.932 -0.2413 -1.4012 -0.4139
  410TMC3    C7 6180   4.399   1.026  16.831 -0.5040  0.2038  0.6462
  410TMC3    C8 6181   0.006   0.942  17.164  0.2901 -1.2002 -0.3274
  410TMC3    O1 6182   4.308   0.964  16.785  0.2867  0.7350  0.4253
  410TMC3    O2 6183   0.082   1.010  17.095  0.2224  0.4660  0.1971
  411MPD2     C 6184   4.552   1.432  14.475  0.3237 -0.0345  0.0398
  411MPD2    C1 6185   4.421   1.434  14.519  0.2428 -0.3919  0.3627
  411MPD2    C2 6186   4.332   1.341  14.470  0.1171  0.4635  0.1932
  411MPD2    C3 6187   4.379   1.247  14.383  0.5580 -0.5988 -0.0000
  411MPD2    C4 6188   4.511   1.253  14.335  0.4527 -0.2935  0.1162
  411MPD2    C5 6189   4.591   1.355  14.370 -0.0856 -0.5343 -0.1534
  411MPD2     H 6190   4.234   1.343  14.516  0.0547  2.3471  0.0030
  411MPD2    H1 6191   4.557   1.188  14.262  0.2432 -0.4941  0.1642
  411MPD2    H2 6192   4.626   1.508  14.500  0.9909 -0.4711 -0.6299
  411MPD2    H3 6193   4.695   1.343  14.342 -0.3880  1.9475 -2.3640
  411MPD2     N 6194   4.293   1.161  14.318 -0.2114 -0.2620  0.7320
  411MPD2    H5 6195   4.338   1.097  14.253  0.4269 -0.5455  1.4540
  411MPD2    N1 6196   4.367   1.524  14.612 -0.4360 -0.0689 -0.4487
  411MPD2    H7 6197   4.269   1.505  14.633 -0.9531  0.3246 -2.5278
  412TMC3    C1 6198   4.100   1.049  14.259  0.5493 -0.8985 -0.5905
  412TMC3    C2 6199   4.037   0.938  14.302 -0.8760 -0.2745 -0.2501
  412TMC3    C3 6200   4.004   0.850  14.198 -0.2172 -0.1669  0.1646
  412TMC3    C4 6201   4.126   1.086  14.125  0.4826  0.4685 -0.2890
  412TMC3    C5 6202   4.090   0.996  14.034  0.7321 -0.4893  0.0198
  412TMC3    C6 6203   4.046   0.875  14.070 -0.1457 -1.1609 -0.2793
  412TMC3     C 6204   4.163   1.129  14.361  0.5081 -0.1288  0.2670
  412TMC3     O 6205   4.106   1.133  14.472 -0.3705 -0.6460  0.0805
  412TMC3     H 6206   3.994   0.937  14.402 -3.3288 -0.2402 -1.3152
  412TMC3    H1 6207   4.175   1.181  14.104  1.0041  0.1869 -0.3421
  412TMC3    H2 6208   4.010   0.810  13.991 -0.4436 -2.2019  0.7121
  412TMC3    C7 6209   4.004   1.048  13.930 -0.5634  1.0534 -0.4725
  412TMC3    C8 6210   3.873   0.788  14.208  0.4877  0.5518  0.6430
  412TMC3    O1 6211   3.899   0.988  13.914 -0.4098  0.5794  0.1291
  412TMC3    O2 6212   3.833   0.740  14.313  0.4304  0.3300 -0.0368
  413MPD2     C 6213   1.300   4.719  15.235 -0.2568 -0.2227  0.2661
  413MPD2    C1 6214   1.228   4.657  15.131 -0.1588 -0.2459 -0.3885
  413MPD2    C2 6215   1.289   4.550  15.063 -0.1913 -0.6402 -0.6844
  413MPD2    C3 6216   1.422   4.520  15.085 -0.0816  0.0977  0.9674
  413MPD2    C4 6217   1.491   4.585  15.181 -0.4696  0.6073 -0.2795
  413MPD2    C5 6218   1.428   4.681  15.260 -1.0558  0.1349 -0.2171
  413MPD2     H 6219   1.230   4.513  14.980 -2.2702 -0.9212  0.9086
  413MPD2    H1 6220   1.597   4.566  15.195 -0.6777 -0.8461 -0.7384
  413MPD2    H2 6221   1.256   0.062  15.290  0.9541 -0.5154  1.6479
  413MPD2    H3 6222   1.486   4.721  15.343 -2.0768  0.3987  0.3663
  413MPD2     N 6223   1.469   4.411  15.008 -0.3706  0.0165 -0.1846
  413MPD2    H5 6224   1.413   4.372  14.933 -0.4542  3.1352 -1.7523
  413MPD2    N1 6225   1.090   4.686  15.100  0.8454  0.2027 -1.1658
  413MPD2    H7 6226   1.049   4.612  15.044 -0.2709  0.3758 -0.5735
  414TMC3    C1 6227   1.605   4.229  14.959 -0.3614  0.3142  1.0066
  414TMC3    C2 6228   1.666   4.123  15.020  0.9644 -0.1588 -0.2715
  414TMC3    C3 6229   1.628   3.990  14.983  0.1492 -0.2212 -0.3872
  414TMC3    C4 6230   1.534   4.220  14.847 -0.5349  0.6346 -0.2257
  414TMC3    C5 6231   1.493   4.086  14.816 -0.4463  0.7541  0.3155
  414TMC3    C6 6232   1.534   3.975  14.885 -0.1810 -0.0670 -0.4331
  414TMC3     C 6233   1.599   4.354  15.033  0.7333  0.4591 -0.1698
  414TMC3     O 6234   1.674   4.370  15.126  0.0059 -0.1769 -0.0534
  414TMC3     H 6235   1.725   4.139  15.110  4.0032  0.7671 -2.4524
  414TMC3    H1 6236   1.485   4.295  14.786 -0.4044  1.7400  1.0334
  414TMC3    H2 6237   1.507   3.877  14.845 -0.1811  0.3470 -1.4373
  414TMC3    C7 6238   1.401   4.080  14.706 -0.3808  0.0408 -0.2920
  414TMC3    C8 6239   1.721   3.886  14.997  0.3626  0.0005 -0.5861
  414TMC3    O1 6240   1.303   4.149  14.739  0.7621  0.0588  0.8708
  414TMC3    O2 6241   1.695   3.792  14.923 -0.4852 -0.0902  0.5270
  415TMC3    C1 6242   2.931   2.921   9.796 -0.3057  0.2164  0.3609
  415TMC3    C2 6243   3.059   2.930   9.754 -0.5250  1.0569  0.1478
  415TMC3    C3 6244   3.131   2.823   9.710 -0.0335 -0.3562 -0.0493
  415TMC3    C4 6245   2.865   2.800   9.782  0.0888  0.0940  0.2150
  415TMC3    C5 6246   2.932   2.696   9.722  0.7400 -0.2354 -1.4469
  415TMC3    C6 6247   3.066   2.706   9.686  0.5373  0.0955 -0.5056
  415TMC3     C 6248   2.903   2.990   9.925  0.1018  0.5367  0.7752
  415TMC3     O 6249   2.998   3.029   9.992  0.4775  0.5073 -0.6172
  415TMC3     H 6250   3.101   3.026   9.782  0.1781  0.9075 -0.4070
  415TMC3    H1 6251   2.765   2.783   9.819 -0.0729 -2.3309 -1.3615
  415TMC3    H2 6252   3.108   2.616   9.641  0.4994  0.7192 -1.7730
  415TMC3    C7 6253   2.854   2.597   9.648  0.0420 -0.0129  0.7418
  415TMC3    C8 6254   3.210   2.855   9.591  0.8877  0.4291 -0.2286
  415TMC3    O1 6255   2.895   2.572   9.535 -0.4288 -0.7087  0.3501
  415TMC3    O2 6256   3.198   2.774   9.499 -0.1099  0.6107 -0.7524
  416MPD2     C 6257   3.292   1.401  11.058 -0.2961  0.1012  0.0792
  416MPD2    C1 6258   3.257   1.392  11.190 -0.0116 -0.0275 -0.2510
  416MPD2    C2 6259   3.188   1.273  11.236 -0.5306  0.5976 -0.4331
  416MPD2    C3 6260   3.189   1.166  11.157  0.9470 -0.2201 -0.3400
  416MPD2    C4 6261   3.242   1.170  11.029 -0.1611  0.1109 -0.4093
  416MPD2    C5 6262   3.290   1.291  10.979 -0.6616  0.2366  0.4670
  416MPD2     H 6263   3.136   1.271  11.331  0.2108  0.8271 -0.0244
  416MPD2    H1 6264   3.225   1.088  10.961  0.1517 -0.2194 -0.0903
  416MPD2    H2 6265   3.335   1.489  11.012  0.2223  0.8220  1.9450
  416MPD2    H3 6266   3.340   1.299  10.883 -1.3193 -0.6679  0.0558
  416MPD2     N 6267   3.124   1.050  11.208  0.0797  0.1571  0.4006
  416MPD2    H5 6268   3.107   1.050  11.308  1.3470 -1.8620  0.6199
  416MPD2    N1 6269   3.275   1.504  11.275 -0.2966  0.9618  0.2960
  416MPD2    H7 6270   3.315   1.587  11.231  0.1713  1.5264  1.7687
  417TMC3    C1 6271   3.275   1.628  11.479  0.9452  0.3433  0.3346
  417TMC3    C2 6272   3.293   1.611  11.612  0.7428  0.0268  0.2755
  417TMC3    C3 6273   3.244   1.704  11.699 -0.4930 -0.4485 -0.1161
  417TMC3    C4 6274   3.219   1.738  11.428  0.0664  0.3503  0.0395
  417TMC3    C5 6275   3.186   1.830  11.518  0.0796 -0.4990  0.0656
  417TMC3    C6 6276   3.188   1.819  11.653  0.8873  0.8600 -0.4925
  417TMC3     C 6277   3.247   1.502  11.411 -0.1125 -0.2555 -0.0133
  417TMC3     O 6278   3.222   1.410  11.482  0.2464  0.1751  0.3821
  417TMC3     H 6279   3.338   1.518  11.645 -1.5853 -0.9588  0.7079
  417TMC3    H1 6280   3.214   1.760  11.322 -0.7443  2.5429  0.5325
  417TMC3    H2 6281   3.170   1.907  11.714  0.2304  0.2562  0.1759
  417TMC3    C7 6282   3.078   1.915  11.468  0.8795  0.2421  0.0165
  417TMC3    C8 6283   3.214   1.679  11.842  0.0388 -0.5282  0.1366
  417TMC3    O1 6284   3.098   1.967  11.359 -0.2915 -0.4193 -0.6048
  417TMC3    O2 6285   3.183   1.782  11.896 -0.2936  1.0587  0.0705
  418TMC3    C1 6286   2.693   3.259   0.421 -0.2380  0.2343 -0.3751
  418TMC3    C2 6287   2.582   3.305   0.365 -0.0920  0.0288  0.2125
  418TMC3    C3 6288   2.457   3.261   0.394  0.2420 -0.6190  0.7048
  418TMC3    C4 6289   2.678   3.161   0.516 -0.2714  0.0629 -0.3089
  418TMC3    C5 6290   2.552   3.111   0.551  0.1004  0.6070 -0.1255
  418TMC3    C6 6291   2.444   3.149   0.480 -0.3198  0.1024  0.3113
  418TMC3     C 6292   2.830   3.316   0.404 -0.0487  0.0603  1.0218
  418TMC3     O 6293   2.831   3.404   0.318 -0.1664 -0.1273 -0.1070
  418TMC3     H 6294   2.592   3.376   0.284 -0.6140  0.7886  0.8160
  418TMC3    H1 6295   2.766   3.126   0.568 -1.5652 -0.3682  1.5892
  418TMC3    H2 6296   2.347   3.102   0.488 -1.0467  1.3869 -0.7895
  418TMC3    C7 6297   2.537   2.991   0.626 -0.4350  0.0339  0.4398
  418TMC3    C8 6298   2.364   3.253   0.288  0.5653  0.1009 -0.0394
  418TMC3    O1 6299   2.620   2.907   0.603 -0.1724  0.8529 -0.6124
  418TMC3    O2 6300   2.248   3.289   0.300  0.6006 -0.2695  0.1519
  419MPD2     C 6301   0.678   1.263  12.307 -0.0506  0.6010 -0.1394
  419MPD2    C1 6302   0.654   1.393  12.337  0.6840 -0.2365 -0.4002
  419MPD2    C2 6303   0.579   1.419  12.454  0.4106  0.1047 -0.2044
  419MPD2    C3 6304   0.547   1.317  12.538 -0.1317 -0.4067 -0.3377
  419MPD2    C4 6305   0.588   1.186  12.504  0.3221 -0.4617 -0.1265
  419MPD2    C5 6306   0.648   1.162  12.387  0.0565  0.5721  0.2964
  419MPD2     H 6307   0.553   1.523  12.466 -1.5840 -0.1825 -2.0413
  419MPD2    H1 6308   0.563   1.100  12.565  1.0968 -1.2412 -0.9071
  419MPD2    H2 6309   0.727   1.231  12.215 -1.7640  0.5428 -1.0428
  419MPD2    H3 6310   0.664   1.060  12.352 -1.1193  0.4309  0.1770
  419MPD2     N 6311   0.485   1.352  12.656 -0.5745 -0.4561 -0.3567
  419MPD2    H5 6312   0.468   1.451  12.673 -2.3801 -0.9226  0.5428
  419MPD2    N1 6313   0.688   1.494  12.250 -0.2184 -0.7435 -0.3939
  419MPD2    H7 6314   0.641   1.583  12.258  0.6832 -0.2939 -0.1495
  420TMC3    C1 6315   0.430   1.359  12.876 -0.6896  0.4432  0.6637
  420TMC3    C2 6316   0.357   1.469  12.849 -0.3036 -0.6589 -0.0152
  420TMC3    C3 6317   0.334   1.553  12.950  0.1585 -0.0627 -0.1347
  420TMC3    C4 6318   0.492   1.341  12.992  0.4531  0.3664 -0.0688
  420TMC3    C5 6319   0.477   1.434  13.087  0.4733  0.1256  0.1083
  420TMC3    C6 6320   0.398   1.541  13.074  0.5219  0.7141  0.2688
  420TMC3     C 6321   0.458   1.273  12.763 -0.3843 -0.4734 -0.4706
  420TMC3     O 6322   0.484   1.154  12.783  0.0820  0.0110 -0.1378
  420TMC3     H 6323   0.297   1.474  12.759 -2.4808 -0.0811  1.4894
  420TMC3    H1 6324   0.548   1.249  12.998 -0.1542  0.0178  0.2617
  420TMC3    H2 6325   0.377   1.609  13.156  2.4802  1.8980 -0.2011
  420TMC3    C7 6326   0.531   1.419  13.219 -0.3595 -0.2923 -0.3865
  420TMC3    C8 6327   0.274   1.679  12.921 -0.0672  0.4198  0.2118
  420TMC3    O1 6328   0.461   1.451  13.313 -0.0594 -0.3606  0.0605
  420TMC3    O2 6329   0.190   1.683  12.832 -0.0952  0.2712 -0.4561
  421TMC3    C1 6330   2.291   3.137  13.831  0.8442 -0.0656  0.4229
  421TMC3    C2 6331   2.405   3.213  13.845  0.0135  0.2603  0.6053
  421TMC3    C3 6332   2.522   3.159  13.878  0.8957  0.1038 -0.1180
  421TMC3    C4 6333   2.299   3.004  13.857  0.2169  0.5088  0.0161
  421TMC3    C5 6334   2.410   2.951  13.912  0.4340 -0.2733  0.6599
  421TMC3    C6 6335   2.524   3.028  13.915 -0.1641  0.0372 -0.3501
  421TMC3     C 6336   2.178   3.206  13.786  0.5882  0.2242  0.0496
  421TMC3     O 6337   2.184   3.329  13.795  0.6649  0.6782 -0.3169
  421TMC3     H 6338   2.410   3.305  13.788  0.0382  0.1182  0.3764
  421TMC3    H1 6339   2.205   2.954  13.874  0.6643 -0.5425 -0.6082
  421TMC3    H2 6340   2.619   2.979  13.935 -0.4532 -1.3212 -2.2502
  421TMC3    C7 6341   2.433   2.815  13.957 -0.5370 -0.0217 -0.1239
  421TMC3    C8 6342   2.643   3.222  13.826 -0.1613 -0.2375  0.3719
  421TMC3    O1 6343   2.524   2.799  14.037  0.7592 -0.0539 -0.2059
  421TMC3    O2 6344   2.631   3.337  13.782  0.7645 -0.4033 -0.6247
  422TMC3    C1 6345   4.381   4.301  12.609  0.0553  1.1674  0.0913
  422TMC3    C2 6346   4.369   4.425  12.667  0.2919  0.3471 -0.5711
  422TMC3    C3 6347   4.240   4.472  12.678 -0.2269 -0.3638 -0.0718
  422TMC3    C4 6348   4.268   4.224  12.581  0.5942 -0.1200 -0.2749
  422TMC3    C5 6349   4.144   4.276  12.602 -0.6029  0.0214 -0.2648
  422TMC3    C6 6350   4.125   4.401  12.651  0.1935  0.2906  0.2800
  422TMC3     C 6351   4.512   4.269  12.550  0.8691 -0.7712 -0.5856
  422TMC3     O 6352   4.597   4.357  12.532 -0.6992 -0.3499  0.1578
  422TMC3     H 6353   4.451   4.493  12.688  1.3144 -0.9640 -0.3763
  422TMC3    H1 6354   4.279   4.123  12.544 -0.8624 -0.7984  1.1150
  422TMC3    H2 6355   4.027   4.446  12.664  0.0074 -0.6206  2.1134
  422TMC3    C7 6356   4.030   4.193  12.559  0.3602 -0.1666  0.0867
  422TMC3    C8 6357   4.222   4.603  12.733  0.1930 -0.4568 -0.1359
  422TMC3    O1 6358   4.056   4.102  12.483 -0.4521 -0.3109 -0.8007
  422TMC3    O2 6359   4.294   4.690  12.687  0.1631 -0.1403 -0.1722
  423MPD2     C 6360   1.221   4.572   0.509 -0.0826 -0.5177  0.7885
  423MPD2    C1 6361   1.308   4.648   0.439 -0.1830  0.0942 -0.7144
  423MPD2    C2 6362   1.305   4.627   0.298  0.0274  0.1556 -0.5164
  423MPD2    C3 6363   1.223   4.534   0.237  0.0532 -0.3218  0.2479
  423MPD2    C4 6364   1.145   4.456   0.314 -0.3664  0.0962  0.7749
  423MPD2    C5 6365   1.138   4.476   0.448  0.2845  0.0208  0.3947
  423MPD2     H 6366   1.374   4.672   0.228 -0.7932  0.1941 -1.2962
  423MPD2    H1 6367   1.102   4.362   0.280  1.4598 -0.4661 -0.0167
  423MPD2    H2 6368   1.217   4.585   0.617 -1.7304 -2.6892  0.9875
  423MPD2    H3 6369   1.071   4.421   0.513 -0.5838 -0.6145 -1.0218
  423MPD2     N 6370   1.220   4.516   0.091  0.1697 -0.0599 -0.0202
  423MPD2    H5 6371   1.158   4.444   0.057  0.6837 -1.8787  2.8472
  423MPD2    N1 6372   1.392   0.008   0.495  0.3956  0.2213  0.1748
  423MPD2    H7 6373   1.455   0.061   0.435 -0.3085  1.3067  0.3851
  424TMC3    C1 6374   1.478   0.155   0.670 -0.1125  0.3196 -0.2257
  424TMC3    C2 6375   1.594   0.179   0.619 -0.3731 -0.4013 -1.0059
  424TMC3    C3 6376   1.671   0.278   0.675  0.4228  0.3246  1.0022
  424TMC3    C4 6377   1.420   0.229   0.776  0.1109  0.4323  0.2088
  424TMC3    C5 6378   1.489   0.343   0.812 -0.0982 -0.1555 -0.0871
  424TMC3    C6 6379   1.620   0.360   0.777 -0.1534  0.0362  0.0716
  424TMC3     C 6380   1.402   0.036   0.632  0.3706  0.1414 -0.5627
  424TMC3     O 6381   1.329   4.737   0.722 -0.1687  0.3655 -0.3960
  424TMC3     H 6382   1.643   0.125   0.538  0.0961 -0.6046 -0.5883
  424TMC3    H1 6383   1.321   0.206   0.814 -0.4470 -1.1795 -2.2050
  424TMC3    H2 6384   1.673   0.445   0.818  0.3225 -0.6826  0.9388
  424TMC3    C7 6385   1.435   0.428   0.922 -0.3099  0.5373 -0.3946
  424TMC3    C8 6386   1.809   0.300   0.619 -0.3723  0.1176  0.7875
  424TMC3    O1 6387   1.509   0.495   0.987 -0.8993  0.2093  0.0767
  424TMC3    O2 6388   1.850   0.214   0.537 -0.1271  0.3261 -0.0664
  425MPD2     C 6389   0.287   4.232  17.642 -0.0154  0.5937 -0.4355
  425MPD2    C1 6390   0.210   4.189  17.537  0.0782 -0.0324 -0.3805
  425MPD2    C2 6391   0.073   4.220  17.533 -0.2588 -0.2822  0.2073
  425MPD2    C3 6392   0.011   4.295  17.637 -0.1442  0.1724  0.0779
  425MPD2    C4 6393   0.087   4.332  17.745  0.0442 -0.2785 -0.4360
  425MPD2    C5 6394   0.226   4.301  17.738  0.5527 -0.4579  0.1424
  425MPD2     H 6395   0.016   4.189  17.445  2.2892  2.7144 -2.4903
  425MPD2    H1 6396   0.042   4.371   0.079  2.0858  0.6395  0.1895
  425MPD2    H2 6397   0.392   4.204  17.640  0.1644  1.2862 -0.8405
  425MPD2    H3 6398   0.289   4.333   0.063  0.5079  0.1551 -0.0605
  425MPD2     N 6399   4.612   4.308  17.619  0.0193  0.0500 -0.3500
  425MPD2    H5 6400   4.572   4.287  17.528  0.3767  1.0196 -0.7335
  425MPD2    N1 6401   0.281   4.119  17.434 -0.7512  0.0310 -0.1229
  425MPD2    H7 6402   0.382   4.113  17.441 -0.7403 -0.2764 -0.5521
  426TMC3    C1 6403   0.329   3.987  17.251  0.6713  0.5969  0.6865
  426TMC3    C2 6404   0.299   3.964  17.119 -0.5601  0.0468  0.8637
  426TMC3    C3 6405   0.371   3.866  17.051 -0.0246 -0.6028 -0.5365
  426TMC3    C4 6406   0.407   3.902  17.314 -0.5216 -0.4305 -0.0539
  426TMC3    C5 6407   0.469   3.800  17.243 -0.4080  0.1354  0.2600
  426TMC3    C6 6408   0.457   3.783  17.110  0.1717  0.4553  0.2497
  426TMC3     C 6409   0.230   4.068  17.321 -0.5768 -0.4943 -0.4555
  426TMC3     O 6410   0.115   4.082  17.274 -0.2120  0.2878 -0.1790
  426TMC3     H 6411   0.218   4.016  17.069 -1.0330 -1.2707  0.2648
  426TMC3    H1 6412   0.415   3.912  17.422 -1.0071 -0.8906  0.0223
  426TMC3    H2 6413   0.507   3.699  17.063 -2.3675 -0.3452 -0.9759
  426TMC3    C7 6414   0.546   3.701  17.319  0.5386  0.4451 -0.5470
  426TMC3    C8 6415   0.355   3.832  16.911  0.2342 -0.3117 -0.1551
  426TMC3    O1 6416   0.629   3.633  17.263 -0.3721  0.3609  0.0127
  426TMC3    O2 6417   0.435   3.752  16.868 -0.4103 -0.3793 -0.2127
  427MPD2     C 6418   3.493   1.132  14.804 -0.1516 -0.3344  0.0175
  427MPD2    C1 6419   3.441   1.162  14.933  0.2586  0.2028  1.0243
  427MPD2    C2 6420   3.317   1.213  14.938 -0.6002 -1.2032  0.2608
  427MPD2    C3 6421   3.237   1.230  14.823  0.6533  0.1144 -0.6983
  427MPD2    C4 6422   3.297   1.195  14.705  0.4070  0.1830  0.6173
  427MPD2    C5 6423   3.427   1.152  14.690  0.0290  0.1253  0.0953
  427MPD2     H 6424   3.283   1.239  15.038  0.3936 -1.3122  0.6355
  427MPD2    H1 6425   3.249   1.196  14.608  3.1271  1.3732 -0.7140
  427MPD2    H2 6426   3.586   1.077  14.790  1.0656  1.1505  2.2431
  427MPD2    H3 6427   3.467   1.131  14.592  0.8097 -1.2904  0.7355
  427MPD2     N 6428   3.103   1.272  14.830  0.0458  0.4110 -0.0285
  427MPD2    H5 6429   3.058   1.292  14.741  0.2953 -1.6132 -0.6077
  427MPD2    N1 6430   3.506   1.112  15.051 -0.2531  0.1722  0.4126
  427MPD2    H7 6431   3.449   1.107  15.134  0.2412 -0.5159  0.7084
  428TMC3    C1 6432   3.689   1.051  15.187  0.1469 -0.5292 -0.7171
  428TMC3    C2 6433   3.614   0.959  15.249  0.0173  0.0550  0.0982
  428TMC3    C3 6434   3.674   0.910  15.361 -0.0877  0.4508  0.4409
  428TMC3    C4 6435   3.813   1.094  15.221  0.3769 -0.4321  0.5117
  428TMC3    C5 6436   3.868   1.041  15.335  0.5817  0.6889  0.1944
  428TMC3    C6 6437   3.795   0.951  15.410  0.6465 -0.0325  0.8528
  428TMC3     C 6438   3.639   1.091  15.056  0.0941 -0.6658 -0.4746
  428TMC3     O 6439   3.726   1.122  14.972 -0.6190  0.0878  0.1058
  428TMC3     H 6440   3.514   0.929  15.219  0.0689 -1.2477  1.2671
  428TMC3    H1 6441   3.860   1.162  15.151 -1.5239 -2.0797 -2.3884
  428TMC3    H2 6442   3.832   0.908  15.502  0.7217 -0.8551  0.4353
  428TMC3    C7 6443   3.996   1.077  15.386  0.2047 -0.7487  0.7256
  428TMC3    C8 6444   3.623   0.787  15.401  0.6645 -0.6569 -0.1742
  428TMC3    O1 6445   4.026   1.050  15.501  0.9606  0.0089  0.0401
  428TMC3    O2 6446   3.606   0.705  15.315  0.3729 -0.1608 -0.0763
  429MPD2     C 6447   0.198   1.546  17.598  0.7381  0.0662  0.6220
  429MPD2    C1 6448   0.272   1.462  17.524  0.5436 -0.0221  0.1213
  429MPD2    C2 6449   0.349   1.519  17.420  0.1314  0.3692 -0.3425
  429MPD2    C3 6450   0.351   1.653  17.385  0.2067  0.3178  0.0577
  429MPD2    C4 6451   0.275   1.737  17.475 -0.2488  0.0695 -0.0416
  429MPD2    C5 6452   0.212   1.680  17.576 -0.5141 -0.1211  0.7958
  429MPD2     H 6453   0.389   1.447  17.350  0.0890 -0.3264  0.3396
  429MPD2    H1 6454   0.275   1.845  17.461  1.1455 -0.2245 -2.4982
  429MPD2    H2 6455   0.135   1.515  17.681 -0.8212 -0.8000 -0.8943
  429MPD2    H3 6456   0.163   1.740  17.652 -0.7145  0.2550  0.3698
  429MPD2     N 6457   0.406   1.696  17.257  0.0740  0.0149  0.2673
  429MPD2    H5 6458   0.443   1.625  17.194 -0.6805  0.2948 -0.4999
  429MPD2    N1 6459   0.280   1.320  17.539 -0.3463 -0.3458 -0.0448
  429MPD2    H7 6460   0.352   1.267  17.492 -2.1457 -1.3810 -1.6064
  430TMC3    C1 6461   0.470   1.834  17.095 -0.6569 -0.0473 -0.5027
  430TMC3    C2 6462   0.421   1.919  17.001  0.1616  0.2186  0.6767
  430TMC3    C3 6463   0.446   1.899  16.869 -0.6250  0.1694 -0.7851
  430TMC3    C4 6464   0.537   1.724  17.048 -0.7663  0.1786 -0.5590
  430TMC3    C5 6465   0.547   1.695  16.914 -0.7501 -0.2074 -0.3308
  430TMC3    C6 6466   0.492   1.779  16.823 -0.6835 -0.4120 -0.1640
  430TMC3     C 6467   0.414   1.831  17.228  0.3567  0.1426 -0.3764
  430TMC3     O 6468   0.342   1.923  17.260 -0.6077  0.1768 -0.1139
  430TMC3     H 6469   0.359   2.001  17.037 -1.4534 -1.3337  1.4213
  430TMC3    H1 6470   0.588   1.659  17.118 -1.7088 -1.0073 -0.9682
  430TMC3    H2 6471   0.507   1.769  16.716  0.8102  0.2684 -0.0191
  430TMC3    C7 6472   0.508   1.562  16.887 -0.0801  0.0370 -0.1465
  430TMC3    C8 6473   0.332   1.938  16.787 -0.6318  1.1445 -0.2432
  430TMC3    O1 6474   0.530   1.486  16.974  0.8185  0.1419 -0.1780
  430TMC3    O2 6475   0.281   1.851  16.725  0.1919  0.0328 -0.0752
  431MPD2     C 6476   0.478   2.130  12.577 -0.0445  0.4305  0.1681
  431MPD2    C1 6477   0.563   2.181  12.484  0.0555  0.2816  0.3447
  431MPD2    C2 6478   0.588   2.112  12.370  0.4234 -0.2857  0.4840
  431MPD2    C3 6479   0.519   1.991  12.344  0.4125  0.3141  0.6588
  431MPD2    C4 6480   0.437   1.938  12.442 -0.2234 -0.9843  0.2457
  431MPD2    C5 6481   0.411   2.011  12.553  0.0011 -0.0790  0.1710
  431MPD2     H 6482   0.652   2.152  12.292 -1.0598 -1.9579 -1.6028
  431MPD2    H1 6483   0.385   1.846  12.420  0.7085 -1.8300  1.5803
  431MPD2    H2 6484   0.458   2.177  12.673  0.6629  0.3319  0.3652
  431MPD2    H3 6485   0.341   1.957  12.617  0.4477  1.4346  1.9524
  431MPD2     N 6486   0.547   1.909  12.234  0.0503 -0.3616 -0.2043
  431MPD2    H5 6487   0.508   1.816  12.247 -1.3296  0.3845  1.0332
  431MPD2    N1 6488   0.620   2.310  12.496  0.5918  0.1223  0.1218
  431MPD2    H7 6489   0.677   2.348  12.420 -4.4250  3.8256 -1.7823
  432TMC3    C1 6490   0.684   1.832  12.058  0.0737 -0.4189  0.2083
  432TMC3    C2 6491   0.775   1.861  11.964 -0.2497  0.3113 -0.4857
  432TMC3    C3 6492   0.858   1.757  11.924  0.2197  0.1689  0.3689
  432TMC3    C4 6493   0.675   1.705  12.107 -0.0768  0.1260 -0.1973
  432TMC3    C5 6494   0.759   1.611  12.061  0.2147  1.2578 -0.6354
  432TMC3    C6 6495   0.853   1.628  11.965 -0.3510  0.1234  0.0261
  432TMC3     C 6496   0.627   1.944  12.128 -0.7546 -0.4353 -0.0297
  432TMC3     O 6497   0.648   2.055  12.076  0.0201 -0.1203  0.5368
  432TMC3     H 6498   0.788   1.959  11.921  2.0738 -0.0040 -0.4662
  432TMC3    H1 6499   0.584   1.682  12.162  2.1509 -1.1058  2.9410
  432TMC3    H2 6500   0.906   1.547  11.915  0.3270  0.4704  0.1784
  432TMC3    C7 6501   0.779   1.488  12.143 -0.4980 -0.2650  0.4838
  432TMC3    C8 6502   0.969   1.787  11.832 -0.0690  0.9984  0.1502
  432TMC3    O1 6503   0.870   1.404  12.124  0.2586  0.3732 -0.0802
  432TMC3    O2 6504   1.011   1.702  11.753 -0.0200  0.5389  0.2779
  433MPD2     C 6505   4.328   0.756  10.797 -0.1787  0.4336 -1.0164
  433MPD2    C1 6506   4.324   0.644  10.876  0.2853  0.1252  0.5907
  433MPD2    C2 6507   4.311   0.650  11.013  0.1088 -0.4352 -0.2000
  433MPD2    C3 6508   4.305   0.775  11.082 -0.4647 -0.3549  0.5017
  433MPD2    C4 6509   4.309   0.887  11.001  0.2358  0.4176 -0.2520
  433MPD2    C5 6510   4.338   0.876  10.863 -0.2037 -0.0577  0.2749
  433MPD2     H 6511   4.318   0.559  11.072 -2.7222 -0.0093  0.7864
  433MPD2    H1 6512   4.313   0.988  11.041  0.2662 -0.4179  1.8623
  433MPD2    H2 6513   4.330   0.753  10.689 -0.3323 -2.5512 -0.9529
  433MPD2    H3 6514   4.345   0.970  10.809  0.8320  1.7927  3.5912
  433MPD2     N 6515   4.287   0.769  11.225  0.2239 -0.0726  0.3117
  433MPD2    H5 6516   4.268   0.677  11.264 -2.2960  1.1694  2.0112
  433MPD2    N1 6517   4.330   0.510  10.832 -0.2454  0.4164  0.6996
  433MPD2    H7 6518   4.319   0.439  10.903 -1.5648 -0.5188 -0.4401
  434TMC3    C1 6519   4.372   0.322  10.699 -0.0136 -0.0516  0.0495
  434TMC3    C2 6520   4.415   0.249  10.805  0.6909  0.3093  0.1553
  434TMC3    C3 6521   4.448   0.117  10.801 -0.1581  1.1430 -0.3117
  434TMC3    C4 6522   4.371   0.265  10.574 -0.4826 -1.2699  0.1460
  434TMC3    C5 6523   4.406   0.134  10.566 -0.0994 -0.8456  0.4195
  434TMC3    C6 6524   4.441   0.060  10.677 -0.0734  0.2304 -0.0142
  434TMC3     C 6525   4.352   0.463  10.709  0.4147 -0.2943 -0.2148
  434TMC3     O 6526   4.369   0.525  10.603  0.4606  0.5105  0.5566
  434TMC3     H 6527   4.427   0.288  10.906  1.6101  1.9805 -0.5981
  434TMC3    H1 6528   4.330   0.322  10.491 -2.1909  0.1025  1.9346
  434TMC3    H2 6529   4.473   4.696  10.676 -0.4771  0.1033  0.2914
  434TMC3    C7 6530   4.399   0.075  10.435 -1.0608  0.9678 -0.2792
  434TMC3    C8 6531   4.430   0.037  10.924  0.1176 -0.1121 -0.0504
  434TMC3    O1 6532   4.408   0.152  10.341  0.3334  0.1265 -1.3309
  434TMC3    O2 6533   4.473   0.090  11.028  0.0940  0.2106 -0.0063
  435MPD2     C 6534   1.910   0.179  15.289  0.0869  0.5408  0.2726
  435MPD2    C1 6535   1.852   0.156  15.413  0.0076  0.4135 -0.6187
  435MPD2    C2 6536   1.914   0.069  15.498 -0.3133  1.1609  0.8556
  435MPD2    C3 6537   2.031   0.002  15.468  0.2098 -0.5734  0.3980
  435MPD2    C4 6538   2.074   0.022  15.338  0.0875 -0.3477 -1.1342
  435MPD2    C5 6539   2.021   0.112  15.255 -0.1231  0.4934  0.2204
  435MPD2     H 6540   1.880   0.057  15.600 -1.1516 -1.5729  0.2716
  435MPD2    H1 6541   2.167   4.718  15.304  0.2869 -0.2333 -0.7428
  435MPD2    H2 6542   1.876   0.255  15.219  0.9353  0.8446  0.2015
  435MPD2    H3 6543   2.069   0.137  15.161  3.0484  0.0278  1.7194
  435MPD2     N 6544   2.092   4.658  15.574 -1.0581 -0.0709 -0.7115
  435MPD2    H5 6545   2.035   4.658  15.658  0.6358  0.7078  0.4363
  435MPD2    N1 6546   1.733   0.217  15.451  1.0927 -0.1338 -0.0205
  435MPD2    H7 6547   1.700   0.182  15.540 -0.5537 -0.4089 -0.7398
  436TMC3    C1 6548   1.346   0.322  15.540  0.3622  0.1008  0.7625
  436TMC3    C2 6549   1.473   0.285  15.510  0.0025  1.2202 -0.6063
  436TMC3    C3 6550   1.559   0.376  15.464  0.1606 -0.2679  0.3737
  436TMC3    C4 6551   1.301   0.445  15.487 -0.1281 -0.2636  0.6663
  436TMC3    C5 6552   1.392   0.534  15.431  0.4010  0.1611 -0.1008
  436TMC3    C6 6553   1.525   0.505  15.425  0.2595 -0.3495 -0.0555
  436TMC3     C 6554   1.241   0.221  15.554  0.2723  0.5266 -0.1997
  436TMC3     O 6555   1.271   0.104  15.531  0.5181 -0.3583  0.0176
  436TMC3     H 6556   1.495   0.179  15.514 -0.9351  1.1629  2.4961
  436TMC3    H1 6557   1.204   0.485  15.514  1.6765  4.1476  0.5692
  436TMC3    H2 6558   1.601   0.575  15.394 -2.3893  2.8275  0.5796
  436TMC3    C7 6559   1.359   0.675  15.437  0.0390 -0.5085  0.2359
  436TMC3    C8 6560   1.671   0.326  15.385  0.0047 -0.2878  0.5429
  436TMC3    O1 6561   1.452   0.749  15.470 -0.1262 -0.0376 -0.6298
  436TMC3    O2 6562   1.703   0.391  15.281  0.2146  0.1457 -0.3847
  437TMC3    C1 6563   4.708   2.469  13.143  0.1698 -0.4854  0.7105
  437TMC3    C2 6564   4.625   2.575  13.158  0.2085  0.1756  0.2796
  437TMC3    C3 6565   4.671   2.695  13.104  0.3760  0.0845 -0.2422
  437TMC3    C4 6566   0.094   2.476  13.079  0.3940 -0.2204  0.1615
  437TMC3    C5 6567   0.124   2.602  13.027 -0.5959 -0.1198 -0.8697
  437TMC3    C6 6568   0.049   2.715  13.047  0.5723  0.4505  0.3175
  437TMC3     C 6569   4.636   2.343  13.146  0.2592 -0.3640  0.4334
  437TMC3     O 6570   4.516   2.334  13.121  0.2496  0.3179 -0.3604
  437TMC3     H 6571   4.521   2.566  13.187  0.4668 -0.6245  0.9480
  437TMC3    H1 6572   0.164   2.396  13.058  3.5472  3.3582 -2.8868
  437TMC3    H2 6573   0.078   2.815  13.017 -0.1747  0.7518  0.5958
  437TMC3    C7 6574   0.260   2.615  12.974 -0.2958 -0.4783 -0.0324
  437TMC3    C8 6575   4.588   2.812  13.138 -0.4531  0.2995 -0.1187
  437TMC3    O1 6576   0.343   2.539  13.025  0.0335 -0.3380 -0.2006
  437TMC3    O2 6577   4.618   2.911  13.075  0.0933 -0.5850  0.4847
  438MPD2     C 6578   2.536   2.748  16.385  0.1903  0.0460  0.5625
  438MPD2    C1 6579   2.640   2.716  16.469 -0.0043  0.5732 -0.2655
  438MPD2    C2 6580   2.674   2.806  16.575  0.0465 -0.8063 -0.1712
  438MPD2    C3 6581   2.609   2.922  16.604 -0.2319  0.3806 -0.1794
  438MPD2    C4 6582   2.496   2.945  16.519  0.9073  0.3320  0.1870
  438MPD2    C5 6583   2.464   2.860  16.419  0.2105  0.1662  0.1116
  438MPD2     H 6584   2.743   2.767  16.648 -2.3230 -0.6934  2.1439
  438MPD2    H1 6585   2.438   3.036  16.532  2.5135  1.4503 -0.5959
  438MPD2    H2 6586   2.501   2.688  16.302 -2.5830  1.5040  0.6948
  438MPD2    H3 6587   2.374   2.876  16.360  0.4519 -1.8721 -0.8045
  438MPD2     N 6588   2.645   3.010  16.711 -0.1336  0.2887  0.5705
  438MPD2    H5 6589   2.569   3.067  16.747  1.2486  1.1204  2.1380
  438MPD2    N1 6590   2.706   2.594  16.465 -0.5568 -0.3606  0.4760
  438MPD2    H7 6591   2.779   2.578  16.533  0.9754  1.0335 -0.8550
  439TMC3    C1 6592   2.783   2.389  16.371 -0.6589  0.2619  0.4657
  439TMC3    C2 6593   2.779   2.299  16.274 -0.5677  0.4256 -0.0714
  439TMC3    C3 6594   2.872   2.199  16.285 -0.5040  1.1021  0.1158
  439TMC3    C4 6595   2.882   2.395  16.461  0.0492 -0.6013 -0.6504
  439TMC3    C5 6596   2.983   2.303  16.458  0.1039 -0.2211 -0.0465
  439TMC3    C6 6597   2.978   2.199  16.371  0.5433 -0.0573 -0.1119
  439TMC3     C 6598   2.680   2.493  16.376 -0.1396 -0.2362  0.2952
  439TMC3     O 6599   2.591   2.484  16.291 -0.2490 -0.1776  0.1368
  439TMC3     H 6600   2.694   2.282  16.208 -0.4803  2.1216 -0.6175
  439TMC3    H1 6601   2.887   2.462  16.546  0.7756  0.6408 -1.6555
  439TMC3    H2 6602   3.031   2.105  16.386  0.8110 -0.0178 -0.8192
  439TMC3    C7 6603   3.116   2.343  16.525 -0.1832 -0.6810  0.2016
  439TMC3    C8 6604   2.916   2.127  16.164 -0.6725 -0.2434  0.9672
  439TMC3    O1 6605   3.120   2.426  16.612  0.3305  0.2154  0.4337
  439TMC3    O2 6606   3.036   2.095  16.169  0.1749  0.5183  0.1113
  440MPD2     C 6607   1.353   3.512  15.218  0.1534  0.7401 -0.1058
  440MPD2    C1 6608   1.409   3.552  15.101  0.7993  0.0509  0.4628
  440MPD2    C2 6609   1.499   3.469  15.032 -0.0088 -0.0963 -0.2717
  440MPD2    C3 6610   1.526   3.343  15.083  0.9706  0.2288 -0.0924
  440MPD2    C4 6611   1.465   3.298  15.203 -0.0563 -0.2815 -0.3050
  440MPD2    C5 6612   1.388   3.388  15.267  0.2853  0.3246 -0.3392
  440MPD2     H 6613   1.540   3.486  14.933  3.9130 -0.4385  1.2959
  440MPD2    H1 6614   1.483   3.201  15.247  0.4665  0.0109  0.1200
  440MPD2    H2 6615   1.271   3.569  15.261  0.1583  1.5142 -1.1002
  440MPD2    H3 6616   1.337   3.360  15.359  2.3739  0.6874  0.9342
  440MPD2     N 6617   1.615   3.259  15.020  0.5295 -0.5342  0.0612
  440MPD2    H5 6618   1.613   3.162  15.050 -2.3983  0.2837  2.5520
  440MPD2    N1 6619   1.356   3.666  15.032  0.3550 -0.4814 -0.1214
  440MPD2    H7 6620   1.379   3.669  14.933 -1.1442  0.1186 -0.4503
  441TMC3    C1 6621   1.814   3.191  14.919  0.2230  0.3817  0.9170
  441TMC3    C2 6622   1.937   3.246  14.899 -0.0365 -0.2884 -0.8262
  441TMC3    C3 6623   2.033   3.218  14.985  0.1176 -0.3881  0.6274
  441TMC3    C4 6624   1.794   3.081  15.005  0.1622 -0.1856  0.0971
  441TMC3    C5 6625   1.906   3.043  15.080 -0.2711  0.1020  0.4111
  441TMC3    C6 6626   2.023   3.116  15.075 -0.1488 -0.8392 -0.6827
  441TMC3     C 6627   1.706   3.293  14.920 -0.6643  0.0576  0.3860
  441TMC3     O 6628   1.747   3.404  14.884  0.0626  0.4727 -0.2738
  441TMC3     H 6629   1.955   3.329  14.833 -0.7829  0.5715  0.0536
  441TMC3    H1 6630   1.707   3.018  15.018  1.5058 -1.9016  0.8172
  441TMC3    H2 6631   2.082   3.129  15.165  0.1547 -0.4921 -0.9330
  441TMC3    C7 6632   1.865   3.002  15.215 -0.3411  0.1576 -0.0483
  441TMC3    C8 6633   2.077   3.340  15.051  0.4958 -0.1898  0.1537
  441TMC3    O1 6634   1.753   3.026  15.257 -0.5163 -0.7140 -0.1528
  441TMC3    O2 6635   2.170   3.323  15.128  0.6260  0.1537 -0.3565
  442MPD2     C 6636   4.269   4.053  16.051 -0.4875 -0.1246  0.5596
  442MPD2    C1 6637   4.170   3.982  15.994 -0.2309  0.5506  0.3941
  442MPD2    C2 6638   4.186   3.844  15.979 -0.9870  0.8191  0.1026
  442MPD2    C3 6639   4.306   3.779  16.020 -0.1675 -0.9271  0.0369
  442MPD2    C4 6640   4.408   3.857  16.070  0.7557  0.4867 -0.1328
  442MPD2    C5 6641   4.389   3.995  16.084 -0.2543 -0.5210 -0.1523
  442MPD2     H 6642   4.099   3.787  15.948 -1.3313  1.3512  0.0918
  442MPD2    H1 6643   4.503   3.818  16.105 -0.7147 -3.6649 -0.7550
  442MPD2    H2 6644   4.255   4.161  16.057  0.6748  0.0517 -0.0209
  442MPD2    H3 6645   4.466   4.061  16.122  0.0743  0.0441 -1.7750
  442MPD2     N 6646   4.330   3.643  16.026 -0.5746 -0.0110  0.2186
  442MPD2    H5 6647   4.425   3.621  16.055 -0.3279 -0.0967 -0.6553
  442MPD2    N1 6648   4.047   4.046  15.957 -0.3854 -0.5647  0.6033
  442MPD2    H7 6649   3.972   3.994  15.913 -1.3813  0.1721  1.4260
  443TMC3    C1 6650   3.874   4.203  15.931 -0.0261  0.5013 -0.0826
  443TMC3    C2 6651   3.830   4.169  15.806 -0.7362 -0.1159  0.6764
  443TMC3    C3 6652   3.698   4.119  15.792 -0.0602  0.8808 -0.5270
  443TMC3    C4 6653   3.790   4.192  16.041  1.0520 -0.1230  0.5428
  443TMC3    C5 6654   3.654   4.157  16.022  0.4333  0.1008 -0.8001
  443TMC3    C6 6655   3.611   4.113  15.902 -0.2261  0.4542  0.1188
  443TMC3     C 6656   4.005   4.176  15.985 -0.3990  0.9181  0.4985
  443TMC3     O 6657   4.069   4.275  16.033  0.0248 -0.2304  0.4095
  443TMC3     H 6658   3.897   4.171  15.721 -0.8259  2.0073  0.6561
  443TMC3    H1 6659   3.841   4.196  16.136  2.0506  1.3295 -0.0435
  443TMC3    H2 6660   3.508   4.080  15.892 -1.0219  3.6200 -2.3133
  443TMC3    C7 6661   3.574   4.118  16.138 -0.3205  0.3501 -0.7096
  443TMC3    C8 6662   3.702   4.005  15.709  0.6191  0.2416 -0.7050
  443TMC3    O1 6663   3.502   4.016  16.133 -0.1496  0.0658 -0.0864
  443TMC3    O2 6664   3.814   3.966  15.680 -0.2141 -0.6304 -0.3623
  444MPD2     C 6665   4.647   3.414  16.736  0.0350 -0.3889 -0.3308
  444MPD2    C1 6666   4.601   3.312  16.819 -0.1775 -0.2834 -0.0229
  444MPD2    C2 6667   4.680   3.199  16.839  0.6260 -0.5736  0.1738
  444MPD2    C3 6668   0.064   3.188  16.778 -0.6297 -0.1449 -0.4216
  444MPD2    C4 6669   0.109   3.291  16.698  0.3068 -0.4865 -1.0080
  444MPD2    C5 6670   0.030   3.403  16.681  0.5156  0.2420 -0.5613
  444MPD2     H 6671   4.647   3.115  16.897 -2.8526  0.0280 -0.9565
  444MPD2    H1 6672   0.205   3.279  16.648  0.5838 -3.1138  0.1999
  444MPD2    H2 6673   4.606   3.514  16.728  0.8593  0.1345  2.1477
  444MPD2    H3 6674   0.059   3.481  16.611 -0.1724  1.7704  0.8611
  444MPD2     N 6675   0.144   3.072  16.803  0.1928  0.2036  0.6144
  444MPD2    H5 6676   0.089   2.988  16.818  0.9666 -0.2982  0.6287
  444MPD2    N1 6677   4.486   3.322  16.898 -0.3630  0.1142  0.1797
  444MPD2    H7 6678   4.476   3.249  16.968  0.3227  0.0837  0.2462
  445TMC3    C1 6679   0.320   2.918  16.771  0.7328  0.6422 -0.9412
  445TMC3    C2 6680   0.251   2.831  16.856 -0.0839  0.2277  0.2864
  445TMC3    C3 6681   0.267   2.696  16.839 -0.2543  0.2397 -0.0810
  445TMC3    C4 6682   0.390   2.878  16.662 -0.1136  0.1289 -0.1648
  445TMC3    C5 6683   0.386   2.738  16.638 -0.5664  0.0520  0.2867
  445TMC3    C6 6684   0.339   2.651  16.727  0.1722 -0.0117 -0.4914
  445TMC3     C 6685   0.278   3.056  16.773  0.8091 -0.2397  0.2723
  445TMC3     O 6686   0.354   3.133  16.719  0.2636 -0.6565  0.5999
  445TMC3     H 6687   0.200   2.870  16.943  1.8375  1.6898  0.7558
  445TMC3    H1 6688   0.440   2.946  16.595  1.1283 -0.7568 -0.1395
  445TMC3    H2 6689   0.350   2.543  16.721  1.4667  0.1932 -1.7130
  445TMC3    C7 6690   0.507   2.698  16.562 -0.5381 -0.0410  0.0241
  445TMC3    C8 6691   0.264   2.617  16.956  0.7431 -0.0444  0.0520
  445TMC3    O1 6692   0.589   2.781  16.535 -0.2476 -0.6608 -0.2354
  445TMC3    O2 6693   0.345   2.523  16.951  0.3841 -0.7265  0.8717
  446MPD2     C 6694   4.116   4.721  11.447 -0.0918  0.2666  0.9118
  446MPD2    C1 6695   4.128   4.735  11.302 -0.4027 -0.8614 -0.1584
  446MPD2    C2 6696   4.245   0.055  11.257  0.4541 -0.1726  0.0017
  446MPD2    C3 6697   4.346   0.101  11.346 -1.0269  0.2756 -0.7337
  446MPD2    C4 6698   4.324   0.084  11.479  0.6438 -0.5432  0.7521
  446MPD2    C5 6699   4.212   0.024  11.530 -0.2695  0.1234  0.1740
  446MPD2     H 6700   4.269   0.075  11.153 -2.0658 -0.6321 -0.6469
  446MPD2    H1 6701   4.393   0.106  11.559  2.0433  0.1402 -0.6348
  446MPD2    H2 6702   4.029   4.679  11.496  0.0497  2.2932  2.9461
  446MPD2    H3 6703   4.203   0.013  11.637 -0.3773  1.1705  0.2676
  446MPD2     N 6704   4.464   0.152  11.299 -0.4493 -0.6649  0.2475
  446MPD2    H5 6705   4.474   0.162  11.198  0.4889 -2.2710  0.1727
  446MPD2    N1 6706   4.025   4.684  11.219 -0.2434  0.0831 -0.2113
  446MPD2    H7 6707   4.036   4.713  11.122  1.0683 -1.7634 -0.5968
  447TMC3    C1 6708   4.684   0.228  11.298  0.1063 -0.3983  0.4836
  447TMC3    C2 6709   4.658   0.283  11.177  0.1653 -0.4660 -0.6316
  447TMC3    C3 6710   0.021   0.306  11.092 -0.8705  0.0619  0.5693
  447TMC3    C4 6711   0.068   0.171  11.325 -0.0204  0.2073 -0.2346
  447TMC3    C5 6712   0.171   0.206  11.236  0.6456  0.7902  0.0915
  447TMC3    C6 6713   0.145   0.267  11.115 -1.1305 -0.2590  1.0291
  447TMC3     C 6714   4.581   0.171  11.375  0.1021 -0.5750  0.0899
  447TMC3     O 6715   4.606   0.116  11.484  0.2939 -0.1511 -0.0481
  447TMC3     H 6716   4.558   0.315  11.150 -0.1088 -0.1882  0.6858
  447TMC3    H1 6717   0.084   0.138  11.427 -4.7895 -1.4477 -0.0205
  447TMC3    H2 6718   0.236   0.283  11.057 -1.5939 -0.5181  0.2266
  447TMC3    C7 6719   0.302   0.146  11.253 -0.2096 -0.0062  0.2654
  447TMC3    C8 6720   0.004   0.398  10.987  0.3009  0.5545  0.2393
  447TMC3    O1 6721   0.401   0.204  11.208 -0.6057  0.5568 -0.0140
  447TMC3    O2 6722   4.626   0.427  10.966  0.1557  0.8099 -0.0074
  448TMC3    C1 6723   2.726   4.148  16.697  0.4632  0.6113 -0.5050
  448TMC3    C2 6724   2.662   4.029  16.663 -0.3831  0.5833  0.7777
  448TMC3    C3 6725   2.714   3.917  16.718 -0.9072 -0.0144 -0.2678
  448TMC3    C4 6726   2.845   4.156  16.764  0.2086 -0.3895 -0.2168
  448TMC3    C5 6727   2.895   4.037  16.817 -0.5675  0.6563 -0.2972
  448TMC3    C6 6728   2.827   3.913  16.792  0.1118 -0.0961  0.3934
  448TMC3     C 6729   2.647   4.264  16.674 -0.7366  0.1156  0.0036
  448TMC3     O 6730   2.568   4.251  16.577  0.1577  0.0473  0.3727
  448TMC3     H 6731   2.562   4.030  16.621  1.0176 -0.2118 -2.5804
  448TMC3    H1 6732   2.891   4.250  16.792 -0.6161 -0.9865  3.1746
  448TMC3    H2 6733   2.857   3.823  16.843  1.8280 -0.4290 -1.2071
  448TMC3    C7 6734   3.017   4.048  16.886 -0.3789 -0.0316 -0.1061
  448TMC3    C8 6735   2.687   3.793  16.660 -0.5505  0.3231  0.3075
  448TMC3    O1 6736   3.081   4.150  16.873  0.1265 -0.4215 -0.9291
  448TMC3    O2 6737   2.731   3.700  16.722  0.2962 -0.3283 -0.6645
  449MPD2     C 6738   4.669   3.323  14.573  0.0371  0.0951 -0.4544
  449MPD2    C1 6739   4.576   3.217  14.564 -0.5022 -0.1443  0.3732
  449MPD2    C2 6740   4.611   3.087  14.578 -0.0805 -0.5512  0.5066
  449MPD2    C3 6741   0.002   3.056  14.597 -0.0945  0.3298 -0.2153
  449MPD2    C4 6742   0.096   3.161  14.594  0.2603  0.8064 -0.9909
  449MPD2    C5 6743   0.060   3.289  14.590 -0.3802  0.4166  0.3189
  449MPD2     H 6744   4.526   3.020  14.579 -0.8483  0.3933 -1.1663
  449MPD2    H1 6745   0.202   3.138  14.601 -0.2697 -1.2501  0.3069
  449MPD2    H2 6746   4.650   3.429  14.578  1.2882  0.4372 -2.7781
  449MPD2    H3 6747   0.130   3.371  14.600 -1.7483  1.5055  0.9880
  449MPD2     N 6748   0.028   2.920  14.593  0.2829  0.2547 -0.1666
  449MPD2    H5 6749   4.689   2.858  14.579  0.3263 -0.5288  2.9881
  449MPD2    N1 6750   4.442   3.248  14.547  0.0445 -0.1712  0.1566
  449MPD2    H7 6751   4.376   3.171  14.545  1.2036 -1.1526 -0.1697
  450TMC3    C1 6752   4.280   3.309  14.404  0.1373 -0.1971  0.3227
  450TMC3    C2 6753   4.285   3.330  14.273 -0.1429 -0.4268  0.4342
  450TMC3    C3 6754   4.223   3.241  14.190 -0.1225 -0.2297 -0.4578
  450TMC3    C4 6755   4.224   3.197  14.460  0.3889 -0.1672 -0.1730
  450TMC3    C5 6756   4.152   3.113  14.376  0.1948 -0.1574  0.1940
  450TMC3    C6 6757   4.156   3.126  14.240 -0.2111 -0.7936 -0.2661
  450TMC3     C 6758   4.397   3.357  14.476  0.1546  0.1186 -0.0992
  450TMC3     O 6759   4.449   3.459  14.430  0.1179  0.6709  0.2385
  450TMC3     H 6760   4.331   3.418  14.231 -1.3981 -0.5443 -1.1837
  450TMC3    H1 6761   4.215   3.186  14.568  1.6112  0.6460  0.0063
  450TMC3    H2 6762   4.111   3.049  14.178 -2.2767 -0.2863  0.5866
  450TMC3    C7 6763   4.191   2.982  14.414  0.2454 -0.5288 -0.5484
  450TMC3    C8 6764   4.271   3.246  14.056  1.6462  0.4042 -0.5263
  450TMC3    O1 6765   4.285   2.989  14.491 -0.0840  0.1283  0.3784
  450TMC3    O2 6766   4.270   3.135  14.007  0.1524  0.1737 -0.5288
  451MPD2     C 6767   1.623   1.920   1.019  0.0365  0.3438  0.1269
  451MPD2    C1 6768   1.658   1.936   0.889  0.1824  0.1468 -0.0088
  451MPD2    C2 6769   1.692   1.830   0.808  0.6191  0.6143 -0.0787
  451MPD2    C3 6770   1.718   1.706   0.865  0.5422  0.0450  0.1154
  451MPD2    C4 6771   1.691   1.692   1.000 -0.9901 -0.3935 -0.1077
  451MPD2    C5 6772   1.637   1.798   1.071 -0.2938  0.5757  0.3467
  451MPD2     H 6773   1.714   1.841   0.702 -2.5189  1.7625 -0.6064
  451MPD2    H1 6774   1.701   1.599   1.054 -1.8555 -0.5671 -0.2521
  451MPD2    H2 6775   1.579   1.997   1.082 -0.3881  0.1330  0.0867
  451MPD2    H3 6776   1.614   1.775   1.175 -0.3906  0.8651  0.3903
  451MPD2     N 6777   1.740   1.593   0.792 -0.2581 -0.5101  0.3620
  451MPD2    H5 6778   1.732   1.504   0.841  0.1091  0.1679  1.6686
  451MPD2    N1 6779   1.619   2.069   0.842 -0.4348  0.4438  0.0856
  451MPD2    H7 6780   1.574   2.134   0.905 -0.2608 -0.3629  1.0586
  452TMC3    C1 6781   1.774   1.462   0.595  0.0596 -0.3310 -0.7175
  452TMC3    C2 6782   1.689   1.365   0.633  1.1285 -0.3038  0.0536
  452TMC3    C3 6783   1.668   1.251   0.554  0.0632 -0.0879 -0.1770
  452TMC3    C4 6784   1.821   1.464   0.468 -0.3118  0.2148  0.5801
  452TMC3    C5 6785   1.792   1.357   0.388  0.3982  0.3637  0.4711
  452TMC3    C6 6786   1.722   1.247   0.435  0.4429  0.0748  0.1173
  452TMC3     C 6787   1.754   1.587   0.650 -0.4559  0.6343  0.3859
  452TMC3     O 6788   1.760   1.679   0.568 -0.6084  0.3024  0.3708
  452TMC3     H 6789   1.637   1.378   0.727  1.0080 -0.1201 -0.0398
  452TMC3    H1 6790   1.876   1.549   0.429  1.8608 -0.0111  3.0737
  452TMC3    H2 6791   1.704   1.155   0.379 -1.6190  1.3880 -1.3880
  452TMC3    C7 6792   1.868   1.348   0.267  0.2391  0.2420  0.2200
  452TMC3    C8 6793   1.527   1.224   0.564  0.1702 -0.0735 -0.1980
  452TMC3    O1 6794   1.916   1.452   0.222  0.0469 -0.6346 -0.3065
  452TMC3    O2 6795   1.467   1.240   0.460 -0.5652  0.2247  0.1891
  453TMC3    C1 6796   1.531   3.593  11.935  0.4528 -0.1973 -0.4938
  453TMC3    C2 6797   1.479   3.503  12.026  2.0004  0.0275 -0.3801
  453TMC3    C3 6798   1.384   3.421  11.987  0.1543  0.3221 -1.0187
  453TMC3    C4 6799   1.516   3.571  11.803  0.7836  0.1409 -0.1969
  453TMC3    C5 6800   1.428   3.474  11.768 -0.0799 -0.0726  0.1053
  453TMC3    C6 6801   1.345   3.412  11.856  0.2050 -0.2280 -0.6508
  453TMC3     C 6802   1.635   3.685  11.972 -0.3894  0.5564 -0.0661
  453TMC3     O 6803   1.722   3.711  11.888  0.0741 -0.2916  0.0423
  453TMC3     H 6804   1.513   3.522  12.127  0.5587  1.5896 -0.1998
  453TMC3    H1 6805   1.565   3.637  11.733 -1.0785  0.2573 -1.3874
  453TMC3    H2 6806   1.260   3.354  11.821  0.4805 -0.7131 -0.5307
  453TMC3    C7 6807   1.444   3.402  11.638  0.0899  0.8895  0.3005
  453TMC3    C8 6808   1.364   3.304  12.069  0.3463 -0.2459 -0.1626
  453TMC3    O1 6809   1.373   3.309  11.608  1.1024 -0.9939  0.0677
  453TMC3    O2 6810   1.269   3.231  12.039  0.5686 -0.1629  0.1672
  454MPD2     C 6811   0.845   2.874  16.223  0.1303 -0.3258  0.2297
  454MPD2    C1 6812   0.810   2.965  16.128  0.2801 -0.1559  0.4026
  454MPD2    C2 6813   0.766   3.096  16.174  0.2482  1.0680  0.0101
  454MPD2    C3 6814   0.759   3.129  16.307  0.3144 -0.0641  0.5779
  454MPD2    C4 6815   0.812   3.038  16.391  0.5908 -0.1185 -0.6594
  454MPD2    C5 6816   0.851   2.908  16.350 -0.5206  0.4623  0.0871
  454MPD2     H 6817   0.727   3.163  16.098  0.5276  0.6926 -0.4596
  454MPD2    H1 6818   0.802   3.055  16.497 -0.5635  0.1599 -0.8135
  454MPD2    H2 6819   0.871   2.770  16.204  2.1363  0.1819  0.2277
  454MPD2    H3 6820   0.864   2.835  16.429 -3.2903 -0.5853 -0.4470
  454MPD2     N 6821   0.698   3.242  16.356 -0.0345  0.1109 -0.0357
  454MPD2    H5 6822   0.693   3.251  16.457  1.2642  1.6123 -0.0997
  454MPD2    N1 6823   0.776   2.930  15.992  0.3016 -1.1310  0.4969
  454MPD2    H7 6824   0.744   3.000  15.926  2.0094  0.0142  0.8632
  455TMC3    C1 6825   0.482   3.320  16.351  0.3864 -0.2756 -0.1457
  455TMC3    C2 6826   0.407   3.427  16.328 -0.4205 -1.1010 -0.0144
  455TMC3    C3 6827   0.275   3.399  16.315 -0.1493  0.9438 -0.7399
  455TMC3    C4 6828   0.433   3.197  16.374  0.1486 -0.5193 -0.9051
  455TMC3    C5 6829   0.304   3.174  16.349  0.1804  0.7874 -0.1301
  455TMC3    C6 6830   0.221   3.281  16.327 -0.1407  0.5534 -0.2730
  455TMC3     C 6831   0.615   3.327  16.283  0.1375  0.3456 -0.0089
  455TMC3     O 6832   0.629   3.362  16.168  0.1019 -0.5578 -0.0703
  455TMC3     H 6833   0.446   3.523  16.295 -1.7297 -0.1657  1.1760
  455TMC3    H1 6834   0.499   3.118  16.408  0.1332  0.1354  0.6469
  455TMC3    H2 6835   0.113   3.288  16.325 -0.1958  0.1334  1.5608
  455TMC3    C7 6836   0.268   3.041  16.297  0.6975  0.2453  0.2145
  455TMC3    C8 6837   0.187   3.502  16.362  0.5228 -0.4026 -0.6823
  455TMC3    O1 6838   0.151   3.017  16.270 -0.0750  0.0390 -0.1026
  455TMC3    O2 6839   0.069   3.496  16.328  0.1846  0.0266 -0.1993
  456MPD2     C 6840   3.085   2.460  16.117  0.0021  0.1721 -0.9231
  456MPD2    C1 6841   3.180   2.524  16.193 -0.7330  0.3480  1.0937
  456MPD2    C2 6842   3.152   2.641  16.255  1.3794 -0.5376 -0.6826
  456MPD2    C3 6843   3.028   2.702  16.242 -0.0383 -0.0043 -0.2123
  456MPD2    C4 6844   2.937   2.643  16.150 -0.1520  0.4223 -0.1759
  456MPD2    C5 6845   2.967   2.528  16.090  0.0102 -0.9991 -0.3142
  456MPD2     H 6846   3.233   2.695  16.303 -0.8488  0.6044  1.7837
  456MPD2    H1 6847   2.843   2.693  16.128 -0.8587 -0.0109  1.8830
  456MPD2    H2 6848   3.091   2.365  16.065  1.5274 -0.5133  0.4958
  456MPD2    H3 6849   2.894   2.480  16.027 -0.0428  0.1017 -1.0874
  456MPD2     N 6850   3.009   2.823  16.311  0.2723  0.4384 -0.0209
  456MPD2    H5 6851   3.077   2.843  16.383  2.1591 -0.4776 -1.5614
  456MPD2    N1 6852   3.304   2.457  16.191  0.3304  0.4248  0.2046
  456MPD2    H7 6853   3.315   2.381  16.125 -2.2214 -0.4905  0.8398
  457TMC3    C1 6854   2.900   3.007  16.408 -0.1772  0.3750  0.0156
  457TMC3    C2 6855   2.800   3.102  16.401  0.5116  0.0876 -0.6839
  457TMC3    C3 6856   2.805   3.203  16.500 -0.2934 -0.0528 -0.6647
  457TMC3    C4 6857   3.001   3.009  16.503  0.4609  1.0140  0.1122
  457TMC3    C5 6858   2.998   3.111  16.596  0.6407  0.5494 -0.1805
  457TMC3    C6 6859   2.906   3.212  16.587 -0.6146 -0.6589  0.1055
  457TMC3     C 6860   2.895   2.905  16.303  0.3364  0.2727  0.0211
  457TMC3     O 6861   2.797   2.900  16.228 -0.4624  0.2616 -0.3418
  457TMC3     H 6862   2.722   3.096  16.327  0.0688 -0.1250 -0.1995
  457TMC3    H1 6863   3.077   2.933  16.515  0.0286  0.8508  1.9736
  457TMC3    H2 6864   2.893   3.283  16.668  0.9241 -0.6952  0.3951
  457TMC3    C7 6865   3.096   3.113  16.706 -0.1939  1.3119 -0.5242
  457TMC3    C8 6866   2.694   3.291  16.530 -0.5081  0.0291  0.4782
  457TMC3    O1 6867   3.149   3.010  16.746 -0.5946  0.3043 -0.3855
  457TMC3    O2 6868   2.678   3.337  16.644  0.5954  0.2961 -0.5016
  458MPD2     C 6869   0.611   2.797  12.643  0.2165  0.3851 -0.1142
  458MPD2    C1 6870   0.619   2.753  12.773  0.9452 -0.2503 -0.1655
  458MPD2    C2 6871   0.510   2.710  12.851 -0.1503  0.4696  0.0810
  458MPD2    C3 6872   0.384   2.734  12.796  0.7311 -0.7137  0.9615
  458MPD2    C4 6873   0.373   2.795  12.673  0.5450 -0.5426  0.3380
  458MPD2    C5 6874   0.485   2.812  12.593  0.6441 -0.2544  0.1015
  458MPD2     H 6875   0.525   2.682  12.954 -1.4499 -0.6632 -0.0427
  458MPD2    H1 6876   0.279   2.823  12.627  0.2742  0.0097  1.2242
  458MPD2    H2 6877   0.694   2.821  12.578  1.1369  1.0863  1.3191
  458MPD2    H3 6878   0.482   2.845  12.490  0.1378  2.1084  0.8812
  458MPD2     N 6879   0.267   2.703  12.866 -0.2299 -0.0618  0.1374
  458MPD2    H5 6880   0.182   2.741  12.825  0.7306  0.6996 -1.1692
  458MPD2    N1 6881   0.754   2.757  12.819  0.5153 -1.0085  0.0141
  458MPD2    H7 6882   0.822   2.776  12.747  3.1496 -1.0286  2.5099
  459TMC3    C1 6883   0.944   2.748  12.978  0.0504  0.2746  0.4259
  459TMC3    C2 6884   1.007   2.854  12.919 -0.5214  0.6851  0.6862
  459TMC3    C3 6885   1.126   2.892  12.976 -0.0276 -0.6714 -0.2131
  459TMC3    C4 6886   0.989   2.682  13.086 -0.5087 -0.2117 -0.5980
  459TMC3    C5 6887   1.102   2.725  13.135 -0.7596 -0.2392  0.1080
  459TMC3    C6 6888   1.177   2.827  13.083  0.3214  0.2666 -0.1689
  459TMC3     C 6889   0.805   2.717  12.943  0.0497  0.0838 -0.7315
  459TMC3     O 6890   0.734   2.683  13.036 -0.0634  0.2344  0.3244
  459TMC3     H 6891   0.956   2.915  12.846  1.0466 -0.1964 -1.1491
  459TMC3    H1 6892   0.930   2.606  13.137 -2.4483  2.1334  0.6614
  459TMC3    H2 6893   1.280   2.843  13.113 -0.0370  2.4398 -0.0917
  459TMC3    C7 6894   1.160   2.663  13.252 -0.3939  0.5371  0.2958
  459TMC3    C8 6895   1.215   2.988  12.911  0.2539  0.1250 -0.2551
  459TMC3    O1 6896   1.252   2.719  13.307 -0.1278 -0.0813 -0.1783
  459TMC3    O2 6897   1.334   3.006  12.948  0.3110 -0.1199 -0.0309
  460MPD2     C 6898   0.255   0.564  10.773  0.8269  0.4384  0.3343
  460MPD2    C1 6899   0.131   0.536  10.828  0.5096 -0.1384  0.8365
  460MPD2    C2 6900   0.018   0.582  10.759 -0.0317  0.5806 -0.1968
  460MPD2    C3 6901   0.031   0.664  10.647 -0.3379  0.7121  0.5097
  460MPD2    C4 6902   0.150   0.700  10.615 -0.3676 -0.2095 -0.0806
  460MPD2    C5 6903   0.264   0.653  10.673 -0.4883  0.0361  0.5474
  460MPD2     H 6904   4.654   0.563  10.786 -0.6015  0.5969 -2.3437
  460MPD2    H1 6905   0.163   0.757  10.524 -1.1978  1.1077  0.6265
  460MPD2    H2 6906   0.346   0.539  10.826  1.5686  1.3495 -0.5236
  460MPD2    H3 6907   0.361   0.694  10.647 -0.1624 -0.7931  0.4426
  460MPD2     N 6908   4.650   0.693  10.584  0.3532  1.0245 -1.2624
  460MPD2    H5 6909   4.566   0.646  10.615  0.4856  0.8178 -1.2226
  460MPD2    N1 6910   0.120   0.456  10.945  0.3446  0.6067 -0.1986
  460MPD2    H7 6911   0.207   0.438  10.995  0.5175  0.9945 -0.3553
  461TMC3    C1 6912   4.506   0.755  10.411  0.0405 -0.2953  0.9859
  461TMC3    C2 6913   4.486   0.641  10.343  0.4618  0.0503 -0.5529
  461TMC3    C3 6914   4.398   0.635  10.240  0.4604  0.1292 -0.0918
  461TMC3    C4 6915   4.432   0.862  10.379 -0.6977 -0.3005  0.5802
  461TMC3    C5 6916   4.338   0.860  10.275 -0.0838  0.1179  0.0292
  461TMC3    C6 6917   4.324   0.743  10.202  0.0311 -0.3500 -0.0488
  461TMC3     C 6918   4.638   0.779  10.470 -0.1318  0.6603 -0.8012
  461TMC3     O 6919   4.718   0.863  10.421 -0.8147  0.8852  0.4064
  461TMC3     H 6920   4.542   0.553  10.371 -1.0038 -1.3256 -1.9793
  461TMC3    H1 6921   4.448   0.950  10.439 -0.1695  0.6142 -0.9076
  461TMC3    H2 6922   4.257   0.739  10.117  0.1128 -0.2323 -0.1176
  461TMC3    C7 6923   4.255   0.972  10.239  0.3093  0.6248  0.1817
  461TMC3    C8 6924   4.426   0.533  10.136  0.1420 -0.1473 -0.6624
  461TMC3    O1 6925   4.181   0.965  10.143 -0.0195  0.5551 -0.0381
  461TMC3    O2 6926   4.540   0.482  10.125  0.4754  0.3004 -0.4254
  462TMC3    C1 6927   0.605   0.743   0.429 -0.0400 -0.4121  0.6780
  462TMC3    C2 6928   0.616   0.641   0.521  0.3915  0.2733  0.3272
  462TMC3    C3 6929   0.506   0.575   0.564  0.1394 -0.3605 -0.0418
  462TMC3    C4 6930   0.480   0.774   0.376 -0.5632 -0.1684 -0.6618
  462TMC3    C5 6931   0.370   0.707   0.426 -0.6563 -0.8782  0.4913
  462TMC3    C6 6932   0.385   0.611   0.523  0.0618  0.0534 -0.0044
  462TMC3     C 6933   0.722   0.809   0.377  0.0109 -0.4243  0.2863
  462TMC3     O 6934   0.828   0.761   0.415  0.4629  0.8075  0.2413
  462TMC3     H 6935   0.713   0.604   0.552 -0.3959 -2.5734 -0.5681
  462TMC3    H1 6936   0.468   0.836   0.288 -0.9640 -0.3968 -0.7726
  462TMC3    H2 6937   0.312   0.534   0.543 -0.5805  0.7767  0.4423
  462TMC3    C7 6938   0.235   0.737   0.396 -0.7260 -0.1558  0.3085
  462TMC3    C8 6939   0.517   0.435   0.595  0.7950 -0.1321  0.9485
  462TMC3    O1 6940   0.153   0.649   0.422  0.4796  0.4270  0.0529
  462TMC3    O2 6941   0.494   0.401   0.708 -0.4983 -0.1073  0.0674
  463MPD2     C 6942   2.397   0.056   0.510  0.9833  0.3463 -0.0752
  463MPD2    C1 6943   2.271   0.083   0.565 -0.6090  0.5472 -0.2487
  463MPD2    C2 6944   2.251   0.185   0.649 -0.7305  0.3394  1.0293
  463MPD2    C3 6945   2.357   0.261   0.689  0.1364  0.2050 -0.3490
  463MPD2    C4 6946   2.482   0.235   0.636 -0.0033 -1.0401 -0.1370
  463MPD2    C5 6947   2.501   0.137   0.544 -0.1235  0.1495  0.3860
  463MPD2     H 6948   2.152   0.199   0.693 -2.0030  0.2368 -1.8317
  463MPD2    H1 6949   2.572   0.296   0.646 -0.2872 -0.6324 -0.0628
  463MPD2    H2 6950   2.411   4.717   0.438  0.1358 -0.5254  0.7078
  463MPD2    H3 6951   2.593   0.123   0.489 -0.5927  0.0723 -0.3793
  463MPD2     N 6952   2.357   0.365   0.792 -0.2419 -0.0209  0.4602
  463MPD2    H5 6953   2.437   0.427   0.792  0.0012 -0.3329  0.2252
  463MPD2    N1 6954   2.149   0.016   0.526  0.4140  0.4904 -0.0535
  463MPD2    H7 6955   2.064   0.049   0.571  0.5889  0.8016  0.0514
  464TMC3    C1 6956   2.013   4.576   0.445  1.0593  0.0139 -0.2565
  464TMC3    C2 6957   1.915   4.620   0.527 -0.7454  0.2632 -0.4122
  464TMC3    C3 6958   1.812   4.527   0.561  0.3731 -0.2197  0.1255
  464TMC3    C4 6959   2.010   4.458   0.387  0.1173  0.7884  0.5873
  464TMC3    C5 6960   1.906   4.370   0.424  0.1535  0.2147  0.6566
  464TMC3    C6 6961   1.807   4.402   0.515 -0.4693 -0.0217  0.6965
  464TMC3     C 6962   2.134   4.657   0.431 -0.0047  0.0266  0.0337
  464TMC3     O 6963   2.219   4.597   0.366 -0.1687  0.0326 -0.1814
  464TMC3     H 6964   1.916   4.721   0.565  1.1824 -1.0832  3.1213
  464TMC3    H1 6965   2.093   4.410   0.336 -1.4062  0.1599 -1.2754
  464TMC3    H2 6966   1.725   4.341   0.550  0.9948 -1.5706  1.4554
  464TMC3    C7 6967   1.906   4.243   0.366 -0.1495 -0.1141 -0.0578
  464TMC3    C8 6968   1.734   4.558   0.678  0.5769 -1.2137 -0.1087
  464TMC3    O1 6969   2.008   4.207   0.307  0.3233  0.0256  0.5751
  464TMC3    O2 6970   1.620   4.531   0.682 -0.3065 -0.0957  0.3679
  465MPD2     C 6971   2.270   3.232  16.532  0.6846 -0.3389  1.1324
  465MPD2    C1 6972   2.159   3.227  16.612  0.5724  0.2844  0.4392
  465MPD2    C2 6973   2.032   3.233  16.556  0.2954  0.8039 -0.0012
  465MPD2    C3 6974   2.016   3.243  16.422  0.5388  0.5749  0.8883
  465MPD2    C4 6975   2.129   3.252  16.345 -0.2850  0.0481  0.8142
  465MPD2    C5 6976   2.250   3.243  16.402 -0.1677 -0.8766 -0.0252
  465MPD2     H 6977   1.947   3.244  16.623 -1.9784 -0.7963 -2.6460
  465MPD2    H1 6978   2.128   3.263  16.237  2.3067 -2.8476  0.4840
  465MPD2    H2 6979   2.370   3.231  16.575  1.3829 -0.6437 -0.4957
  465MPD2    H3 6980   2.334   3.258  16.335  0.8659  0.8257  1.6347
  465MPD2     N 6981   1.888   3.253  16.363 -0.4142  0.2053  0.1583
  465MPD2    H5 6982   1.807   3.251  16.425 -0.4984 -0.2754  0.0407
  465MPD2    N1 6983   2.165   3.218  16.751 -0.6094  0.0522 -0.0895
  465MPD2    H7 6984   2.076   3.236  16.796 -0.5102  2.8174 -0.9569
  466TMC3    C1 6985   1.525   3.346  16.349  0.1541 -0.8172  0.2341
  466TMC3    C2 6986   1.497   3.448  16.259 -0.2887  0.0141  0.2986
  466TMC3    C3 6987   1.578   3.458  16.150  1.0310  0.4854 -0.1563
  466TMC3    C4 6988   1.628   3.268  16.326  0.3260  0.2068 -0.5312
  466TMC3    C5 6989   1.705   3.284  16.214  0.1027  0.1245  0.1084
  466TMC3    C6 6990   1.678   3.375  16.115  0.7225  0.0452 -0.8034
  466TMC3     C 6991   1.446   3.330  16.469 -0.0368  0.2177 -0.3838
  466TMC3     O 6992   1.464   3.231  16.539  0.3769 -0.0822  0.6131
  466TMC3     H 6993   1.414   3.517  16.271 -0.0381  0.3649  0.0078
  466TMC3    H1 6994   1.649   3.187  16.395  2.4388  0.4351 -0.8842
  466TMC3    H2 6995   1.755   3.402  16.043  1.9127  1.1704  0.8756
  466TMC3    C7 6996   1.849   3.255  16.230 -0.0990 -0.1122  0.0178
  466TMC3    C8 6997   1.608   3.596  16.111 -0.3391  0.4766 -0.0984
  466TMC3    O1 6998   1.917   3.267  16.131 -0.4760  0.3684 -0.2158
  466TMC3    O2 6999   1.670   3.609  16.008 -0.1399  0.7287 -0.1196
  467TMC3    C1 7000   2.950   1.849  13.650 -0.3595 -0.2305  0.7575
  467TMC3    C2 7001   2.981   1.951  13.566 -0.2942 -0.8278  0.7927
  467TMC3    C3 7002   2.903   1.974  13.456  0.0140 -1.0933  0.3859
  467TMC3    C4 7003   2.833   1.778  13.638 -0.1565  0.3250 -0.4927
  467TMC3    C5 7004   2.759   1.813  13.525  0.8477  0.0718  0.3019
  467TMC3    C6 7005   2.793   1.899  13.424  0.1803 -0.4667 -0.0436
  467TMC3     C 7006   3.060   1.808  13.744 -0.0189  0.3120 -0.1070
  467TMC3     O 7007   3.150   1.891  13.745  0.2447 -0.4394  0.3616
  467TMC3     H 7008   3.065   2.015  13.590  0.6296 -0.9557 -2.0804
  467TMC3    H1 7009   2.794   1.710  13.713  1.6120  0.1281  0.2589
  467TMC3    H2 7010   2.728   1.928  13.343  1.4251 -1.4824 -1.3871
  467TMC3    C7 7011   2.640   1.732  13.508 -0.0749 -0.3252  0.3986
  467TMC3    C8 7012   2.906   2.104  13.400 -0.6252 -0.1473 -0.0283
  467TMC3    O1 7013   2.609   1.677  13.403 -0.4724  0.3193  0.1480
  467TMC3    O2 7014   2.936   2.194  13.472 -0.1345  0.0600  0.0064
  468MPD2     C 7015   1.467   0.000  10.495  0.1710 -0.4926 -0.1945
  468MPD2    C1 7016   1.560   0.030  10.594  0.8947  0.0936 -0.0946
  468MPD2    C2 7017   1.641   4.670  10.651 -0.2727 -0.1107  0.4711
  468MPD2    C3 7018   1.619   4.536  10.619 -0.1637 -0.4169 -0.3214
  468MPD2    C4 7019   1.522   4.506  10.526  0.5891 -0.0842 -0.0463
  468MPD2    C5 7020   1.450   4.610  10.473  0.0447 -0.1721 -0.4097
  468MPD2     H 7021   1.733   4.679  10.708 -0.1615 -0.6551  0.3825
  468MPD2    H1 7022   1.504   4.416  10.469  0.8763  0.5168 -1.0711
  468MPD2    H2 7023   1.392   0.065  10.451  0.5920  0.3027  0.2594
  468MPD2    H3 7024   1.376   4.574  10.402 -0.5254  0.1924  0.0062
  468MPD2     N 7025   1.699   4.431  10.668  0.3434 -0.1606 -0.3972
  468MPD2    H5 7026   1.686   4.341  10.622 -0.1746 -0.5742  0.5560
  468MPD2    N1 7027   1.583   0.162  10.631 -0.1334 -0.4578 -0.1677
  468MPD2    H7 7028   1.663   0.173  10.694 -0.4156 -0.1110  0.1298
  469TMC3    C1 7029   1.559   0.399  10.630  0.2800 -0.6265 -1.0191
  469TMC3    C2 7030   1.693   0.412  10.662 -0.9593  0.3417 -0.3763
  469TMC3    C3 7031   1.727   0.528  10.727 -0.3157  0.3064 -0.1799
  469TMC3    C4 7032   1.478   0.504  10.635  0.3658 -1.0603  0.4589
  469TMC3    C5 7033   1.523   0.620  10.682 -0.4116 -0.5050  0.9575
  469TMC3    C6 7034   1.639   0.634  10.750 -0.1981 -0.5569 -0.4928
  469TMC3     C 7035   1.496   0.268  10.605 -0.1086 -0.8854  0.4318
  469TMC3     O 7036   1.384   0.258  10.561  0.0881  0.7082  0.3228
  469TMC3     H 7037   1.773   0.341  10.642 -0.5674  0.5316  0.4738
  469TMC3    H1 7038   1.396   0.494  10.566 -0.0113  1.1217  0.5985
  469TMC3    H2 7039   1.666   0.726  10.801  0.6465 -1.3594  0.5064
  469TMC3    C7 7040   1.426   0.722  10.708  0.6323  0.3396  0.4944
  469TMC3    C8 7041   1.847   0.523  10.804  0.3173 -0.5908 -0.5105
  469TMC3    O1 7042   1.309   0.688  10.691 -0.1772 -1.1377 -0.4374
  469TMC3    O2 7043   1.936   0.466  10.747 -0.0957  0.2622 -0.2573
  470TMC3    C1 7044   0.161   1.098   0.944  0.1743  0.7655  0.4336
  470TMC3    C2 7045   0.173   1.228   0.888  0.2314  0.0741  0.0860
  470TMC3    C3 7046   0.285   1.299   0.924  0.5661  0.1652 -1.5596
  470TMC3    C4 7047   0.258   1.041   1.021  0.7587  0.4761  0.5181
  470TMC3    C5 7048   0.372   1.110   1.044  0.1140 -0.3704  0.1450
  470TMC3    C6 7049   0.388   1.235   0.996 -0.1797 -0.5834  0.2456
  470TMC3     C 7050   0.049   1.019   0.918  0.2030 -0.0116  0.5291
  470TMC3     O 7051   0.030   0.915   0.983  0.4447  0.0198  0.1853
  470TMC3     H 7052   0.087   1.280   0.848 -0.0067  0.1241  0.6619
  470TMC3    H1 7053   0.247   0.941   1.063  1.7642  0.1670  0.0584
  470TMC3    H2 7054   0.476   1.285   1.036  0.8605 -0.9012 -1.6651
  470TMC3    C7 7055   0.483   1.037   1.105  0.2046 -0.8135 -0.4877
  470TMC3    C8 7056   0.307   1.437   0.874 -0.6580 -0.3857  0.1362
  470TMC3    O1 7057   0.597   1.065   1.070 -0.1371 -0.1404 -0.2077
  470TMC3    O2 7058   0.220   1.510   0.835  0.6951 -0.1771  0.0883
  471MPD2     C 7059   4.706   2.271  16.641 -0.5845 -0.6029  0.1142
  471MPD2    C1 7060   4.724   2.137  16.613 -0.3512 -0.6664  0.5281
  471MPD2    C2 7061   0.091   2.074  16.667  0.7991 -0.1798 -0.6919
  471MPD2    C3 7062   0.179   2.136  16.759 -0.1708 -0.7532  1.2166
  471MPD2    C4 7063   0.155   2.264  16.796 -0.3094 -0.7086 -0.2601
  471MPD2    C5 7064   0.050   2.328  16.735 -0.1273 -0.2429 -0.3985
  471MPD2     H 7065   0.104   1.972  16.633 -1.2760 -1.2025  1.5323
  471MPD2    H1 7066   0.221   2.319  16.862  1.2136 -0.4850 -1.9773
  471MPD2    H2 7067   4.624   2.326  16.598  1.0419  0.9383 -0.9937
  471MPD2    H3 7068   0.021   2.426  16.771  0.5298 -0.3648  0.4701
  471MPD2     N 7069   0.287   2.067  16.814 -0.2919 -0.0821 -0.1691
  471MPD2    H5 7070   0.356   2.121  16.866 -1.1876 -0.7662  1.7153
  471MPD2    N1 7071   4.642   2.057  16.530 -0.1400  0.4703  0.4690
  471MPD2    H7 7072   4.673   1.961  16.513  0.9202  1.1426 -1.3600
  472TMC3    C1 7073   4.437   1.963  16.467 -0.5870 -0.4954 -0.5209
  472TMC3    C2 7074   4.341   1.972  16.373  0.3337  0.2762  0.5918
  472TMC3    C3 7075   4.299   1.847  16.333  0.5707  0.2842 -0.4159
  472TMC3    C4 7076   4.476   1.857  16.537  0.1448  0.2178  0.3850
  472TMC3    C5 7077   4.420   1.738  16.508 -0.1863  0.1438 -0.3527
  472TMC3    C6 7078   4.333   1.733  16.403 -0.5330  0.9054 -0.5294
  472TMC3     C 7079   4.513   2.085  16.487  0.3667 -0.2935 -0.0631
  472TMC3     O 7080   4.444   2.184  16.502  0.4975 -0.5745 -0.0782
  472TMC3     H 7081   4.323   2.066  16.321 -1.1018 -1.9491 -2.8719
  472TMC3    H1 7082   4.539   1.874  16.624  1.4324 -1.9683 -0.1155
  472TMC3    H2 7083   4.284   1.638  16.385 -1.6898  1.7723 -1.9741
  472TMC3    C7 7084   4.463   1.621  16.580  0.2741  0.0720  0.3422
  472TMC3    C8 7085   4.160   1.840  16.270  0.2797 -0.8241 -0.3702
  472TMC3    O1 7086   4.509   1.625  16.695 -0.1548  0.3233  0.0748
  472TMC3    O2 7087   4.140   1.884  16.158  0.0428  0.0975  0.7100
  473MPD2     C 7088   4.589   4.189  13.737 -0.0640 -0.1632 -0.5676
  473MPD2    C1 7089   4.522   4.310  13.732  0.0299 -0.1993 -0.2148
  473MPD2    C2 7090   4.532   4.400  13.834  1.2865 -0.1682  0.2234
  473MPD2    C3 7091   4.623   4.375  13.940 -0.4743  0.7000  0.2282
  473MPD2    C4 7092   4.702   4.260  13.942 -0.5632  0.0918 -0.0364
  473MPD2    C5 7093   4.680   4.169  13.836  0.6299  0.0597  0.8066
  473MPD2     H 7094   4.482   4.496  13.828 -0.6937 -1.0962  1.7755
  473MPD2    H1 7095   0.012   4.236  14.035  1.0617 -3.3493 -1.7927
  473MPD2    H2 7096   4.581   4.109  13.665  1.2100 -0.8747  0.0829
  473MPD2    H3 7097   4.731   4.073  13.837 -0.3186 -0.4586  0.3999
  473MPD2     N 7098   4.631   4.461  14.050 -0.1886 -0.0260  0.1567
  473MPD2    H5 7099   4.696   4.430  14.122 -3.0185 -0.0713  2.6637
  473MPD2    N1 7100   4.449   4.343  13.616  0.1325  0.2656 -0.0086
  473MPD2    H7 7101   4.412   4.438  13.617  0.2353  0.2968  2.1535
  474TMC3    C1 7102   4.608   4.639  14.202  0.3775 -0.7315 -0.1030
  474TMC3    C2 7103   4.585   0.037  14.210 -0.3915  0.7536  0.8800
  474TMC3    C3 7104   4.620   0.093  14.330  0.8745  0.1037 -0.3742
  474TMC3    C4 7105   4.670   4.565  14.302 -0.0326  0.3592 -0.2353
  474TMC3    C5 7106   4.715   4.631  14.414  0.4669 -0.0265 -0.0656
  474TMC3    C6 7107   4.684   0.024  14.429 -0.5294 -0.0137  0.7581
  474TMC3     C 7108   4.555   4.576  14.084 -0.2285 -0.4000 -0.4240
  474TMC3     O 7109   4.483   4.642  14.010 -0.2695  0.0851 -0.3965
  474TMC3     H 7110   4.535   0.092  14.132  1.1626 -0.1254 -0.7408
  474TMC3    H1 7111   4.682   4.457  14.300 -1.0135  0.2820 -2.5338
  474TMC3    H2 7112   4.699   0.072  14.525 -0.1413  0.3687  0.5081
  474TMC3    C7 7113   0.059   4.559  14.499 -0.4942 -0.0102 -0.1383
  474TMC3    C8 7114   4.522   0.195  14.370  0.5003  0.0081 -0.0008
  474TMC3    O1 7115   0.085   4.441  14.469  0.0491  0.6387  0.2785
  474TMC3    O2 7116   4.482   0.201  14.485  0.2464  0.5119  0.3039
  475MPD2     C 7117   2.091   3.012  11.257  0.3529 -0.1105 -0.1699
  475MPD2    C1 7118   2.170   3.064  11.154 -0.0528  0.1083  0.6668
  475MPD2    C2 7119   2.099   3.099  11.035 -0.3754  0.8422  1.0782
  475MPD2    C3 7120   1.959   3.085  11.017  0.0634 -0.5280 -0.0238
  475MPD2    C4 7121   1.884   3.024  11.120  0.6438 -0.3946  0.1798
  475MPD2    C5 7122   1.961   2.984  11.228 -0.5552  0.1062 -0.6664
  475MPD2     H 7123   2.161   3.139  10.955 -0.8065  2.5015  1.5577
  475MPD2    H1 7124   1.777   3.014  11.108  0.6186 -0.2545  0.2903
  475MPD2    H2 7125   2.141   2.982  11.348  0.2987  0.4746  0.0531
  475MPD2    H3 7126   1.898   2.952  11.311  2.0550  0.3918  1.4127
  475MPD2     N 7127   1.888   3.137  10.903 -0.6226 -0.1569 -0.7708
  475MPD2    H5 7128   1.787   3.133  10.905 -0.5628  0.4077  3.0450
  475MPD2    N1 7129   2.310   3.068  11.167 -0.3318  0.5426  0.7220
  475MPD2    H7 7130   2.333   3.044  11.263  0.5457  1.4805  0.7433
  476TMC3    C1 7131   2.545   3.110  11.131  0.4197 -0.1302 -0.2135
  476TMC3    C2 7132   2.642   3.103  11.038 -0.2583  0.5564 -0.0075
  476TMC3    C3 7133   2.761   3.155  11.080 -0.1314  0.1220 -0.7991
  476TMC3    C4 7134   2.561   3.164  11.254 -0.2657  0.3864  0.1067
  476TMC3    C5 7135   2.683   3.224  11.283  0.4483  0.5255 -0.3809
  476TMC3    C6 7136   2.781   3.229  11.195  0.1581  0.5628  0.0380
  476TMC3     C 7137   2.412   3.095  11.079 -0.5344  0.0404 -0.8182
  476TMC3     O 7138   2.401   3.114  10.959  0.1762 -0.4595  0.3719
  476TMC3     H 7139   2.624   3.059  10.941  0.6633  0.3776 -0.0959
  476TMC3    H1 7140   2.483   3.177  11.328 -0.3626 -0.2435  0.1115
  476TMC3    H2 7141   2.877   3.270  11.222  0.3128  0.9188 -1.0849
  476TMC3    C7 7142   2.650   3.343  11.355 -1.1437 -0.1013 -0.1482
  476TMC3    C8 7143   2.882   3.134  10.998 -0.0359  0.0020 -0.2082
  476TMC3    O1 7144   2.589   3.327  11.459  0.0777  0.6687  0.0779
  476TMC3    O2 7145   2.962   3.224  11.009 -0.1201  0.6701  0.1505
  477MPD2     C 7146   4.676   3.865  11.695  0.3934 -0.2123  0.3542
  477MPD2    C1 7147   4.725   3.976  11.760  0.2812 -0.0974  0.2664
  477MPD2    C2 7148   0.090   3.957  11.854 -0.0750  0.4169  0.4390
  477MPD2    C3 7149   0.152   3.832  11.873 -0.5491 -0.3131  0.6417
  477MPD2    C4 7150   0.109   3.733  11.789  0.1971  0.4324 -0.2226
  477MPD2    C5 7151   0.005   3.748  11.706  0.3894  0.0773 -0.0461
  477MPD2     H 7152   0.134   4.040  11.907 -1.8391  2.1857 -0.8789
  477MPD2    H1 7153   0.148   3.632  11.794  1.5098  0.9920  0.6808
  477MPD2    H2 7154   4.587   3.867  11.632  0.5207  1.4189  0.2192
  477MPD2    H3 7155   4.711   3.668  11.641  0.6908  0.6283 -0.8832
  477MPD2     N 7156   0.264   3.812  11.957 -0.1967  0.1555 -0.4170
  477MPD2    H5 7157   0.273   3.870  12.039  0.9765  2.2309 -2.0256
  477MPD2    N1 7158   4.656   4.103  11.736  0.1382 -0.5582 -0.4518
  477MPD2    H7 7159   4.579   4.103  11.670  0.6503 -1.4312 -1.0583
  478TMC3    C1 7160   4.602   4.330  11.755 -0.3767 -0.0965 -0.9037
  478TMC3    C2 7161   4.645   4.454  11.781  0.5189  0.1742  0.4590
  478TMC3    C3 7162   4.607   4.562  11.709 -0.2882  0.1507 -0.6237
  478TMC3    C4 7163   4.501   4.318  11.659  0.3227  0.2753  0.8625
  478TMC3    C5 7164   4.468   4.430  11.583  0.0832 -0.2239  0.8228
  478TMC3    C6 7165   4.516   4.555  11.610  0.3702 -0.2220 -0.3463
  478TMC3     C 7166   4.686   4.220  11.799  0.3456  0.2698  0.5029
  478TMC3     O 7167   0.044   4.246  11.868  0.8846 -0.2054 -0.5461
  478TMC3     H 7168   4.732   4.475  11.842  0.9491 -0.4857  0.0625
  478TMC3    H1 7169   4.451   4.223  11.643 -1.3272  1.4596 -1.0269
  478TMC3    H2 7170   4.467   4.643  11.569  0.7944  0.1596 -0.0410
  478TMC3    C7 7171   4.378   4.411  11.473 -0.4688 -0.3277 -0.4587
  478TMC3    C8 7172   4.609   4.677  11.796 -0.5811 -0.2125  0.1081
  478TMC3    O1 7173   4.309   4.312  11.484 -0.7181 -0.3439  0.0562
  478TMC3    O2 7174   4.619   4.653  11.913  0.3800 -0.0448 -0.0949
  479MPD2     C 7175   4.179   1.335  15.197  0.4438 -0.0437 -1.1697
  479MPD2    C1 7176   4.151   1.249  15.307  0.3926  0.5062 -0.3547
  479MPD2    C2 7177   4.207   1.274  15.431  0.0482  0.0255  0.0279
  479MPD2    C3 7178   4.295   1.382  15.442 -0.5819 -0.3313 -0.2812
  479MPD2    C4 7179   4.332   1.456  15.333 -0.4266 -0.0703  0.1286
  479MPD2    C5 7180   4.275   1.428  15.210  0.6116 -0.1011 -0.5301
  479MPD2     H 7181   4.184   1.215  15.518 -0.0681  1.3626  0.9139
  479MPD2    H1 7182   4.400   1.540  15.332  1.6569 -1.7842 -3.1322
  479MPD2    H2 7183   4.133   1.330  15.099  2.1663 -0.2050 -1.9754
  479MPD2    H3 7184   4.302   1.496  15.130 -0.1155 -0.4372 -1.0602
  479MPD2     N 7185   4.345   1.419  15.569  0.1772  0.2964 -0.3543
  479MPD2    H5 7186   4.423   1.483  15.562 -0.5297  1.0251 -1.6543
  479MPD2    N1 7187   4.056   1.149  15.287 -0.6109 -0.1610  0.3128
  479MPD2    H7 7188   4.011   1.126  15.199 -1.1434  0.0290  0.5334
  480TMC3    C1 7189   3.981   1.289  15.854 -0.7077  0.3601  0.3998
  480TMC3    C2 7190   3.887   1.336  15.763  0.4049 -0.3786 -0.3261
  480TMC3    C3 7191   3.941   1.395  15.650 -0.2680 -0.2945 -0.9557
  480TMC3    C4 7192   4.114   1.302  15.835  0.1351 -0.0080 -0.5454
  480TMC3    C5 7193   4.159   1.368  15.726 -0.3694 -0.7958 -0.1338
  480TMC3    C6 7194   4.069   1.425  15.637  0.5518  0.0342 -0.2991
  480TMC3     C 7195   3.927   1.206  15.963 -0.4616  0.0820  0.3849
  480TMC3     O 7196   3.817   1.149  15.953  0.1292 -0.0482 -0.1809
  480TMC3     H 7197   3.783   1.341  15.790  0.4734 -2.9508  0.4053
  480TMC3    H1 7198   4.187   1.257  15.901 -0.0428 -2.2224 -1.8624
  480TMC3    H2 7199   4.102   1.507  15.575 -0.7295  0.5151 -0.3416
  480TMC3    C7 7200   4.301   1.373  15.701  0.0403 -0.0410 -0.4758
  480TMC3    C8 7201   3.850   1.424  15.540 -0.3702 -0.3040 -0.3115
  480TMC3    O1 7202   4.367   1.372  15.801 -0.0380 -0.7669  0.5463
  480TMC3    O2 7203   3.731   1.402  15.560 -0.1058  0.3755 -0.1939
  481MPD2     C 7204   1.324   1.135  14.163 -0.1675 -0.6299 -0.5682
  481MPD2    C1 7205   1.201   1.098  14.200 -0.1737 -0.1583  0.5697
  481MPD2    C2 7206   1.182   1.038  14.319 -0.2082  0.0271  0.0436
  481MPD2    C3 7207   1.284   1.005  14.404 -0.3516 -0.6654  0.7834
  481MPD2    C4 7208   1.411   1.036  14.359 -0.5607 -0.2973  0.5791
  481MPD2    C5 7209   1.430   1.105  14.239  0.9926  0.1492  0.9703
  481MPD2     H 7210   1.083   1.008  14.351  0.1726  1.0846  2.2159
  481MPD2    H1 7211   1.496   1.022  14.425  1.3383 -1.1844 -2.0040
  481MPD2    H2 7212   1.332   1.197  14.075 -2.4619  0.0619 -0.2831
  481MPD2    H3 7213   1.533   1.122  14.211  1.0647 -1.0814  0.5323
  481MPD2     N 7214   1.279   0.937  14.525  1.0707 -0.5171 -0.1453
  481MPD2    H5 7215   1.371   0.927  14.566  0.7453  0.9657  0.9187
  481MPD2    N1 7216   1.092   1.142  14.120 -0.7316 -0.3166 -0.5044
  481MPD2    H7 7217   1.112   1.209  14.046  1.1417  0.0215  0.2926
  482TMC3    C1 7218   0.863   1.177  14.078  0.1188  0.3393 -0.4074
  482TMC3    C2 7219   0.744   1.114  14.079 -0.2216  0.3835  0.5014
  482TMC3    C3 7220   0.652   1.158  13.994  0.6897 -0.4413 -0.0924
  482TMC3    C4 7221   0.891   1.288  14.004 -0.4642  0.8510  0.1901
  482TMC3    C5 7222   0.794   1.343  13.923  0.0699 -0.0619 -0.0690
  482TMC3    C6 7223   0.675   1.274  13.915  0.2990  0.6087  0.1749
  482TMC3     C 7224   0.966   1.090  14.127 -0.0373  0.6448  0.5545
  482TMC3     O 7225   0.935   0.983  14.184 -0.4755 -0.1359  0.1781
  482TMC3     H 7226   0.718   1.025  14.135  0.1788  0.1688  0.3447
  482TMC3    H1 7227   0.992   1.324  13.987  0.4747 -1.2646  1.2399
  482TMC3    H2 7228   0.594   1.307  13.852 -0.0422 -0.1778  0.1954
  482TMC3    C7 7229   0.856   1.392  13.798  0.3571  0.2699 -0.1698
  482TMC3    C8 7230   0.534   1.075  13.978  0.1521  0.0227  0.2106
  482TMC3    O1 7231   0.976   1.423  13.802  0.1680 -0.8439  0.2799
  482TMC3    O2 7232   0.536   0.954  14.003 -0.5698  0.0953 -0.6499
  483TMC3    C1 7233   3.833   0.106   1.267  0.3350 -0.2064 -0.0753
  483TMC3    C2 7234   3.843   0.233   1.205  0.2307 -0.3988 -0.2564
  483TMC3    C3 7235   3.968   0.285   1.184  0.0661  0.0593  0.0193
  483TMC3    C4 7236   3.947   0.038   1.300 -0.2966  0.3907  0.2506
  483TMC3    C5 7237   4.064   0.101   1.283 -0.4169  0.7251  0.0438
  483TMC3    C6 7238   4.077   0.220   1.223 -0.4994  0.5169 -0.3066
  483TMC3     C 7239   3.717   0.032   1.234  0.4821 -0.1657 -0.2438
  483TMC3     O 7240   3.614   0.096   1.222 -0.7556 -0.0776 -0.3604
  483TMC3     H 7241   3.757   0.278   1.157  0.0266  0.8015  1.2353
  483TMC3    H1 7242   3.936   4.686   1.358  1.0186 -0.7883 -1.3644
  483TMC3    H2 7243   4.171   0.263   1.191  0.2669 -0.2972  0.8769
  483TMC3    C7 7244   4.185   0.034   1.314  0.7184 -0.2139  0.2611
  483TMC3    C8 7245   3.990   0.381   1.071  0.1498 -0.0210 -0.4571
  483TMC3    O1 7246   4.289   0.092   1.295  0.7121  0.0160 -0.4347
  483TMC3    O2 7247   4.079   0.349   0.997 -0.3393  0.8050  0.5302
  484MPD2     C 7248   1.106   3.239  12.658  0.7337 -0.6666 -0.2388
  484MPD2    C1 7249   1.197   3.166  12.732 -0.7591  0.1313 -0.2272
  484MPD2    C2 7250   1.331   3.204  12.715 -0.5914  0.9831  0.2680
  484MPD2    C3 7251   1.387   3.305  12.635  0.1520 -0.0030 -0.1602
  484MPD2    C4 7252   1.294   3.367  12.560 -0.8188  0.0651 -0.1352
  484MPD2    C5 7253   1.161   3.332  12.570 -0.1430 -0.5912  0.2368
  484MPD2     H 7254   1.407   3.159  12.778 -1.5375 -0.9618  0.0201
  484MPD2    H1 7255   1.332   3.432  12.481 -1.9499  1.2373  0.2816
  484MPD2    H2 7256   1.002   3.210  12.658 -0.0420  2.1314  2.2605
  484MPD2    H3 7257   1.094   3.388  12.505 -0.3809  0.2396  1.2056
  484MPD2     N 7258   1.520   3.342  12.619 -0.1214  0.8619 -0.3592
  484MPD2    H5 7259   1.534   3.434  12.577  3.5141  0.1676 -0.6280
  484MPD2    N1 7260   1.146   3.067  12.819  0.1937  0.7819  0.1471
  484MPD2    H7 7261   1.047   3.047  12.812  0.3018 -0.2449  1.6225
  485TMC3    C1 7262   1.749   3.316  12.591  0.4383 -0.2700 -0.2458
  485TMC3    C2 7263   1.864   3.310  12.659  0.4446  0.4849 -0.2192
  485TMC3    C3 7264   1.969   3.393  12.628 -0.5657 -0.2972 -0.2445
  485TMC3    C4 7265   1.742   3.378  12.469  0.0365 -0.1004 -0.3087
  485TMC3    C5 7266   1.848   3.456  12.432 -0.6061  0.3183 -0.0070
  485TMC3    C6 7267   1.950   3.477  12.522  0.1960  0.2092 -0.1037
  485TMC3     C 7268   1.630   3.263  12.656 -0.1772  0.6878  1.0933
  485TMC3     O 7269   1.632   3.165  12.727  0.5881  0.6005  0.2143
  485TMC3     H 7270   1.868   3.241  12.743  1.5200  0.8886  0.0551
  485TMC3    H1 7271   1.645   3.388  12.422 -0.6246 -0.2909  1.0035
  485TMC3    H2 7272   2.018   3.561  12.508 -0.3027  1.0404  2.4735
  485TMC3    C7 7273   1.885   3.458  12.293  0.4463 -0.3909  0.3701
  485TMC3    C8 7274   2.088   3.315  12.586 -0.0998  0.2437  0.0271
  485TMC3    O1 7275   1.790   3.435  12.219  0.1862 -0.2008  0.0006
  485TMC3    O2 7276   2.160   3.366  12.496 -0.6619  0.5367 -0.2307
  486MPD2     C 7277   3.371   1.600  12.824 -0.2189 -0.7768 -0.8579
  486MPD2    C1 7278   3.357   1.593  12.687  0.5238  0.4555 -0.3072
  486MPD2    C2 7279   3.319   1.711  12.621  0.6458 -0.4235 -0.1117
  486MPD2    C3 7280   3.296   1.826  12.694  0.4094  0.3708  0.3078
  486MPD2    C4 7281   3.304   1.832  12.833  0.2513 -0.1714 -0.6866
  486MPD2    C5 7282   3.349   1.715  12.886  0.6433  0.0118 -0.4047
  486MPD2     H 7283   3.305   1.717  12.513  0.1803 -0.8499 -0.0776
  486MPD2    H1 7284   3.281   1.912  12.902 -0.4693 -1.0913  0.1402
  486MPD2    H2 7285   3.417   1.516  12.873  0.0034  0.2290  0.6434
  486MPD2    H3 7286   3.371   1.710  12.992  0.5634  0.7161 -0.3588
  486MPD2     N 7287   3.260   1.941  12.618  0.5027  0.6274 -0.2109
  486MPD2    H5 7288   3.257   1.942  12.517 -0.7261 -0.0520 -0.1832
  486MPD2    N1 7289   3.377   1.469  12.621 -0.2947  0.1730  0.1208
  486MPD2    H7 7290   3.388   1.384  12.676 -1.2217  1.0256  1.6006
  487TMC3    C1 7291   3.381   1.309  12.454  0.1128 -0.5469  0.1963
  487TMC3    C2 7292   3.266   1.237  12.421 -0.1234 -0.5533  0.3167
  487TMC3    C3 7293   3.256   1.102  12.462 -0.5062  0.5092  0.0925
  487TMC3    C4 7294   3.476   1.234  12.528  0.1677 -0.8929  0.0125
  487TMC3    C5 7295   3.457   1.098  12.565 -1.0536  0.2107 -0.4744
  487TMC3    C6 7296   3.343   1.026  12.528 -0.4938 -0.3133 -0.2598
  487TMC3     C 7297   3.358   1.446  12.486  0.6782  0.4984  0.3626
  487TMC3     O 7298   3.327   1.516  12.389 -0.3622 -0.4131 -0.0818
  487TMC3     H 7299   3.185   1.284  12.366  1.6347  2.2124  0.0753
  487TMC3    H1 7300   3.560   1.280  12.580 -1.0107  1.6373 -0.3351
  487TMC3    H2 7301   3.310   0.930  12.565  1.5208 -0.3564  1.4477
  487TMC3    C7 7302   3.508   1.055  12.696  0.3266  0.4778 -0.7472
  487TMC3    C8 7303   3.119   1.067  12.476 -0.2529 -0.9920  0.0884
  487TMC3    O1 7304   3.543   1.144  12.769  0.1833  0.0773  0.0954
  487TMC3    O2 7305   3.047   1.068  12.379 -0.2365  1.1708 -0.0631
  488MPD2     C 7306   3.876   3.023  16.248  0.0589 -0.0802 -0.4420
  488MPD2    C1 7307   3.811   3.131  16.181 -0.1405 -0.6141  0.5192
  488MPD2    C2 7308   3.718   3.201  16.252 -0.7861 -0.4662 -0.1993
  488MPD2    C3 7309   3.683   3.168  16.385  0.1924 -1.1107  0.5909
  488MPD2    C4 7310   3.746   3.060  16.443  0.9833  1.1325  0.4977
  488MPD2    C5 7311   3.839   2.987  16.375  0.4926 -0.0717 -0.6239
  488MPD2     H 7312   3.681   3.289  16.202 -0.6267  1.0998  2.4843
  488MPD2    H1 7313   3.714   3.027  16.541  0.2104  0.1405 -0.0828
  488MPD2    H2 7314   3.961   2.971  16.205  1.3127  0.9985  0.7355
  488MPD2    H3 7315   3.884   2.898  16.417 -0.3207 -0.0835  0.2218
  488MPD2     N 7316   3.596   3.252  16.455 -0.2329 -0.5106  0.4322
  488MPD2    H5 7317   3.579   3.339  16.405 -1.8496 -1.0783 -0.0165
  488MPD2    N1 7318   3.856   3.180  16.052  0.1890 -0.0497 -0.4170
  488MPD2    H7 7319   3.799   3.259  16.023  0.6936  0.4736  0.0103
  489TMC3    C1 7320   3.524   3.388  16.632 -0.9011 -0.4007 -0.3603
  489TMC3    C2 7321   3.543   3.495  16.552 -0.5348  0.0016 -0.5268
  489TMC3    C3 7322   3.560   3.627  16.610 -0.8410  0.6263  0.3996
  489TMC3    C4 7323   3.530   3.402  16.765  0.0051  0.1767 -0.2447
  489TMC3    C5 7324   3.568   3.517  16.821 -0.3617 -0.2905 -0.4823
  489TMC3    C6 7325   3.581   3.633  16.739 -0.0777 -0.1534  0.6954
  489TMC3     C 7326   3.552   3.255  16.585  0.5739  0.4020  0.1869
  489TMC3     O 7327   3.582   3.170  16.669 -0.0408  0.5975 -0.0533
  489TMC3     H 7328   3.524   3.497  16.446 -0.8398  1.4939 -0.4426
  489TMC3    H1 7329   3.514   3.309  16.819 -1.9420  0.9292  0.4775
  489TMC3    H2 7330   3.603   3.724  16.794 -1.7435 -0.4088  1.8005
  489TMC3    C7 7331   3.583   3.543  16.966  0.4522 -0.0209 -0.0932
  489TMC3    C8 7332   3.538   3.746  16.527  0.0668 -0.5101  0.1758
  489TMC3    O1 7333   3.571   3.659  17.007 -0.1490 -0.0396  0.0378
  489TMC3    O2 7334   3.510   3.720  16.410 -0.1957  0.1156  0.6615
  490MPD2     C 7335   0.014   3.144  17.173  0.1771 -0.3050  0.5658
  490MPD2    C1 7336   4.714   3.077  17.289 -0.6584 -0.1652 -0.3845
  490MPD2    C2 7337   0.071   3.012  17.365 -0.0564 -0.2073 -0.7492
  490MPD2    C3 7338   0.193   2.988  17.315 -0.8070 -0.5685 -0.2432
  490MPD2    C4 7339   0.231   3.051  17.201 -0.4219  0.0094  0.1795
  490MPD2    C5 7340   0.143   3.135  17.134  0.3811 -0.3496 -0.0142
  490MPD2     H 7341   0.027   2.967  17.453  1.0646  0.2507  0.0483
  490MPD2    H1 7342   0.328   3.024  17.163  0.5144  2.0321  1.1019
  490MPD2    H2 7343   4.682   3.197  17.112  1.1815  1.1622  0.6327
  490MPD2    H3 7344   0.160   3.186  17.039 -0.1117 -3.1241 -1.5764
  490MPD2     N 7345   0.286   2.899  17.377 -0.4621  0.1322 -0.3059
  490MPD2    H5 7346   0.364   2.881  17.316 -1.0446  0.4332 -1.1324
  490MPD2    N1 7347   4.581   3.067  17.337  0.0185 -0.1615  0.5858
  490MPD2    H7 7348   4.577   3.024  17.429  0.0524 -1.0128  0.1884
  491TMC3    C1 7349   4.377   2.976  17.300 -0.1144  0.6651 -0.4149
  491TMC3    C2 7350   4.403   2.923  17.423 -0.5198 -1.0675  0.4061
  491TMC3    C3 7351   4.357   2.795  17.452 -0.4363  0.2916 -0.0711
  491TMC3    C4 7352   4.325   2.898  17.199 -0.3293 -0.0322  0.2702
  491TMC3    C5 7353   4.278   2.773  17.234 -1.1840 -0.1907 -0.5408
  491TMC3    C6 7354   4.300   2.717  17.352  0.9852 -0.2427  0.0583
  491TMC3     C 7355   4.478   3.060  17.252 -0.3170  0.4323  0.2930
  491TMC3     O 7356   4.476   3.099  17.138 -0.1734  0.1971 -0.0984
  491TMC3     H 7357   4.455   2.972  17.505  0.9401 -1.2977 -0.3661
  491TMC3    H1 7358   4.313   2.944  17.102 -4.1310  2.2936  1.8363
  491TMC3    H2 7359   4.269   2.613  17.364 -0.6356  0.6593  3.6043
  491TMC3    C7 7360   4.196   2.695  17.131  0.2268 -0.2559  0.1396
  491TMC3    C8 7361   4.417   2.739  17.577 -0.2889 -0.2027 -0.6315
  491TMC3    O1 7362   4.181   2.576  17.156 -0.4011 -0.0942  0.1019
  491TMC3    O2 7363   4.426   2.819  17.673 -0.5760  0.9089  0.6480
  492MPD2     C 7364   0.094   3.293  10.700 -0.3784 -0.0989 -0.2102
  492MPD2    C1 7365   4.728   3.219  10.687  0.0041 -0.3787 -0.1144
  492MPD2    C2 7366   4.667   3.160  10.804 -0.0886  0.3049 -0.6929
  492MPD2    C3 7367   4.737   3.172  10.926  0.7385 -0.2197  0.3877
  492MPD2    C4 7368   0.109   3.256  10.936  0.3095 -0.7230  0.2302
  492MPD2    C5 7369   0.156   3.314  10.820  0.4312  0.0029 -0.1167
  492MPD2     H 7370   4.587   3.087  10.801  1.5094 -1.4093 -2.0872
  492MPD2    H1 7371   0.155   3.290  11.028  0.6325  1.7825 -0.8555
  492MPD2    H2 7372   0.130   3.350  10.615 -1.2017  0.8711  0.0837
  492MPD2    H3 7373   0.247   3.372  10.832  0.1326  0.6108 -0.8279
  492MPD2     N 7374   4.709   3.099  11.046  0.3151 -0.0862  1.0423
  492MPD2    H5 7375   0.033   3.120  11.122  0.4873 -1.8262  1.3837
  492MPD2    N1 7376   4.685   3.204  10.557  0.3951 -0.7552  0.2244
  492MPD2    H7 7377   0.006   3.258  10.495 -0.6584  0.3132  0.1252
  493TMC3    C1 7378   4.555   3.150  10.370  0.0229 -0.2829  0.5674
  493TMC3    C2 7379   4.596   3.259  10.298 -0.4163  0.3879 -1.1161
  493TMC3    C3 7380   4.565   3.274  10.166 -0.3310 -0.7395 -0.2685
  493TMC3    C4 7381   4.473   3.059  10.317  0.6914 -0.5865  0.0909
  493TMC3    C5 7382   4.434   3.081  10.187  0.2683 -0.3753  0.6392
  493TMC3    C6 7383   4.477   3.187  10.112 -0.5783 -0.1463  0.1427
  493TMC3     C 7384   4.574   3.142  10.512 -0.0573 -0.5321 -0.3523
  493TMC3     O 7385   4.489   3.093  10.579 -0.5138 -0.0376 -0.3412
  493TMC3     H 7386   4.644   3.342  10.349  0.8007 -0.9150 -0.1532
  493TMC3    H1 7387   4.442   2.973  10.375 -1.6781  0.2690  0.1174
  493TMC3    H2 7388   4.439   3.191  10.010 -0.2518  0.6829  0.0532
  493TMC3    C7 7389   4.308   3.024  10.144  0.5249 -0.1412  0.7926
  493TMC3    C8 7390   4.603   3.388  10.092  0.0996  0.0893 -0.9520
  493TMC3    O1 7391   4.264   2.948  10.228 -0.1587  0.0895  0.0205
  493TMC3    O2 7392   4.542   3.409   9.988 -0.0578  0.2277 -0.1368
  494TMC3    C1 7393   0.774   4.477   0.546  0.0861  0.0020  0.0053
  494TMC3    C2 7394   0.781   4.346   0.562 -0.1913  0.1392  0.1293
  494TMC3    C3 7395   0.783   4.271   0.449 -0.6490 -0.0393 -0.3812
  494TMC3    C4 7396   0.768   4.543   0.429  0.1717  0.7653 -0.1102
  494TMC3    C5 7397   0.769   4.466   0.314  0.7093 -0.1646  0.5463
  494TMC3    C6 7398   0.777   4.331   0.324 -0.0737 -0.0129 -0.5025
  494TMC3     C 7399   0.756   4.558   0.666  0.2628  0.9038 -0.0391
  494TMC3     O 7400   0.805   4.668   0.663  0.0902 -0.5617 -0.1431
  494TMC3     H 7401   0.815   4.299   0.654  1.7947  1.8884  0.2993
  494TMC3    H1 7402   0.762   4.651   0.425 -0.1840  0.8105  1.4754
  494TMC3    H2 7403   0.801   4.275   0.233 -1.3439  1.2650 -1.6282
  494TMC3    C7 7404   0.779   4.536   0.189  0.3986 -0.6739 -0.5415
  494TMC3    C8 7405   0.890   4.170   0.442  0.2346  0.2144 -0.3639
  494TMC3    O1 7406   0.760   4.467   0.088  0.3055  0.5506  0.4661
  494TMC3    O2 7407   1.003   4.182   0.486 -0.3512 -0.2230 -0.3374
  495TMC3    C1 7408   4.341   1.729  14.736  0.4999  0.0206 -0.9581
  495TMC3    C2 7409   4.271   1.782  14.639 -0.2606 -0.4385 -0.1718
  495TMC3    C3 7410   4.138   1.810  14.658  0.4104 -0.1957  0.0522
  495TMC3    C4 7411   4.286   1.687  14.850 -0.5188  0.2193 -0.8694
  495TMC3    C5 7412   4.153   1.720  14.870 -0.1926 -0.9269 -0.1917
  495TMC3    C6 7413   4.076   1.784  14.776  0.0732  0.5778 -1.3353
  495TMC3     C 7414   4.430   1.630  14.677  0.0966 -0.6372  0.1044
  495TMC3     O 7415   4.551   1.664  14.659 -0.2731 -0.2392 -0.4401
  495TMC3     H 7416   4.321   1.810  14.547 -1.4222  2.0195 -0.0605
  495TMC3    H1 7417   4.350   1.643  14.926 -1.8231  2.3182  1.4559
  495TMC3    H2 7418   3.970   1.799  14.788  0.4089  2.3940 -0.5934
  495TMC3    C7 7419   4.095   1.669  14.994  0.5010 -0.3634  0.1891
  495TMC3    C8 7420   4.038   1.782  14.552  0.0522 -0.4603  0.1397
  495TMC3    O1 7421   4.165   1.680  15.093  0.2033  0.3154  0.5024
  495TMC3    O2 7422   3.929   1.840  14.546 -0.2753  0.4395  0.2092
  496MPD2     C 7423   1.516   1.954  15.649  0.4368 -0.5348 -0.4520
  496MPD2    C1 7424   1.455   1.867  15.556  0.4695  1.1252  0.5645
  496MPD2    C2 7425   1.350   1.796  15.608 -0.3896 -0.3934 -0.5775
  496MPD2    C3 7426   1.301   1.815  15.735 -0.3120  0.2722 -0.0087
  496MPD2    C4 7427   1.358   1.912  15.821 -0.4989  0.4049 -0.6524
  496MPD2    C5 7428   1.472   1.975  15.773 -0.0675 -0.3040  0.4411
  496MPD2     H 7429   1.292   1.733  15.543 -1.2653  0.3138 -0.4842
  496MPD2    H1 7430   1.317   1.934  15.918 -1.7370  2.7322 -1.7125
  496MPD2    H2 7431   1.610   2.002  15.625  0.5793 -1.4278 -1.6502
  496MPD2    H3 7432   1.521   2.043  15.841 -1.7932 -0.0534  1.4486
  496MPD2     N 7433   1.185   1.740  15.770 -0.0004 -0.2603 -0.2554
  496MPD2    H5 7434   1.143   1.677  15.703  1.8858 -1.4929 -0.2913
  496MPD2    N1 7435   1.515   1.838  15.436 -0.0930 -0.2275  0.0001
  496MPD2    H7 7436   1.605   1.884  15.425  0.0759 -0.1816  1.6004
  497TMC3    C1 7437   1.038   1.629  15.897 -0.6918 -0.3417 -0.0665
  497TMC3    C2 7438   0.969   1.627  15.784 -0.7076 -0.0629  0.0089
  497TMC3    C3 7439   0.949   1.511  15.719  0.2764 -0.1182 -0.6050
  497TMC3    C4 7440   1.073   1.513  15.961 -0.5314  0.3114  0.1483
  497TMC3    C5 7441   1.040   1.391  15.899 -0.1175  0.5352  0.4696
  497TMC3    C6 7442   0.973   1.392  15.783  0.6684  1.6382  0.5798
  497TMC3     C 7443   1.131   1.731  15.895 -0.1584  0.3855  0.0159
  497TMC3     O 7444   1.173   1.779  15.999 -0.7859  0.4644  0.0251
  497TMC3     H 7445   0.945   1.721  15.735  0.4836  0.5152  0.5333
  497TMC3    H1 7446   1.143   1.514  16.044 -0.6813 -2.4261  0.2961
  497TMC3    H2 7447   0.975   1.300  15.725 -0.4842  0.3450  2.6115
  497TMC3    C7 7448   1.034   1.265  15.968  0.3716  0.4107 -0.4348
  497TMC3    C8 7449   0.958   1.521  15.579 -0.7896  0.7389  0.0783
  497TMC3    O1 7450   0.958   1.180  15.912 -0.1123 -0.1536  0.0568
  497TMC3    O2 7451   1.010   1.619  15.531 -0.4342  0.3285 -0.3248
  498MPD2     C 7452   3.480   3.172   9.308 -1.1251 -0.1184  0.5622
  498MPD2    C1 7453   3.454   3.242   9.428  0.5565  0.7807  0.4620
  498MPD2    C2 7454   3.406   3.161   9.536  0.1946  0.5945 -0.0928
  498MPD2    C3 7455   3.358   3.035   9.512  1.0654  0.5818 -0.0634
  498MPD2    C4 7456   3.380   2.974   9.390 -0.1889 -0.2452 -0.6030
  498MPD2    C5 7457   3.442   3.040   9.288 -0.0241 -0.1454 -0.1147
  498MPD2     H 7458   3.394   3.211   9.632  3.5137  0.1240  0.5691
  498MPD2    H1 7459   3.357   2.871   9.366  1.5467 -0.9324  0.6700
  498MPD2    H2 7460   3.524   3.222   9.222  0.8455 -2.5234  0.1921
  498MPD2    H3 7461   3.460   3.002   9.188  3.9299  0.0116  0.5372
  498MPD2     N 7462   3.294   2.964   9.616 -0.2494  0.1603 -0.2187
  498MPD2    H5 7463   3.311   3.002   9.709 -0.4016 -1.5299  0.5005
  498MPD2    N1 7464   3.480   3.377   9.460 -0.3476 -0.1092 -0.1260
  498MPD2    H7 7465   3.468   3.407   9.556 -0.1893  1.6905 -0.6585
  499TMC3    C1 7466   3.589   3.574   9.438  0.6886 -0.1310  0.2064
  499TMC3    C2 7467   3.665   3.559   9.555 -0.4495  0.7596 -0.4387
  499TMC3    C3 7468   3.732   3.667   9.601  0.5483  0.3091  0.0230
  499TMC3    C4 7469   3.586   3.696   9.371  0.1490 -0.2216 -0.1493
  499TMC3    C5 7470   3.651   3.803   9.431 -0.3927 -0.2456  1.0020
  499TMC3    C6 7471   3.720   3.788   9.547  0.1814  0.2074 -0.6051
  499TMC3     C 7472   3.515   3.471   9.365  0.2179  0.5872  0.5577
  499TMC3     O 7473   3.535   3.465   9.244  0.7120 -0.0584  0.0095
  499TMC3     H 7474   3.669   3.462   9.603  0.6249  0.2667 -1.5099
  499TMC3    H1 7475   3.528   3.712   9.281  0.8412 -0.2158 -0.5859
  499TMC3    H2 7476   3.769   3.867   9.601 -2.7086  0.7363  1.2664
  499TMC3    C7 7477   3.644   3.938   9.369 -0.4238 -0.4159  0.3797
  499TMC3    C8 7478   3.847   3.637   9.694 -0.1134 -0.2084 -0.1353
  499TMC3    O1 7479   3.706   4.023   9.430 -0.1835 -0.1295  0.5897
  499TMC3    O2 7480   3.870   3.718   9.785  0.1089  0.0817 -0.1697
  500MPD2     C 7481   3.769   3.970  10.664 -0.1141  0.4168 -0.0868
  500MPD2    C1 7482   3.834   4.031  10.568 -0.6979 -0.1264 -0.8545
  500MPD2    C2 7483   3.768   4.123  10.490 -0.0313 -0.6072  0.1261
  500MPD2    C3 7484   3.647   4.173  10.524 -0.4706 -1.0683  0.6258
  500MPD2    C4 7485   3.581   4.110  10.625 -0.7180  1.0096 -0.4192
  500MPD2    C5 7486   3.641   4.013  10.698 -1.1292 -0.4678 -0.8546
  500MPD2     H 7487   3.823   4.172  10.410  1.7685  0.5659  2.0654
  500MPD2    H1 7488   3.481   4.145  10.649 -0.7351  1.4026 -1.0626
  500MPD2    H2 7489   3.810   3.900  10.737  0.1766  1.2418  0.5383
  500MPD2    H3 7490   3.588   3.974  10.785 -0.7723  1.2267  0.1098
  500MPD2     N 7491   3.587   4.291  10.472  0.2953 -0.3260  0.2431
  500MPD2    H5 7492   3.492   4.304  10.505 -0.4800 -1.8648 -1.3606
  500MPD2    N1 7493   3.969   4.003  10.532 -0.0586  0.5557  0.3375
  500MPD2    H7 7494   4.004   4.042  10.445 -0.7034  1.2856  0.3997
  501TMC3    C1 7495   4.200   3.913  10.562 -0.0350  0.6991 -0.0636
  501TMC3    C2 7496   4.245   4.002  10.471  0.8751 -0.4811 -0.5321
  501TMC3    C3 7497   4.380   4.036  10.476  0.3603  0.4104  0.3968
  501TMC3    C4 7498   4.275   3.839  10.652  0.0545  0.0917 -0.8141
  501TMC3    C5 7499   4.407   3.870  10.652 -0.0248  0.7317 -0.2380
  501TMC3    C6 7500   4.460   3.976  10.569 -0.0509  0.6919  0.2466
  501TMC3     C 7501   4.061   3.922  10.606 -0.0434  0.2315  0.2768
  501TMC3     O 7502   4.044   3.860  10.712 -0.4569 -0.1765 -0.2504
  501TMC3     H 7503   4.181   4.045  10.395  1.9142  0.0600 -1.1040
  501TMC3    H1 7504   4.242   3.771  10.729 -2.3145  2.4462  0.2816
  501TMC3    H2 7505   4.566   3.998  10.567 -0.4759  2.3107 -3.1161
  501TMC3    C7 7506   4.497   3.789  10.732  0.1651 -0.3607  0.3189
  501TMC3    C8 7507   4.416   4.174  10.455 -0.0474 -0.4120 -0.5482
  501TMC3    O1 7508   4.448   3.737  10.831 -0.0219  0.1994  0.1357
  501TMC3    O2 7509   4.494   4.221  10.538 -0.3708  0.6372 -0.6855
  502TMC3    C1 7510   3.565   2.635  14.911  0.4738 -0.2827 -0.4620
  502TMC3    C2 7511   3.555   2.768  14.922 -0.1236 -0.2583  0.3045
  502TMC3    C3 7512   3.445   2.826  14.977  0.2634  0.3301 -0.2376
  502TMC3    C4 7513   3.457   2.550  14.927  0.8458  0.5007 -0.1064
  502TMC3    C5 7514   3.349   2.613  14.987 -0.4670  0.4818 -0.2678
  502TMC3    C6 7515   3.338   2.750  15.011  0.4623 -0.1307 -0.7476
  502TMC3     C 7516   3.690   2.573  14.954  0.3657 -0.0648 -0.1835
  502TMC3     O 7517   3.798   2.630  14.930 -0.4268 -0.2152 -0.1980
  502TMC3     H 7518   3.647   2.823  14.908 -0.6884  0.1690 -1.7144
  502TMC3    H1 7519   3.463   2.443  14.913  1.1067  0.4871  0.1176
  502TMC3    H2 7520   3.249   2.796  15.052  1.2782 -0.3436  1.2408
  502TMC3    C7 7521   3.294   2.533  15.095  0.1491  0.2309  0.1077
  502TMC3    C8 7522   3.424   2.970  14.967 -0.5027 -0.2807 -0.4745
  502TMC3    O1 7523   3.367   2.443  15.136  0.4137 -0.1133 -0.3780
  502TMC3    O2 7524   3.483   3.027  14.877  0.5790 -0.2159 -0.2996
  503MPD2     C 7525   0.760   3.106  16.772 -0.0667 -0.0623 -0.5522
  503MPD2    C1 7526   0.878   3.175  16.797  0.7776  0.2298 -0.0818
  503MPD2    C2 7527   0.987   3.107  16.851  0.3432 -0.1310  0.8944
  503MPD2    C3 7528   0.979   2.976  16.876 -0.4959  0.4063  0.2572
  503MPD2    C4 7529   0.862   2.908  16.863  0.4184 -0.4043 -0.6538
  503MPD2    C5 7530   0.758   2.974  16.804 -0.9186  0.3339 -0.2667
  503MPD2     H 7531   1.082   3.158  16.858 -0.6614  1.5846  1.9312
  503MPD2    H1 7532   0.850   2.802  16.880 -1.1081  0.1643  1.9217
  503MPD2    H2 7533   0.669   3.158  16.745  0.0693 -0.2506 -1.3622
  503MPD2    H3 7534   0.669   2.912  16.799 -1.6622  1.2693  1.2870
  503MPD2     N 7535   1.098   2.901  16.916  0.4940 -0.9511 -0.2931
  503MPD2    H5 7536   1.182   2.957  16.929 -0.1515  0.0075 -0.3154
  503MPD2    N1 7537   0.884   3.319  16.773 -0.4916  0.2991 -0.1634
  503MPD2    H7 7538   0.965   3.368  16.811  0.1385 -0.6576 -0.2722
  504TMC3    C1 7539   1.242   2.720  16.975  0.3413  0.0058 -0.2062
  504TMC3    C2 7540   1.246   2.591  17.019  0.2662 -0.0633 -0.2028
  504TMC3    C3 7541   1.360   2.545  17.089 -0.4030  0.1091  0.2028
  504TMC3    C4 7542   1.353   2.801  16.996  0.5797  0.6299  0.1889
  504TMC3    C5 7543   1.454   2.753  17.070 -0.0937 -0.0256  0.6741
  504TMC3    C6 7544   1.466   2.625  17.114 -0.8027  0.6431 -0.2893
  504TMC3     C 7545   1.111   2.767  16.926  0.2726  0.0387  0.6207
  504TMC3     O 7546   1.031   2.683  16.886 -0.7696  0.0989 -0.6394
  504TMC3     H 7547   1.169   2.520  16.988  0.4232  0.0844 -0.9332
  504TMC3    H1 7548   1.351   2.906  16.970 -1.1018  0.2956 -1.0325
  504TMC3    H2 7549   1.557   2.581  17.153 -0.5382  1.5795  0.1323
  504TMC3    C7 7550   1.576   2.833  17.080 -0.5625  0.7977  0.2860
  504TMC3    C8 7551   1.377   2.398  17.126  0.0990  0.4407  0.5349
  504TMC3    O1 7552   1.606   2.903  16.990  0.5898 -0.0715 -0.0815
  504TMC3    O2 7553   1.318   2.323  17.044  0.3865 -0.2975  0.1351
  505MPD2     C 7554   1.897   2.810   9.543 -0.1353 -0.3378 -0.2150
  505MPD2    C1 7555   1.907   2.766   9.675  0.1156  0.0335 -0.5771
  505MPD2    C2 7556   1.920   2.868   9.770  1.0483 -0.1164  0.6526
  505MPD2    C3 7557   1.927   2.998   9.726  0.4313  0.0749 -0.6975
  505MPD2    C4 7558   1.927   3.039   9.597  0.3589  0.6279 -0.3113
  505MPD2    C5 7559   1.895   2.947   9.505  0.2468 -0.6009 -0.6147
  505MPD2     H 7560   1.936   2.843   9.874  0.7848  0.5856  0.8622
  505MPD2    H1 7561   1.941   3.142   9.567  0.6269  0.4977 -0.6343
  505MPD2    H2 7562   1.892   2.745   9.457  1.8862 -1.4227  0.4768
  505MPD2    H3 7563   1.892   2.983   9.403  1.4481 -0.6915 -0.6815
  505MPD2     N 7564   1.928   3.084   9.834  0.0985  0.0464 -0.2912
  505MPD2    H5 7565   1.921   3.036   9.923 -1.1736  1.1532  0.1938
  505MPD2    N1 7566   1.903   2.625   9.701 -0.3710 -0.3363 -0.2949
  505MPD2    H7 7567   1.910   2.557   9.626 -2.3167  0.1142 -0.8849
  506TMC3    C1 7568   1.911   2.430   9.822 -0.4596 -0.3164  0.0709
  506TMC3    C2 7569   2.018   2.378   9.753 -0.6978  0.1779  0.6838
  506TMC3    C3 7570   2.097   2.289   9.821 -0.2803  1.3781  0.0276
  506TMC3    C4 7571   1.889   2.400   9.950 -0.0834  0.1597  0.8350
  506TMC3    C5 7572   1.986   2.329  10.020  1.0471 -0.6998  0.8074
  506TMC3    C6 7573   2.087   2.265   9.953 -0.0941 -0.8279 -0.4229
  506TMC3     C 7574   1.899   2.572   9.824 -0.2502  0.3480 -0.0659
  506TMC3     O 7575   1.869   2.629   9.930 -0.3127  0.2752  0.7564
  506TMC3     H 7576   2.033   2.407   9.649  3.5898 -1.1748  0.9186
  506TMC3    H1 7577   1.801   2.435  10.002 -0.1358  1.4472 -0.1244
  506TMC3    H2 7578   2.170   2.212   9.999  0.7329  1.4434  0.6956
  506TMC3    C7 7579   2.015   2.379  10.154  0.3533 -0.1003  0.3930
  506TMC3    C8 7580   2.212   2.251   9.750 -0.2354  0.5311 -0.2244
  506TMC3    O1 7581   2.065   2.304  10.240  0.0734  0.2303  0.4005
  506TMC3    O2 7582   2.183   2.190   9.648 -0.7639  0.1531 -0.3054
  507TMC3    C1 7583   2.198   2.715  14.886 -0.0257 -0.5635 -0.1822
  507TMC3    C2 7584   2.217   2.608  14.804  0.2946 -0.3639  0.0884
  507TMC3    C3 7585   2.320   2.629  14.713  0.2209  0.0452  0.0409
  507TMC3    C4 7586   2.284   2.816  14.906 -0.2992  0.3737  0.6027
  507TMC3    C5 7587   2.388   2.831  14.816 -0.1253  1.0874 -0.5993
  507TMC3    C6 7588   2.407   2.737  14.723 -0.3785 -0.7449 -0.4493
  507TMC3     C 7589   2.069   2.727  14.961 -0.1101 -0.5613  0.0743
  507TMC3     O 7590   2.069   2.793  15.063 -0.1703  0.5225 -0.2982
  507TMC3     H 7591   2.136   2.538  14.791  1.4890 -1.4038 -1.7655
  507TMC3    H1 7592   2.260   2.902  14.967  1.1302  0.8647  0.4566
  507TMC3    H2 7593   2.488   2.757  14.653  1.4535 -0.8265  1.6334
  507TMC3    C7 7594   2.382   2.952  14.742 -0.6351  0.2958  0.5381
  507TMC3    C8 7595   2.286   2.599  14.570 -0.4523  0.4546 -0.1884
  507TMC3    O1 7596   2.380   2.947  14.621  0.1709 -0.0376  0.1763
  507TMC3    O2 7597   2.223   2.499  14.546  0.1031  0.1861  0.0747
  508MPD2     C 7598   3.249   0.050  15.569 -0.7737  0.0316 -1.1929
  508MPD2    C1 7599   3.271   0.108  15.693 -0.4798 -0.6021 -0.0268
  508MPD2    C2 7600   3.255   0.245  15.700 -0.3681  0.5554  0.2514
  508MPD2    C3 7601   3.204   0.316  15.599  0.4359 -0.0853  0.2155
  508MPD2    C4 7602   3.177   0.258  15.479  0.1027 -0.2219 -0.4524
  508MPD2    C5 7603   3.198   0.123  15.462  0.0234  0.2915 -0.0387
  508MPD2     H 7604   3.269   0.301  15.792 -0.9123 -0.5884  1.0350
  508MPD2    H1 7605   3.128   0.318  15.404  3.1672  0.5376 -1.8570
  508MPD2    H2 7606   3.269   4.684  15.556 -0.8611 -0.1027 -0.2747
  508MPD2    H3 7607   3.179   0.067  15.371  1.9796 -0.8062  0.2475
  508MPD2     N 7608   3.182   0.456  15.620 -0.1604  0.1536  0.0608
  508MPD2    H5 7609   3.200   0.491  15.714 -0.1946 -1.6489  0.7326
  508MPD2    N1 7610   3.310   0.040  15.807 -0.3146  0.6459  0.0159
  508MPD2    H7 7611   3.310   0.095  15.893 -1.5244  1.2600 -0.3762
  509TMC3    C1 7612   2.909   0.776  15.692 -0.0517 -0.7834  0.1006
  509TMC3    C2 7613   2.969   0.781  15.817 -0.3526  0.1653 -0.2501
  509TMC3    C3 7614   3.088   0.726  15.843  0.0948  0.0146  0.0522
  509TMC3    C4 7615   2.973   0.722  15.586 -0.3360 -0.2137  0.3592
  509TMC3    C5 7616   3.102   0.675  15.614 -0.9234  0.3966 -0.3160
  509TMC3    C6 7617   3.157   0.664  15.741 -0.2334  0.1935  0.0741
  509TMC3     C 7618   2.780   0.844  15.676 -0.0450 -0.4859  0.5953
  509TMC3     O 7619   2.709   0.861  15.775  0.5562  0.7953  0.1071
  509TMC3     H 7620   2.921   0.835  15.898  1.2095 -0.0431  0.8339
  509TMC3    H1 7621   2.920   0.713  15.491  0.3073 -4.2369  0.3701
  509TMC3    H2 7622   3.262   0.641  15.759 -0.1226  0.9027  0.3615
  509TMC3    C7 7623   3.136   0.558  15.535  0.4621  0.5598  0.1880
  509TMC3    C8 7624   3.169   0.778  15.952  0.5594 -0.2216 -0.3227
  509TMC3    O1 7625   3.096   0.550  15.419 -0.1838 -0.6256  0.7213
  509TMC3    O2 7626   3.252   0.713  16.009  0.1841 -0.8241  0.0989
  510MPD2     C 7627   0.847   2.215  14.730  0.1633 -0.6529  0.2905
  510MPD2    C1 7628   0.908   2.104  14.776 -0.0373  0.7135  0.3380
  510MPD2    C2 7629   1.033   2.064  14.730  0.0088  0.0732 -0.2998
  510MPD2    C3 7630   1.099   2.148  14.642 -0.2962 -0.2941 -0.5198
  510MPD2    C4 7631   1.029   2.255  14.589 -0.4369 -0.1476 -0.0798
  510MPD2    C5 7632   0.909   2.286  14.632  0.1001 -0.3595  0.1758
  510MPD2     H 7633   1.088   1.974  14.757 -0.8784  0.3371  2.3858
  510MPD2    H1 7634   1.062   2.318  14.507  2.0650  1.4570  2.1293
  510MPD2    H2 7635   0.747   2.233  14.765 -0.1705 -1.3081 -0.3305
  510MPD2    H3 7636   0.863   2.373  14.588 -0.2601 -1.6515 -2.0054
  510MPD2     N 7637   1.237   2.121  14.606  0.6678 -0.6002 -0.3258
  510MPD2    H5 7638   1.269   2.032  14.643 -1.5531 -0.7758  1.1387
  510MPD2    N1 7639   0.825   2.030  14.869  0.3050 -0.5600  0.2270
  510MPD2    H7 7640   0.730   2.062  14.885 -0.3415 -1.7291 -1.2339
  511TMC3    C1 7641   0.745   1.834  14.988  0.3844 -0.2741  0.1335
  511TMC3    C2 7642   0.663   1.910  15.058  0.6399 -0.3049  0.8764
  511TMC3    C3 7643   0.543   1.847  15.091  0.5269 -0.8612  0.4251
  511TMC3    C4 7644   0.725   1.705  14.945  1.2301  0.1091 -0.2837
  511TMC3    C5 7645   0.607   1.645  14.983  0.0485 -0.0373 -0.5039
  511TMC3    C6 7646   0.514   1.716  15.059  0.3551  0.3654 -0.2021
  511TMC3     C 7647   0.844   1.896  14.909  0.5733  0.4205  0.4372
  511TMC3     O 7648   0.935   1.822  14.877  0.0495  0.7578  0.2351
  511TMC3     H 7649   0.675   2.011  15.096  0.0193 -0.1366  0.6256
  511TMC3    H1 7650   0.789   1.663  14.869 -1.5570  0.3821 -2.7866
  511TMC3    H2 7651   0.418   1.671  15.080  0.2931  0.7160  0.2406
  511TMC3    C7 7652   0.573   1.520  14.909 -0.7283 -0.1264  1.0107
  511TMC3    C8 7653   0.455   1.916  15.183  0.0865  0.0770 -0.0333
  511TMC3    O1 7654   0.611   1.507  14.793  0.0478  0.4939 -0.0867
  511TMC3    O2 7655   0.463   2.037  15.184  0.2212  0.0048  0.5026
  512TMC3    C1 7656   3.727   1.682  13.181 -0.0129 -0.0024  0.8602
  512TMC3    C2 7657   3.838   1.636  13.241  0.8941  0.3135 -0.4155
  512TMC3    C3 7658   3.898   1.528  13.170 -0.4172  0.8330  0.0298
  512TMC3    C4 7659   3.692   1.645  13.050 -0.7709 -0.2312  0.1366
  512TMC3    C5 7660   3.758   1.538  12.992 -0.0417 -0.1213 -0.6962
  512TMC3    C6 7661   3.854   1.475  13.053 -0.2684 -0.3755  0.2821
  512TMC3     C 7662   3.631   1.758  13.258  0.4620 -0.6833 -0.6081
  512TMC3     O 7663   3.635   1.753  13.380  0.0416  0.5719  0.1287
  512TMC3     H 7664   3.857   1.673  13.341  1.0987 -0.1462 -0.2835
  512TMC3    H1 7665   3.610   1.688  12.994 -2.6876 -2.2962  1.3566
  512TMC3    H2 7666   3.932   1.415  13.008 -1.8190 -1.8006 -0.4919
  512TMC3    C7 7667   3.744   1.513  12.844 -0.1343  0.9892  0.1664
  512TMC3    C8 7668   4.003   1.449  13.242 -0.1830 -0.4112 -0.0729
  512TMC3    O1 7669   3.702   1.604  12.775 -0.0249  0.2701  1.0136
  512TMC3    O2 7670   4.027   1.337  13.207  0.0768  0.1079 -0.0990
  513MPD2     C 7671   1.840   1.985  13.541  0.4187  0.0418 -0.3651
  513MPD2    C1 7672   1.730   1.929  13.477 -0.1772 -0.2812 -0.2976
  513MPD2    C2 7673   1.715   1.789  13.488 -0.2503  0.2761  0.4424
  513MPD2    C3 7674   1.794   1.710  13.564  0.2909  0.2302  0.1763
  513MPD2    C4 7675   1.911   1.764  13.620  0.5907 -0.4058 -0.5485
  513MPD2    C5 7676   1.937   1.896  13.604 -0.3883 -0.6410  0.1518
  513MPD2     H 7677   1.639   1.737  13.430 -0.5506  0.5805  0.5631
  513MPD2    H1 7678   1.986   1.700  13.666  0.4017 -1.4577 -1.6987
  513MPD2    H2 7679   1.869   2.090  13.536 -0.8144  0.3450 -1.0223
  513MPD2    H3 7680   2.035   1.928  13.639 -0.9842  0.3067  0.9419
  513MPD2     N 7681   1.760   1.568  13.579  0.1562  0.0295 -0.2769
  513MPD2    H5 7682   1.675   1.541  13.530 -1.0851  3.2466  0.1163
  513MPD2    N1 7683   1.636   2.014  13.412  0.1538 -0.5904 -0.2210
  513MPD2    H7 7684   1.650   2.114  13.423  0.9959 -0.7771  0.4091
  514TMC3    C1 7685   1.465   2.071  13.260  0.3279  0.4920 -0.1020
  514TMC3    C2 7686   1.560   2.129  13.181  0.6409  0.2696 -0.4106
  514TMC3    C3 7687   1.536   2.159  13.051  0.8467 -0.2601  0.0337
  514TMC3    C4 7688   1.346   2.031  13.203  1.1052  0.0482  0.1656
  514TMC3    C5 7689   1.339   2.041  13.067 -0.0995 -0.3571 -0.0902
  514TMC3    C6 7690   1.428   2.111  12.985 -0.3024 -0.0642 -0.3662
  514TMC3     C 7691   1.523   1.972  13.344 -0.3679  0.5890 -0.8097
  514TMC3     O 7692   1.463   1.867  13.343  0.5090  0.7134 -0.2158
  514TMC3     H 7693   1.634   2.185  13.237  1.1982 -0.8461 -0.0246
  514TMC3    H1 7694   1.292   1.962  13.267 -1.6924  0.9504 -1.2166
  514TMC3    H2 7695   1.414   2.118  12.878 -0.5972  1.9256 -0.2053
  514TMC3    C7 7696   1.348   1.910  13.003  0.4375  0.0176 -0.6412
  514TMC3    C8 7697   1.604   2.265  12.977 -0.4722 -0.5023 -0.5000
  514TMC3    O1 7698   1.351   1.915  12.880 -0.0399 -0.4335 -0.1485
  514TMC3    O2 7699   1.658   2.343  13.049 -0.1456 -0.0814  0.1229
  515MPD2     C 7700   4.623   2.768  14.979  0.8706  0.4048 -0.2218
  515MPD2    C1 7701   4.535   2.860  14.926  0.7813 -0.2109  0.0346
  515MPD2    C2 7702   4.549   2.993  14.966 -0.8166 -0.6213  0.2884
  515MPD2    C3 7703   4.644   3.030  15.063  0.0915 -0.2416 -0.3507
  515MPD2    C4 7704   4.729   2.932  15.117  0.3044 -0.1122  0.0665
  515MPD2    C5 7705   4.718   2.804  15.071  0.6664 -0.5679  0.1362
  515MPD2     H 7706   4.482   3.067  14.923 -1.6361 -1.0611  0.8060
  515MPD2    H1 7707   0.069   2.951  15.188  0.9025 -2.5563  0.0637
  515MPD2    H2 7708   4.620   2.661  14.958  1.6055  0.6484 -1.5557
  515MPD2    H3 7709   0.045   2.729  15.112  1.1183 -0.4012 -0.2952
  515MPD2     N 7710   4.658   3.159  15.124  0.5847  0.8211  0.4503
  515MPD2    H5 7711   0.001   3.165  15.183 -1.0019  0.2772  2.7291
  515MPD2    N1 7712   4.424   2.816  14.851  0.8500 -0.9356 -0.1179
  515MPD2    H7 7713   4.359   2.886  14.817 -0.6562 -1.2080  2.2401
  516TMC3    C1 7714   4.277   2.666  14.751  0.1585  0.4220 -0.0421
  516TMC3    C2 7715   4.192   2.767  14.730 -0.3253 -0.0728  0.4082
  516TMC3    C3 7716   4.058   2.742  14.712 -0.3735 -0.1307 -0.5892
  516TMC3    C4 7717   4.225   2.535  14.748 -0.5663  0.1833 -0.2695
  516TMC3    C5 7718   4.087   2.518  14.728  0.2661  0.4141 -0.1437
  516TMC3    C6 7719   4.006   2.617  14.697 -0.4015  0.1050  0.0547
  516TMC3     C 7720   4.404   2.687  14.810 -0.7607 -0.4256  0.0039
  516TMC3     O 7721   4.466   2.583  14.834 -0.4707 -0.3516  0.0575
  516TMC3     H 7722   4.229   2.868  14.716 -0.6318  0.2708  2.0656
  516TMC3    H1 7723   4.280   2.449  14.783 -0.7890  0.4640  0.7672
  516TMC3    H2 7724   3.898   2.619  14.704 -0.3738  0.6691  0.3271
  516TMC3    C7 7725   4.025   2.385  14.743  0.5474 -0.4976  0.4862
  516TMC3    C8 7726   3.964   2.844  14.666 -0.1905  0.4590  0.3589
  516TMC3    O1 7727   4.083   2.297  14.804  0.1476  0.4484 -0.3058
  516TMC3    O2 7728   3.874   2.802  14.594 -0.4532 -0.6184 -0.1132
  517MPD2     C 7729   3.881   4.721   0.095 -0.2092  0.3195 -0.6677
  517MPD2    C1 7730   4.020   4.730   0.100  0.3759  0.7460 -0.2395
  517MPD2    C2 7731   4.075   0.105   0.157 -0.3493  0.4445  0.0482
  517MPD2    C3 7732   3.993   0.213   0.207 -0.2702 -0.6608  0.1276
  517MPD2    C4 7733   3.854   0.198   0.201  0.7633  0.2149  0.3425
  517MPD2    C5 7734   3.804   0.084   0.135  0.8299 -0.3381 -0.2815
  517MPD2     H 7735   4.183   0.109   0.161 -0.3055  0.6044 -1.5191
  517MPD2    H1 7736   3.782   0.273   0.229  2.2046  1.0127  1.8780
  517MPD2    H2 7737   3.834   4.631   0.057  0.3197 -0.3924  0.3631
  517MPD2    H3 7738   3.696   0.070   0.127  0.6172  1.5375 -0.7454
  517MPD2     N 7739   4.042   0.338   0.259 -0.3053 -0.2566 -0.4040
  517MPD2    H5 7740   3.970   0.401   0.293  0.0178  0.4990 -1.1232
  517MPD2    N1 7741   4.107   4.632   0.034  0.1617 -0.1019  0.3908
  517MPD2    H7 7742   4.205   4.640   0.057 -0.2150  2.8040  1.0356
  518TMC3    C1 7743   4.170   4.454  17.646 -0.3440 -0.3703  0.1231
  518TMC3    C2 7744   4.142   4.375  17.539  0.3053  0.7540 -0.6467
  518TMC3    C3 7745   4.244   4.294  17.486  0.7414  0.4175  0.3670
  518TMC3    C4 7746   4.295   4.439  17.712 -0.3741 -0.0853 -0.4437
  518TMC3    C5 7747   4.384   4.350  17.662  0.3309 -0.1125 -0.0023
  518TMC3    C6 7748   4.364   4.286  17.545  0.0786  0.4570 -0.9164
  518TMC3     C 7749   4.063   4.525  17.711 -0.5027  0.2204 -0.4716
  518TMC3     O 7750   3.950   4.505  17.669  0.1498 -0.2259 -0.0041
  518TMC3     H 7751   4.045   4.386  17.492  0.2877  0.8086 -0.5973
  518TMC3    H1 7752   4.320   4.497   0.044 -1.8025  0.3047 -0.3037
  518TMC3    H2 7753   4.427   4.203  17.515 -1.3943 -2.3523  3.7539
  518TMC3    C7 7754   4.523   4.357  17.709 -0.2093 -0.0196 -0.1695
  518TMC3    C8 7755   4.212   4.173  17.414 -0.1170  0.7409 -0.7649
  518TMC3    O1 7756   4.542   4.400   0.068 -0.2449  0.2854  0.0174
  518TMC3    O2 7757   4.285   4.075  17.426 -0.7313 -0.1262 -0.3285
  519MPD2     C 7758   1.159   2.977  14.613  0.4410  0.4428 -0.1239
  519MPD2    C1 7759   1.144   3.049  14.493  0.6212  0.4980  0.2447
  519MPD2    C2 7760   1.248   3.069  14.403 -0.4197  0.0901 -0.5551
  519MPD2    C3 7761   1.373   3.013  14.430  1.0137 -0.3237  0.1605
  519MPD2    C4 7762   1.386   2.945  14.546  0.1198  0.0154 -0.0674
  519MPD2    C5 7763   1.288   2.926  14.640 -0.4675 -0.0897  0.5629
  519MPD2     H 7764   1.228   3.118  14.309 -4.3807 -1.2444 -0.3962
  519MPD2    H1 7765   1.484   2.914  14.582  1.0011  0.6463 -1.9373
  519MPD2    H2 7766   1.084   2.968  14.692 -0.8050 -2.4978 -1.6445
  519MPD2    H3 7767   1.306   2.873  14.733 -1.5756 -2.1038 -0.3736
  519MPD2     N 7768   1.477   3.020  14.330 -0.3917  0.0827  0.4293
  519MPD2    H5 7769   1.572   2.991  14.352 -0.3742  0.7200  1.1883
  519MPD2    N1 7770   1.016   3.102  14.473 -0.8005  0.5780  0.4067
  519MPD2    H7 7771   0.950   3.085  14.549 -1.5221 -0.8062 -0.5252
  520TMC3    C1 7772   1.580   3.056  14.126 -0.1778 -0.0086  0.0118
  520TMC3    C2 7773   1.556   3.110  14.001 -0.1730  0.1063  0.4438
  520TMC3    C3 7774   1.551   3.022  13.892  0.3692  0.2228  0.1008
  520TMC3    C4 7775   1.641   2.926  14.138  0.3102 -0.5638  0.0363
  520TMC3    C5 7776   1.647   2.852  14.022  0.0186  0.3484  0.3138
  520TMC3    C6 7777   1.590   2.889  13.904  0.2764  0.4929 -0.5284
  520TMC3     C 7778   1.457   3.063  14.204  0.1859  0.3873  0.9796
  520TMC3     O 7779   1.357   3.102  14.150 -0.0301 -0.3737  0.2504
  520TMC3     H 7780   1.509   3.207  13.993  0.2274  0.3326  0.8349
  520TMC3    H1 7781   1.678   2.886  14.232  0.5508 -0.1608  0.1150
  520TMC3    H2 7782   1.573   2.821  13.822 -2.1776  0.4764 -0.0161
  520TMC3    C7 7783   1.711   2.729  14.040 -0.5107 -1.0814  0.9898
  520TMC3    C8 7784   1.458   3.068  13.789 -0.2311 -0.1856  0.1812
  520TMC3    O1 7785   1.723   2.691  14.153  0.0836  0.2718 -0.0452
  520TMC3    O2 7786   1.442   3.188  13.772  0.3130  0.8478  0.9585
  521MPD2     C 7787   2.226   0.738  17.404  0.2025 -0.5363 -0.0462
  521MPD2    C1 7788   2.146   0.682  17.304 -0.6602  0.0647 -0.1587
  521MPD2    C2 7789   2.200   0.636  17.183 -0.1851 -0.0866  0.1171
  521MPD2    C3 7790   2.338   0.643  17.160 -0.3037 -0.9201  0.2692
  521MPD2    C4 7791   2.415   0.700  17.260  0.4644  0.0571  0.6757
  521MPD2    C5 7792   2.360   0.743  17.382 -0.1688 -0.4211 -0.1781
  521MPD2     H 7793   2.139   0.601  17.101 -0.1169 -0.2138  0.1193
  521MPD2    H1 7794   2.521   0.713  17.243  0.0885  1.8100 -0.3063
  521MPD2    H2 7795   2.201   0.763  17.507 -0.2152 -0.5339 -0.1479
  521MPD2    H3 7796   2.427   0.785  17.455  0.4312 -1.4273 -0.1538
  521MPD2     N 7797   2.389   0.593  17.029 -0.4411  0.6241  0.4974
  521MPD2    H5 7798   2.329   0.549  16.961  0.2810  1.1953 -0.5032
  521MPD2    N1 7799   2.007   0.676  17.326 -0.2338  0.1146  0.0902
  521MPD2    H7 7800   1.973   0.714  17.414  1.2200  0.0299  0.6822
  522TMC3    C1 7801   2.548   0.553  16.863  0.7150 -0.4332  0.1601
  522TMC3    C2 7802   2.678   0.547  16.829 -0.1657 -0.1710  0.2268
  522TMC3    C3 7803   2.721   0.480  16.716  0.1133 -0.3637 -0.6150
  522TMC3    C4 7804   2.455   0.514  16.777  0.3392 -0.7645 -0.0081
  522TMC3    C5 7805   2.494   0.464  16.658 -0.6779 -0.0678 -0.3143
  522TMC3    C6 7806   2.628   0.446  16.624 -0.6332 -0.6510  0.0687
  522TMC3     C 7807   2.519   0.605  16.995 -0.4746  0.0355  0.0098
  522TMC3     O 7808   2.609   0.650  17.065  0.7079  0.3983  0.3670
  522TMC3     H 7809   2.756   0.587  16.893  0.1062 -1.2283  0.5486
  522TMC3    H1 7810   2.349   0.530  16.797  0.8885  2.1962  0.6155
  522TMC3    H2 7811   2.659   0.388  16.537  2.2184  2.6941 -1.1113
  522TMC3    C7 7812   2.397   0.375  16.598 -0.3242 -0.2236  0.0573
  522TMC3    C8 7813   2.855   0.420  16.710  0.8101 -0.2609  0.4694
  522TMC3    O1 7814   2.438   0.269  16.549  0.5312 -0.1425 -0.6018
  522TMC3    O2 7815   2.908   0.424  16.819  0.3797 -0.4390 -0.2570
  523MPD2     C 7816   4.268   1.324  10.362  0.1940 -0.3840 -0.5402
  523MPD2    C1 7817   4.234   1.222  10.283 -0.0539  0.5511 -0.8900
  523MPD2    C2 7818   4.170   1.253  10.167  0.3514 -0.3465 -0.2413
  523MPD2    C3 7819   4.140   1.382  10.121  0.5507  0.1372 -0.0686
  523MPD2    C4 7820   4.171   1.481  10.210 -0.1456 -0.2648 -0.2787
  523MPD2    C5 7821   4.241   1.456  10.326 -0.5359  0.3642 -0.4252
  523MPD2     H 7822   4.149   1.173  10.097  0.3394 -0.2066 -0.3963
  523MPD2    H1 7823   4.146   1.584  10.188  1.2381  0.1396  0.0234
  523MPD2    H2 7824   4.328   1.307  10.450  0.4070  2.2231 -0.2032
  523MPD2    H3 7825   4.264   1.536  10.395 -0.5781 -1.0526  1.2554
  523MPD2     N 7826   4.071   1.410  10.002  0.5971 -0.0065  0.3343
  523MPD2    H5 7827   4.050   1.508   9.987  2.3109  0.2622 -0.2505
  523MPD2    N1 7828   4.275   1.086  10.319 -0.5031 -0.1803 -0.6313
  523MPD2    H7 7829   4.337   1.080  10.399  1.8090 -0.4706 -2.4292
  524TMC3    C1 7830   3.979   1.376   9.779 -0.7965  0.2517 -0.0886
  524TMC3    C2 7831   3.975   1.284   9.674  0.5556  0.0578 -0.3813
  524TMC3    C3 7832   3.996   1.320   9.548  0.4785  0.6443 -0.5340
  524TMC3    C4 7833   4.001   1.507   9.753 -0.3315  0.6389 -0.3728
  524TMC3    C5 7834   4.014   1.545   9.622 -0.4009  0.3755 -0.1318
  524TMC3    C6 7835   4.001   1.454   9.516 -0.2254 -0.1883 -0.9196
  524TMC3     C 7836   4.009   1.322   9.910  0.1200  0.6572  0.0927
  524TMC3     O 7837   3.984   1.203   9.921  0.3165  0.2767  0.1538
  524TMC3     H 7838   3.996   1.179   9.691 -3.5922 -1.1623 -2.6284
  524TMC3    H1 7839   3.989   1.584   9.828 -0.3780  0.5535 -0.2920
  524TMC3    H2 7840   3.997   1.489   9.413  2.2833  2.5467 -0.0895
  524TMC3    C7 7841   4.011   1.688   9.583  0.7907  0.1116 -0.0340
  524TMC3    C8 7842   3.986   1.224   9.445 -0.5423 -0.0202 -0.1917
  524TMC3    O1 7843   3.971   1.715   9.473  0.1989 -0.2524  0.4450
  524TMC3    O2 7844   3.931   1.118   9.471  0.0627  0.0063  0.0680
  525MPD2     C 7845   2.537   2.337  14.592  0.1791  0.1957  0.4545
  525MPD2    C1 7846   2.647   2.292  14.655  0.2174  0.4326 -0.0512
  525MPD2    C2 7847   2.764   2.359  14.634 -0.6924 -0.5052  0.1773
  525MPD2    C3 7848   2.770   2.478  14.552 -0.7201 -0.3196 -0.0139
  525MPD2    C4 7849   2.661   2.508  14.477 -0.1229 -0.2424  0.2731
  525MPD2    C5 7850   2.548   2.436  14.497 -0.0733 -0.2184  0.7428
  525MPD2     H 7851   2.853   2.332  14.690 -0.4308 -1.2770 -0.6202
  525MPD2    H1 7852   2.652   2.574  14.391  2.2034 -0.2236  0.0431
  525MPD2    H2 7853   2.442   2.284  14.592 -0.2907  1.0240 -1.3374
  525MPD2    H3 7854   2.464   2.456  14.431 -0.8050 -1.4857  1.2789
  525MPD2     N 7855   2.884   2.560  14.534 -0.1000  0.2775  0.7140
  525MPD2    H5 7856   2.871   2.640  14.474  0.4111 -0.9459 -1.0238
  525MPD2    N1 7857   2.647   2.180  14.750 -0.9284 -0.2063  0.1572
  525MPD2    H7 7858   2.735   2.168  14.799 -0.4412 -2.0986 -1.1948
  526TMC3    C1 7859   2.538   2.051  14.913  0.3787  0.9591 -0.0335
  526TMC3    C2 7860   2.434   2.055  15.003  0.1721 -0.6587 -0.0745
  526TMC3    C3 7861   2.445   1.986  15.118 -0.2258  0.1323  0.0378
  526TMC3    C4 7862   2.653   1.985  14.937 -0.2027 -0.0986 -0.3924
  526TMC3    C5 7863   2.658   1.909  15.055 -0.4927 -0.0203  0.6397
  526TMC3    C6 7864   2.558   1.913  15.148  0.2624  0.1500  0.0582
  526TMC3     C 7865   2.525   2.132  14.797  0.4273  0.2891  0.4887
  526TMC3     O 7866   2.405   2.159  14.773 -0.0606 -0.2045 -0.0155
  526TMC3     H 7867   2.341   2.106  14.979 -0.3015 -1.9505 -0.9692
  526TMC3    H1 7868   2.727   1.981  14.858  0.4239  0.4299  0.1681
  526TMC3    H2 7869   2.562   1.857  15.241 -1.2163 -2.3587 -1.3948
  526TMC3    C7 7870   2.765   1.821  15.084  0.8569  0.1341  0.8110
  526TMC3    C8 7871   2.356   2.015  15.228  0.2392 -0.3477 -1.0418
  526TMC3    O1 7872   2.747   1.754  15.183 -0.1819  0.1101 -0.0979
  526TMC3    O2 7873   2.401   1.992  15.340 -0.2575  0.3216  0.2423
  527MPD2     C 7874   1.060   0.461   1.261 -0.6487  0.7240  0.5989
  527MPD2    C1 7875   1.000   0.447   1.138 -0.5144  0.3115  0.2451
  527MPD2    C2 7876   1.082   0.437   1.022  0.3627 -0.0905  0.1217
  527MPD2    C3 7877   1.220   0.432   1.040  0.0853 -0.1445 -0.2442
  527MPD2    C4 7878   1.276   0.444   1.168 -0.2252  0.1908 -0.3145
  527MPD2    C5 7879   1.196   0.461   1.278 -0.4496 -0.6932  0.6318
  527MPD2     H 7880   1.034   0.439   0.924  0.1385 -1.5191  0.1991
  527MPD2    H1 7881   1.383   0.439   1.184 -0.1170  1.5505 -0.5880
  527MPD2    H2 7882   0.999   0.471   1.350  0.2816  0.6370  1.2441
  527MPD2    H3 7883   1.235   0.478   1.377 -0.4944  0.2766  0.4801
  527MPD2     N 7884   1.298   0.413   0.923  0.0131  0.2497  0.2269
  527MPD2    H5 7885   1.254   0.399   0.833  0.6470  3.4770 -0.5879
  527MPD2    N1 7886   0.858   0.441   1.111  0.0950 -0.2968  0.0931
  527MPD2    H7 7887   0.830   0.440   1.013 -0.5296  1.2736  0.2654
  528TMC3    C1 7888   0.631   0.456   1.145 -0.2742  0.1501 -0.3957
  528TMC3    C2 7889   0.625   0.559   1.054 -1.3084  0.0539  0.7739
  528TMC3    C3 7890   0.502   0.587   1.008  0.1340 -0.0868 -0.4949
  528TMC3    C4 7891   0.531   0.386   1.186 -0.4031  0.9855 -0.1419
  528TMC3    C5 7892   0.408   0.413   1.124  0.7338 -0.2286  0.2817
  528TMC3    C6 7893   0.388   0.517   1.038 -0.2775  0.2016 -0.5364
  528TMC3     C 7894   0.756   0.439   1.205  1.1876 -0.4550 -0.6807
  528TMC3     O 7895   0.749   0.402   1.326  0.3745 -0.0003 -0.1495
  528TMC3     H 7896   0.707   0.628   1.040 -2.8731  2.1724  1.9058
  528TMC3    H1 7897   0.551   0.301   1.251  2.5949  1.7735 -0.0607
  528TMC3    H2 7898   0.294   0.543   0.990 -0.1481  1.5628 -0.0546
  528TMC3    C7 7899   0.298   0.341   1.170  0.9105  0.4167  0.2674
  528TMC3    C8 7900   0.503   0.695   0.912  0.2176  0.9111 -0.1673
  528TMC3    O1 7901   0.313   0.270   1.267  0.1382  0.3292  0.1777
  528TMC3    O2 7902   0.613   0.742   0.884  0.0138  0.6022 -0.2467
  529MPD2     C 7903   3.516   3.908   0.521  0.7560  0.2579  0.1634
  529MPD2    C1 7904   3.534   3.770   0.508  0.1133  0.4992 -1.1912
  529MPD2    C2 7905   3.471   3.711   0.395  0.2457  0.1126 -0.4553
  529MPD2    C3 7906   3.404   3.790   0.303 -0.4694 -0.2795 -0.6019
  529MPD2    C4 7907   3.374   3.919   0.332 -0.5805 -0.2040 -0.1194
  529MPD2    C5 7908   3.423   3.976   0.443 -0.0309 -0.0232 -0.3888
  529MPD2     H 7909   3.484   3.608   0.363  1.4543 -0.5179  2.0613
  529MPD2    H1 7910   3.324   3.988   0.264  0.5789  1.3230  0.5845
  529MPD2    H2 7911   3.558   3.969   0.600 -0.9326  3.6320 -1.5613
  529MPD2    H3 7912   3.408   4.080   0.470 -0.7206  0.3791 -2.3340
  529MPD2     N 7913   3.356   3.743   0.179 -0.4235 -0.6473  0.3194
  529MPD2    H5 7914   3.307   3.812   0.124 -2.1106 -1.1676  1.1512
  529MPD2    N1 7915   3.629   3.693   0.573 -0.2434  0.3399  0.0511
  529MPD2    H7 7916   3.654   3.610   0.520 -2.6498 -0.0714 -0.4171
  530TMC3    C1 7917   3.808   3.649   0.727 -0.3112  0.2331  0.8026
  530TMC3    C2 7918   3.908   3.713   0.795 -0.2923 -0.0211 -0.4280
  530TMC3    C3 7919   4.008   3.627   0.829  0.7323 -0.7412 -0.0088
  530TMC3    C4 7920   3.802   3.517   0.706 -0.0775  0.1607 -0.1889
  530TMC3    C5 7921   3.905   3.433   0.735  0.4178 -0.2568  0.8131
  530TMC3    C6 7922   4.014   3.489   0.793 -0.3916 -0.3640  0.0099
  530TMC3     C 7923   3.706   3.737   0.680  1.4199 -0.0795  0.5453
  530TMC3     O 7924   3.693   3.839   0.745 -0.4939  0.2224  0.0080
  530TMC3     H 7925   3.905   3.817   0.825 -0.1160  0.3114 -1.5554
  530TMC3    H1 7926   3.711   3.484   0.657  0.6826  0.6548 -1.9111
  530TMC3    H2 7927   4.085   3.429   0.848  0.2095  0.6109  0.3067
  530TMC3    C7 7928   3.873   3.302   0.788 -0.6432  0.1202 -0.3452
  530TMC3    C8 7929   4.113   3.676   0.922  1.1023 -0.1039  0.3361
  530TMC3    O1 7930   3.967   3.226   0.821 -0.0205  0.6095 -0.2333
  530TMC3    O2 7931   4.086   3.780   0.986 -0.6040  0.5953  0.2147
  531MPD2     C 7932   1.465   1.410  13.004  0.0047 -0.2161 -0.8570
  531MPD2    C1 7933   1.476   1.455  13.130  0.2694  1.0563  0.5780
  531MPD2    C2 7934   1.448   1.592  13.157 -0.4860  0.0618  0.1939
  531MPD2    C3 7935   1.410   1.673  13.051 -0.2676 -0.0815 -0.1178
  531MPD2    C4 7936   1.410   1.625  12.925 -0.3751 -0.0789  0.1509
  531MPD2    C5 7937   1.435   1.492  12.899  0.1876 -0.5429 -0.5356
  531MPD2     H 7938   1.437   1.631  13.258  1.5503  0.4963  0.2515
  531MPD2    H1 7939   1.376   1.686  12.842  0.9611 -0.6181 -0.7956
  531MPD2    H2 7940   1.482   1.305  12.980  0.7334  0.0520 -1.5134
  531MPD2    H3 7941   1.438   1.461  12.796  1.2796  2.0760 -1.3027
  531MPD2     N 7942   1.375   1.805  13.086 -0.2923  0.8240  0.1914
  531MPD2    H5 7943   1.387   1.826  13.185  1.4279 -0.1464  0.1933
  531MPD2    N1 7944   1.528   1.371  13.227 -0.1212  0.3580  0.0879
  531MPD2    H7 7945   1.553   1.275  13.204 -2.7630 -0.2918 -0.1235
  532TMC3    C1 7946   1.625   1.298  13.434 -0.3025  1.3934 -0.3875
  532TMC3    C2 7947   1.651   1.357  13.558  0.4161  0.0453  0.5179
  532TMC3    C3 7948   1.781   1.344  13.596  0.1730 -0.1073 -0.4266
  532TMC3    C4 7949   1.715   1.224  13.364  0.9168 -0.2416  0.2647
  532TMC3    C5 7950   1.839   1.213  13.411 -0.3565 -0.3447 -0.3080
  532TMC3    C6 7951   1.870   1.269  13.532 -0.2233  0.0716  0.5027
  532TMC3     C 7952   1.553   1.401  13.356  1.0156 -0.3498  0.3950
  532TMC3     O 7953   1.538   1.507  13.416  0.0339 -0.5591 -0.3466
  532TMC3     H 7954   1.571   1.406  13.612 -0.8732 -2.7289  1.1279
  532TMC3    H1 7955   1.691   1.182  13.268  0.6609  1.4882 -0.4311
  532TMC3    H2 7956   1.975   1.272  13.561 -0.1623  1.6927  0.1364
  532TMC3    C7 7957   1.930   1.111  13.365 -0.3762  0.9663  0.1740
  532TMC3    C8 7958   1.832   1.467  13.635 -0.2008 -0.4734 -1.0394
  532TMC3    O1 7959   2.044   1.108  13.413 -0.2808 -0.1457  0.2510
  532TMC3    O2 7960   1.937   1.464  13.695 -0.0055 -0.1280  0.5995
  533TMC3    C1 7961   3.067   2.674  14.624 -0.3279  0.4473 -0.5286
  533TMC3    C2 7962   3.083   2.767  14.520 -0.4251 -0.5206  0.2532
  533TMC3    C3 7963   3.085   2.900  14.563 -0.3281 -0.5280  0.4640
  533TMC3    C4 7964   3.065   2.710  14.751 -0.7124 -0.0892 -0.4505
  533TMC3    C5 7965   3.072   2.841  14.791  0.3839 -0.0289 -0.0047
  533TMC3    C6 7966   3.075   2.936  14.697 -0.0940  0.0815 -0.2840
  533TMC3     C 7967   2.999   2.548  14.608 -0.7529 -0.0500  0.2719
  533TMC3     O 7968   3.035   2.461  14.689 -0.5534 -0.4708  0.2876
  533TMC3     H 7969   3.078   2.741  14.415 -0.2155  0.0259  0.1060
  533TMC3    H1 7970   3.071   2.633  14.827  1.6843 -0.8438 -1.4386
  533TMC3    H2 7971   3.083   3.043  14.713 -1.1729 -0.0603  1.1402
  533TMC3    C7 7972   3.000   2.866  14.910  0.3655  0.3270 -0.1259
  533TMC3    C8 7973   3.161   2.992  14.483  0.0006 -0.4782  0.4864
  533TMC3    O1 7974   3.005   2.773  14.987 -0.0983  0.2747 -0.0999
  533TMC3    O2 7975   3.270   3.033  14.521  0.0375 -0.7899 -0.4984
  534MPD2     C 7976   1.857   3.950   0.340 -0.1382 -0.0642  1.0799
  534MPD2    C1 7977   1.757   4.045   0.362 -0.5874 -0.8182  0.3911
  534MPD2    C2 7978   1.627   3.998   0.373 -0.9166  0.9833 -0.4476
  534MPD2    C3 7979   1.601   3.857   0.367  0.1123  0.3813 -0.9713
  534MPD2    C4 7980   1.706   3.774   0.334  0.1292  0.3041 -0.0750
  534MPD2    C5 7981   1.833   3.817   0.320  0.0774 -0.0106 -0.4296
  534MPD2     H 7982   1.560   4.079   0.395 -0.5169  0.7735  1.5243
  534MPD2    H1 7983   1.682   3.669   0.323  1.7187 -0.1378  0.6841
  534MPD2    H2 7984   1.963   3.969   0.325 -0.2831 -0.2616 -0.2498
  534MPD2    H3 7985   1.921   3.759   0.295  0.2729  1.1499 -2.4843
  534MPD2     N 7986   1.477   3.794   0.404 -0.6217  0.4475 -0.1443
  534MPD2    H5 7987   1.456   3.696   0.391 -0.4315  0.4289 -0.3022
  534MPD2    N1 7988   1.786   4.179   0.377  0.2525  0.6224 -0.2750
  534MPD2    H7 7989   1.706   4.241   0.373  0.9263  1.5481  0.3475
  535TMC3    C1 7990   1.250   3.788   0.471 -0.7594 -0.1964  0.0557
  535TMC3    C2 7991   1.158   3.829   0.564 -0.2523  0.9107 -0.4249
  535TMC3    C3 7992   1.050   3.753   0.584 -0.3857 -0.0643 -0.3570
  535TMC3    C4 7993   1.234   3.672   0.401  0.2968 -0.4323 -0.3671
  535TMC3    C5 7994   1.123   3.597   0.419 -0.6188 -0.3647 -0.3714
  535TMC3    C6 7995   1.032   3.640   0.517 -0.2566  0.5375 -0.3838
  535TMC3     C 7996   1.372   3.868   0.456 -0.3303  0.2130 -0.2352
  535TMC3     O 7997   1.377   3.974   0.517 -0.5070  0.0983 -0.3244
  535TMC3     H 7998   1.171   3.916   0.627  0.0401  0.3669  0.2594
  535TMC3    H1 7999   1.302   3.650   0.319 -0.1715  1.4505 -1.2467
  535TMC3    H2 8000   0.952   3.571   0.541 -1.0463  0.9351 -1.8262
  535TMC3    C7 8001   1.079   3.482   0.344 -0.3799  0.1093  0.2221
  535TMC3    C8 8002   0.941   3.797   0.674 -0.0894 -0.2429  0.7791
  535TMC3    O1 8003   1.042   3.380   0.404  0.9843 -0.5114 -0.0169
  535TMC3    O2 8004   0.848   3.718   0.691  0.1434  0.5489 -0.3103
  536MPD2     C 8005   4.150   2.266  16.124  1.0026  0.0395 -0.0909
  536MPD2    C1 8006   4.039   2.198  16.177  0.3591  0.3536  0.1394
  536MPD2    C2 8007   3.942   2.158  16.093  0.7087  0.1542 -0.1997
  536MPD2    C3 8008   3.964   2.151  15.957 -0.1724 -0.4310 -0.4958
  536MPD2    C4 8009   4.079   2.208  15.900 -0.7781 -0.1084  0.1312
  536MPD2    C5 8010   4.167   2.259  15.986 -0.0745 -0.2410 -0.7127
  536MPD2     H 8011   3.851   2.125  16.142  1.4833 -1.6151  0.0638
  536MPD2    H1 8012   4.096   2.217  15.794 -2.2852 -1.2549 -0.2150
  536MPD2    H2 8013   4.233   2.307  16.181  1.5965  0.2816 -1.1184
  536MPD2    H3 8014   4.255   2.308  15.946  0.6383 -0.1976  0.9460
  536MPD2     N 8015   3.861   2.113  15.872  0.1065 -0.3409 -0.1462
  536MPD2    H5 8016   3.888   2.117  15.775  0.8480  1.4877  0.1434
  536MPD2    N1 8017   4.020   2.186  16.314 -0.6834  0.1918  0.7300
  536MPD2    H7 8018   4.096   2.228  16.365 -0.0874  0.0616 -0.0478
  537TMC3    C1 8019   3.957   2.105  16.517 -0.6127 -0.2227 -0.1571
  537TMC3    C2 8020   3.987   2.215  16.584  0.0939 -0.3279  0.1879
  537TMC3    C3 8021   4.027   2.198  16.711  0.5752  0.0257  0.1520
  537TMC3    C4 8022   3.930   1.987  16.579  0.1296 -0.2835  0.3553
  537TMC3    C5 8023   3.956   1.969  16.713  0.4296 -0.5819 -0.1166
  537TMC3    C6 8024   4.009   2.076  16.773  0.3988 -0.3534 -0.2321
  537TMC3     C 8025   3.924   2.113  16.377  0.1018  0.0132 -0.4797
  537TMC3     O 8026   3.851   2.023  16.336 -0.2749 -0.1975  0.0348
  537TMC3     H 8027   4.013   2.305  16.529 -0.8725 -1.2367 -1.7429
  537TMC3    H1 8028   3.904   1.896  16.526  1.5853  0.6539 -2.0050
  537TMC3    H2 8029   4.032   2.069  16.879 -1.4257  0.8187  0.2340
  537TMC3    C7 8030   3.826   1.939  16.778  0.2875  0.4946  0.4816
  537TMC3    C8 8031   4.041   2.312  16.796 -0.2400 -0.8469 -0.4510
  537TMC3    O1 8032   3.720   1.934  16.714  0.4339  0.0270  0.2306
  537TMC3    O2 8033   4.077   2.295  16.914 -0.0455 -0.2221  0.1272
  538TMC3    C1 8034   0.162   0.785  11.061  0.6530  0.5948  0.1678
  538TMC3    C2 8035   0.298   0.791  11.049 -0.2541  0.1784  0.6039
  538TMC3    C3 8036   0.359   0.868  10.950  0.0604 -0.2807 -0.0143
  538TMC3    C4 8037   0.081   0.852  10.979  0.3661 -0.3399  0.0812
  538TMC3    C5 8038   0.145   0.928  10.880  0.6303  0.2398  0.8252
  538TMC3    C6 8039   0.282   0.939  10.861 -0.6090  0.2889 -0.5254
  538TMC3     C 8040   0.108   0.726  11.175 -0.5219 -0.0925  0.0219
  538TMC3     O 8041   0.002   0.773  11.223  0.0032 -0.3747 -0.1100
  538TMC3     H 8042   0.368   0.746  11.118 -1.0982  1.5403  2.3502
  538TMC3    H1 8043   4.715   0.850  10.999  0.2789 -1.0911 -0.4613
  538TMC3    H2 8044   0.329   1.000  10.784  1.2520  0.7375  0.9550
  538TMC3    C7 8045   0.050   1.000  10.797  0.2798 -0.4772  0.3471
  538TMC3    C8 8046   0.511   0.857  10.941 -0.0617 -0.2322  0.1911
  538TMC3    O1 8047   4.677   0.957  10.788  0.5601  0.0505 -0.2463
  538TMC3    O2 8048   0.563   0.799  11.039 -0.3596  0.0030 -0.5620
  539MPD2     C 8049   4.559   0.179  11.962 -0.4922  0.0444  0.2133
  539MPD2    C1 8050   4.565   0.177  11.824 -0.3066  0.8452 -0.6984
  539MPD2    C2 8051   4.513   0.290  11.758  0.7279 -0.1686  0.0246
  539MPD2    C3 8052   4.473   0.405  11.831  0.5456  0.2010  0.0429
  539MPD2    C4 8053   4.482   0.404  11.964  0.1789  0.0684  0.8800
  539MPD2    C5 8054   4.539   0.298  12.030  0.4555  0.3265 -0.0575
  539MPD2     H 8055   4.517   0.291  11.650 -0.9257 -1.3937 -0.0419
  539MPD2    H1 8056   4.439   0.490  12.015 -1.1393 -0.1594  0.1542
  539MPD2    H2 8057   4.596   0.098  12.024 -0.6386  0.0645  0.3269
  539MPD2    H3 8058   4.552   0.304  12.138 -0.2434 -0.1255  0.0522
  539MPD2     N 8059   4.425   0.520  11.765 -0.1920 -0.6423 -0.0523
  539MPD2    H5 8060   4.416   0.598  11.830 -0.4229  0.2691 -1.1902
  539MPD2    N1 8061   4.600   0.062  11.743 -0.3527  0.0566 -0.8056
  539MPD2    H7 8062   4.597   0.080  11.643  2.5455 -0.4397 -0.9684
  540TMC3    C1 8063   4.347   0.663  11.601 -0.3928  0.5044 -0.1657
  540TMC3    C2 8064   4.343   0.702  11.471 -0.1379 -0.3473  0.6182
  540TMC3    C3 8065   4.288   0.823  11.437  0.0668  0.2689 -1.0881
  540TMC3    C4 8066   4.272   0.727  11.692  0.1749  0.4757  0.4946
  540TMC3    C5 8067   4.201   0.841  11.652 -1.3224 -0.1066 -0.1063
  540TMC3    C6 8068   4.218   0.897  11.528 -0.2828  0.1358 -0.2085
  540TMC3     C 8069   4.402   0.537  11.630  0.4173  0.3239 -0.0776
  540TMC3     O 8070   4.410   0.453  11.541 -0.0558  0.0656  0.2753
  540TMC3     H 8071   4.412   0.652  11.404 -0.3349  0.2634 -0.0444
  540TMC3    H1 8072   4.240   0.674  11.781 -0.9576 -2.0301 -1.4064
  540TMC3    H2 8073   4.166   0.979  11.480  1.4938 -0.5168 -3.2267
  540TMC3    C7 8074   4.121   0.908  11.752 -0.2031  0.8045  0.8933
  540TMC3    C8 8075   4.295   0.872  11.305 -0.1033 -0.0339 -0.1087
  540TMC3    O1 8076   4.103   0.846  11.858  0.2802  0.1036  0.2086
  540TMC3    O2 8077   4.303   0.993  11.286 -0.4333 -0.0161 -0.1652
  541MPD2     C 8078   2.999   1.672  13.233 -0.0753 -0.3520  0.1281
  541MPD2    C1 8079   2.904   1.626  13.146  0.4056  0.0613 -0.7342
  541MPD2    C2 8080   2.882   1.678  13.020  0.2949 -0.5077 -0.1895
  541MPD2    C3 8081   2.971   1.780  12.978 -0.2927 -0.2422  0.0230
  541MPD2    C4 8082   3.056   1.838  13.072  0.5280 -1.2493 -0.3889
  541MPD2    C5 8083   3.075   1.785  13.194 -0.0536  0.5228  0.5495
  541MPD2     H 8084   2.805   1.644  12.952 -0.6518 -0.7904  1.0244
  541MPD2    H1 8085   3.124   1.916  13.039 -1.3093  0.4580 -0.1171
  541MPD2    H2 8086   3.021   1.631  13.330  0.1149  4.4874  2.1548
  541MPD2    H3 8087   3.153   1.816  13.263  0.9769 -0.6661 -0.0966
  541MPD2     N 8088   2.976   1.836  12.848 -0.4749 -0.1904  0.4218
  541MPD2    H5 8089   3.015   1.928  12.834  1.2816 -1.0533 -0.3400
  541MPD2    N1 8090   2.817   1.521  13.182  0.1736 -0.4463 -0.0859
  541MPD2    H7 8091   2.745   1.495  13.115  0.7454  1.4494 -1.4276
  542TMC3    C1 8092   2.940   1.826  12.621  1.0833 -0.1775 -0.4935
  542TMC3    C2 8093   2.958   1.751  12.507 -0.4270 -0.6572  0.1553
  542TMC3    C3 8094   2.912   1.805  12.388  0.3111 -0.6501  0.1559
  542TMC3    C4 8095   2.872   1.951  12.620  0.4541 -0.1072  0.3170
  542TMC3    C5 8096   2.823   1.993  12.500 -0.4497 -0.0362  1.0633
  542TMC3    C6 8097   2.842   1.925  12.381  0.5932 -0.0184 -0.2073
  542TMC3     C 8098   2.937   1.757  12.745 -1.7064 -0.1765 -0.2916
  542TMC3     O 8099   2.922   1.633  12.735  0.1939 -0.0304 -0.1104
  542TMC3     H 8100   3.032   1.672  12.507  0.1546 -0.1085  2.7567
  542TMC3    H1 8101   2.843   2.000  12.712 -1.1808  0.3804 -0.4571
  542TMC3    H2 8102   2.808   1.956  12.283 -0.3308  1.1967  0.5058
  542TMC3    C7 8103   2.790   2.135  12.486  0.7759  0.4122 -0.9611
  542TMC3    C8 8104   2.933   1.733  12.263 -0.2042  0.6561 -0.2297
  542TMC3    O1 8105   2.827   2.209  12.575 -0.4976 -0.4727 -0.2163
  542TMC3    O2 8106   2.914   1.789  12.155 -0.2676 -0.0267 -0.3710
  543TMC3    C1 8107   2.748   3.078  16.913  0.2177 -0.2569 -0.9351
  543TMC3    C2 8108   2.843   3.040  17.010 -0.2059  0.0305  0.0880
  543TMC3    C3 8109   2.872   3.136  17.103  0.6249  0.4601  0.2587
  543TMC3    C4 8110   2.681   3.195  16.914  0.7884  0.1687 -0.0503
  543TMC3    C5 8111   2.701   3.279  17.023  0.6387 -0.0991  0.1640
  543TMC3    C6 8112   2.798   3.249  17.117 -0.2149  0.2447  0.2117
  543TMC3     C 8113   2.751   2.990  16.800 -0.3342  0.1724  0.3514
  543TMC3     O 8114   2.832   2.901  16.793  0.0898  0.4681  0.0404
  543TMC3     H 8115   2.905   2.953  16.989  1.3126  1.3280 -0.8272
  543TMC3    H1 8116   2.607   3.210  16.836  0.9730 -0.6983 -0.3875
  543TMC3    H2 8117   2.816   3.317  17.199 -1.1668  2.0959 -1.1142
  543TMC3    C7 8118   2.620   3.400  17.044  0.3943 -0.2567  0.6339
  543TMC3    C8 8119   2.963   3.092  17.204  0.5510 -0.0056  0.1482
  543TMC3    O1 8120   2.642   3.472  17.139 -0.3483  0.4650  0.2924
  543TMC3    O2 8121   3.026   2.990  17.180 -0.6313  0.1245  0.3188
  544MPD2     C 8122   3.180   3.048  17.668  0.6400  0.7721 -0.6351
  544MPD2    C1 8123   3.149   2.952  17.572 -0.0717  0.9355 -0.2728
  544MPD2    C2 8124   3.077   2.998  17.462  0.2137  0.5634 -0.0439
  544MPD2    C3 8125   3.040   3.131  17.431  0.1060  0.1517 -0.0937
  544MPD2    C4 8126   3.071   3.221  17.531 -0.4342  0.4050 -0.1870
  544MPD2    C5 8127   3.137   3.177  17.644 -0.0628  0.6574  0.7711
  544MPD2     H 8128   3.048   2.921  17.391 -2.2816 -0.0431  1.6362
  544MPD2    H1 8129   3.036   3.323  17.517  0.3973  0.6181 -0.6984
  544MPD2    H2 8130   3.211   3.016   0.011  1.1568  0.5920 -0.8517
  544MPD2    H3 8131   3.151   3.262  17.710 -0.9256  0.5476  1.1069
  544MPD2     N 8132   2.976   3.173  17.314  0.4643  0.0206 -0.7235
  544MPD2    H5 8133   2.937   3.267  17.309  0.8355  0.2576  0.9305
  544MPD2    N1 8134   3.189   2.813  17.589  0.1791 -0.0953 -0.5021
  544MPD2    H7 8135   3.217   2.784  17.682 -0.5967  0.9188  0.0583
  545TMC3    C1 8136   3.186   2.578  17.570 -0.1246 -0.2084  0.2299
  545TMC3    C2 8137   3.166   2.472  17.490  0.3150  0.1553  0.2161
  545TMC3    C3 8138   3.199   2.349  17.535  0.1038  0.3402 -0.2941
  545TMC3    C4 8139   3.235   2.572  17.691  0.4260 -0.3956  0.5703
  545TMC3    C5 8140   3.270   2.448  17.735  0.1573 -0.7771  0.1422
  545TMC3    C6 8141   3.249   2.334  17.666  0.4716 -0.1214 -0.4420
  545TMC3     C 8142   3.146   2.706  17.512 -0.0910  0.2905 -0.6928
  545TMC3     O 8143   3.130   2.703  17.392 -0.4403  0.3978 -0.7491
  545TMC3     H 8144   3.116   2.481  17.395  0.7650 -1.1177 -0.1389
  545TMC3    H1 8145   3.234   2.654   0.005 -0.9501  0.1746 -0.0969
  545TMC3    H2 8146   3.294   2.240  17.696 -1.7795 -1.0722  0.0075
  545TMC3    C7 8147   3.345   2.457   0.107 -0.4276 -0.1298  0.0275
  545TMC3    C8 8148   3.209   2.227  17.448 -0.2851 -0.3930 -0.0839
  545TMC3    O1 8149   3.383   2.566   0.150 -0.0934 -0.4343 -0.2305
  545TMC3    O2 8150   3.237   2.116  17.495 -0.5562 -0.5011  0.0467
  546MPD2     C 8151   3.952   2.804  17.463  0.4915 -0.0130  0.1660
  546MPD2    C1 8152   3.902   2.818  17.334 -0.6435  0.3194 -0.3959
  546MPD2    C2 8153   3.927   2.933  17.259  0.4764  0.6755 -0.5554
  546MPD2    C3 8154   4.005   3.034  17.311 -0.4543  0.2454  0.3126
  546MPD2    C4 8155   4.025   3.028  17.449 -0.2923 -0.3652 -0.8686
  546MPD2    C5 8156   4.014   2.913  17.520  0.5198 -0.8534 -0.7394
  546MPD2     H 8157   3.901   2.937  17.154  1.2185 -2.3508 -0.8466
  546MPD2    H1 8158   4.069   3.111  17.504  0.6048 -2.3074  1.3354
  546MPD2    H2 8159   3.940   2.711  17.516 -0.1778  0.5167  0.9484
  546MPD2    H3 8160   4.040   2.915  17.625  0.8945 -0.0329 -0.8496
  546MPD2     N 8161   4.053   3.144  17.244  0.1909 -0.2156 -0.3538
  546MPD2    H5 8162   4.066   3.228  17.299 -0.3931 -0.1188 -0.3592
  546MPD2    N1 8163   3.837   2.704  17.282 -0.0470  0.2634 -0.1906
  546MPD2    H7 8164   3.860   2.613  17.322  0.8993  0.1431 -1.0005
  547TMC3    C1 8165   3.732   2.578  17.117 -0.4598 -0.0122 -0.8665
  547TMC3    C2 8166   3.615   2.562  17.046 -0.1474 -0.6749  0.1014
  547TMC3    C3 8167   3.596   2.428  17.005  0.1765 -0.4864  0.1932
  547TMC3    C4 8168   3.831   2.486  17.125  0.3971 -0.4276  0.2807
  547TMC3    C5 8169   3.808   2.357  17.090 -0.3662 -0.1080 -0.6279
  547TMC3    C6 8170   3.691   2.331  17.029  0.4388 -0.2940  0.4590
  547TMC3     C 8171   3.771   2.710  17.162 -0.3295 -0.1563 -0.2776
  547TMC3     O 8172   3.705   2.800  17.114  0.0538 -0.1850  0.3792
  547TMC3     H 8173   3.544   2.644  17.038  0.9543  0.3242  0.4837
  547TMC3    H1 8174   3.926   2.517  17.169  0.7003  0.6739 -1.1433
  547TMC3    H2 8175   3.679   2.226  17.007 -1.6402 -0.1249  0.7996
  547TMC3    C7 8176   3.839   2.261  17.191  0.7127  0.1739 -0.3076
  547TMC3    C8 8177   3.508   2.410  16.891  0.0885 -0.5414 -0.5911
  547TMC3    O1 8178   3.782   2.264  17.300  0.1306  0.2754  0.3101
  547TMC3    O2 8179   3.411   2.482  16.875  0.2217  0.5969 -0.2294
  548MPD2     C 8180   3.645   3.364  12.858  0.4978  0.6387 -0.3080
  548MPD2    C1 8181   3.573   3.245  12.864  0.0475 -0.1561  0.7322
  548MPD2    C2 8182   3.640   3.120  12.855 -0.6983  0.6001  0.0244
  548MPD2    C3 8183   3.772   3.124  12.835 -0.2877  0.2767  0.0768
  548MPD2    C4 8184   3.839   3.244  12.840 -0.0836 -0.1228 -0.5313
  548MPD2    C5 8185   3.778   3.360  12.859  0.4915 -0.0209  0.1349
  548MPD2     H 8186   3.590   3.025  12.855  2.1531 -0.9098 -1.1295
  548MPD2    H1 8187   3.946   3.245  12.827  0.1035  0.3806  1.0642
  548MPD2    H2 8188   3.601   3.463  12.868 -3.1191 -1.1137  1.2503
  548MPD2    H3 8189   3.823   3.459  12.862 -2.7049  1.3415  3.3348
  548MPD2     N 8190   3.833   2.997  12.808  0.1183 -0.0610 -0.2370
  548MPD2    H5 8191   3.767   2.920  12.802  0.1455  0.0314 -1.6815
  548MPD2    N1 8192   3.435   3.258  12.876  0.0442  0.9332 -0.9882
  548MPD2    H7 8193   3.399   3.350  12.896 -0.0283  0.1765  2.4026
  549TMC3    C1 8194   3.212   3.207  12.862  0.3477 -0.3178 -0.1499
  549TMC3    C2 8195   3.187   3.339  12.846  0.1042 -0.3597  0.4218
  549TMC3    C3 8196   3.055   3.378  12.828  0.8464  0.4896  0.1310
  549TMC3    C4 8197   3.114   3.114  12.844 -0.3995  0.9965 -0.4703
  549TMC3    C5 8198   2.986   3.159  12.823 -0.2511  0.3327 -0.0939
  549TMC3    C6 8199   2.954   3.292  12.815  0.2369 -0.4712 -0.7951
  549TMC3     C 8200   3.345   3.163  12.857  0.4167 -0.5701  0.7575
  549TMC3     O 8201   3.358   3.047  12.814 -0.4129  0.5629 -0.1663
  549TMC3     H 8202   3.265   3.414  12.849 -0.2572 -0.0171  1.1299
  549TMC3    H1 8203   3.140   3.008  12.850 -3.3606  0.2623 -0.5282
  549TMC3    H2 8204   2.852   3.325  12.808 -0.2169 -1.4084  1.4165
  549TMC3    C7 8205   2.874   3.071  12.786  0.7453  0.0974  0.0247
  549TMC3    C8 8206   3.028   3.519  12.822 -0.2174 -0.5916 -0.0874
  549TMC3    O1 8207   2.759   3.102  12.805  0.6385 -0.5287 -0.5418
  549TMC3    O2 8208   3.060   3.590  12.914 -0.4191 -0.0852  0.0498
  550TMC3    C1 8209   2.633   1.550  12.226 -0.6784 -0.2185 -0.0017
  550TMC3    C2 8210   2.606   1.544  12.357 -0.0031 -0.1524  0.3813
  550TMC3    C3 8211   2.575   1.670  12.406  0.5185 -0.6769  0.3027
  550TMC3    C4 8212   2.617   1.659  12.143 -0.6982  0.3153 -0.8419
  550TMC3    C5 8213   2.563   1.774  12.197  0.8114 -0.4640  0.7624
  550TMC3    C6 8214   2.547   1.785  12.330  0.7569 -0.0886 -0.2643
  550TMC3     C 8215   2.652   1.420  12.158 -0.1787  0.3069  0.0628
  550TMC3     O 8216   2.666   1.318  12.232  0.4262  0.4262  0.5958
  550TMC3     H 8217   2.625   1.456  12.417 -1.8118  0.1053  1.3476
  550TMC3    H1 8218   2.670   1.664  12.048  0.5538  0.9968 -0.1044
  550TMC3    H2 8219   2.504   1.871  12.379  1.4741  0.2943 -0.3160
  550TMC3    C7 8220   2.556   1.893  12.118  0.1798 -0.3193  0.2714
  550TMC3    C8 8221   2.530   1.671  12.541 -0.0876  0.2774  1.2213
  550TMC3    O1 8222   2.658   1.963  12.110  0.8685 -0.2857 -0.1364
  550TMC3    O2 8223   2.561   1.776  12.602 -0.6779 -0.6436 -1.1095
  551TMC3    C1 8224   4.647   4.008  13.300 -1.0530 -0.2707 -0.1271
  551TMC3    C2 8225   4.735   4.079  13.224 -0.1441 -0.6367  0.6149
  551TMC3    C3 8226   0.124   4.094  13.271  0.4599 -0.0427  0.1943
  551TMC3    C4 8227   4.687   3.962  13.425  0.0807 -0.3288 -0.0754
  551TMC3    C5 8228   0.074   3.977  13.460 -0.0203 -0.6722 -0.1618
  551TMC3    C6 8229   0.164   4.041  13.386 -0.8007  0.6641  0.1785
  551TMC3     C 8230   4.532   3.964  13.228 -0.2655 -0.0398  0.8352
  551TMC3     O 8231   4.504   4.018  13.123 -0.3994 -0.2917 -0.2942
  551TMC3     H 8232   4.716   4.101  13.120  2.0444  2.4673  0.8562
  551TMC3    H1 8233   4.608   3.936  13.495 -0.8458 -1.7921 -1.6659
  551TMC3    H2 8234   0.267   4.046  13.418 -0.3890 -1.5671 -0.7931
  551TMC3    C7 8235   0.125   3.936  13.589  0.4129 -0.4398 -0.6949
  551TMC3    C8 8236   0.226   4.139  13.173  0.4393  0.0370  0.4149
  551TMC3    O1 8237   0.205   4.010  13.648  0.2147  0.1554  0.5442
  551TMC3    O2 8238   0.326   4.071  13.176 -0.1284 -0.0918  1.4003
  552MPD2     C 8239   2.284   1.013  13.890  0.2490  0.2301 -0.1390
  552MPD2    C1 8240   2.213   0.919  13.953 -0.1828  0.0741  0.2151
  552MPD2    C2 8241   2.255   0.857  14.064  0.4128 -0.1009  0.6217
  552MPD2    C3 8242   2.375   0.898  14.120  0.7585 -0.4165  0.1332
  552MPD2    C4 8243   2.447   1.000  14.057 -0.0021 -0.8503 -0.4957
  552MPD2    C5 8244   2.401   1.063  13.948 -0.6691 -0.2617 -0.5584
  552MPD2     H 8245   2.203   0.772  14.105 -0.6174 -1.7599 -4.1289
  552MPD2    H1 8246   2.535   1.046  14.100 -1.0800  0.7826 -0.0569
  552MPD2    H2 8247   2.253   1.071  13.804 -1.2753 -1.5437 -0.7808
  552MPD2    H3 8248   2.453   1.150  13.909 -0.9164 -0.8737 -2.2412
  552MPD2     N 8249   2.437   0.842  14.233  0.1184  0.0957  0.3572
  552MPD2    H5 8250   2.516   0.890  14.275  0.0270  1.3457 -0.8772
  552MPD2    N1 8251   2.101   0.855  13.888  0.4837  0.4850  0.0680
  552MPD2    H7 8252   2.053   0.772  13.922  0.7132  0.4281  0.2498
  553TMC3    C1 8253   1.953   0.806  13.715 -0.2910 -0.1776 -0.2859
  553TMC3    C2 8254   1.842   0.854  13.653 -0.0039  0.6294 -0.0998
  553TMC3    C3 8255   1.775   0.765  13.569  0.2885 -0.7873  0.2487
  553TMC3    C4 8256   1.997   0.674  13.696 -0.2831 -0.0877  0.0044
  553TMC3    C5 8257   1.923   0.596  13.608  0.0727  0.0106  0.4428
  553TMC3    C6 8258   1.816   0.640  13.541  0.4463  0.0480  0.0028
  553TMC3     C 8259   2.041   0.911  13.774 -0.3410 -0.2059 -0.5835
  553TMC3     O 8260   2.039   1.021  13.720  0.3461 -0.7244  0.3454
  553TMC3     H 8261   1.805   0.955  13.668 -0.9387  0.5170 -1.6334
  553TMC3    H1 8262   2.087   0.636  13.742 -0.7866 -1.5238 -0.1863
  553TMC3    H2 8263   1.763   0.575  13.472  1.6007  0.6964 -1.4909
  553TMC3    C7 8264   1.975   0.463  13.572  0.1214  0.0877 -0.1234
  553TMC3    C8 8265   1.655   0.802  13.497  0.6389 -0.1013  0.0117
  553TMC3    O1 8266   1.898   0.372  13.535 -0.8307  0.3815  0.2948
  553TMC3    O2 8267   1.624   0.735  13.398 -0.3544  0.5063  0.2397
  554TMC3    C1 8268   3.606   0.478  11.761 -0.0594 -0.8661 -0.0662
  554TMC3    C2 8269   3.558   0.406  11.654  0.3018 -0.3662 -0.3744
  554TMC3    C3 8270   3.590   0.460  11.527  0.0791 -0.4802 -0.4296
  554TMC3    C4 8271   3.685   0.587  11.760 -0.3517  0.0641  0.2933
  554TMC3    C5 8272   3.701   0.638  11.630 -0.2084 -0.1169  0.5836
  554TMC3    C6 8273   3.661   0.572  11.514  0.0033  0.0893  0.4498
  554TMC3     C 8274   3.588   0.413  11.889  0.0446 -0.7631 -0.1830
  554TMC3     O 8275   3.480   0.372  11.916  0.1163  0.4123  0.4270
  554TMC3     H 8276   3.512   0.308  11.663 -0.6505 -0.0622 -1.7310
  554TMC3    H1 8277   3.718   0.635  11.852  1.4167  0.9540 -0.8135
  554TMC3    H2 8278   3.658   0.616  11.414 -0.8020  1.4865  1.0948
  554TMC3    C7 8279   3.762   0.770  11.625 -0.4837  0.1001 -0.2456
  554TMC3    C8 8280   3.529   0.409  11.405  0.0097 -0.1247  0.4314
  554TMC3    O1 8281   3.745   0.835  11.727 -0.0026 -0.5134 -0.5637
  554TMC3    O2 8282   3.583   0.447  11.301  0.6008 -0.0381 -1.1069
  555TMC3    C1 8283   3.107   4.186  14.939  0.3840 -0.0781  0.3763
  555TMC3    C2 8284   3.108   4.284  15.041  0.8572 -0.2986  0.0502
  555TMC3    C3 8285   3.075   4.246  15.172 -0.6238 -0.2476 -0.0838
  555TMC3    C4 8286   3.105   4.051  14.977  0.9022 -0.2332  0.5970
  555TMC3    C5 8287   3.086   4.014  15.110  0.2205  0.2983  0.6534
  555TMC3    C6 8288   3.073   4.107  15.206  0.4147 -0.9116 -0.3160
  555TMC3     C 8289   3.115   4.216  14.797 -0.9620  0.5942 -0.1438
  555TMC3     O 8290   3.158   4.125  14.727 -0.4122  0.5893 -0.8497
  555TMC3     H 8291   3.127   4.390  15.028  3.0047 -0.9427 -1.9949
  555TMC3    H1 8292   3.119   3.974  14.901 -2.1647  0.0921 -0.3305
  555TMC3    H2 8293   3.036   4.074  15.302 -1.3401  0.2983 -0.5712
  555TMC3    C7 8294   3.094   3.876  15.153  0.1148 -0.4731  0.4155
  555TMC3    C8 8295   3.035   4.344  15.270  0.0967  0.3590  0.3092
  555TMC3    O1 8296   3.017   3.848  15.244  0.7821  0.5260 -0.1776
  555TMC3    O2 8297   3.015   4.456  15.230 -0.4236  0.0885  0.2976
  556MPD2     C 8298   1.199   1.941  10.463 -0.2340 -0.0310  0.7321
  556MPD2    C1 8299   1.161   1.859  10.566  0.4049  0.0950  0.0844
  556MPD2    C2 8300   1.111   1.735  10.530  0.5528 -0.4731  0.1382
  556MPD2    C3 8301   1.091   1.700  10.399  0.6857 -0.6236 -0.7378
  556MPD2    C4 8302   1.115   1.790  10.298  0.1380 -0.5121 -0.3262
  556MPD2    C5 8303   1.178   1.907  10.327 -0.0575  0.8251 -0.0314
  556MPD2     H 8304   1.081   1.665  10.608 -1.6380  0.1280 -0.1471
  556MPD2    H1 8305   1.093   1.770  10.194 -2.4283 -0.4137  0.2090
  556MPD2    H2 8306   1.242   2.040  10.475  1.1118 -0.8949  2.8236
  556MPD2    H3 8307   1.199   1.981  10.250 -1.3426  1.6357  0.3939
  556MPD2     N 8308   1.047   1.568  10.364  0.1618  0.0345  0.7609
  556MPD2    H5 8309   1.045   1.504  10.443 -1.4115  0.4786  1.0650
  556MPD2    N1 8310   1.172   1.895  10.704  1.0932  0.2954 -0.4876
  556MPD2    H7 8311   1.127   1.826  10.764  1.3430  0.8648  0.3572
  557TMC3    C1 8312   1.012   1.366  10.234  0.4542 -0.3900 -0.0348
  557TMC3    C2 8313   1.081   1.290  10.146 -0.1309  0.4825 -0.3330
  557TMC3    C3 8314   1.085   1.157  10.170  0.6252  0.0509  0.0591
  557TMC3    C4 8315   0.958   1.314  10.349  0.3371 -0.6214  0.2435
  557TMC3    C5 8316   0.955   1.175  10.364 -0.1392  0.4022  0.3589
  557TMC3    C6 8317   1.028   1.098  10.278 -1.1151 -0.0168  0.0871
  557TMC3     C 8318   1.043   1.507  10.234 -0.6447 -0.0280 -0.3451
  557TMC3     O 8319   1.087   1.548  10.130  0.1692  0.2862  0.2825
  557TMC3     H 8320   1.131   1.340  10.063  0.7926  0.4003  0.1674
  557TMC3    H1 8321   0.897   1.369  10.421 -0.0425 -1.8508  0.8550
  557TMC3    H2 8322   1.042   0.991  10.289  0.8231  0.3649  1.5411
  557TMC3    C7 8323   0.876   1.126  10.467 -0.4647  0.7617  0.0374
  557TMC3    C8 8324   1.192   1.091  10.105  0.2137 -0.7477 -0.0175
  557TMC3    O1 8325   0.766   1.181  10.487 -0.0340  0.1474 -0.2581
  557TMC3    O2 8326   1.280   1.167  10.070 -0.0827  0.5975  0.6067
  558TMC3    C1 8327   3.543   4.456  10.305 -0.6001  0.7532  0.4366
  558TMC3    C2 8328   3.406   4.432  10.299 -0.2276 -0.8755 -0.8932
  558TMC3    C3 8329   3.329   4.522  10.231  0.0592  0.2135  0.2798
  558TMC3    C4 8330   3.600   4.552  10.230  0.6239  0.4658  0.1953
  558TMC3    C5 8331   3.519   4.635  10.158 -0.3326 -0.0499  0.5365
  558TMC3    C6 8332   3.381   4.623  10.162  0.5136  0.8219 -0.1107
  558TMC3     C 8333   3.639   4.363  10.371  0.0656 -0.1824 -0.2748
  558TMC3     O 8334   3.753   4.350  10.327  0.4896 -0.0722  0.5574
  558TMC3     H 8335   3.364   4.338  10.333  1.1046 -1.6281 -1.3169
  558TMC3    H1 8336   3.707   4.564  10.238  0.5656 -0.5233  2.4715
  558TMC3    H2 8337   3.319   4.687  10.101 -0.3304  0.7092  0.6391
  558TMC3    C7 8338   3.573   4.705  10.042 -0.5986  0.3474 -0.4278
  558TMC3    C8 8339   3.184   4.510  10.237 -0.2027  0.0345  0.5508
  558TMC3    O1 8340   3.492   0.006   9.962 -0.7704 -0.0710 -0.2115
  558TMC3    O2 8341   3.122   4.575  10.158  0.3213  0.1189  0.4420
  559MPD2     C 8342   3.463   0.066  10.465 -0.0419  0.8606 -0.1120
  559MPD2    C1 8343   3.391   4.724  10.553 -0.2170  0.4226  0.1211
  559MPD2    C2 8344   3.464   4.643  10.645 -0.4186 -0.3480  0.7143
  559MPD2    C3 8345   3.601   4.656  10.647 -0.2772  0.1962  0.8352
  559MPD2    C4 8346   3.673   4.724  10.553 -0.2005 -0.4115  0.6436
  559MPD2    C5 8347   3.604   0.061  10.460  0.1499  0.4347  0.4396
  559MPD2     H 8348   3.425   4.586  10.728  0.5026 -0.2923  1.1796
  559MPD2    H1 8349   3.781   4.725  10.550 -0.1964  0.0783  1.0280
  559MPD2    H2 8350   3.411   0.134  10.398  0.8803  1.2488 -0.4475
  559MPD2    H3 8351   3.659   0.122  10.389  0.1919  1.8236  1.6856
  559MPD2     N 8352   3.668   4.593  10.751 -0.1378 -0.3287  0.1500
  559MPD2    H5 8353   3.615   4.558  10.830  0.2658 -2.2367 -0.4306
  559MPD2    N1 8354   3.250   4.717  10.552  0.1175 -0.4673 -0.5622
  559MPD2    H7 8355   3.197   0.039  10.492  2.6661  1.2524 -1.0524
  560TMC3    C1 8356   3.820   4.523  10.905 -0.3466 -0.2245  0.2817
  560TMC3    C2 8357   3.731   4.422  10.925  0.5056 -0.7012  0.1162
  560TMC3    C3 8358   3.724   4.366  11.046 -0.7176  0.8199  0.1569
  560TMC3    C4 8359   3.898   4.572  11.004 -0.5393 -0.6605 -0.4003
  560TMC3    C5 8360   3.876   4.521  11.130  0.1864 -0.1582  0.1086
  560TMC3    C6 8361   3.798   4.410  11.149 -0.3591  0.0808  0.4737
  560TMC3     C 8362   3.806   4.594  10.782  0.5999  0.3158 -0.2275
  560TMC3     O 8363   3.908   4.644  10.733  0.2165 -0.6521  0.3092
  560TMC3     H 8364   3.688   4.370  10.840  0.7366 -1.0283  0.1982
  560TMC3    H1 8365   3.971   4.649  10.983 -2.1070  0.6137 -1.1460
  560TMC3    H2 8366   3.789   4.366  11.248  0.3975 -0.6135  0.2355
  560TMC3    C7 8367   3.929   4.586  11.251 -1.0773  0.0299  0.5665
  560TMC3    C8 8368   3.599   4.289  11.073 -0.8063  0.1630  0.3393
  560TMC3    O1 8369   3.910   4.528  11.356  0.1947  0.1871 -0.3763
  560TMC3    O2 8370   3.506   4.301  10.992  0.0198  0.3618 -0.2336
  561TMC3    C1 8371   1.212   3.315  11.089  0.1771  0.3790  0.3565
  561TMC3    C2 8372   1.135   3.276  11.194 -0.2454 -0.0041 -0.8819
  561TMC3    C3 8373   1.130   3.356  11.307 -0.2374  0.0454  0.0580
  561TMC3    C4 8374   1.278   3.432  11.091  0.1600 -0.0411 -0.9242
  561TMC3    C5 8375   1.278   3.501  11.211  0.1467 -0.5113  0.6837
  561TMC3    C6 8376   1.200   3.472  11.317 -0.8321 -0.5880  0.2234
  561TMC3     C 8377   1.192   3.236  10.970  0.2982 -0.3270 -0.5785
  561TMC3     O 8378   1.150   3.122  10.993  0.1764  0.6217 -0.3417
  561TMC3     H 8379   1.073   3.188  11.205  0.2991 -0.3606 -0.6340
  561TMC3    H1 8380   1.343   3.467  11.011  0.0141 -1.0336 -1.4713
  561TMC3    H2 8381   1.187   3.531  11.407 -0.0206 -0.1480  0.0497
  561TMC3    C7 8382   1.385   3.603  11.243  0.1370  0.0280 -0.0273
  561TMC3    C8 8383   1.058   3.303  11.429 -0.0431  0.3157 -0.4439
  561TMC3    O1 8384   1.380   3.648  11.356  0.5877 -0.4686 -0.0206
  561TMC3    O2 8385   1.029   3.184  11.438  0.2801  0.4918  0.4937
  562TMC3    C1 8386   2.828   4.555  16.376 -0.6859  0.2597  0.1152
  562TMC3    C2 8387   2.795   4.683  16.375 -0.7193  0.0344  0.4278
  562TMC3    C3 8388   2.735   4.726  16.267  0.5161 -0.1968  0.2671
  562TMC3    C4 8389   2.812   4.465  16.264  0.3324  0.7935 -0.6348
  562TMC3    C5 8390   2.757   4.525  16.150 -0.6311  0.5004  0.0325
  562TMC3    C6 8391   2.734   4.659  16.151  0.3034  0.9119  0.1797
  562TMC3     C 8392   2.911   4.491  16.479  0.1521 -0.9164 -0.0634
  562TMC3     O 8393   2.935   4.376  16.457  1.0638 -0.1378  0.1582
  562TMC3     H 8394   2.790   4.735  16.471 -1.5160 -1.1202  1.0154
  562TMC3    H1 8395   2.857   4.367  16.257  1.0347  1.0271  0.5090
  562TMC3    H2 8396   2.700   4.699  16.056  1.4112  1.8113  0.1539
  562TMC3    C7 8397   2.715   4.444  16.035 -0.5447  0.1724  0.4167
  562TMC3    C8 8398   2.685   0.124  16.266 -0.1984 -0.0426 -1.0469
  562TMC3    O1 8399   2.680   4.499  15.937 -0.0824  0.0626 -0.5157
  562TMC3    O2 8400   2.705   0.191  16.365  0.6792  0.3098  0.7661
  563MPD2     C 8401   0.440   1.628  15.808 -0.2650 -0.1311 -0.3044
  563MPD2    C1 8402   0.372   1.533  15.874  0.3703 -0.1296  1.1673
  563MPD2    C2 8403   0.404   1.402  15.857 -0.4710  0.0258 -0.1378
  563MPD2    C3 8404   0.501   1.376  15.765 -0.0112  0.3360  0.7341
  563MPD2    C4 8405   0.577   1.473  15.707  0.1416  0.1952 -0.2092
  563MPD2    C5 8406   0.537   1.597  15.719 -0.4915  0.6247  0.0157
  563MPD2     H 8407   0.344   1.322  15.900  1.0992 -0.4721  1.1287
  563MPD2    H1 8408   0.649   1.455  15.628  0.6883 -1.7176  0.7276
  563MPD2    H2 8409   0.395   1.726  15.820 -0.1243 -0.2566  1.2265
  563MPD2    H3 8410   0.590   1.677  15.668  0.0686 -0.8092 -1.6483
  563MPD2     N 8411   0.533   1.234  15.744 -0.2949 -0.2654  0.3224
  563MPD2    H5 8412   0.476   1.155  15.773 -0.0742 -1.7069 -3.1612
  563MPD2    N1 8413   0.283   1.573  15.981  0.9327 -0.0318 -0.0500
  563MPD2    H7 8414   0.305   1.666  16.014  0.9372 -0.9088  2.3575
  564TMC3    C1 8415   0.205   1.493  16.178  1.1726  0.4027 -0.2358
  564TMC3    C2 8416   0.088   1.472  16.239  0.0650  0.0014  0.0922
  564TMC3    C3 8417   0.082   1.376  16.345  0.4292 -0.2922  0.0825
  564TMC3    C4 8418   0.316   1.432  16.223  0.6236 -0.8107  0.2753
  564TMC3    C5 8419   0.305   1.339  16.319 -0.2940  0.0256 -0.1752
  564TMC3    C6 8420   0.198   1.314  16.384 -0.1018 -0.3600  0.3040
  564TMC3     C 8421   0.191   1.487  16.039 -0.4860 -0.6284 -0.0652
  564TMC3     O 8422   0.146   1.380  16.004 -0.1808 -0.4692  0.2209
  564TMC3     H 8423   4.740   1.519  16.197 -0.1441  0.7229  1.3330
  564TMC3    H1 8424   0.416   1.440  16.180  0.5380 -1.4699 -0.0388
  564TMC3    H2 8425   0.189   1.224  16.444  0.6557 -0.6501 -0.0261
  564TMC3    C7 8426   0.356   1.210  16.277  0.3122  0.4220 -0.3114
  564TMC3    C8 8427   4.726   1.266  16.319  0.2966 -0.5979 -0.3685
  564TMC3    O1 8428   0.383   1.134  16.369 -0.8064  0.5341 -0.2228
  564TMC3    O2 8429   4.711   1.174  16.400 -0.1396  0.1253  0.6366
  565TMC3    C1 8430   0.675   3.271   9.708 -0.0127  0.4423  0.5519
  565TMC3    C2 8431   0.641   3.189   9.812  0.1162 -0.2304  0.1557
  565TMC3    C3 8432   0.548   3.087   9.782 -0.2655  0.0943  0.3503
  565TMC3    C4 8433   0.626   3.261   9.582  0.5136 -0.0322 -0.3126
  565TMC3    C5 8434   0.545   3.154   9.551  0.4953  0.2259 -0.9340
  565TMC3    C6 8435   0.508   3.067   9.652 -0.6775 -0.1837  0.4667
  565TMC3     C 8436   0.772   3.373   9.733  0.1923  0.0628  1.0512
  565TMC3     O 8437   0.789   3.423   9.847  0.2874  0.0852  0.7191
  565TMC3     H 8438   0.688   3.197   9.909  1.1240  2.3793 -0.5402
  565TMC3    H1 8439   0.637   3.337   9.505 -0.0499  0.2402 -0.1303
  565TMC3    H2 8440   0.416   3.011   9.644 -0.8950  0.5277 -1.7983
  565TMC3    C7 8441   0.469   3.161   9.432  0.0792 -0.0353  0.2593
  565TMC3    C8 8442   0.522   2.985   9.884 -0.3064 -0.1132  0.2260
  565TMC3    O1 8443   0.462   3.269   9.379 -0.0910 -0.0763 -0.2599
  565TMC3    O2 8444   0.556   3.001  10.001  0.2338  0.1614  0.2589
  566MPD2     C 8445   1.913   3.969  13.988  0.0117 -0.0918 -0.3503
  566MPD2    C1 8446   1.919   4.103  13.966  0.8930 -1.1926  0.1284
  566MPD2    C2 8447   1.814   4.181  13.986 -0.0666  0.0698 -0.1496
  566MPD2    C3 8448   1.695   4.133  14.026  0.4344 -0.6428  0.4896
  566MPD2    C4 8449   1.689   4.005  14.072  0.3911 -0.0721  0.4105
  566MPD2    C5 8450   1.796   3.923  14.052  0.2076 -0.1640  0.1753
  566MPD2     H 8451   1.818   4.288  13.968 -0.6300  0.0130 -0.6248
  566MPD2    H1 8452   1.601   3.961  14.117  0.9215 -3.7342 -2.0940
  566MPD2    H2 8453   1.995   3.903  13.962  0.7749  0.3411  0.9323
  566MPD2    H3 8454   1.789   3.816  14.072 -1.0989 -0.5000 -2.0244
  566MPD2     N 8455   1.577   4.213  14.036  0.1531 -0.4016  0.0908
  566MPD2    H5 8456   1.506   4.188  14.104 -1.4695  0.1517 -1.4040
  566MPD2    N1 8457   2.044   4.154  13.916  0.5515  0.3120 -0.0649
  566MPD2    H7 8458   2.118   4.088  13.893  0.1440  0.3624 -1.5723
  567TMC3    C1 8459   2.218   4.288  13.859 -0.0908 -0.1107  0.0944
  567TMC3    C2 8460   2.254   4.408  13.802  0.1320  0.7286 -0.0706
  567TMC3    C3 8461   2.392   4.443  13.805  0.3662  0.3202  0.3849
  567TMC3    C4 8462   2.299   4.214  13.931  0.2579 -0.1622 -1.0349
  567TMC3    C5 8463   2.433   4.252  13.936  0.8129 -0.3560 -0.0512
  567TMC3    C6 8464   2.482   4.362  13.873 -0.5739 -0.6413 -0.5094
  567TMC3     C 8465   2.081   4.284  13.895 -0.4629 -0.0657 -0.4862
  567TMC3     O 8466   2.018   4.386  13.916 -0.7315 -0.0628 -0.0726
  567TMC3     H 8467   2.187   4.475  13.750 -0.4489  1.0682  1.1155
  567TMC3    H1 8468   2.265   4.125  13.982 -3.9400  2.6213  1.0520
  567TMC3    H2 8469   2.590   4.375  13.874 -0.5305 -0.9708 -1.0157
  567TMC3    C7 8470   2.518   4.201  14.045 -0.3225 -0.1805 -0.1519
  567TMC3    C8 8471   2.429   4.514  13.688  0.0129 -0.1872 -0.1943
  567TMC3    O1 8472   2.635   4.243  14.046  0.2897  0.0581  0.1050
  567TMC3    O2 8473   2.348   4.515  13.595 -0.3367  0.5830 -0.1311
  568MPD2     C 8474   4.479   4.656  16.233  0.6075  0.9574  0.8973
  568MPD2    C1 8475   4.509   4.712  16.355  0.5724 -0.3264 -0.1224
  568MPD2    C2 8476   4.454   0.090  16.391  0.0080 -0.1138  0.0563
  568MPD2    C3 8477   4.375   0.163  16.290  0.4404 -0.4107  0.0641
  568MPD2    C4 8478   4.341   0.108  16.168 -0.0352  0.2239 -0.4985
  568MPD2    C5 8479   4.393   4.722  16.145 -0.2756  0.1478  0.4170
  568MPD2     H 8480   4.480   0.141  16.483 -0.9874  0.1764  0.1767
  568MPD2    H1 8481   4.264   0.156  16.109 -1.1199 -0.9565 -0.0513
  568MPD2    H2 8482   4.523   4.562  16.201 -0.5579  0.1186  1.7399
  568MPD2    H3 8483   4.358   4.661  16.062  4.6916  0.2488 -1.7455
  568MPD2     N 8484   4.334   0.290  16.331  0.4265 -0.4318  0.2833
  568MPD2    H5 8485   4.336   0.308  16.431 -0.0735  0.6826  0.0916
  568MPD2    N1 8486   4.607   4.635  16.427 -0.8927  0.1005 -0.5219
  568MPD2    H7 8487   4.650   4.556  16.379 -1.9276 -0.4613 -0.5191
  569TMC3    C1 8488   4.269   0.513  16.337  0.7368  0.1031  0.1478
  569TMC3    C2 8489   4.229   0.496  16.471 -0.3741  0.1587  0.1011
  569TMC3    C3 8490   4.239   0.612  16.544  1.0495  0.3974 -0.3280
  569TMC3    C4 8491   4.276   0.634  16.272 -0.1474  0.1673  0.6065
  569TMC3    C5 8492   4.289   0.737  16.359 -0.7890  0.5083  0.2746
  569TMC3    C6 8493   4.277   0.728  16.494  0.3011  0.0163  0.3510
  569TMC3     C 8494   4.296   0.397  16.258  0.3681  0.2887 -0.0055
  569TMC3     O 8495   4.313   0.401  16.142 -0.7892  0.5494 -0.1661
  569TMC3     H 8496   4.215   0.399  16.518 -0.7626  0.9111  1.5586
  569TMC3    H1 8497   4.314   0.639  16.170 -0.9199 -0.2357  0.3002
  569TMC3    H2 8498   4.304   0.813  16.556 -0.4478  0.8715 -0.5103
  569TMC3    C7 8499   4.371   0.844  16.301 -0.6492 -0.2713  0.5636
  569TMC3    C8 8500   4.279   0.581  16.681  0.4020  0.1989 -0.2369
  569TMC3    O1 8501   4.462   0.875  16.377 -0.2991  0.2791  0.1854
  569TMC3    O2 8502   4.215   0.489  16.731 -0.0454 -0.0485 -0.2183
  570TMC3    C1 8503   3.944   3.177  15.843 -0.3296 -0.5356  0.1531
  570TMC3    C2 8504   4.064   3.211  15.791  0.3851 -0.4711 -0.6511
  570TMC3    C3 8505   4.059   3.311  15.698 -0.7401 -0.0794  0.0355
  570TMC3    C4 8506   3.823   3.213  15.792  0.5297 -0.2321 -0.3283
  570TMC3    C5 8507   3.831   3.298  15.682  0.6237  0.3367  0.2596
  570TMC3    C6 8508   3.944   3.357  15.641 -0.0219 -0.5629 -0.5560
  570TMC3     C 8509   3.945   3.116  15.969  0.7861  0.7597 -0.0785
  570TMC3     O 8510   4.039   3.047  15.995 -0.1345 -0.5647  0.1344
  570TMC3     H 8511   4.156   3.182  15.842  0.1013 -1.4711 -0.7024
  570TMC3    H1 8512   3.732   3.162  15.820  0.2952 -0.1756 -0.9967
  570TMC3    H2 8513   3.948   3.446  15.579 -2.1114  0.2697  0.5171
  570TMC3    C7 8514   3.710   3.366  15.648 -0.3648  0.1220  0.1498
  570TMC3    C8 8515   4.175   3.397  15.684  0.9256 -0.5323 -0.0078
  570TMC3    O1 8516   3.612   3.297  15.635 -0.3263 -0.5397  0.2590
  570TMC3    O2 8517   4.162   3.513  15.652  0.1459  0.3507  0.5695
  571MPD2     C 8518   2.523   0.846   0.048 -0.0230  0.0505 -0.2790
  571MPD2    C1 8519   2.416   0.870   0.134  0.0183 -0.4384 -0.7536
  571MPD2    C2 8520   2.402   1.003   0.177  0.4300 -0.1005 -0.3322
  571MPD2    C3 8521   2.490   1.106   0.137 -0.0982  0.2474  0.3468
  571MPD2    C4 8522   2.590   1.077   0.045 -0.2678  0.0851  0.1412
  571MPD2    C5 8523   2.595   0.948  17.752 -0.1611  0.7364  0.1095
  571MPD2     H 8524   2.316   1.035   0.234 -1.1946 -1.8545 -1.7778
  571MPD2    H1 8525   2.666   1.147   0.011 -0.9153 -0.6541 -2.8117
  571MPD2    H2 8526   2.540   0.746   0.011 -1.9325  1.1535 -4.1751
  571MPD2    H3 8527   2.678   0.930  17.684 -0.7056  0.0160 -0.3624
  571MPD2     N 8528   2.487   1.237   0.183  0.0737 -0.3384  0.3106
  571MPD2    H5 8529   2.553   1.302   0.142  1.1297 -0.3122  2.0391
  571MPD2    N1 8530   2.325   0.765   0.166 -0.3370  0.3163  0.2407
  571MPD2    H7 8531   2.326   0.675   0.119 -0.7416  1.0171 -1.1328
  572TMC3    C1 8532   2.427   1.440   0.303  0.0015  0.0643 -0.0658
  572TMC3    C2 8533   2.444   1.491   0.423  0.2295 -0.0727 -0.0367
  572TMC3    C3 8534   2.524   1.600   0.436 -0.3543  0.3857  0.9878
  572TMC3    C4 8535   2.490   1.497   0.196 -0.6970 -0.0256  0.6771
  572TMC3    C5 8536   2.577   1.604   0.219 -0.3670 -0.2748  0.2872
  572TMC3    C6 8537   2.601   1.646   0.339 -0.2385 -0.1913  0.2234
  572TMC3     C 8538   2.406   1.292   0.284 -0.1105  0.4640 -0.7147
  572TMC3     O 8539   2.330   1.238   0.364  0.0846  0.0572 -0.9104
  572TMC3     H 8540   2.438   1.426   0.510 -0.5214  0.2783  0.1783
  572TMC3    H1 8541   2.492   1.457   0.095 -1.6602  0.1596  0.5847
  572TMC3    H2 8542   2.683   1.714   0.359 -2.0130  2.1771 -0.4436
  572TMC3    C7 8543   2.637   1.654   0.096 -0.2367 -0.1717 -0.2834
  572TMC3    C8 8544   2.540   1.673   0.564 -0.3813 -0.6227 -0.2392
  572TMC3    O1 8545   2.582   1.639  17.745 -0.5750 -0.6647  0.3374
  572TMC3    O2 8546   2.644   1.730   0.572 -0.3423  0.2367 -0.1623
  573MPD2     C 8547   3.887   1.469   1.198 -0.0467 -0.0282 -0.1572
  573MPD2    C1 8548   3.979   1.439   1.101  0.0499  0.5114  0.3438
  573MPD2    C2 8549   3.946   1.476   0.966 -0.5605  0.3460 -0.6675
  573MPD2    C3 8550   3.821   1.524   0.943 -0.4906  0.2152 -0.1064
  573MPD2    C4 8551   3.740   1.564   1.044  0.0204 -0.6076  0.3596
  573MPD2    C5 8552   3.765   1.521   1.172 -0.1577  0.4332  0.5255
  573MPD2     H 8553   4.023   1.456   0.892  1.1389  0.9251  0.9508
  573MPD2    H1 8554   3.641   1.608   1.035  0.3458  0.5011  2.2102
  573MPD2    H2 8555   3.901   1.445   1.303 -1.1901 -1.4928 -0.3441
  573MPD2    H3 8556   3.692   1.536   1.251  0.1702 -1.2545  1.1598
  573MPD2     N 8557   3.787   1.571   0.814  0.5827 -0.2930 -0.1644
  573MPD2    H5 8558   3.692   1.605   0.803  0.6392 -0.7229 -2.0022
  573MPD2    N1 8559   4.106   1.397   1.141 -0.1819 -0.2495 -0.2968
  573MPD2    H7 8560   4.120   1.379   1.240 -2.4989  2.3144  0.4851
  574TMC3    C1 8561   3.794   1.626   0.586  0.4203 -0.2518  0.3411
  574TMC3    C2 8562   3.731   1.744   0.611  0.0057 -1.1360 -0.8517
  574TMC3    C3 8563   3.699   1.815   0.502 -0.4936 -0.4361 -1.4314
  574TMC3    C4 8564   3.838   1.589   0.461  0.4023  0.1763  1.2875
  574TMC3    C5 8565   3.802   1.667   0.354  0.2661 -0.4205  0.0275
  574TMC3    C6 8566   3.721   1.778   0.375 -0.1976  0.1228 -0.1904
  574TMC3     C 8567   3.859   1.558   0.698 -0.6429  0.0649  0.6361
  574TMC3     O 8568   3.959   1.495   0.670 -0.3701  0.1654  0.1577
  574TMC3     H 8569   3.705   1.780   0.710  1.2650  1.6611 -1.5570
  574TMC3    H1 8570   3.892   1.495   0.457  3.3290  1.8982  0.6668
  574TMC3    H2 8571   3.684   1.837   0.293  1.3860  0.5991 -0.5682
  574TMC3    C7 8572   3.867   1.650   0.221  0.2158 -0.0012 -0.2563
  574TMC3    C8 8573   3.664   1.952   0.533 -0.7593 -0.1437 -0.2606
  574TMC3    O1 8574   3.835   1.729   0.134 -0.2987 -0.7198  0.1576
  574TMC3    O2 8575   3.724   1.998   0.628 -0.1225  0.4243  0.1611
  575TMC3    C1 8576   0.457   2.683  10.706  0.1750 -0.3625 -0.7441
  575TMC3    C2 8577   0.377   2.576  10.741  0.0013 -0.1614  0.3949
  575TMC3    C3 8578   0.279   2.540  10.652  0.6102 -0.4781  0.3639
  575TMC3    C4 8579   0.463   2.737  10.581 -0.2661 -0.1733 -0.0162
  575TMC3    C5 8580   0.370   2.689  10.496  0.4246  0.5415 -1.2326
  575TMC3    C6 8581   0.265   2.616  10.537 -0.2423  0.6258  0.5983
  575TMC3     C 8582   0.538   2.754  10.809 -0.0232  0.3047  0.5297
  575TMC3     O 8583   0.550   2.871  10.790 -0.6732  0.1190  0.2034
  575TMC3     H 8584   0.382   2.533  10.840  1.0254 -2.4901 -0.6710
  575TMC3    H1 8585   0.548   2.800  10.558  0.6880 -1.0602  1.0944
  575TMC3    H2 8586   0.190   2.585  10.465  1.4947 -1.1399 -0.4176
  575TMC3    C7 8587   0.378   2.737  10.353  0.2844  0.0461  0.5805
  575TMC3    C8 8588   0.165   2.465  10.706  0.8876  0.3605 -0.2367
  575TMC3    O1 8589   0.461   2.823  10.336  0.4241 -0.1089  0.2658
  575TMC3    O2 8590   0.180   2.423  10.821 -0.0435  0.3011  0.0768
  576MPD2     C 8591   0.359   3.780  12.663  0.1603  0.3574 -0.5077
  576MPD2    C1 8592   0.356   3.871  12.553 -0.4022 -0.0481  0.1789
  576MPD2    C2 8593   0.293   3.994  12.569  0.1358  0.2119  0.0147
  576MPD2    C3 8594   0.231   4.032  12.687 -0.9958  0.2685 -0.7427
  576MPD2    C4 8595   0.226   3.941  12.791 -0.0616  0.3360 -0.1955
  576MPD2    C5 8596   0.294   3.818  12.779 -0.2141 -0.3551 -0.0942
  576MPD2     H 8597   0.273   4.061  12.486  2.5966  0.9733  0.0113
  576MPD2    H1 8598   0.186   3.960  12.890  1.0405 -2.0233  0.7151
  576MPD2    H2 8599   0.395   3.679  12.649  0.0777 -0.0226  1.9291
  576MPD2    H3 8600   0.299   3.748  12.862 -1.2967  0.1799  0.4255
  576MPD2     N 8601   0.164   4.154  12.694  1.0046 -0.2508 -0.2803
  576MPD2    H5 8602   0.183   4.218  12.617 -2.5409 -0.9523 -1.7352
  576MPD2    N1 8603   0.411   3.840  12.424 -0.2773  0.4043 -0.1300
  576MPD2    H7 8604   0.383   3.906  12.353 -0.6544  0.1628 -0.2004
  577TMC3    C1 8605   0.535   3.736  12.254 -1.1578  0.6142 -0.0782
  577TMC3    C2 8606   0.666   3.715  12.205 -0.2499  0.4318 -0.6646
  577TMC3    C3 8607   0.694   3.692  12.070  0.5309 -0.1097 -0.5190
  577TMC3    C4 8608   0.430   3.729  12.166  0.2707  1.2236 -0.2144
  577TMC3    C5 8609   0.462   3.702  12.037 -0.2351  0.2655  0.3132
  577TMC3    C6 8610   0.587   3.688  11.985  0.0934 -0.2298 -0.2418
  577TMC3     C 8611   0.498   3.736  12.393 -0.1439  0.8135 -0.9396
  577TMC3     O 8612   0.568   3.674  12.475  0.0300 -0.3789 -0.1821
  577TMC3     H 8613   0.742   3.727  12.281 -1.2703 -1.0775  0.5917
  577TMC3    H1 8614   0.329   3.738  12.204  0.6841  0.6281  1.0152
  577TMC3    H2 8615   0.603   3.644  11.888  1.0427 -2.6729  1.0108
  577TMC3    C7 8616   0.356   3.714  11.936 -0.9232 -0.2612 -0.0565
  577TMC3    C8 8617   0.812   3.616  12.041 -0.3108  0.7033  0.0621
  577TMC3    O1 8618   0.376   3.653  11.834  0.1976  0.2494 -0.0659
  577TMC3    O2 8619   0.894   3.600  12.129 -0.1944 -0.4866 -0.9652
  578MPD2     C 8620   4.243   4.219   1.118  0.1246 -0.3176  0.0639
  578MPD2    C1 8621   4.261   4.126   1.021 -0.3597 -0.5553  0.4211
  578MPD2    C2 8622   4.375   4.051   1.019 -0.3252  0.4205 -0.1146
  578MPD2    C3 8623   4.479   4.078   1.106 -0.0349  0.1295 -0.4691
  578MPD2    C4 8624   4.466   4.185   1.191 -0.1474  0.7907 -0.6299
  578MPD2    C5 8625   4.348   4.255   1.202 -0.2657 -0.0069  0.1412
  578MPD2     H 8626   4.397   3.974   0.947 -0.4473 -0.1506  0.4595
  578MPD2    H1 8627   4.538   4.205   1.270  0.3231 -0.6332 -0.6981
  578MPD2    H2 8628   4.156   4.283   1.118  0.1290 -0.3127  1.1921
  578MPD2    H3 8629   4.334   4.337   1.273 -2.9343 -0.3001 -0.0544
  578MPD2     N 8630   4.605   4.009   1.087  0.1954 -0.0913  0.6214
  578MPD2    H5 8631   4.620   3.956   1.001 -2.2871  2.4428 -1.3774
  578MPD2    N1 8632   4.156   4.117   0.917 -0.1811  0.3719 -0.1029
  578MPD2    H7 8633   4.076   4.179   0.930 -0.8865 -0.7925  1.1247
  579TMC3    C1 8634   0.088   3.949   1.098 -0.4296 -0.5192 -0.2075
  579TMC3    C2 8635   0.216   3.981   1.128 -0.7370  0.4566  0.3764
  579TMC3    C3 8636   0.319   3.913   1.073  0.7263  0.5668 -0.6716
  579TMC3    C4 8637   0.066   3.831   1.038 -0.3894 -0.1121 -0.2933
  579TMC3    C5 8638   0.171   3.762   0.984 -0.6058  0.1157  0.3060
  579TMC3    C6 8639   0.300   3.804   0.999  0.6444  0.1801  0.5012
  579TMC3     C 8640   4.723   4.034   1.151  0.5040 -0.4419  0.2245
  579TMC3     O 8641   0.015   4.130   1.219 -0.1627  0.7056  0.0936
  579TMC3     H 8642   0.232   4.080   1.170 -1.7282  2.0130 -2.8496
  579TMC3    H1 8643   4.709   3.785   1.056 -0.1499 -0.7394 -0.5902
  579TMC3    H2 8644   0.375   3.733   0.967 -0.8501 -1.5049  0.7080
  579TMC3    C7 8645   0.147   3.641   0.914  1.0829 -0.2887  0.2074
  579TMC3    C8 8646   0.448   3.987   1.069  0.0166 -0.1228  0.5585
  579TMC3    O1 8647   0.247   3.577   0.898  0.1708  0.3573  0.6548
  579TMC3    O2 8648   0.457   4.067   1.162  1.1537 -0.4261  0.0754
  580TMC3    C1 8649   3.524   3.276  12.545  0.0126 -0.3001  0.4526
  580TMC3    C2 8650   3.641   3.338  12.509 -0.0326  0.4097  0.1346
  580TMC3    C3 8651   3.744   3.267  12.449 -0.3969  0.8691 -0.6843
  580TMC3    C4 8652   3.517   3.138  12.545 -0.6304  0.0441  0.1396
  580TMC3    C5 8653   3.619   3.068  12.487  0.0540 -0.6115 -0.0760
  580TMC3    C6 8654   3.735   3.126  12.440  0.3931  0.2882 -0.1028
  580TMC3     C 8655   3.402   3.355  12.541  0.3839  0.2346  0.6598
  580TMC3     O 8656   3.425   3.474  12.547  0.1613 -0.0659  0.2625
  580TMC3     H 8657   3.653   3.446  12.516 -1.3039  0.8532 -4.8490
  580TMC3    H1 8658   3.428   3.091  12.584  0.6495 -3.4561 -1.1507
  580TMC3    H2 8659   3.810   3.067  12.388  0.6618  1.4444 -1.0158
  580TMC3    C7 8660   3.593   2.929  12.459 -0.2844  0.0589  0.6735
  580TMC3    C8 8661   3.834   3.329  12.356 -0.8393 -0.4666 -0.0069
  580TMC3    O1 8662   3.528   2.873  12.544  0.1302 -0.2504 -0.7666
  580TMC3    O2 8663   3.898   3.430  12.389 -0.2915 -0.0363 -0.2578
  581MPD2     C 8664   1.179   2.360  14.875  0.1300  0.2740  0.3059
  581MPD2    C1 8665   1.079   2.330  14.960 -1.4319  0.3396 -0.3581
  581MPD2    C2 8666   0.974   2.415  14.975  0.0177  0.5014  0.0709
  581MPD2    C3 8667   0.962   2.524  14.886  0.7055 -0.2836  0.1390
  581MPD2    C4 8668   1.063   2.549  14.797 -0.1701 -0.0484 -0.2816
  581MPD2    C5 8669   1.173   2.467  14.791  0.4379  0.4466 -0.3023
  581MPD2     H 8670   0.900   2.407  15.054  2.0293  1.1488  2.0508
  581MPD2    H1 8671   1.061   2.636  14.732  0.3591  0.2277  0.0806
  581MPD2    H2 8672   1.269   2.299  14.872  1.2263  1.9171 -0.4952
  581MPD2    H3 8673   1.254   2.483  14.721  0.6807  1.7712  0.2697
  581MPD2     N 8674   0.841   2.605  14.887 -0.3923 -0.0514 -0.1787
  581MPD2    H5 8675   0.776   2.565  14.954  0.4865  0.5745  1.0730
  581MPD2    N1 8676   1.096   2.216  15.046  0.3521 -0.2535  0.3538
  581MPD2    H7 8677   1.182   2.163  15.034  0.4128 -0.1211  0.1953
  582TMC3    C1 8678   1.053   2.056  15.210 -0.6657  0.6319  0.7239
  582TMC3    C2 8679   1.144   2.113  15.292 -0.2710 -0.2148  0.0267
  582TMC3    C3 8680   1.145   2.075  15.422 -0.0216  0.0764  0.2455
  582TMC3    C4 8681   0.971   1.955  15.253  0.1511  0.1555  0.3027
  582TMC3    C5 8682   0.967   1.923  15.382 -0.0898  0.6393 -0.3591
  582TMC3    C6 8683   1.057   1.975  15.467 -0.3336 -0.2932  1.1130
  582TMC3     C 8684   0.994   2.156  15.119  0.4142  0.1203  0.5162
  582TMC3     O 8685   0.875   2.177  15.137 -0.2242 -0.4643 -0.1721
  582TMC3     H 8686   1.180   2.215  15.283  1.5760 -0.9048 -0.3844
  582TMC3    H1 8687   0.891   1.910  15.197 -0.3759 -0.1481  1.2990
  582TMC3    H2 8688   1.054   1.954  15.573 -0.7477 -1.8954  0.7893
  582TMC3    C7 8689   0.836   1.958  15.433 -0.0259  1.0175 -0.4003
  582TMC3    C8 8690   1.187   2.167  15.516  0.1884 -0.3221 -0.0001
  582TMC3    O1 8691   0.741   1.886  15.401 -0.1684 -0.2953  0.5393
  582TMC3    O2 8692   1.101   2.175  15.605  0.0270 -0.2086  0.4825
  583MPD2     C 8693   1.183   3.990  16.749 -0.0202 -0.0223  0.2839
  583MPD2    C1 8694   1.156   4.112  16.678 -0.0310  0.1168 -0.4148
  583MPD2    C2 8695   1.092   4.212  16.744 -0.1631 -0.0898  0.5653
  583MPD2    C3 8696   1.065   4.203  16.877  0.3853 -0.1437 -0.3266
  583MPD2    C4 8697   1.094   4.084  16.947 -0.0936 -0.2948 -0.7857
  583MPD2    C5 8698   1.151   3.977  16.883 -0.1214 -0.3734  0.6982
  583MPD2     H 8699   1.086   4.302  16.684  3.1811 -0.2027  0.0280
  583MPD2    H1 8700   1.077   4.078  17.054 -0.7911  1.3383 -0.8101
  583MPD2    H2 8701   1.231   3.909  16.696 -4.0746 -1.5604 -1.0629
  583MPD2    H3 8702   1.172   3.889  16.943 -1.7240 -2.2286 -1.4257
  583MPD2     N 8703   1.003   4.323  16.928  0.6054  0.5074 -0.1810
  583MPD2    H5 8704   0.966   4.392  16.863 -0.5910  0.3949  0.3641
  583MPD2    N1 8705   1.176   4.129  16.538  0.8435  0.8402 -0.4293
  583MPD2    H7 8706   1.159   4.226  16.511  0.4194  1.6135  2.5853
  584TMC3    C1 8707   0.927   4.476  17.096  0.2049  0.1119  0.5631
  584TMC3    C2 8708   0.925   4.579  17.006 -0.4315 -0.3226 -0.7094
  584TMC3    C3 8709   0.898   4.703  17.063 -0.6648  0.3935 -0.4862
  584TMC3    C4 8710   0.910   4.495  17.225 -0.4242  0.1115 -0.1300
  584TMC3    C5 8711   0.881   4.621  17.276  0.5729  0.7944  0.1699
  584TMC3    C6 8712   0.886   4.729  17.194 -0.2881  0.7712  0.2285
  584TMC3     C 8713   0.987   4.349  17.062  0.1273  0.1651 -0.1521
  584TMC3     O 8714   1.005   4.273  17.157  0.1707  0.1492 -0.0556
  584TMC3     H 8715   0.941   4.565  16.900  2.0417 -1.0590 -0.2550
  584TMC3    H1 8716   0.937   4.415  17.294 -0.6137 -0.8880 -1.2070
  584TMC3    H2 8717   0.856   0.090  17.222 -1.7668  0.1908  0.7388
  584TMC3    C7 8718   0.884   4.624  17.425  0.1119 -0.2307  0.5088
  584TMC3    C8 8719   0.944   0.069  16.981 -0.4287 -0.2809 -0.2266
  584TMC3    O1 8720   0.860   4.522  17.491 -0.2573 -0.2145  0.0691
  584TMC3    O2 8721   0.926   0.070  16.860 -0.4636  0.2872  0.7942
  585MPD2     C 8722   0.914   3.035   0.334  0.4956  0.1956  0.2817
  585MPD2    C1 8723   0.925   2.898   0.318 -0.5773 -0.1200 -1.0295
  585MPD2    C2 8724   0.844   2.836   0.220 -0.3021 -0.0967 -0.4179
  585MPD2    C3 8725   0.754   2.909   0.154  0.0092  0.6489 -0.3062
  585MPD2    C4 8726   0.742   3.046   0.175  0.2713  0.4060 -0.3873
  585MPD2    C5 8727   0.829   3.108   0.261 -0.3411 -0.6765 -0.3215
  585MPD2     H 8728   0.847   2.728   0.215 -2.1848 -0.2613  2.0012
  585MPD2    H1 8729   0.667   3.106   0.124 -1.1570  0.6845  2.0263
  585MPD2    H2 8730   0.982   3.077   0.408  1.0259 -0.0443 -0.0685
  585MPD2    H3 8731   0.824   3.216   0.274  1.9505 -0.5896 -0.2345
  585MPD2     N 8732   0.674   2.850   0.056  0.1934 -0.2528 -0.5277
  585MPD2    H5 8733   0.615   2.912   0.002 -1.0196 -0.0814  0.9827
  585MPD2    N1 8734   0.995   2.827   0.413  0.4220 -0.0412  0.4775
  585MPD2    H7 8735   0.974   2.858   0.507  1.0463  0.4409  0.4595
  586TMC3    C1 8736   0.573   2.695  17.666 -0.5183  0.3135  0.7658
  586TMC3    C2 8737   0.617   2.605  17.575 -0.1742  0.4731  0.4579
  586TMC3    C3 8738   0.549   2.598  17.459  0.1341  0.5438  0.1871
  586TMC3    C4 8739   0.450   2.764  17.654 -0.0686 -0.5320  0.0239
  586TMC3    C5 8740   0.388   2.758  17.535  0.2461  0.1064  0.6574
  586TMC3    C6 8741   0.444   2.684  17.431 -0.0025  0.3072  0.0153
  586TMC3     C 8742   0.661   2.717   0.026  0.2134  0.0191  0.7713
  586TMC3     O 8743   0.738   2.627   0.060  0.0463  0.0941  0.0033
  586TMC3     H 8744   0.711   2.550  17.570 -0.2738  0.4868 -1.5484
  586TMC3    H1 8745   0.413   2.829  17.732  0.3772  0.3443 -0.5023
  586TMC3    H2 8746   0.379   2.664  17.347  0.4989 -1.4390  0.0353
  586TMC3    C7 8747   0.268   2.839  17.504 -0.0882 -0.5109 -0.2585
  586TMC3    C8 8748   0.613   2.530  17.346  0.4937  0.1119  0.1181
  586TMC3    O1 8749   0.187   2.877  17.588 -0.4723  0.4041 -0.0189
  586TMC3    O2 8750   0.636   2.412  17.364  0.6355 -0.2380  0.1613
  587TMC3    C1 8751   2.428   1.763  16.670 -0.1137  0.0071  0.4756
  587TMC3    C2 8752   2.510   1.864  16.642 -0.6682 -0.4443 -0.8203
  587TMC3    C3 8753   2.646   1.841  16.646 -0.0060 -0.2901  0.5578
  587TMC3    C4 8754   2.468   1.640  16.714 -0.5450  0.4525  0.3589
  587TMC3    C5 8755   2.605   1.623  16.729 -1.0445 -0.1114 -0.1626
  587TMC3    C6 8756   2.690   1.723  16.693 -0.8591 -0.4247  0.8061
  587TMC3     C 8757   2.288   1.780  16.625 -0.1356  0.4896  0.3082
  587TMC3     O 8758   2.247   1.899  16.612  0.1499  0.1048  0.9868
  587TMC3     H 8759   2.476   1.960  16.605 -2.2688  0.8740  4.0472
  587TMC3    H1 8760   2.399   1.562  16.745 -1.4679  0.3688 -1.8719
  587TMC3    H2 8761   2.796   1.699  16.691 -0.6473  0.4362  2.0621
  587TMC3    C7 8762   2.654   1.502  16.803 -0.0135 -0.8335  0.7667
  587TMC3    C8 8763   2.729   1.951  16.688 -0.3043 -0.0676  0.5762
  587TMC3    O1 8764   2.572   1.423  16.847 -0.7141  0.6336  0.0404
  587TMC3    O2 8765   2.823   1.926  16.765  0.0104 -0.5091 -0.1828
  588TMC3    C1 8766   0.149   0.497   9.911  0.5850 -0.2968  0.9541
  588TMC3    C2 8767   0.117   0.361   9.906  0.1634  1.0257  0.6146
  588TMC3    C3 8768   0.197   0.270   9.981 -0.5128  0.0923  0.3440
  588TMC3    C4 8769   0.257   0.543   9.985 -0.7442 -0.4756 -0.0030
  588TMC3    C5 8770   0.323   0.450  10.064 -0.5636 -0.8782  0.4728
  588TMC3    C6 8771   0.304   0.316  10.055  0.2208 -0.1945  0.0522
  588TMC3     C 8772   0.042   0.589   9.873  0.1023  0.1719  0.1999
  588TMC3     O 8773   4.703   0.552   9.790 -0.4015  0.7739  0.3325
  588TMC3     H 8774   0.035   0.328   9.844  0.6992 -0.6509  0.8196
  588TMC3    H1 8775   0.262   0.650   9.999  3.8933 -0.7377  0.3853
  588TMC3    H2 8776   0.362   0.249  10.118 -0.0466 -0.8522 -0.4030
  588TMC3    C7 8777   0.402   0.505  10.174 -0.5668  0.0710  0.5530
  588TMC3    C8 8778   0.180   0.131   9.939  0.4343  0.1871 -0.1731
  588TMC3    O1 8779   0.501   0.447  10.222  0.5408  0.5134  0.0367
  588TMC3    O2 8780   0.084   0.106   9.866  0.8580 -0.1599  0.1344
  589TMC3    C1 8781   0.212   2.329   0.904  0.6238  0.2119  0.2209
  589TMC3    C2 8782   0.327   2.388   0.947  0.6811 -1.1632  1.4646
  589TMC3    C3 8783   0.444   2.319   0.958  0.4089 -0.1729 -0.2390
  589TMC3    C4 8784   0.222   2.204   0.849 -0.0548  0.5646  0.1857
  589TMC3    C5 8785   0.342   2.142   0.833  0.9373  0.1325  0.1508
  589TMC3    C6 8786   0.449   2.202   0.884 -0.1926 -0.0343  0.4119
  589TMC3     C 8787   0.104   2.417   0.852  0.0780 -0.1948  0.6599
  589TMC3     O 8788   0.038   2.375   0.757 -0.4252 -0.0502 -0.3942
  589TMC3     H 8789   0.333   2.493   0.974 -1.7192 -0.6119 -0.1757
  589TMC3    H1 8790   0.132   2.160   0.807  1.2195 -0.1538 -1.8221
  589TMC3    H2 8791   0.532   2.134   0.901 -1.1668 -1.4096 -0.2534
  589TMC3    C7 8792   0.342   1.994   0.810 -0.4381 -0.6930 -0.2272
  589TMC3    C8 8793   0.548   2.362   1.045 -0.3475 -0.2489 -0.1108
  589TMC3    O1 8794   0.232   1.941   0.808  0.0968 -0.2815 -0.0542
  589TMC3    O2 8795   0.522   2.457   1.114 -0.0495 -0.2211 -0.2367
  590MPD2     C 8796   3.537   4.585  16.574 -0.3489  0.1686  0.4186
  590MPD2    C1 8797   3.538   4.609  16.438  0.5710  0.1849  0.3402
  590MPD2    C2 8798   3.617   4.714  16.382 -0.0967  0.1498 -0.4522
  590MPD2    C3 8799   3.702   0.047  16.464 -0.4028 -0.2396  0.3531
  590MPD2    C4 8800   3.695   0.032  16.603 -0.2567  0.6911 -0.0163
  590MPD2    C5 8801   3.617   4.669  16.652  0.4872 -0.6503  0.1426
  590MPD2     H 8802   3.615   4.736  16.276 -0.2099 -0.4139 -0.5696
  590MPD2    H1 8803   3.747   0.095  16.674 -0.7509 -1.2687  2.0772
  590MPD2    H2 8804   3.486   4.496  16.609  3.0757 -1.9827 -0.0406
  590MPD2    H3 8805   3.615   4.652  16.759 -0.7139  0.7853  0.3610
  590MPD2     N 8806   3.767   0.152  16.401  0.3554 -0.0095 -0.8385
  590MPD2    H5 8807   3.725   0.175  16.312  1.2925 -0.1969 -1.3224
  590MPD2    N1 8808   3.464   4.527  16.357  0.0327  0.2738 -0.5608
  590MPD2    H7 8809   3.400   4.467  16.408 -2.9498  1.2405 -3.1936
  591TMC3    C1 8810   3.889   0.338  16.365 -0.2823 -0.3543 -0.3571
  591TMC3    C2 8811   3.879   0.318  16.229 -0.8242  0.2082 -0.0544
  591TMC3    C3 8812   3.899   0.417  16.140  0.4019  0.0471  0.4514
  591TMC3    C4 8813   3.924   0.465  16.410  0.7153  0.4850 -0.2525
  591TMC3    C5 8814   3.930   0.567  16.323  0.4307  0.1461 -0.3349
  591TMC3    C6 8815   3.935   0.542  16.189 -0.2020 -0.5051  0.2965
  591TMC3     C 8816   3.855   0.239  16.460  0.1071  0.7100 -0.2204
  591TMC3     O 8817   3.892   0.242  16.577 -0.3681  0.5248 -0.1393
  591TMC3     H 8818   3.877   0.218  16.189 -1.2259  0.8231 -1.5672
  591TMC3    H1 8819   3.908   0.486  16.515  1.2022  0.6546 -0.2102
  591TMC3    H2 8820   3.961   0.623  16.121 -1.1898 -0.3128  0.1491
  591TMC3    C7 8821   3.934   0.699  16.386 -0.0308  0.6510  0.1076
  591TMC3    C8 8822   3.910   0.382  16.001  0.0835  0.1691  0.2097
  591TMC3    O1 8823   3.965   0.701  16.504  0.1805 -0.0917 -0.4446
  591TMC3    O2 8824   3.935   0.263  15.973 -0.0955 -0.2498 -0.0414
  592MPD2     C 8825   3.864   2.364  11.684  0.0604 -0.0125 -0.1453
  592MPD2    C1 8826   3.892   2.396  11.813  0.9217  0.0010 -0.1862
  592MPD2    C2 8827   3.869   2.296  11.909  0.2075 -0.1099 -0.6367
  592MPD2    C3 8828   3.811   2.180  11.876 -0.4745  0.0303 -0.0886
  592MPD2    C4 8829   3.781   2.155  11.745 -0.4508  0.3881  0.6977
  592MPD2    C5 8830   3.809   2.248  11.651  1.6206 -0.1562  0.4145
  592MPD2     H 8831   3.890   2.314  12.014  1.7710 -0.3823 -0.9083
  592MPD2    H1 8832   3.747   2.058  11.710 -0.0948  0.4735  0.1260
  592MPD2    H2 8833   3.881   2.438  11.607 -1.6850 -0.1818 -0.6776
  592MPD2    H3 8834   3.800   2.234  11.544  0.9938 -0.0047  0.4454
  592MPD2     N 8835   3.774   2.090  11.985 -0.3545  0.3726  0.0211
  592MPD2    H5 8836   3.770   2.130  12.078  0.0642  0.9434 -0.2093
  592MPD2    N1 8837   3.944   2.527  11.847 -0.6104  0.6693 -0.5016
  592MPD2    H7 8838   3.964   2.588  11.769  0.5258  0.2706 -0.5203
  593TMC3    C1 8839   4.023   2.709  11.974 -0.1631 -0.3024 -0.4522
  593TMC3    C2 8840   4.020   2.774  12.094 -0.1783 -0.5919 -0.2626
  593TMC3    C3 8841   4.070   2.901  12.100 -0.4304  0.1293  0.5653
  593TMC3    C4 8842   4.073   2.767  11.857 -0.4759  0.3880  0.1816
  593TMC3    C5 8843   4.112   2.904  11.870  0.1165  0.1832  0.2146
  593TMC3    C6 8844   4.114   2.974  11.993  0.1053 -0.6059 -0.1780
  593TMC3     C 8845   3.982   2.563  11.970 -0.4579 -0.1431 -0.0772
  593TMC3     O 8846   3.969   2.509  12.077 -1.0417 -0.4661  0.1027
  593TMC3     H 8847   3.991   2.726  12.186  1.3257 -0.5786  0.2111
  593TMC3    H1 8848   4.101   2.710  11.769 -0.5032  2.9484 -1.4838
  593TMC3    H2 8849   4.165   3.069  11.992  1.1868 -1.1766  0.1492
  593TMC3    C7 8850   4.192   2.965  11.764 -0.0912  0.1560  0.0414
  593TMC3    C8 8851   4.082   2.960  12.230  0.4494  1.0134 -0.0378
  593TMC3    O1 8852   4.287   3.036  11.793  0.0574 -0.2221 -0.0207
  593TMC3    O2 8853   3.999   2.921  12.314 -0.3347  0.6104 -0.0113
  594MPD2     C 8854   3.046   0.791  14.278 -0.1307  0.1582 -0.1412
  594MPD2    C1 8855   2.984   0.856  14.379  0.0446  0.2538 -0.0516
  594MPD2    C2 8856   3.028   0.981  14.412  0.0811  0.1623  0.7036
  594MPD2    C3 8857   3.126   1.043  14.335 -0.3375 -0.3109 -0.8215
  594MPD2    C4 8858   3.173   0.980  14.223 -0.1040  0.2818 -0.4516
  594MPD2    C5 8859   3.133   0.853  14.196  0.2408 -0.1913 -0.0489
  594MPD2     H 8860   2.985   1.028  14.500 -2.5629 -0.4814 -0.2313
  594MPD2    H1 8861   3.237   1.031  14.152  1.0169 -1.0441 -0.3823
  594MPD2    H2 8862   3.006   0.697  14.242 -1.2036  0.2376  0.8596
  594MPD2    H3 8863   3.173   0.807  14.107 -1.5848 -2.2105  0.1770
  594MPD2     N 8864   3.165   1.173  14.367  0.7890 -0.3472  0.0019
  594MPD2    H5 8865   3.111   1.210  14.444  1.8550  0.3940  0.3882
  594MPD2    N1 8866   2.878   0.780  14.445  0.1237 -0.3968 -0.3923
  594MPD2    H7 8867   2.855   0.696  14.394 -3.0540  0.3676 -0.2400
  595TMC3    C1 8868   3.469   1.479  14.457 -0.0106  0.3378 -0.1320
  595TMC3    C2 8869   3.416   1.416  14.352 -0.0004  0.0958 -0.1806
  595TMC3    C3 8870   3.282   1.384  14.351 -0.1841 -0.7330  0.0731
  595TMC3    C4 8871   3.392   1.527  14.562 -0.2696 -0.7006  0.5203
  595TMC3    C5 8872   3.258   1.497  14.561 -0.0620 -0.3539  0.3695
  595TMC3    C6 8873   3.205   1.423  14.459 -0.6991  0.0390 -0.0137
  595TMC3     C 8874   3.611   1.515  14.460  0.0613  0.3040 -0.0520
  595TMC3     O 8875   3.644   1.605  14.538  0.5803 -0.5430  0.4049
  595TMC3     H 8876   3.477   1.387  14.266 -0.4656 -1.3053 -0.0407
  595TMC3    H1 8877   3.437   1.578  14.646  0.6101 -0.5527 -0.0522
  595TMC3    H2 8878   3.098   1.411  14.455 -0.2172 -2.7040 -4.2950
  595TMC3    C7 8879   3.173   1.579  14.639 -0.0677 -0.5795 -0.7813
  595TMC3    C8 8880   3.252   1.254  14.295  0.0000  0.3292 -0.0683
  595TMC3    O1 8881   3.051   1.571  14.617  1.0559 -0.0369 -0.7667
  595TMC3    O2 8882   3.328   1.220  14.206 -0.7668  0.1921 -0.0613
  596MPD2     C 8883   1.985   3.740  16.551 -0.0404 -0.0164 -0.0070
  596MPD2    C1 8884   1.993   3.864  16.489 -0.0927  0.6388 -0.1619
  596MPD2    C2 8885   2.001   3.877  16.357  0.2525 -0.8470 -0.1708
  596MPD2    C3 8886   2.019   3.769  16.277  0.0040  0.2069 -0.0321
  596MPD2    C4 8887   2.023   3.645  16.336 -0.5301  0.5956  0.1120
  596MPD2    C5 8888   2.005   3.635  16.473  0.4459  0.3867 -0.4783
  596MPD2     H 8889   1.998   3.977  16.317  0.2111 -1.5214 -1.8471
  596MPD2    H1 8890   2.040   3.554  16.279 -2.3686 -0.6939  1.6146
  596MPD2    H2 8891   1.980   3.720  16.658  0.7748  1.8112  0.3707
  596MPD2    H3 8892   2.005   3.540  16.524 -0.6479  0.6473  0.0021
  596MPD2     N 8893   2.031   3.775  16.138 -0.0264 -0.4320  0.0229
  596MPD2    H5 8894   2.030   3.687  16.087  0.6325 -0.1132 -0.5411
  596MPD2    N1 8895   1.988   3.991  16.561 -0.0723  0.0859 -0.1277
  596MPD2    H7 8896   1.989   4.078  16.508  0.0589  0.1652  0.0062
  597TMC3    C1 8897   1.984   4.146  16.727  0.4060 -0.0907 -0.3726
  597TMC3    C2 8898   2.050   4.233  16.644  0.0338  0.0494  0.5593
  597TMC3    C3 8899   2.037   4.373  16.659  0.0571 -0.2939  0.2991
  597TMC3    C4 8900   1.913   4.189  16.834 -0.5339 -0.2672  0.0070
  597TMC3    C5 8901   1.897   4.324  16.842  0.0533 -0.0437  0.0097
  597TMC3    C6 8902   1.957   4.425  16.764 -0.1584  0.4096 -0.3293
  597TMC3     C 8903   1.987   4.009  16.694  0.3516  0.2977 -0.3437
  597TMC3     O 8904   1.988   3.925  16.780 -0.3407  0.3604  0.2458
  597TMC3     H 8905   2.095   4.188  16.556  1.1175  2.3027 -0.0339
  597TMC3    H1 8906   1.850   4.112  16.880  1.7423 -1.6401  0.8479
  597TMC3    H2 8907   1.972   4.526  16.799 -0.4822  0.3149  0.0907
  597TMC3    C7 8908   1.786   4.368  16.921 -0.8795  0.0002  0.0755
  597TMC3    C8 8909   2.103   4.471  16.572  0.5808 -0.6949  0.2065
  597TMC3    O1 8910   1.747   4.285  16.996  0.4408  0.0597  0.1557
  597TMC3    O2 8911   2.079   4.590  16.595 -0.0838 -0.1756 -0.2477
  598TMC3    C1 8912   4.715   0.868  15.396  0.0688  0.6306 -0.6672
  598TMC3    C2 8913   4.618   0.825  15.313  0.5833 -0.6493 -0.8363
  598TMC3    C3 8914   4.610   0.865  15.180  0.4623 -0.0135  0.1398
  598TMC3    C4 8915   0.081   0.939  15.343  0.4005  0.8432  0.0125
  598TMC3    C5 8916   0.076   0.977  15.211 -0.3146 -0.5164 -0.1823
  598TMC3    C6 8917   4.712   0.937  15.129  0.7787 -0.4555 -0.3053
  598TMC3     C 8918   4.720   0.836  15.539 -0.3342  0.3437 -0.2634
  598TMC3     O 8919   0.080   0.875  15.601  0.2768  0.2829 -0.1697
  598TMC3     H 8920   4.529   0.787  15.361  0.1256  0.4607 -0.8074
  598TMC3    H1 8921   0.160   0.973  15.410  0.0409 -0.2438  0.9885
  598TMC3    H2 8922   4.709   0.985  15.032 -0.3982  0.9024  0.3938
  598TMC3    C7 8923   0.179   1.062  15.166 -0.1147  0.0366  0.2756
  598TMC3    C8 8924   4.477   0.883  15.122 -0.5378  0.4239  0.1422
  598TMC3    O1 8925   0.261   1.110  15.244 -0.2720 -0.1289 -0.4218
  598TMC3    O2 8926   4.477   0.953  15.020  0.3361  0.6373 -0.1297
  599MPD2     C 8927   0.355   3.313  15.978 -0.1527 -0.4227 -0.8816
  599MPD2    C1 8928   0.285   3.193  15.957  0.0160  0.5081  0.1535
  599MPD2    C2 8929   0.145   3.195  15.971 -0.4009  0.2076 -0.4018
  599MPD2    C3 8930   0.076   3.315  15.981 -0.7169 -0.0345  0.8129
  599MPD2    C4 8931   0.143   3.431  15.985 -0.0902  0.0072  0.4005
  599MPD2    C5 8932   0.279   3.427  15.989 -0.1051 -0.2270  0.9893
  599MPD2     H 8933   0.098   3.097  15.980 -1.1862  0.2747 -3.8358
  599MPD2    H1 8934   0.097   3.528  15.977 -2.2941 -0.8405  2.7316
  599MPD2    H2 8935   0.463   3.321  15.979 -0.1375 -0.7808 -0.2321
  599MPD2    H3 8936   0.328   3.523  15.997  2.2897 -1.6051  2.8200
  599MPD2     N 8937   4.670   3.318  15.991  0.4663 -0.4605 -0.2090
  599MPD2    H5 8938   4.624   3.409  15.994 -4.1382 -2.8164  0.6751
  599MPD2    N1 8939   0.360   3.078  15.938 -0.2265  0.8584 -0.2941
  599MPD2    H7 8940   0.458   3.104  15.932 -0.3909  1.3593 -0.8218
  600TMC3    C1 8941   4.452   3.240  16.046 -0.3045 -0.1449 -0.0466
  600TMC3    C2 8942   4.382   3.142  16.102  0.0013  0.1572  0.5010
  600TMC3    C3 8943   4.269   3.189  16.171  0.1088 -0.9039 -0.7828
  600TMC3    C4 8944   4.407   3.365  16.023  0.3845  0.1184 -0.4325
  600TMC3    C5 8945   4.287   3.407  16.079  0.5000 -0.1521 -0.5879
  600TMC3    C6 8946   4.220   3.319  16.164 -0.5367  0.2381 -0.8007
  600TMC3     C 8947   4.591   3.210  16.018  0.4978 -0.3787 -0.2615
  600TMC3     O 8948   4.624   3.093  16.016 -0.2419  0.8454 -0.5375
  600TMC3     H 8949   4.414   3.039  16.117  1.2954  0.4649 -0.1458
  600TMC3    H1 8950   4.469   3.433  15.966 -1.2499 -0.0209 -2.3681
  600TMC3    H2 8951   4.138   3.338  16.232 -0.0641  0.6717 -0.3524
  600TMC3    C7 8952   4.239   3.539  16.049 -0.4070  0.3567 -0.4139
  600TMC3    C8 8953   4.219   3.113  16.289 -0.2060 -0.1399 -0.1541
  600TMC3    O1 8954   4.115   3.551  16.050  0.1175 -0.1707 -0.6764
  600TMC3    O2 8955   4.212   3.170  16.395 -0.1673  0.5482  0.1885
  601MPD2     C 8956   2.949   1.987  17.624  0.3240 -0.0014  0.0202
  601MPD2    C1 8957   2.826   1.937  17.576 -0.3294 -0.3794  0.3833
  601MPD2    C2 8958   2.757   1.851  17.652 -0.0201  0.3118 -0.4999
  601MPD2    C3 8959   2.806   1.815   0.021  0.1168  0.5979  0.5331
  601MPD2    C4 8960   2.924   1.859   0.057 -0.5644 -0.1968 -0.1471
  601MPD2    C5 8961   2.998   1.955  17.745 -1.3397  0.0832  0.3198
  601MPD2     H 8962   2.662   1.813  17.617  0.4339  0.2658 -1.6802
  601MPD2    H1 8963   2.958   1.820   0.153 -0.8412  0.6157  0.2831
  601MPD2    H2 8964   3.008   2.053  17.561 -0.4804  0.2051 -0.5070
  601MPD2    H3 8965   3.095   1.987   0.026 -2.0113  2.3294  0.1137
  601MPD2     N 8966   2.738   1.736   0.123 -0.1861  0.7106  0.7520
  601MPD2    H5 8967   2.790   1.717   0.208 -3.4633  1.4388  2.9402
  601MPD2    N1 8968   2.777   1.968  17.447  0.6180 -0.5133  0.3283
  601MPD2    H7 8969   2.698   1.913  17.416  0.6168 -0.4799  0.2736
  602TMC3    C1 8970   2.743   2.068  17.237 -0.3318 -0.3309 -0.0496
  602TMC3    C2 8971   2.685   2.182  17.197 -0.1688 -0.4112 -0.2396
  602TMC3    C3 8972   2.615   2.189  17.082  0.1120  0.3529 -0.3458
  602TMC3    C4 8973   2.721   1.949  17.170 -1.0370 -0.7271  0.4707
  602TMC3    C5 8974   2.637   1.960  17.059  0.5500  0.2984 -0.3992
  602TMC3    C6 8975   2.593   2.079  17.006 -0.0772  0.7369 -0.0790
  602TMC3     C 8976   2.815   2.071  17.365  0.0860 -0.1649  0.6529
  602TMC3     O 8977   2.871   2.173  17.403 -0.0900  0.1181 -0.3367
  602TMC3     H 8978   2.712   2.272  17.251  0.6302 -0.1479 -1.0824
  602TMC3    H1 8979   2.755   1.852  17.204  0.4676 -0.3744 -0.0556
  602TMC3    H2 8980   2.549   2.088  16.907 -1.0995 -2.6752  0.0536
  602TMC3    C7 8981   2.554   1.836  17.037 -0.5137  0.1359 -0.0461
  602TMC3    C8 8982   2.523   2.307  17.072  0.4682  0.7224  0.6957
  602TMC3    O1 8983   2.593   1.735  17.089  0.4469 -0.0639  0.1355
  602TMC3    O2 8984   2.563   2.399  17.145 -0.4965 -0.3448  0.4544
  603TMC3    C1 8985   4.374   2.687  10.868 -0.2887 -0.5157 -0.4024
  603TMC3    C2 8986   4.451   2.618  10.959  0.2916  1.2387  0.2923
  603TMC3    C3 8987   4.589   2.633  10.956  0.3326  0.3242  0.1931
  603TMC3    C4 8988   4.425   2.767  10.769  0.4555  0.4559 -0.3992
  603TMC3    C5 8989   4.561   2.757  10.761  0.0114 -0.0670  0.3240
  603TMC3    C6 8990   4.644   2.717  10.859  0.7510 -0.2739  0.1878
  603TMC3     C 8991   4.231   2.715  10.892 -0.4630  0.0820 -0.6610
  603TMC3     O 8992   4.170   2.794  10.820  0.4506 -0.4009 -0.4200
  603TMC3     H 8993   4.408   2.568  11.045  0.7137  0.9921  0.3596
  603TMC3    H1 8994   4.361   2.829  10.707 -0.3821 -0.0093  0.0030
  603TMC3    H2 8995   0.003   2.688  10.825  0.8298 -1.2326  1.2078
  603TMC3    C7 8996   4.641   2.784  10.642 -0.4506  0.2436 -0.0754
  603TMC3    C8 8997   4.671   2.582  11.068  0.5073 -0.1317 -0.7314
  603TMC3    O1 8998   0.006   2.844  10.654 -0.2427 -0.0395 -0.5121
  603TMC3    O2 8999   4.625   2.481  11.117 -0.1371 -0.1685  0.6842
  604MPD2     C 9000   0.800   0.078  15.771 -0.1535  0.1376 -0.9311
  604MPD2    C1 9001   0.827   0.203  15.818  0.5660  0.1284 -0.3593
  604MPD2    C2 9002   0.938   0.268  15.770  0.6894 -0.6278 -0.4369
  604MPD2    C3 9003   1.021   0.212  15.672  0.5763 -0.0174 -0.3940
  604MPD2    C4 9004   0.985   0.087  15.618  0.4220 -0.4817  0.0705
  604MPD2    C5 9005   0.872   0.024  15.667  0.3258  0.8874 -1.0402
  604MPD2     H 9006   0.967   0.364  15.812 -1.5518  0.7413 -2.0291
  604MPD2    H1 9007   1.046   0.023  15.556  0.1668 -0.3358 -0.3321
  604MPD2    H2 9008   0.717   0.025  15.815  1.7235  0.2663  2.7858
  604MPD2    H3 9009   0.831   4.674  15.624  0.1638  1.7389 -2.6778
  604MPD2     N 9010   1.136   0.277  15.627 -0.3201 -0.0870 -0.3221
  604MPD2    H5 9011   1.148   0.371  15.663 -0.3248 -0.2854  0.1909
  604MPD2    N1 9012   0.734   0.262  15.915 -0.1333 -0.0465  0.6741
  604MPD2    H7 9013   0.665   0.204  15.962 -1.5483  1.8006  0.8851
  605TMC3    C1 9014   0.661   0.410  16.076  0.8508 -0.7258 -0.3479
  605TMC3    C2 9015   0.708   0.341  16.187  0.1363 -0.2507 -0.0957
  605TMC3    C3 9016   0.698   0.400  16.307  0.0920 -0.8874  1.1433
  605TMC3    C4 9017   0.596   0.526  16.083 -0.1154 -0.1409  0.0332
  605TMC3    C5 9018   0.570   0.571  16.214  0.1630  0.5549 -0.3462
  605TMC3    C6 9019   0.616   0.507  16.326 -0.6952  0.2383  0.8202
  605TMC3     C 9020   0.731   0.392  15.952 -1.1170 -0.5090 -0.3960
  605TMC3     O 9021   0.786   0.490  15.908  0.1758  0.3390  0.2507
  605TMC3     H 9022   0.780   0.262  16.168 -3.3664 -2.9503 -2.2134
  605TMC3    H1 9023   0.557   0.566  15.990  0.0640  0.5673  0.2659
  605TMC3    H2 9024   0.581   0.541  16.423  2.2167 -1.2904  2.4202
  605TMC3    C7 9025   0.498   0.695  16.224 -0.6077 -0.1353  0.0888
  605TMC3    C8 9026   0.811   0.382  16.394 -0.3538 -0.4984  0.6303
  605TMC3    O1 9027   0.485   0.754  16.330 -0.2318  0.2228 -0.0527
  605TMC3    O2 9028   0.886   0.289  16.357  0.0393 -0.1754 -0.5977
  606TMC3    C1 9029   2.231   4.136  17.478  0.5640 -0.4628 -0.7040
  606TMC3    C2 9030   2.340   4.098  17.556  0.4121 -0.2271  0.1360
  606TMC3    C3 9031   2.357   3.965  17.570  0.4329  0.5337  0.3826
  606TMC3    C4 9032   2.140   4.047  17.436  0.1092  0.4784 -0.0986
  606TMC3    C5 9033   2.166   3.917  17.445 -0.0592  0.3947 -0.1331
  606TMC3    C6 9034   2.274   3.870  17.513  0.5487  0.2703  0.2257
  606TMC3     C 9035   2.180   4.266  17.520  0.2709  0.6062 -0.3009
  606TMC3     O 9036   2.061   4.272  17.560  0.4552 -0.6990 -0.0255
  606TMC3     H 9037   2.399   4.166  17.616 -0.8158 -1.6479  2.9396
  606TMC3    H1 9038   2.060   4.091  17.378 -0.5824  0.7491  1.0627
  606TMC3    H2 9039   2.299   3.765  17.525  1.7205  0.6688  1.1967
  606TMC3    C7 9040   2.073   3.816  17.394 -0.1485 -0.2057 -0.4932
  606TMC3    C8 9041   2.470   3.921  17.654 -0.5770  0.8359  0.5926
  606TMC3    O1 9042   2.101   3.697  17.404  0.3291  0.0875  0.3246
  606TMC3    O2 9043   2.505   3.804  17.659 -0.0026  0.2792 -0.0749
  607MPD2     C 9044   4.267   2.486  11.510  0.3858 -0.3273  0.4703
  607MPD2    C1 9045   4.363   2.572  11.566 -0.4991  0.1504  0.0110
  607MPD2    C2 9046   4.377   2.575  11.696  0.2600 -0.2836 -0.2627
  607MPD2    C3 9047   4.306   2.494  11.776 -0.6755 -0.2032 -0.4673
  607MPD2    C4 9048   4.209   2.408  11.729  0.0813  0.0375 -0.8149
  607MPD2    C5 9049   4.196   2.407  11.596 -0.1854 -0.6506 -0.1858
  607MPD2     H 9050   4.450   2.642  11.742  1.2193 -1.1554 -0.5187
  607MPD2    H1 9051   4.148   2.353  11.799 -1.9810  1.4914 -1.4685
  607MPD2    H2 9052   4.245   2.488  11.404  0.3901  0.8410  0.4896
  607MPD2    H3 9053   4.114   2.348  11.557 -0.5084  0.0721 -0.5989
  607MPD2     N 9054   4.328   2.514  11.912 -0.8174 -0.5656  0.2376
  607MPD2    H5 9055   4.386   2.596  11.925 -1.1786  0.1095 -2.4580
  607MPD2    N1 9056   4.440   2.662  11.491 -0.1021 -0.2769  0.4268
  607MPD2    H7 9057   4.484   2.733  11.550 -0.4324 -1.4402  2.0749
  608TMC3    C1 9058   4.556   2.767  11.323  0.3012 -0.8790  0.5014
  608TMC3    C2 9059   4.662   2.758  11.408  0.6882 -0.3341 -0.3354
  608TMC3    C3 9060   0.005   2.864  11.389 -0.4187  0.3633 -0.9779
  608TMC3    C4 9061   4.526   2.847  11.218  0.0909  0.0152 -0.2522
  608TMC3    C5 9062   4.614   2.939  11.198 -1.0302 -0.1186 -0.8620
  608TMC3    C6 9063   4.722   2.954  11.284 -0.4575  0.2119 -0.5700
  608TMC3     C 9064   4.448   2.669  11.356  0.2156 -0.3448  0.5684
  608TMC3     O 9065   4.396   2.615  11.260 -0.4088  0.2161  0.1129
  608TMC3     H 9066   4.680   2.670  11.469 -0.3447 -0.6894 -0.5480
  608TMC3    H1 9067   4.439   2.834  11.154  0.3037  0.9507 -0.7308
  608TMC3    H2 9068   0.053   3.036  11.277 -1.6053  1.2145 -0.4025
  608TMC3    C7 9069   4.612   3.001  11.063  0.3129  0.3242 -0.0349
  608TMC3    C8 9070   0.092   2.893  11.493  0.5812 -0.4281 -0.2017
  608TMC3    O1 9071   4.518   2.980  10.990  0.2228  0.3780  0.2035
  608TMC3    O2 9072   0.183   2.978  11.473  0.7591  0.1487  0.3098
  609TMC3    C1 9073   3.174   1.915   9.578 -0.1087  0.1401 -0.4641
  609TMC3    C2 9074   3.224   2.025   9.526  0.1891 -0.3040  0.1328
  609TMC3    C3 9075   3.335   2.004   9.443  0.3595 -0.6384 -0.7429
  609TMC3    C4 9076   3.225   1.788   9.566 -0.5006 -0.4170  0.0047
  609TMC3    C5 9077   3.342   1.773   9.492  0.3541  0.2706 -0.2456
  609TMC3    C6 9078   3.390   1.881   9.424 -0.4345 -0.3656 -0.6984
  609TMC3     C 9079   3.045   1.929   9.659  0.2136 -0.7033 -0.1584
  609TMC3     O 9080   2.985   1.826   9.678 -0.2716 -0.0308 -0.3999
  609TMC3     H 9081   3.187   2.126   9.531  1.4439  0.1312  0.7584
  609TMC3    H1 9082   3.182   1.700   9.613 -2.9482  1.3395  1.1082
  609TMC3    H2 9083   3.481   1.871   9.365  0.7315  1.8259  0.7409
  609TMC3    C7 9084   3.395   1.635   9.469  0.4301 -0.4844  0.6376
  609TMC3    C8 9085   3.390   2.109   9.361 -0.0646 -0.1096 -0.2592
  609TMC3    O1 9086   3.351   1.555   9.554 -0.5983  0.7210 -0.3934
  609TMC3    O2 9087   3.436   2.083   9.250  0.2039  0.2113  0.3479
  610TMC3    C1 9088   4.568   2.417  12.707 -0.4293 -1.0246 -0.1932
  610TMC3    C2 9089   4.655   2.481  12.624  0.0854 -0.4921  0.5096
  610TMC3    C3 9090   0.017   2.408  12.563 -0.1925  0.2694  0.3543
  610TMC3    C4 9091   4.580   2.283  12.737 -0.0674 -0.7528 -0.2435
  610TMC3    C5 9092   4.682   2.216  12.672  0.5244  0.5599  0.3450
  610TMC3    C6 9093   0.024   2.276  12.582 -0.2759  0.0187 -0.0298
  610TMC3     C 9094   4.493   2.500  12.795  0.4054  0.0470  0.3351
  610TMC3     O 9095   4.533   2.614  12.811 -0.2652  0.5520 -0.6027
  610TMC3     H 9096   4.642   2.585  12.600  1.0374 -0.4479  0.1722
  610TMC3    H1 9097   4.524   2.226  12.810 -0.7657 -0.4092 -0.5114
  610TMC3    H2 9098   0.108   2.214  12.550 -0.2812 -0.6436  1.2148
  610TMC3    C7 9099   0.003   2.126  12.759  0.1952 -0.0199  0.1752
  610TMC3    C8 9100   0.111   2.470  12.479 -0.4050 -0.3926  0.1609
  610TMC3    O1 9101   4.703   2.013  12.769 -0.2242 -0.0559  0.0558
  610TMC3    O2 9102   0.117   2.594  12.480  0.2753 -0.3712  0.0828
  611MPD2     C 9103   3.837   2.105  10.246  0.5727  0.3165  1.9230
  611MPD2    C1 9104   3.772   2.167  10.144 -0.5328 -0.4579 -0.2253
  611MPD2    C2 9105   3.850   2.262  10.080 -0.0176 -0.2151  0.6235
  611MPD2    C3 9106   3.986   2.289  10.115 -0.0731  0.3632 -0.4552
  611MPD2    C4 9107   4.046   2.224  10.220 -0.3141  0.7179  0.6533
  611MPD2    C5 9108   3.966   2.131  10.288  0.1095  0.1833  0.6000
  611MPD2     H 9109   3.803   2.315   9.998 -0.0717 -0.6630  0.3631
  611MPD2    H1 9110   4.149   2.243  10.247  0.7976  1.5801 -4.2164
  611MPD2    H2 9111   3.792   2.025  10.304 -2.1888  1.6222  1.6380
  611MPD2    H3 9112   4.013   2.072  10.366  1.2350 -0.0667 -0.2695
  611MPD2     N 9113   4.061   2.378  10.038 -0.4242 -0.3189 -0.7684
  611MPD2    H5 9114   4.161   2.367  10.047 -0.6717 -0.5590  1.6329
  611MPD2    N1 9115   3.634   2.140  10.112 -0.6676 -0.7356  0.5628
  611MPD2    H7 9116   3.595   2.201  10.041  0.2200  0.3807  1.0418
  612TMC3    C1 9117   4.114   2.536   9.879  0.2259  0.0651  0.4219
  612TMC3    C2 9118   4.230   2.571   9.943  0.1182  0.0092 -0.5798
  612TMC3    C3 9119   4.333   2.634   9.875 -0.4207 -0.3457  0.2339
  612TMC3    C4 9120   4.096   2.571   9.744  0.2397  0.5118  0.2247
  612TMC3    C5 9121   4.205   2.632   9.674 -0.1001 -0.2998  0.6645
  612TMC3    C6 9122   4.328   2.657   9.738 -0.5834  0.0524 -0.0143
  612TMC3     C 9123   4.009   2.460   9.943 -0.0004  0.5881  0.0865
  612TMC3     O 9124   3.911   2.458   9.873  0.1404  0.1478 -0.3153
  612TMC3     H 9125   4.242   2.531  10.044  1.3658  0.1340 -0.6773
  612TMC3    H1 9126   4.016   2.517   9.694  1.1761 -1.1981  0.5997
  612TMC3    H2 9127   4.388   2.731   9.687  0.7110  1.1017  3.0308
  612TMC3    C7 9128   4.176   2.675   9.543  0.2841  0.2286  0.4954
  612TMC3    C8 9129   4.453   2.689   9.940  0.4918  0.3996  0.2289
  612TMC3    O1 9130   4.060   2.680   9.507  0.3730  0.0142  0.3877
  612TMC3    O2 9131   4.528   2.761   9.870  0.8082  0.2369 -0.1901
  613MPD2     C 9132   3.241   3.930  16.672  0.2152 -0.6242 -0.6934
  613MPD2    C1 9133   3.190   3.984  16.558 -0.6418  0.4434  0.8166
  613MPD2    C2 9134   3.088   3.918  16.493 -0.4791  1.0751 -0.6676
  613MPD2    C3 9135   3.046   3.788  16.532  0.1285 -0.2675  0.8617
  613MPD2    C4 9136   3.109   3.727  16.641  0.6913  0.2597 -0.1740
  613MPD2    C5 9137   3.200   3.800  16.710 -0.1068 -0.3061 -0.2500
  613MPD2     H 9138   3.038   3.956  16.404  1.5144  4.3795 -0.3816
  613MPD2    H1 9139   3.088   3.623  16.661  1.1390  0.1833 -0.0828
  613MPD2    H2 9140   3.302   3.991  16.737  0.7372  0.5549 -2.2930
  613MPD2    H3 9141   3.223   3.766  16.810 -2.8058 -1.5016 -0.0410
  613MPD2     N 9142   2.955   3.715  16.455  0.8255  0.8102  0.1376
  613MPD2    H5 9143   2.960   3.616  16.476 -0.3121  0.5091 -0.9444
  613MPD2    N1 9144   3.253   4.107  16.515  0.0623  0.4101  0.1546
  613MPD2    H7 9145   3.322   4.147  16.578  2.1889 -1.4650 -0.9897
  614TMC3    C1 9146   3.176   4.133  16.282  0.7603  0.5378  0.2943
  614TMC3    C2 9147   3.214   4.016  16.231 -0.1574  0.7491 -0.4751
  614TMC3    C3 9148   3.185   3.987  16.100  0.3151  0.0947  0.4006
  614TMC3    C4 9149   3.118   4.223  16.201  0.5122 -0.3372  0.4378
  614TMC3    C5 9150   3.092   4.196  16.076 -0.2364  0.5480 -0.4967
  614TMC3    C6 9151   3.117   4.074  16.024 -0.4133  0.0879  0.6350
  614TMC3     C 9152   3.241   4.182  16.398  0.1185  0.3051  0.8470
  614TMC3     O 9153   3.287   4.295  16.394 -0.6318 -0.1201 -0.3037
  614TMC3     H 9154   3.283   3.949  16.280 -1.1570  0.1409  0.1110
  614TMC3    H1 9155   3.114   4.327  16.232 -2.7078 -1.1537  2.8234
  614TMC3    H2 9156   3.058   4.048  15.937 -2.4236 -3.6069  3.1175
  614TMC3    C7 9157   3.061   4.311  15.992  0.6501  0.5170 -0.3985
  614TMC3    C8 9158   3.166   3.848  16.069  0.4276 -0.1509 -0.2894
  614TMC3    O1 9159   3.039   4.423  16.038 -0.0820  0.1363 -0.3643
  614TMC3    O2 9160   3.169   3.764  16.162  0.4047 -0.3862 -0.4505
  615MPD2     C 9161   2.829   0.405  15.642 -0.1167  0.2108 -0.2517
  615MPD2    C1 9162   2.747   0.485  15.719 -0.3241  0.5006 -0.1881
  615MPD2    C2 9163   2.643   0.554  15.658  0.0401  0.5561 -0.4356
  615MPD2    C3 9164   2.634   0.556  15.519 -0.2681 -0.6653  0.5751
  615MPD2    C4 9165   2.731   0.496  15.445  0.1945  0.2773 -0.5674
  615MPD2    C5 9166   2.825   0.411  15.506 -0.3775  0.0372  0.2629
  615MPD2     H 9167   2.584   0.622  15.719 -0.0031  1.7672 -1.8335
  615MPD2    H1 9168   2.712   0.495  15.338 -0.2409 -0.4579 -0.4854
  615MPD2    H2 9169   2.897   0.338  15.694 -1.4248  1.0742  2.5433
  615MPD2    H3 9170   2.900   0.362  15.445 -0.1496  0.3962  0.2553
  615MPD2     N 9171   2.539   0.635  15.460  0.5811 -0.4549 -0.3028
  615MPD2    H5 9172   2.562   0.653  15.363  0.1045  0.0822 -0.3211
  615MPD2    N1 9173   2.765   0.512  15.865 -0.0489  0.1583  0.1688
  615MPD2    H7 9174   2.697   0.576  15.905  0.9271  1.2080  0.1553
  616TMC3    C1 9175   2.881   0.498  16.074 -0.6195 -0.2529  0.2842
  616TMC3    C2 9176   3.002   0.492  16.119  0.0759  0.1665  0.1843
  616TMC3    C3 9177   3.035   0.554  16.236 -0.4480  0.1334  0.5419
  616TMC3    C4 9178   2.786   0.580  16.137 -0.0583 -0.5120  0.6544
  616TMC3    C5 9179   2.815   0.647  16.254 -0.7550 -0.6604 -0.2536
  616TMC3    C6 9180   2.941   0.635  16.306  0.5989 -0.1142 -0.0448
  616TMC3     C 9181   2.862   0.448  15.942  0.5603  0.1214 -0.1310
  616TMC3     O 9182   2.937   0.361  15.914  0.5300 -0.0009  0.9123
  616TMC3     H 9183   3.079   0.448  16.057 -0.2016 -1.1653  0.7935
  616TMC3    H1 9184   2.682   0.563  16.113 -0.5801 -0.5030  2.8845
  616TMC3    H2 9185   2.972   0.695  16.390 -4.9224  0.9917  1.2116
  616TMC3    C7 9186   2.712   0.705  16.342 -0.0107  0.4845 -0.1125
  616TMC3    C8 9187   3.163   0.516  16.300 -0.3643  0.5780  0.1986
  616TMC3    O1 9188   2.731   0.698  16.460  0.3404  0.2161  0.1980
  616TMC3    O2 9189   3.224   0.418  16.253 -0.0740 -0.7742 -0.1520
  617MPD2     C 9190   0.642   3.991  13.595  0.1600  0.1822  0.6988
  617MPD2    C1 9191   0.637   3.996  13.730 -0.5270 -0.8910  0.5761
  617MPD2    C2 9192   0.570   3.892  13.798 -0.9836  0.0776 -0.0691
  617MPD2    C3 9193   0.503   3.788  13.735 -0.3364  0.0938 -0.2179
  617MPD2    C4 9194   0.497   3.795  13.596  0.4538 -0.1728 -0.1163
  617MPD2    C5 9195   0.557   3.902  13.522 -0.5407 -0.2037 -0.3765
  617MPD2     H 9196   0.562   3.896  13.906  2.8966  1.6201  0.1734
  617MPD2    H1 9197   0.443   3.724  13.535 -0.1113 -0.2598  0.4854
  617MPD2    H2 9198   0.704   4.061  13.540 -1.3462  2.2830  1.6778
  617MPD2    H3 9199   0.543   3.897  13.415 -0.2235  1.8336 -0.5265
  617MPD2     N 9200   0.436   3.680  13.804  0.1452 -0.3470  0.0870
  617MPD2    H5 9201   0.363   3.636  13.748  0.0133  0.8914 -0.7029
  617MPD2    N1 9202   0.704   4.091  13.804  0.1964  0.5673  0.2516
  617MPD2    H7 9203   0.710   4.068  13.902 -0.2522 -0.8610 -0.0541
  618TMC3    C1 9204   0.845   4.267  13.857  0.1327 -0.3515 -0.0007
  618TMC3    C2 9205   0.935   4.190  13.933  0.2061 -0.0304  1.1458
  618TMC3    C3 9206   1.045   4.250  13.980  0.0820  0.3888  0.3764
  618TMC3    C4 9207   0.865   4.402  13.833  0.4805  0.2970 -0.1706
  618TMC3    C5 9208   0.980   4.455  13.888 -0.6241  0.0919 -0.2761
  618TMC3    C6 9209   1.069   4.388  13.971  0.0715  0.6913 -0.7520
  618TMC3     C 9210   0.768   4.202  13.748 -0.4477  0.3752 -0.0804
  618TMC3     O 9211   0.759   4.257  13.637  0.2771  0.4446  0.2403
  618TMC3     H 9212   0.935   4.082  13.933 -0.5152 -0.0195 -1.6480
  618TMC3    H1 9213   0.817   4.454  13.751 -3.2902  0.0658  1.9154
  618TMC3    H2 9214   1.156   4.434  14.017  1.8064 -1.6743 -1.6887
  618TMC3    C7 9215   1.013   4.571  13.825 -0.0691  0.4179 -0.1153
  618TMC3    C8 9216   1.147   4.169  14.028 -0.4164 -0.1918  0.2934
  618TMC3    O1 9217   0.938   4.660  13.858  0.1864 -0.0813 -1.1122
  618TMC3    O2 9218   1.177   4.167  14.146  0.0344  0.4325  0.8900
  619MPD2     C 9219   1.111   0.530  13.281  0.0327 -0.9067 -0.2365
  619MPD2    C1 9220   1.117   0.639  13.200 -0.3302  0.0900 -0.2431
  619MPD2    C2 9221   1.015   0.726  13.197  0.0785 -0.1054  0.1848
  619MPD2    C3 9222   0.909   0.713  13.288  0.1563  0.3615 -0.1306
  619MPD2    C4 9223   0.892   0.588  13.355  0.6056  0.0462  0.1174
  619MPD2    C5 9224   0.996   0.503  13.349 -0.6361 -0.3245  0.5236
  619MPD2     H 9225   1.021   0.814  13.134 -0.2352  1.7383  2.7266
  619MPD2    H1 9226   0.807   0.571  13.421 -0.5111  0.4823 -1.2043
  619MPD2    H2 9227   1.191   0.458  13.288 -0.2425 -1.2551 -0.6826
  619MPD2    H3 9228   0.987   0.410  13.404  0.5490  0.2969  1.7549
  619MPD2     N 9229   0.820   0.814  13.315  0.4804  0.7210  0.3049
  619MPD2    H5 9230   0.749   0.792  13.384  0.6279  1.2524  0.6235
  619MPD2    N1 9231   1.217   0.661  13.103 -0.1316  0.5914  0.7474
  619MPD2    H7 9232   1.186   0.719  13.026 -0.6643  0.2420  0.6932
  620TMC3    C1 9233   1.422   0.715  13.013 -0.6546 -0.6727  0.1127
  620TMC3    C2 9234   1.376   0.845  12.987 -0.4254 -0.2381 -0.3216
  620TMC3    C3 9235   1.463   0.947  12.949  0.2040 -0.2750  0.3721
  620TMC3    C4 9236   1.548   0.680  12.987 -0.0176 -0.0936 -0.7823
  620TMC3    C5 9237   1.629   0.781  12.935  0.0368  0.1481  0.2062
  620TMC3    C6 9238   1.590   0.903  12.905  0.2628 -0.4027  0.2472
  620TMC3     C 9239   1.346   0.626  13.097  0.3728 -0.0279 -0.5280
  620TMC3     O 9240   1.409   0.545  13.164 -0.1170 -0.2474 -0.1106
  620TMC3     H 9241   1.277   0.873  13.020  0.7549  0.2975  2.7998
  620TMC3    H1 9242   1.596   0.591  13.026 -0.4232 -0.2107 -0.5481
  620TMC3    H2 9243   1.674   0.970  12.890 -1.6063  1.2380 -3.0407
  620TMC3    C7 9244   1.748   0.731  12.861 -0.1150  0.7679  0.6457
  620TMC3    C8 9245   1.485   1.042  13.055  0.3000 -0.3110  0.0831
  620TMC3    O1 9246   1.727   0.704  12.742 -0.1519 -0.2153  0.1599
  620TMC3    O2 9247   1.596   1.070  13.086 -0.8622 -0.1830 -0.1706
  621MPD2     C 9248   2.851   0.462  10.547  0.2741 -0.2879  0.0365
  621MPD2    C1 9249   2.754   0.508  10.451 -0.2918  0.4277 -0.2549
  621MPD2    C2 9250   2.743   0.648  10.424  0.4028  0.2446  0.5594
  621MPD2    C3 9251   2.814   0.731  10.496 -0.2673 -0.0513 -0.2542
  621MPD2    C4 9252   2.879   0.693  10.613  0.1011 -0.3417 -0.2280
  621MPD2    C5 9253   2.896   0.560  10.632 -0.6959  0.4610  0.3663
  621MPD2     H 9254   2.675   0.689  10.350  1.6676  0.6250 -0.3819
  621MPD2    H1 9255   2.930   0.769  10.671 -1.7097 -0.5531  1.6344
  621MPD2    H2 9256   2.878   0.358  10.561 -0.6559 -0.8248 -2.1934
  621MPD2    H3 9257   2.956   0.520  10.713  0.8316  0.7881 -0.6043
  621MPD2     N 9258   2.801   0.864  10.454  0.0148  0.1255 -0.3222
  621MPD2    H5 9259   2.749   0.885  10.369 -1.6244  0.5553  0.7890
  621MPD2    N1 9260   2.669   0.416  10.388  0.6905  0.2794  0.1415
  621MPD2    H7 9261   2.607   0.456  10.318  1.5270  0.6238 -0.4032
  622TMC3    C1 9262   2.560   0.208  10.342  0.2128  0.1837  0.2034
  622TMC3    C2 9263   2.479   0.120  10.415 -0.2130  0.0631  0.3360
  622TMC3    C3 9264   2.358   0.086  10.368 -0.3458 -0.0047 -0.1713
  622TMC3    C4 9265   2.530   0.257  10.221  0.4430 -0.6344  0.1262
  622TMC3    C5 9266   2.408   0.209  10.165 -0.1162  0.7549  0.4022
  622TMC3    C6 9267   2.329   0.127  10.238  0.3924 -0.2334 -0.5883
  622TMC3     C 9268   2.654   0.281  10.421 -0.0164 -0.7247 -0.1428
  622TMC3     O 9269   2.709   0.216  10.508 -0.0949 -0.5175  0.0637
  622TMC3     H 9270   2.509   0.083  10.512  1.3920  0.7021  0.0802
  622TMC3    H1 9271   2.597   0.322  10.167  0.9979 -2.3435 -1.2271
  622TMC3    H2 9272   2.237   0.089  10.195 -1.3262  0.2111  2.6686
  622TMC3    C7 9273   2.381   0.218  10.027 -0.2272 -0.2458 -0.4383
  622TMC3    C8 9274   2.280   4.726  10.440  0.7628 -0.5925 -0.2364
  622TMC3    O1 9275   2.311   0.126   9.976  0.6338  0.0057 -0.0522
  622TMC3    O2 9276   2.346   4.643  10.509  0.0045  0.5943  0.1697
  623MPD2     C 9277   1.244   1.109  15.740  0.2720  0.0054 -0.0664
  623MPD2    C1 9278   1.181   0.989  15.765  0.0597  0.6917  0.4053
  623MPD2    C2 9279   1.242   0.892  15.841 -0.4904  0.6759  0.8936
  623MPD2    C3 9280   1.366   0.918  15.895  0.1050  0.1755  0.2065
  623MPD2    C4 9281   1.425   1.044  15.877 -0.1094 -0.2450 -0.1813
  623MPD2    C5 9282   1.361   1.134  15.801  0.6104 -0.4992  0.0954
  623MPD2     H 9283   1.189   0.804  15.876 -0.8093  0.4651 -0.1141
  623MPD2    H1 9284   1.518   1.073  15.925 -0.8113  0.9766  0.4267
  623MPD2    H2 9285   1.199   1.189  15.682 -0.2430  0.0144  0.3520
  623MPD2    H3 9286   1.411   1.230  15.792  1.4622 -0.8183  1.2929
  623MPD2     N 9287   1.417   0.817  15.980  0.2473  0.0546  0.1648
  623MPD2    H5 9288   1.363   0.731  15.987  0.3214 -0.1207 -1.4182
  623MPD2    N1 9289   1.056   0.971  15.710 -0.0872 -0.0776  0.7560
  623MPD2    H7 9290   1.012   1.058  15.682 -1.7363 -0.2498  2.7549
  624TMC3    C1 9291   1.668   0.632  16.327  0.7050  0.1404  0.7869
  624TMC3    C2 9292   1.574   0.536  16.350 -0.7625 -0.3392 -0.0489
  624TMC3    C3 9293   1.463   0.524  16.268  0.6965  0.6924  0.3001
  624TMC3    C4 9294   1.656   0.712  16.221 -0.2548 -0.9154  0.4955
  624TMC3    C5 9295   1.543   0.713  16.148 -0.6443 -0.1226 -0.5996
  624TMC3    C6 9296   1.441   0.619  16.172  0.1774 -0.1057 -0.4474
  624TMC3     C 9297   1.802   0.611  16.372  0.1418  0.2775  0.6172
  624TMC3     O 9298   1.869   0.715  16.380  0.1037 -0.0513  0.2103
  624TMC3     H 9299   1.585   0.468  16.433 -1.2131  0.2173  0.4690
  624TMC3    H1 9300   1.736   0.784  16.202 -0.5100 -1.0874 -1.2634
  624TMC3    H2 9301   1.342   0.620  16.127 -0.3895 -1.3603  0.8134
  624TMC3    C7 9302   1.534   0.822  16.053 -0.1795 -0.4057  0.6635
  624TMC3    C8 9303   1.340   0.482  16.321 -0.1453  0.2981  0.4079
  624TMC3    O1 9304   1.618   0.907  16.065  0.1808 -0.4842  0.5709
  624TMC3    O2 9305   1.266   0.423  16.241 -0.0982 -0.8242  0.2713
  625MPD2     C 9306   1.992   1.880   0.471  0.0405 -0.0208  0.6715
  625MPD2    C1 9307   2.096   1.931   0.396  0.7136  0.0022  0.0889
  625MPD2    C2 9308   2.216   1.960   0.455  0.1334  0.8182 -0.2102
  625MPD2    C3 9309   2.232   1.948   0.593 -0.2103  0.9052  0.2228
  625MPD2    C4 9310   2.129   1.899   0.672  0.4964  0.1420 -0.4155
  625MPD2    C5 9311   2.005   1.867   0.610 -0.5182  0.2896 -0.2358
  625MPD2     H 9312   2.295   2.007   0.397  0.2077 -1.7361 -2.1523
  625MPD2    H1 9313   2.139   1.882   0.779  1.9061  0.8754 -0.4344
  625MPD2    H2 9314   1.904   1.847   0.419  1.6098 -0.3065 -1.7936
  625MPD2    H3 9315   1.918   1.826   0.661 -0.6032  0.9790  0.1809
  625MPD2     N 9316   2.353   1.992   0.644 -0.0693  0.3807  0.1410
  625MPD2    H5 9317   2.435   1.996   0.585  0.3825 -2.6810  0.5336
  625MPD2    N1 9318   2.090   1.941   0.255  0.0403  0.4540 -0.9980
  625MPD2    H7 9319   2.172   1.988   0.216 -0.4610 -0.5346 -3.2606
  626TMC3    C1 9320   2.020   1.975   0.033  0.6587  0.0483  0.4867
  626TMC3    C2 9321   1.919   2.019  17.704  0.8607  0.0274  0.2090
  626TMC3    C3 9322   1.944   2.123  17.618  0.2375 -0.4689  0.0605
  626TMC3    C4 9323   2.148   2.024   0.014  0.1575  0.4820  0.2437
  626TMC3    C5 9324   2.171   2.124  17.680 -0.2358  0.2154  0.2457
  626TMC3    C6 9325   2.067   2.180  17.617  0.1950 -0.4375 -0.5207
  626TMC3     C 9326   1.982   1.931   0.169  0.3321 -0.1584 -0.3952
  626TMC3     O 9327   1.865   1.892   0.191 -0.4016 -0.1031 -0.0497
  626TMC3     H 9328   1.820   1.975  17.714 -0.2373  2.1839 -1.2230
  626TMC3    H1 9329   2.236   1.983   0.063  1.6969  3.0511 -0.3440
  626TMC3    H2 9330   2.084   2.265  17.552 -1.0151 -1.4116 -2.1186
  626TMC3    C7 9331   2.277   2.213  17.721 -0.2081  0.0066 -0.3876
  626TMC3    C8 9332   1.848   2.175  17.519 -0.1384 -0.1653  0.0897
  626TMC3    O1 9333   2.380   2.157   0.002 -0.0835  0.3403 -0.4144
  626TMC3    O2 9334   1.891   2.275  17.459 -0.0489 -0.5006  0.1916
  627MPD2     C 9335   0.139   2.449  14.818  0.1428 -0.7513  0.5195
  627MPD2    C1 9336   0.251   2.456  14.736 -0.0422 -0.1239  0.0455
  627MPD2    C2 9337   0.257   2.371  14.632 -0.0656 -0.0293  0.4338
  627MPD2    C3 9338   0.161   2.276  14.610 -1.0816 -0.2551  0.1652
  627MPD2    C4 9339   0.050   2.261  14.690  0.1157 -0.8496  0.0855
  627MPD2    C5 9340   0.043   2.346  14.796  1.2205  0.0741  0.3138
  627MPD2     H 9341   0.330   2.376  14.552  0.2698 -0.6954  0.6941
  627MPD2    H1 9342   4.706   2.194  14.677  0.8798 -1.8541  0.3046
  627MPD2    H2 9343   0.121   2.519  14.899 -1.2431  2.3372 -2.4428
  627MPD2    H3 9344   4.696   2.349  14.862 -1.1465  1.0987 -2.8630
  627MPD2     N 9345   0.184   2.192  14.494 -0.1862  0.2663 -0.0398
  627MPD2    H5 9346   0.278   2.205  14.457  0.2863 -0.2185  0.9739
  627MPD2    N1 9347   0.353   2.548  14.755 -0.4216  0.0105  0.2270
  627MPD2    H7 9348   0.437   2.556  14.699 -0.2090  0.4645  0.6050
  628TMC3    C1 9349   0.456   2.745  14.819 -0.1131 -0.2399 -0.3785
  628TMC3    C2 9350   0.576   2.686  14.851 -0.1625 -0.2031  0.1897
  628TMC3    C3 9351   0.685   2.773  14.853  0.3509  0.6001 -0.5095
  628TMC3    C4 9352   0.442   2.883  14.804  0.2628  0.2611 -0.1172
  628TMC3    C5 9353   0.555   2.961  14.825 -0.6081 -0.1203  0.0326
  628TMC3    C6 9354   0.671   2.903  14.864 -0.4861 -0.1919  0.0923
  628TMC3     C 9355   0.337   2.663  14.822  0.2332  0.5789  0.4424
  628TMC3     O 9356   0.242   2.717  14.882  0.4619 -0.4855  0.1052
  628TMC3     H 9357   0.582   2.578  14.840 -0.7280 -0.1165 -0.9621
  628TMC3    H1 9358   0.341   2.915  14.782  0.2097  0.0456 -0.1934
  628TMC3    H2 9359   0.757   2.966  14.844 -1.5751  1.2993  0.0841
  628TMC3    C7 9360   0.548   3.106  14.805 -0.8219 -0.7748 -0.5141
  628TMC3    C8 9361   0.815   2.721  14.820 -0.0746  0.4892 -0.2988
  628TMC3    O1 9362   0.633   3.177  14.860  0.4627 -0.2143 -0.1030
  628TMC3    O2 9363   0.878   2.794  14.744  0.6968  0.0773  0.0971
  629MPD2     C 9364   3.592   0.585  16.564  0.5822 -0.0751  0.1903
  629MPD2    C1 9365   3.528   0.706  16.536  0.3123 -0.8610  0.3927
  629MPD2    C2 9366   3.398   0.717  16.496 -0.1867  0.4388  0.4788
  629MPD2    C3 9367   3.336   0.600  16.450  0.7918 -0.3148 -0.5013
  629MPD2    C4 9368   3.400   0.480  16.463  0.1004 -0.1557 -0.6318
  629MPD2    C5 9369   3.523   0.475  16.524  0.0143 -0.0517 -0.0024
  629MPD2     H 9370   3.351   0.814  16.488  1.2051  0.8632 -2.5466
  629MPD2    H1 9371   3.352   0.386  16.437 -0.8580 -0.0595  0.8034
  629MPD2    H2 9372   3.691   0.568  16.607  1.1277  1.2661 -0.5437
  629MPD2    H3 9373   3.575   0.380  16.532  1.5516  0.8832  0.9551
  629MPD2     N 9374   3.212   0.613  16.382 -0.2631 -0.1698  0.2164
  629MPD2    H5 9375   3.165   0.703  16.381 -0.8234 -0.4655 -0.1531
  629MPD2    N1 9376   3.610   0.820  16.571  0.9443  0.0455 -0.7252
  629MPD2    H7 9377   3.698   0.808  16.620  0.5822  1.5303  0.2616
  630TMC3    C1 9378   3.684   1.035  16.603 -0.0710  0.3410 -0.1038
  630TMC3    C2 9379   3.715   1.154  16.538  0.8526  0.3875  0.1443
  630TMC3    C3 9380   3.756   1.258  16.620  0.7489 -0.3923  0.6770
  630TMC3    C4 9381   3.673   1.036  16.740  0.1049 -0.0986 -0.3577
  630TMC3    C5 9382   3.733   1.134  16.814  0.4300  0.7866  0.4224
  630TMC3    C6 9383   3.780   1.244  16.752 -0.0449  0.0418  0.6560
  630TMC3     C 9384   3.582   0.951  16.545 -0.8838 -0.1903  0.1102
  630TMC3     O 9385   3.504   0.999  16.465  0.2089 -0.1518 -0.0927
  630TMC3     H 9386   3.720   1.151  16.430 -1.3580 -2.5425  0.1104
  630TMC3    H1 9387   3.650   0.941  16.786  1.0058 -0.5504 -0.8601
  630TMC3    H2 9388   3.825   1.321  16.813 -0.9370  1.6188 -0.6652
  630TMC3    C7 9389   3.744   1.134  16.960  0.2965  0.5920  0.5630
  630TMC3    C8 9390   3.825   1.366  16.553 -0.0079 -0.1232  0.5820
  630TMC3    O1 9391   3.810   1.218  17.017 -0.0480 -0.0793 -0.2285
  630TMC3    O2 9392   3.915   1.415  16.617 -0.2739 -0.2547 -0.6028
  631MPD2     C 9393   1.573   1.069  15.243 -0.2739 -0.1957  0.6205
  631MPD2    C1 9394   1.676   1.154  15.205 -0.0806  0.0720  0.2373
  631MPD2    C2 9395   1.805   1.096  15.211  0.2865 -0.2965 -0.6007
  631MPD2    C3 9396   1.825   0.963  15.247 -0.0476  0.6553 -0.0392
  631MPD2    C4 9397   1.719   0.878  15.274  0.2601  0.6148  0.0107
  631MPD2    C5 9398   1.595   0.935  15.267 -0.3225 -0.2566 -0.6307
  631MPD2     H 9399   1.901   1.142  15.188 -0.4510  1.4325 -0.2490
  631MPD2    H1 9400   1.744   0.774  15.291 -0.1109  0.5786  0.3231
  631MPD2    H2 9401   1.470   1.103  15.247 -0.5874 -1.1622  0.8615
  631MPD2    H3 9402   1.513   0.866  15.283 -1.1139  0.8863  0.2319
  631MPD2     N 9403   1.956   0.915  15.256  0.8572  0.5904 -0.4694
  631MPD2    H5 9404   2.026   0.981  15.222  1.4459 -1.2788 -2.8888
  631MPD2    N1 9405   1.651   1.294  15.184 -0.1536 -0.8007 -0.6229
  631MPD2    H7 9406   1.560   1.338  15.182  0.7720  1.1759  0.4812
  632TMC3    C1 9407   1.711   1.520  15.182  0.1002 -0.0725  0.8870
  632TMC3    C2 9408   1.593   1.557  15.246  0.4793  0.3327  0.6490
  632TMC3    C3 9409   1.571   1.693  15.256  0.8313  0.5325 -0.2433
  632TMC3    C4 9410   1.797   1.615  15.131  0.6318  0.1607 -0.3952
  632TMC3    C5 9411   1.767   1.744  15.140 -0.1896 -0.3720  0.8416
  632TMC3    C6 9412   1.651   1.786  15.197  0.1346 -0.2650 -0.9431
  632TMC3     C 9413   1.754   1.382  15.163 -0.1655  0.4225  0.2954
  632TMC3     O 9414   1.866   1.355  15.131 -0.0901 -0.2333  0.0310
  632TMC3     H 9415   1.534   1.482  15.298 -0.0468  1.2330  1.3503
  632TMC3    H1 9416   1.891   1.575  15.094  0.8525  0.4334 -0.1370
  632TMC3    H2 9417   1.620   1.890  15.200  2.2572  0.2933  1.2870
  632TMC3    C7 9418   1.848   1.833  15.058  0.2083  0.0125 -0.5104
  632TMC3    C8 9419   1.471   1.740  15.347 -0.3036  0.0511 -0.2958
  632TMC3    O1 9420   1.797   1.917  14.986 -0.2008 -0.1762 -0.2456
  632TMC3    O2 9421   1.370   1.671  15.349  0.5635 -0.3652  0.4170
  633MPD2     C 9422   1.475   4.063  17.289 -0.4584 -0.1801  0.3913
  633MPD2    C1 9423   1.428   3.988  17.185 -0.5457 -0.0167  0.9083
  633MPD2    C2 9424   1.404   3.853  17.206 -0.3835 -0.1824  0.0445
  633MPD2    C3 9425   1.429   3.789  17.328  0.3319  0.8151  0.4383
  633MPD2    C4 9426   1.479   3.867  17.430  0.1424 -0.0500  0.0207
  633MPD2    C5 9427   1.494   4.000  17.411 -0.0863  0.3458  0.4358
  633MPD2     H 9428   1.363   3.802  17.120 -0.1473  0.8526 -0.6779
  633MPD2    H1 9429   1.509   3.811  17.518 -0.7583  0.6790  0.7829
  633MPD2    H2 9430   1.506   4.165  17.272  1.0167 -0.9851 -1.7595
  633MPD2    H3 9431   1.535   4.068  17.485  0.4232  0.7551 -0.2212
  633MPD2     N 9432   1.415   3.648  17.345 -0.6352  0.3898  0.5383
  633MPD2    H5 9433   1.448   3.608  17.432 -0.7333  1.5287  1.1069
  633MPD2    N1 9434   1.425   4.038  17.053 -0.3649 -0.7343  0.9611
  633MPD2    H7 9435   1.411   3.965  16.983  0.0928  0.9035 -0.8353
  634TMC3    C1 9436   1.443   4.200  16.877  0.4391  0.3560  0.1714
  634TMC3    C2 9437   1.529   4.111  16.811  0.0428  0.0336 -0.1599
  634TMC3    C3 9438   1.582   4.152  16.689 -0.3011  0.8789  0.7674
  634TMC3    C4 9439   1.404   4.318  16.823 -0.1305 -0.4187  0.7289
  634TMC3    C5 9440   1.460   4.351  16.706  0.3871  0.4234 -0.6915
  634TMC3    C6 9441   1.545   4.267  16.639  0.2495 -0.9934 -0.5774
  634TMC3     C 9442   1.417   4.172  17.018  0.2015 -0.3172 -0.8797
  634TMC3     O 9443   1.387   4.267  17.087 -0.0235  0.1982  0.7972
  634TMC3     H 9444   1.570   4.020  16.852  1.5577  1.1728  0.8684
  634TMC3    H1 9445   1.324   4.375  16.869 -0.5373  0.4214 -1.0358
  634TMC3    H2 9446   1.590   4.308  16.550 -0.5914  0.7585 -0.1848
  634TMC3    C7 9447   1.398   4.444  16.615  1.0664  0.4216 -1.1713
  634TMC3    C8 9448   1.630   4.046  16.605  0.0919 -0.3457 -0.1302
  634TMC3    O1 9449   1.404   4.413  16.499  0.0003  0.1266 -0.2341
  634TMC3    O2 9450   1.629   3.934  16.650  0.3946 -0.1794 -0.8631
  635TMC3    C1 9451   2.107   0.698   0.225 -0.1277  0.5314 -0.6792
  635TMC3    C2 9452   2.092   0.639   0.099 -0.3246 -0.5331 -0.3779
  635TMC3    C3 9453   1.976   0.575   0.075  0.6488  0.2197  0.4505
  635TMC3    C4 9454   2.001   0.702   0.316  0.5536 -0.4310  0.3306
  635TMC3    C5 9455   1.880   0.648   0.284 -0.1080 -0.1057  0.2470
  635TMC3    C6 9456   1.869   0.582   0.167  0.1355 -1.2130  0.7338
  635TMC3     C 9457   2.223   0.780   0.253 -0.3037 -0.2651  0.4547
  635TMC3     O 9458   2.217   0.855   0.350  0.0571  0.2448  0.5552
  635TMC3     H 9459   2.164   0.637   0.018 -0.6196 -0.6046 -0.6349
  635TMC3    H1 9460   2.021   0.752   0.410  2.5506  2.0957 -1.4402
  635TMC3    H2 9461   1.783   0.518   0.153 -1.3554  1.0590 -0.4584
  635TMC3    C7 9462   1.770   0.658   0.381 -0.2053  0.1004 -0.9298
  635TMC3    C8 9463   1.973   0.479  17.718  0.2370 -0.1237  0.0858
  635TMC3    O1 9464   1.674   0.579   0.377  0.2548  0.1344 -0.2671
  635TMC3    O2 9465   2.062   0.489  17.639  0.1756 -0.7296  0.0243
  636MPD2     C 9466   2.693   4.221  15.835  0.0221 -0.2453 -0.6408
  636MPD2    C1 9467   2.737   4.203  15.965  0.7311  0.6565 -0.3663
  636MPD2    C2 9468   2.774   4.078  15.999 -0.3727 -0.3687  0.6151
  636MPD2    C3 9469   2.757   3.961  15.928 -0.0143  0.6998 -0.4268
  636MPD2    C4 9470   2.716   3.983  15.798  0.5916  0.9693  0.1812
  636MPD2    C5 9471   2.686   4.112  15.755 -0.7599  0.8037 -0.6021
  636MPD2     H 9472   2.825   4.064  16.094 -1.9722 -1.1633  1.3644
  636MPD2    H1 9473   2.692   3.900  15.732  2.7532 -0.1612  0.8313
  636MPD2    H2 9474   2.640   4.308  15.798  0.7459  0.6659  0.4660
  636MPD2    H3 9475   2.635   4.134  15.662 -0.2164  2.9449 -0.4000
  636MPD2     N 9476   2.790   3.836  15.991 -0.5991  0.2603  0.2604
  636MPD2    H5 9477   2.823   3.844  16.087 -2.9228  0.0166  1.0961
  636MPD2    N1 9478   2.738   4.311  16.057 -0.1398 -0.9283 -0.0663
  636MPD2    H7 9479   2.770   4.281  16.148 -0.9895 -0.8272  0.2623
  637TMC3    C1 9480   2.735   3.627  16.059 -0.6185  0.4858 -0.7179
  637TMC3    C2 9481   2.744   3.695  16.178  0.2364 -1.0849 -0.3415
  637TMC3    C3 9482   2.823   3.639  16.275 -0.4997  0.0191  0.6852
  637TMC3    C4 9483   2.785   3.504  16.038  0.0030 -0.1913 -0.3566
  637TMC3    C5 9484   2.860   3.453  16.137  0.0503 -0.1207  0.0866
  637TMC3    C6 9485   2.879   3.516  16.258 -0.0137 -0.2098  0.4881
  637TMC3     C 9486   2.753   3.718  15.942  0.2461  0.3623 -0.7356
  637TMC3     O 9487   2.692   3.692  15.837 -0.0971  0.0436 -0.4095
  637TMC3     H 9488   2.678   3.779  16.199  1.1688 -0.1397 -1.1973
  637TMC3    H1 9489   2.780   3.463  15.938 -0.3808 -1.4207  0.1635
  637TMC3    H2 9490   2.948   3.473  16.330 -1.5207 -0.9534  1.4835
  637TMC3    C7 9491   2.957   3.351  16.100 -0.5725 -0.8895  0.7870
  637TMC3    C8 9492   2.891   3.754  16.339  0.0661 -0.7198  0.0838
  637TMC3    O1 9493   2.960   3.258  16.183 -0.1435  0.5450 -0.0917
  637TMC3    O2 9494   2.873   3.857  16.287  0.2756  0.1006  0.1159
  638MPD2     C 9495   2.774   3.156  14.988  0.0492 -0.1689  0.5033
  638MPD2    C1 9496   2.826   3.024  14.993  0.5422  0.0812  0.4118
  638MPD2    C2 9497   2.762   2.931  15.072  0.1381 -0.4596  0.3575
  638MPD2    C3 9498   2.641   2.959  15.128 -0.2871  0.2705  0.1108
  638MPD2    C4 9499   2.591   3.089  15.124 -0.3828 -0.5581 -0.0857
  638MPD2    C5 9500   2.657   3.188  15.054 -0.0780  0.5433  0.1086
  638MPD2     H 9501   2.802   2.832  15.088  0.8256 -0.0321  1.3028
  638MPD2    H1 9502   2.496   3.118  15.167  0.7929 -0.6264  2.5567
  638MPD2    H2 9503   2.824   3.242  14.943  0.0882 -0.5898 -0.2534
  638MPD2    H3 9504   2.617   3.288  15.050  0.7245  0.8523 -0.2695
  638MPD2     N 9505   2.574   2.858  15.191  0.0658  0.1181 -0.5322
  638MPD2    H5 9506   2.612   2.765  15.180 -2.4045 -0.8616 -0.9041
  638MPD2    N1 9507   2.935   2.986  14.912  0.4139 -0.0541  0.7916
  638MPD2    H7 9508   2.964   3.054  14.843  1.2519 -0.5625  0.6433
  639TMC3    C1 9509   2.423   2.725  15.301  0.3672 -0.3807 -0.3348
  639TMC3    C2 9510   2.317   2.649  15.258  0.3082  0.4083  0.1835
  639TMC3    C3 9511   2.321   2.509  15.280  0.1159 -0.3929 -0.1874
  639TMC3    C4 9512   2.530   2.662  15.357 -0.4657 -0.2406 -0.6195
  639TMC3    C5 9513   2.527   2.527  15.389 -0.2781  0.0348 -0.0377
  639TMC3    C6 9514   2.425   2.447  15.345  0.2147  0.1873  0.5438
  639TMC3     C 9515   2.451   2.855  15.242 -0.0091  0.4231 -1.2214
  639TMC3     O 9516   2.357   2.933  15.225 -0.0589  0.0366  0.4050
  639TMC3     H 9517   2.236   2.697  15.204  0.0670 -0.4100 -0.1787
  639TMC3    H1 9518   2.611   2.723  15.396 -1.5662  0.0290  1.2623
  639TMC3    H2 9519   2.434   2.340  15.332  0.8942  0.1983  0.9016
  639TMC3    C7 9520   2.652   2.458  15.419  0.2814 -0.0036  0.2695
  639TMC3    C8 9521   2.278   2.428  15.169  0.7488 -0.0745  0.5050
  639TMC3    O1 9522   2.654   2.346  15.473 -0.7514 -0.4960  0.2486
  639TMC3    O2 9523   2.350   2.340  15.118 -0.1250 -0.1241  0.3617
  640MPD2     C 9524   3.658   2.608   9.722  0.1701 -0.1218  0.2154
  640MPD2    C1 9525   3.596   2.486   9.753 -0.4829 -0.3246 -0.4064
  640MPD2    C2 9526   3.481   2.497   9.830  0.1287 -0.4176 -0.6731
  640MPD2    C3 9527   3.437   2.616   9.882  0.2303 -0.4833 -0.1471
  640MPD2    C4 9528   3.508   2.728   9.854  0.6015 -0.1199  0.6255
  640MPD2    C5 9529   3.615   2.723   9.769  0.3062  0.5905 -0.5369
  640MPD2     H 9530   3.425   2.405   9.841 -0.3125 -0.2473 -1.4567
  640MPD2    H1 9531   3.492   2.823   9.903 -0.1258  0.3031 -0.4164
  640MPD2    H2 9532   3.745   2.612   9.658 -0.4053  1.5835 -0.4673
  640MPD2    H3 9533   3.665   2.817   9.750  1.3329 -0.1204 -1.3266
  640MPD2     N 9534   3.319   2.631   9.958  0.3156 -0.2755  0.2376
  640MPD2    H5 9535   3.298   2.724   9.994 -1.0535  0.2811 -1.9890
  640MPD2    N1 9536   3.656   2.366   9.704  0.7906  0.3177  0.1133
  640MPD2    H7 9537   3.736   2.373   9.641  1.6211  0.5430  1.1826
  641TMC3    C1 9538   3.678   2.133   9.689 -0.2927 -0.7781 -0.2932
  641TMC3    C2 9539   3.686   2.019   9.763  0.3468  0.0836 -0.3607
  641TMC3    C3 9540   3.709   1.895   9.693  0.1524  0.3755 -0.3612
  641TMC3    C4 9541   3.704   2.132   9.548 -1.0577  0.5702 -0.4128
  641TMC3    C5 9542   3.722   2.006   9.479 -0.5103 -0.4587  0.4251
  641TMC3    C6 9543   3.719   1.891   9.558  0.1523 -0.0176  0.2868
  641TMC3     C 9544   3.629   2.244   9.759 -0.2613 -0.2882 -0.0253
  641TMC3     O 9545   3.555   2.221   9.856 -0.7147 -0.6309 -0.2530
  641TMC3     H 9546   3.680   2.024   9.871 -1.0148  0.9212 -0.4811
  641TMC3    H1 9547   3.701   2.223   9.490 -1.3030 -0.4086 -1.9611
  641TMC3    H2 9548   3.731   1.796   9.506 -1.4884 -1.7490  3.0922
  641TMC3    C7 9549   3.737   2.003   9.334 -0.3925 -0.4630 -0.0573
  641TMC3    C8 9550   3.722   1.771   9.764  0.6373 -0.5464 -0.2835
  641TMC3    O1 9551   3.731   2.115   9.282 -0.0170 -0.4681  0.3336
  641TMC3    O2 9552   3.736   1.670   9.696 -0.0267  0.3873  0.0967
  642TMC3    C1 9553   4.005   2.870  12.711  0.5350 -0.6135 -0.4091
  642TMC3    C2 9554   4.141   2.858  12.687 -0.3403  0.6060 -0.3399
  642TMC3    C3 9555   4.189   2.771  12.590 -0.0083  0.4285  0.3633
  642TMC3    C4 9556   3.918   2.783  12.649 -0.0336  0.0711  0.3380
  642TMC3    C5 9557   3.968   2.699  12.557  0.6017  0.5695  0.5541
  642TMC3    C6 9558   4.102   2.689  12.528 -0.0876  0.5269  0.0111
  642TMC3     C 9559   3.968   2.981  12.797  0.7526  0.3266 -0.2292
  642TMC3     O 9560   4.061   3.057  12.834 -0.1421  0.6559  0.6653
  642TMC3     H 9561   4.208   2.918  12.747  1.2809 -4.2361  2.6513
  642TMC3    H1 9562   3.811   2.795  12.659  0.0098  0.4868  0.3055
  642TMC3    H2 9563   4.139   2.627  12.446  0.6316  1.6359 -0.5048
  642TMC3    C7 9564   3.893   2.584  12.515 -0.0700  0.1612  0.4508
  642TMC3    C8 9565   4.325   2.782  12.537  0.5149 -0.1143 -0.4102
  642TMC3    O1 9566   3.924   2.533  12.410 -0.0159  0.0205 -0.0286
  642TMC3    O2 9567   4.358   2.705  12.451  0.2619 -0.3063 -0.1320
  643TMC3    C1 9568   3.989   2.199   0.234 -0.6195 -0.1412 -0.2107
  643TMC3    C2 9569   3.871   2.247   0.186 -0.9774 -0.6038  0.6779
  643TMC3    C3 9570   3.807   2.163   0.098  0.0853 -1.3333 -0.0521
  643TMC3    C4 9571   4.053   2.087   0.181  0.9500  0.6358 -0.0502
  643TMC3    C5 9572   3.989   2.022   0.080  0.1738 -0.2761 -0.3712
  643TMC3    C6 9573   3.860   2.046   0.050  0.5892 -0.2188  0.3970
  643TMC3     C 9574   4.034   2.252   0.368 -0.3175 -0.1227  0.0928
  643TMC3     O 9575   3.966   2.335   0.431 -0.0005  0.8129 -0.4802
  643TMC3     H 9576   3.822   2.329   0.238 -0.5286  0.2698 -0.2936
  643TMC3    H1 9577   4.137   2.037   0.228  0.3176  0.8846  1.3542
  643TMC3    H2 9578   3.797   1.976  17.754 -0.1315 -0.7669  1.9788
  643TMC3    C7 9579   4.069   1.988  17.718  0.5361 -0.1533 -0.0379
  643TMC3    C8 9580   3.674   2.198   0.051 -0.2856 -1.0976  0.2004
  643TMC3    O1 9581   4.190   1.976  17.740  0.5069 -0.0550 -0.3418
  643TMC3    O2 9582   3.598   2.102   0.041  0.5887  0.0914 -0.2467
  644MPD2     C 9583   3.768   2.925   9.479 -0.2845 -0.1691  0.2160
  644MPD2    C1 9584   3.828   2.894   9.359  0.3261  0.0612  0.1193
  644MPD2    C2 9585   3.853   2.998   9.270 -0.5172 -0.2692 -0.1714
  644MPD2    C3 9586   3.820   3.125   9.319  0.8245  0.0540  0.2704
  644MPD2    C4 9587   3.769   3.154   9.443 -0.1426  0.2940  0.6693
  644MPD2    C5 9588   3.744   3.048   9.525  0.2126 -0.0806 -0.1975
  644MPD2     H 9589   3.902   2.990   9.174 -0.0493 -0.1265  0.0578
  644MPD2    H1 9590   3.729   3.250   9.472  1.2268  0.9609  0.3420
  644MPD2    H2 9591   3.754   2.835   9.538 -0.8641  0.1476  0.5594
  644MPD2    H3 9592   3.701   3.057   9.624 -2.4433 -0.0625 -1.3666
  644MPD2     N 9593   3.850   3.235   9.232 -0.2805  0.4260  0.1185
  644MPD2    H5 9594   3.872   3.213   9.136 -0.0285  0.9021  0.0656
  644MPD2    N1 9595   3.864   2.764   9.336  0.0461  0.1883 -0.0304
  644MPD2    H7 9596   3.868   2.700   9.414  2.0638  0.0375 -0.2617
  645TMC3    C1 9597   3.870   3.448   9.140 -0.1115 -0.3040  0.2858
  645TMC3    C2 9598   3.909   3.572   9.165 -1.2386  0.2509  0.3334
  645TMC3    C3 9599   3.851   3.679   9.096 -0.5356 -0.4607 -0.0367
  645TMC3    C4 9600   3.769   3.420   9.049 -0.2469 -0.1335  0.5405
  645TMC3    C5 9601   3.715   3.523   8.978 -0.0523  0.8609  0.0286
  645TMC3    C6 9602   3.752   3.651   9.002 -0.0262  0.1837  0.4082
  645TMC3     C 9603   3.859   3.370   9.258 -0.4947  0.9390 -0.3792
  645TMC3     O 9604   3.847   3.431   9.364 -0.0358  0.0857  0.4751
  645TMC3     H 9605   3.978   3.599   9.244 -0.4881  0.4937 -0.4079
  645TMC3    H1 9606   3.749   3.319   9.015  1.2580 -0.5046  0.7388
  645TMC3    H2 9607   3.705   3.732   8.947  2.2401 -0.3451 -2.2814
  645TMC3    C7 9608   3.613   3.509   8.881  0.2709  0.2957 -0.1060
  645TMC3    C8 9609   3.894   3.810   9.132  0.3219 -0.2147 -0.0857
  645TMC3    O1 9610   3.609   3.589   8.788  0.3455  0.1223  0.0573
  645TMC3    O2 9611   3.988   3.816   9.212 -0.6072 -0.7891  0.0314
  646MPD2     C 9612   2.870   1.811  14.568 -0.6870  0.6866  0.1146
  646MPD2    C1 9613   2.761   1.748  14.618 -0.0328  0.2973 -0.6932
  646MPD2    C2 9614   2.639   1.808  14.591 -0.5965  0.2045 -0.6017
  646MPD2    C3 9615   2.616   1.917  14.509 -0.5654 -0.2686 -0.2199
  646MPD2    C4 9616   2.728   1.970  14.455  0.3531 -0.1758  0.5979
  646MPD2    C5 9617   2.853   1.927  14.488  0.5658 -0.0939  0.0507
  646MPD2     H 9618   2.553   1.770  14.645  1.0369  1.1614  2.6425
  646MPD2    H1 9619   2.723   2.057  14.390  0.7770  0.6013  1.6055
  646MPD2    H2 9620   2.970   1.770  14.578 -0.4266  1.1168 -0.6692
  646MPD2    H3 9621   2.945   1.973  14.455  0.4542 -0.2511 -0.4808
  646MPD2     N 9622   2.481   1.958  14.472  0.0984  0.0436  0.5854
  646MPD2    H5 9623   2.407   1.907  14.520 -1.1189  0.5181 -0.8096
  646MPD2    N1 9624   2.785   1.629  14.686  0.4003 -0.5390 -0.1761
  646MPD2    H7 9625   2.874   1.579  14.686 -0.2289 -1.6235  1.4078
  647TMC3    C1 9626   2.738   1.451  14.838  0.5629  1.5744  0.6365
  647TMC3    C2 9627   2.653   1.413  14.939 -0.7925 -0.1478 -0.1567
  647TMC3    C3 9628   2.688   1.316  15.025  0.4739  0.5677 -0.1176
  647TMC3    C4 9629   2.871   1.407  14.832  0.1874 -0.3964  0.2203
  647TMC3    C5 9630   2.898   1.315  14.922 -0.2177 -0.0024  0.4974
  647TMC3    C6 9631   2.820   1.271  15.031 -0.1183  0.1170 -0.1516
  647TMC3     C 9632   2.695   1.572  14.770 -0.4379  0.1357  0.1774
  647TMC3     O 9633   2.580   1.610  14.783 -0.8066 -0.5104  0.4050
  647TMC3     H 9634   2.552   1.453  14.944 -0.9785 -0.6303 -0.1387
  647TMC3    H1 9635   2.944   1.439  14.759 -2.1081  1.6325 -1.1992
  647TMC3    H2 9636   2.852   1.199  15.105  1.0554 -0.1819 -0.9595
  647TMC3    C7 9637   3.036   1.301  14.946  0.4482  0.1639  0.4212
  647TMC3    C8 9638   2.609   1.287  15.138  0.0074  0.2863 -0.1112
  647TMC3    O1 9639   3.072   1.273  15.057  0.8104  0.4238 -0.5732
  647TMC3    O2 9640   2.552   1.375  15.204 -0.0124 -0.0832  0.2970
  648TMC3    C1 9641   2.053   3.872  15.926  0.0781  0.3083  0.5711
  648TMC3    C2 9642   2.116   3.767  15.861  0.4610  0.2208 -0.1249
  648TMC3    C3 9643   2.101   3.761  15.730  0.3519  0.0860  0.4100
  648TMC3    C4 9644   2.000   3.972  15.848 -0.0188  0.3290  0.4853
  648TMC3    C5 9645   1.998   3.963  15.712  0.7691 -0.7829 -0.3123
  648TMC3    C6 9646   2.044   3.855  15.648  0.1462 -0.9989  0.5428
  648TMC3     C 9647   2.058   3.891  16.068  0.2295 -0.3573 -0.2076
  648TMC3     O 9648   2.074   4.007  16.104 -0.0599  0.2830  0.4986
  648TMC3     H 9649   2.166   3.689  15.918  0.5580  0.4911  0.1657
  648TMC3    H1 9650   1.955   4.053  15.903 -1.0541 -0.4789  0.8151
  648TMC3    H2 9651   2.047   3.857  15.539 -0.1983 -0.5240  0.5453
  648TMC3    C7 9652   1.958   4.077  15.629 -0.6731  0.6564 -0.5965
  648TMC3    C8 9653   2.187   3.661  15.668 -0.4816  0.2252  0.4423
  648TMC3    O1 9654   1.953   4.072  15.507 -0.0023 -0.3647 -0.1973
  648TMC3    O2 9655   2.287   3.619  15.723 -0.1257  0.8320 -0.1037
  649TMC3    C1 9656   0.862   1.002  12.651  0.0346  0.0077 -1.0556
  649TMC3    C2 9657   0.890   1.132  12.695  0.0967 -0.2114 -0.0159
  649TMC3    C3 9658   0.837   1.179  12.813 -0.0142  0.0074  0.1382
  649TMC3    C4 9659   0.771   0.919  12.713 -0.5335  0.0518  0.1908
  649TMC3    C5 9660   0.726   0.976  12.830 -0.3036  0.5255 -0.5381
  649TMC3    C6 9661   0.756   1.098  12.878 -0.2646  0.2585 -0.0611
  649TMC3     C 9662   0.913   0.964  12.520  0.7578 -0.3356 -0.5893
  649TMC3     O 9663   0.923   1.051  12.434 -0.0687 -0.3251 -0.1959
  649TMC3     H 9664   0.944   1.201  12.631 -0.6992  1.4464  1.1246
  649TMC3    H1 9665   0.750   0.819  12.677 -1.5297  0.9426 -1.6812
  649TMC3    H2 9666   0.729   1.108  12.983 -1.5818  1.6479 -0.5348
  649TMC3    C7 9667   0.678   0.889  12.934 -0.1779  0.1337  0.5266
  649TMC3    C8 9668   0.834   1.320  12.843  0.3447 -0.2296  1.0201
  649TMC3    O1 9669   0.581   0.926  13.000 -0.4577  0.2813 -0.3478
  649TMC3    O2 9670   0.789   1.349  12.956 -0.6766 -0.0709 -0.0695
  650TMC3    C1 9671   3.210   2.166  12.570 -0.0937 -0.2625  0.4063
  650TMC3    C2 9672   3.128   2.276  12.595  0.6457 -0.0202 -0.0034
  650TMC3    C3 9673   3.115   2.372  12.496  0.8466  0.0377 -0.3685
  650TMC3    C4 9674   3.294   2.170  12.464  0.0950  0.1127 -0.0756
  650TMC3    C5 9675   3.284   2.273  12.374 -0.6975  0.4015  0.2394
  650TMC3    C6 9676   3.195   2.371  12.386 -0.6769 -0.1424  0.6311
  650TMC3     C 9677   3.213   2.057  12.672 -0.4631  0.3985  0.1548
  650TMC3     O 9678   3.162   2.076  12.780 -0.0737 -0.7310  0.0276
  650TMC3     H 9679   3.071   2.277  12.687 -0.3775  0.8444 -0.6557
  650TMC3    H1 9680   3.379   2.103  12.459 -0.5626 -0.9082  2.3346
  650TMC3    H2 9681   3.192   2.437  12.301  0.0565 -1.4099 -0.3894
  650TMC3    C7 9682   3.399   2.320  12.303 -0.3596  0.2295 -0.3439
  650TMC3    C8 9683   3.057   2.506  12.525 -0.4571 -0.0580 -0.5584
  650TMC3    O1 9684   3.452   2.237  12.230  0.0968  0.3345  0.0094
  650TMC3    O2 9685   3.105   2.601  12.472  0.0462 -0.3627 -0.0956
  651MPD2     C 9686   2.387   4.357  11.140 -0.0371 -0.3016 -0.2767
  651MPD2    C1 9687   2.360   4.385  11.006  0.1186  0.4050  0.5055
  651MPD2    C2 9688   2.446   4.449  10.931  0.1060  0.1337 -0.4258
  651MPD2    C3 9689   2.572   4.484  10.975 -0.8725 -0.4609 -0.2461
  651MPD2    C4 9690   2.602   4.452  11.109  0.3835 -0.1695 -0.2276
  651MPD2    C5 9691   2.508   4.394  11.186  0.1958 -0.2381  0.0282
  651MPD2     H 9692   2.415   4.462  10.828 -2.9805 -0.1529  0.4471
  651MPD2    H1 9693   2.704   4.460  11.146  0.8053 -2.6201 -0.8020
  651MPD2    H2 9694   2.321   4.306  11.209  0.0061  0.1186  0.0712
  651MPD2    H3 9695   2.528   4.389  11.293  0.3487 -2.7670 -0.1119
  651MPD2     N 9696   2.660   4.542  10.879 -0.1281  0.3419 -0.2665
  651MPD2    H5 9697   2.625   4.553  10.785 -2.9628  0.6494  0.8197
  651MPD2    N1 9698   2.244   4.349  10.942 -0.1865 -0.1235 -0.1378
  651MPD2    H7 9699   2.234   4.386  10.848  3.3823  2.3749  0.4933
  652TMC3    C1 9700   3.031   4.702  10.641  0.4480 -0.4710  0.6779
  652TMC3    C2 9701   2.970   4.671  10.763 -0.3894 -0.5158 -0.2888
  652TMC3    C3 9702   2.839   4.639  10.767 -0.0854 -0.0272  0.1750
  652TMC3    C4 9703   2.950   4.691  10.530 -0.4334 -0.1865  1.0058
  652TMC3    C5 9704   2.817   4.679  10.533  0.0671  0.0575 -0.2710
  652TMC3    C6 9705   2.764   4.636  10.651  0.4922 -0.0502 -0.5009
  652TMC3     C 9706   3.167   4.647  10.633  0.3265 -0.2516  0.0493
  652TMC3     O 9707   3.188   4.543  10.692  1.2176  0.2460 -0.2537
  652TMC3     H 9708   3.035   4.685  10.849 -0.4542 -0.4935 -0.2439
  652TMC3    H1 9709   2.998   4.683  10.433 -2.0004  1.0215  0.1320
  652TMC3    H2 9710   2.658   4.613  10.648  0.6271 -0.4452 -2.1231
  652TMC3    C7 9711   2.742   4.661  10.414 -0.6451 -0.5853  0.1605
  652TMC3    C8 9712   2.791   4.584  10.893  0.1030 -0.5612 -0.1154
  652TMC3    O1 9713   2.639   4.600  10.423  0.4769 -0.4405 -0.1419
  652TMC3    O2 9714   2.864   4.583  10.991  1.1480  0.4667  0.0381
  653MPD2     C 9715   1.105   3.922  17.489 -0.0412 -0.0835 -0.0918
  653MPD2    C1 9716   1.078   4.013  17.385  1.0039 -0.2562 -0.4113
  653MPD2    C2 9717   1.012   3.967  17.273 -0.0210  0.8571 -0.6194
  653MPD2    C3 9718   0.991   3.834  17.253 -0.2050 -0.4793 -0.1904
  653MPD2    C4 9719   1.033   3.743  17.350  0.2639 -0.5413  0.5531
  653MPD2    C5 9720   1.074   3.795  17.472 -0.6365 -0.2335 -0.5485
  653MPD2     H 9721   0.972   4.046  17.211  1.3093  1.2662 -0.9672
  653MPD2    H1 9722   0.999   3.640  17.353 -0.6035 -0.2534  0.7167
  653MPD2    H2 9723   1.161   3.949  17.577  0.7228  2.9694 -1.5110
  653MPD2    H3 9724   1.084   3.720  17.551 -0.4013  3.0995  2.6076
  653MPD2     N 9725   0.929   3.800  17.135 -0.2603  0.2731 -0.0824
  653MPD2    H5 9726   0.895   3.879  17.081  0.7296 -0.3975 -1.6921
  653MPD2    N1 9727   1.115   4.150  17.389 -0.9117  0.2858 -0.0763
  653MPD2    H7 9728   1.072   4.209  17.319  1.1131 -0.1776 -1.6978
  654TMC3    C1 9729   0.839   3.666  16.957  0.2817  0.3117  0.2437
  654TMC3    C2 9730   0.817   3.779  16.880 -1.4593  0.3888  0.0085
  654TMC3    C3 9731   0.758   3.756  16.758 -0.8109  0.1986  0.5884
  654TMC3    C4 9732   0.826   3.536  16.907 -0.4043 -0.7433  0.7559
  654TMC3    C5 9733   0.782   3.526  16.778 -0.5221  0.1604 -0.4205
  654TMC3    C6 9734   0.747   3.631  16.704 -0.0830  0.3582  0.4100
  654TMC3     C 9735   0.921   3.674  17.081  0.5736  0.1872  0.5281
  654TMC3     O 9736   0.970   3.571  17.118  0.4218  0.2708  0.2351
  654TMC3     H 9737   0.835   3.878  16.920 -0.3815 -0.5463  1.7873
  654TMC3    H1 9738   0.835   3.447  16.967 -0.4040 -0.9100  0.5089
  654TMC3    H2 9739   0.702   3.619  16.606  1.6294 -0.6790 -0.2464
  654TMC3    C7 9740   0.780   3.392  16.717  0.1115  0.3790 -0.2204
  654TMC3    C8 9741   0.683   3.873  16.703  0.2978 -0.2541  0.2254
  654TMC3    O1 9742   0.707   3.365  16.618  0.5664 -0.9216 -0.1906
  654TMC3    O2 9743   0.698   3.982  16.754 -0.0030  0.0853 -0.1996
  655MPD2     C 9744   2.426   3.887  15.555  0.2184 -0.1296 -0.1017
  655MPD2    C1 9745   2.356   3.996  15.505  0.0278 -0.4134 -0.0545
  655MPD2    C2 9746   2.326   3.999  15.368  0.4220 -0.3424 -0.7683
  655MPD2    C3 9747   2.361   3.894  15.278  0.0032  0.2703  0.7048
  655MPD2    C4 9748   2.431   3.791  15.339 -0.3262  0.1136  0.1353
  655MPD2    C5 9749   2.466   3.792  15.470 -0.2854  0.3026  0.2480
  655MPD2     H 9750   2.267   4.080  15.327  0.1144  0.2305  0.8138
  655MPD2    H1 9751   2.485   3.720  15.277  1.3192  1.5640 -0.0957
  655MPD2    H2 9752   2.457   3.887  15.658 -0.9618 -0.9882  0.2549
  655MPD2    H3 9753   2.534   3.717  15.509  1.0731  1.3449 -0.1318
  655MPD2     N 9754   2.326   3.886  15.141 -0.5362 -0.6783 -0.8676
  655MPD2    H5 9755   2.340   3.793  15.105 -0.1020 -0.6811 -0.6882
  655MPD2    N1 9756   2.304   4.101  15.583 -0.2080  0.7588  0.0261
  655MPD2    H7 9757   2.263   4.183  15.540 -1.6685  0.6365  1.2246
  656TMC3    C1 9758   2.268   4.255  15.743  0.5616 -0.5236 -0.3565
  656TMC3    C2 9759   2.205   4.272  15.862 -0.7121 -0.1045  0.4552
  656TMC3    C3 9760   2.140   4.394  15.882 -0.0219 -0.0374 -0.4879
  656TMC3    C4 9761   2.283   4.352  15.645 -0.0295  0.8979 -0.9157
  656TMC3    C5 9762   2.204   4.467  15.668  0.1176  0.6193  0.3962
  656TMC3    C6 9763   2.132   4.488  15.782 -0.4295  0.0319 -0.3649
  656TMC3     C 9764   2.326   4.126  15.714 -0.2357  0.3271 -0.9875
  656TMC3     O 9765   2.366   4.059  15.807  0.0143  0.0184  0.4843
  656TMC3     H 9766   2.203   4.195  15.938  0.0526  1.4141  2.0138
  656TMC3    H1 9767   2.349   4.335  15.561  1.7302 -1.2410  0.8773
  656TMC3    H2 9768   2.083   4.582  15.807 -1.3289 -1.1461  2.2370
  656TMC3    C7 9769   2.193   4.564  15.558  0.6451  0.5351  0.8810
  656TMC3    C8 9770   2.019   4.376  15.963  0.2808  1.0631  0.0477
  656TMC3    O1 9771   2.246   4.545  15.449 -0.0445  0.5842 -0.7853
  656TMC3    O2 9772   1.969   4.267  15.961  0.0657  0.1638  0.7089
  657TMC3    C1 9773   1.201   3.844  15.000  0.4997  0.1343  0.0693
  657TMC3    C2 9774   1.116   3.937  15.063 -0.0549 -0.4994  0.5381
  657TMC3    C3 9775   1.027   3.998  14.984 -0.0780  0.3767  0.5096
  657TMC3    C4 9776   1.192   3.820  14.865  0.4763  0.7107  0.3977
  657TMC3    C5 9777   1.100   3.889  14.782 -0.1530 -0.0618  0.7557
  657TMC3    C6 9778   1.033   3.992  14.847 -0.4407 -0.0660  0.3690
  657TMC3     C 9779   1.285   3.764  15.087 -0.1710 -0.0499 -0.7364
  657TMC3     O 9780   1.262   3.785  15.206  0.8005  0.4956  0.2917
  657TMC3     H 9781   1.121   3.969  15.167 -1.4391 -2.1331  1.1056
  657TMC3    H1 9782   1.257   3.749  14.815 -1.7292 -0.2033 -1.1560
  657TMC3    H2 9783   0.975   4.055  14.782 -0.8057  0.3069  1.0589
  657TMC3    C7 9784   1.085   3.853  14.641  0.1955  0.0561  0.3477
  657TMC3    C8 9785   0.921   4.085  15.035  0.5274 -0.0828  0.2185
  657TMC3    O1 9786   1.152   3.760  14.598  0.2758  0.3487  0.1271
  657TMC3    O2 9787   0.877   4.180  14.968  0.5569  0.3361 -0.0658
  658MPD2     C 9788   2.600   3.951  14.487  0.3474 -0.6416  0.2379
  658MPD2    C1 9789   2.468   3.938  14.455  0.1472 -1.0743  0.2935
  658MPD2    C2 9790   2.422   3.991  14.339 -0.6414  0.1241  0.0052
  658MPD2    C3 9791   2.500   4.067  14.256 -0.0730 -0.1397  0.8010
  658MPD2    C4 9792   2.628   4.093  14.293 -0.3506  0.0968 -0.6645
  658MPD2    C5 9793   2.673   4.035  14.406 -0.6727  0.3223  0.5284
  658MPD2     H 9794   2.322   3.965  14.303  0.0339 -2.2968 -0.1434
  658MPD2    H1 9795   2.691   4.168  14.248  0.8989  0.1992  1.2310
  658MPD2    H2 9796   2.637   3.918  14.584  3.6325  0.3573 -0.6810
  658MPD2    H3 9797   2.774   4.060  14.437 -0.7744  3.6032 -1.7734
  658MPD2     N 9798   2.447   4.123  14.135 -0.5330  0.8793 -0.5213
  658MPD2    H5 9799   2.351   4.094  14.121 -0.9658  2.3151 -0.5000
  658MPD2    N1 9800   2.376   3.862  14.535 -0.3871 -0.0546 -0.2728
  658MPD2    H7 9801   2.277   3.871  14.511 -0.6060 -3.5252 -0.8003
  659TMC3    C1 9802   2.292   3.812  14.749  0.3854  0.0809  0.1427
  659TMC3    C2 9803   2.315   3.847  14.880 -0.0417 -0.2185 -0.2856
  659TMC3    C3 9804   2.222   3.928  14.941 -0.0441  0.3970  0.2963
  659TMC3    C4 9805   2.167   3.842  14.693  0.0325 -0.3524  0.3695
  659TMC3    C5 9806   2.090   3.935  14.758 -0.3360 -0.3452 -0.1648
  659TMC3    C6 9807   2.118   3.984  14.878 -0.2565 -0.2944 -0.3616
  659TMC3     C 9808   2.407   3.803  14.662  0.1784  0.6239  0.3934
  659TMC3     O 9809   2.514   3.773  14.714 -0.1898  0.1605 -0.0244
  659TMC3     H 9810   2.412   3.821  14.920  0.1706  2.8962  1.1750
  659TMC3    H1 9811   2.134   3.794  14.601  2.4227 -0.2071 -0.5656
  659TMC3    H2 9812   2.065   4.064  14.929  2.4245  1.1258  0.1949
  659TMC3    C7 9813   1.958   3.958  14.718  0.3316 -0.1464 -0.1814
  659TMC3    C8 9814   2.251   3.981  15.073  0.2130 -0.1023  0.4924
  659TMC3    O1 9815   1.890   4.024  14.792  0.3540 -0.3545  0.5011
  659TMC3    O2 9816   2.210   4.092  15.104 -0.3592  0.8090  0.3128
  660MPD2     C 9817   0.401   3.193  12.805 -0.0037 -0.3497 -0.3392
  660MPD2    C1 9818   0.289   3.272  12.849 -0.5437 -0.0479 -0.1442
  660MPD2    C2 9819   0.215   3.226  12.955 -0.1815 -0.0271 -0.2755
  660MPD2    C3 9820   0.250   3.108  13.021  0.5768 -1.0514  1.0042
  660MPD2    C4 9821   0.362   3.039  12.978 -0.0426  0.0869  0.4117
  660MPD2    C5 9822   0.437   3.077  12.870  0.3634 -0.4214  0.2593
  660MPD2     H 9823   0.124   3.276  12.984 -0.4990 -0.5464 -0.3729
  660MPD2    H1 9824   0.405   2.952  13.027 -0.5222 -0.1152  0.4661
  660MPD2    H2 9825   0.467   3.216  12.722  0.8075 -1.3882  0.0162
  660MPD2    H3 9826   0.529   3.025  12.843  1.2711  1.0684  0.4553
  660MPD2     N 9827   0.190   3.054  13.136 -0.7795  0.6319  0.1511
  660MPD2    H5 9828   0.237   2.972  13.173  0.8201  1.4132 -0.1531
  660MPD2    N1 9829   0.255   3.377  12.763 -0.2653 -0.0840  0.8342
  660MPD2    H7 9830   0.303   3.375  12.673 -2.3456  0.0124 -0.2810
  661TMC3    C1 9831   0.097   3.522  12.663 -0.2134  0.1467 -0.1912
  661TMC3    C2 9832   0.160   3.502  12.545 -0.0763  0.3347  0.9167
  661TMC3    C3 9833   0.086   3.462  12.436 -0.1846 -0.1771  0.0637
  661TMC3    C4 9834   4.701   3.510  12.670 -0.3306  0.5526 -0.1666
  661TMC3    C5 9835   4.630   3.488  12.556 -0.4053  0.0071  0.6724
  661TMC3    C6 9836   4.691   3.457  12.439 -0.5795 -0.4196  0.5355
  661TMC3     C 9837   0.153   3.462  12.782  0.7412 -1.0531  0.5951
  661TMC3     O 9838   0.069   3.453  12.868 -0.4202 -0.0552 -0.3131
  661TMC3     H 9839   0.265   3.508  12.518  0.4021 -0.4050  2.6687
  661TMC3    H1 9840   4.647   3.516  12.764 -1.2846  0.2638 -0.6997
  661TMC3    H2 9841   4.624   3.442  12.356  0.2136  0.1369 -0.2000
  661TMC3    C7 9842   4.506   3.415  12.582 -0.6610  0.2591 -0.0189
  661TMC3    C8 9843   0.154   3.423  12.308 -0.7305  0.1012  0.6324
  661TMC3    O1 9844   4.449   3.469  12.673 -0.3878 -0.1703 -0.4094
  661TMC3    O2 9845   0.274   3.400  12.309 -0.2399  0.1778 -0.1449
  662MPD2     C 9846   0.710   2.508  16.838 -0.1419 -0.4424 -0.2942
  662MPD2    C1 9847   0.726   2.413  16.933 -0.1490 -0.8695 -0.7041
  662MPD2    C2 9848   0.711   2.442  17.070  0.0249  0.2119  0.2461
  662MPD2    C3 9849   0.667   2.569  17.106 -1.1634  0.1679 -0.1095
  662MPD2    C4 9850   0.651   2.660  17.006 -0.4044 -1.1386 -0.4905
  662MPD2    C5 9851   0.658   2.627  16.876 -0.0825 -0.0040  0.1931
  662MPD2     H 9852   0.717   2.363  17.144  0.0611 -1.2094 -1.2652
  662MPD2    H1 9853   0.621   2.762  17.028 -0.5192 -1.5431  1.1702
  662MPD2    H2 9854   0.733   2.485  16.735  0.6006  1.4502 -0.5532
  662MPD2    H3 9855   0.648   2.694  16.791 -1.5477  0.5728  0.8262
  662MPD2     N 9856   0.620   2.602  17.233  0.0098  0.1694  0.6974
  662MPD2    H5 9857   0.581   2.696  17.233 -1.9722 -0.6410 -1.5621
  662MPD2    N1 9858   0.743   2.275  16.912  0.3041  0.5187 -0.0157
  662MPD2    H7 9859   0.769   2.215  16.989 -0.8970  1.4833  1.1283
  663TMC3    C1 9860   0.788   2.084  16.785  0.4814  0.4433 -0.4817
  663TMC3    C2 9861   0.887   2.044  16.873  0.1124 -0.5931 -0.1473
  663TMC3    C3 9862   0.976   1.942  16.840 -0.3716 -0.4752 -0.1210
  663TMC3    C4 9863   0.771   2.019  16.665 -0.0650 -0.4608 -0.7199
  663TMC3    C5 9864   0.855   1.917  16.629  0.0150 -0.0042  0.3049
  663TMC3    C6 9865   0.959   1.890  16.713 -0.2062  0.6680 -0.1327
  663TMC3     C 9866   0.734   2.218  16.792 -0.8269  0.2521  0.7861
  663TMC3     O 9867   0.685   2.260  16.687 -0.5028 -0.2399  0.5817
  663TMC3     H 9868   0.928   2.109  16.950  0.8977 -1.0383 -0.1883
  663TMC3    H1 9869   0.689   2.043  16.599 -1.0284 -0.7102  0.3789
  663TMC3    H2 9870   1.022   1.809  16.677 -0.3679  0.4136  0.1567
  663TMC3    C7 9871   0.782   1.807  16.582  0.8576  0.5528 -0.0645
  663TMC3    C8 9872   0.972   1.826  16.931 -0.4891 -0.2393 -0.1636
  663TMC3    O1 9873   0.694   1.832  16.499 -0.6559  0.0292 -0.0774
  663TMC3    O2 9874   1.003   1.722  16.873 -0.1031  0.5078  0.3813
  664MPD2     C 9875   3.459   1.476   0.364  0.8350  0.7499  0.2126
  664MPD2    C1 9876   3.541   1.395   0.296 -0.4606  0.1775 -0.0405
  664MPD2    C2 9877   3.606   1.294   0.371  0.0173  0.6083 -0.0637
  664MPD2    C3 9878   3.597   1.293   0.508 -0.0536  0.1522 -0.1247
  664MPD2    C4 9879   3.514   1.382   0.571 -0.4455  0.3938 -0.0406
  664MPD2    C5 9880   3.438   1.462   0.501  0.1060 -0.5009  0.6898
  664MPD2     H 9881   3.663   1.219   0.318  0.9586  1.5964 -0.4491
  664MPD2    H1 9882   3.519   1.407   0.677  1.2576 -0.7784  0.1429
  664MPD2    H2 9883   3.401   1.554   0.315  0.5638  0.7157  0.4773
  664MPD2    H3 9884   3.373   1.523   0.563  0.0244 -0.7029  0.8036
  664MPD2     N 9885   3.698   1.228   0.572  0.3274  0.0220 -0.2612
  664MPD2    H5 9886   3.762   1.174   0.514 -0.4778 -0.2877 -0.8511
  664MPD2    N1 9887   3.567   1.418   0.158 -0.2743 -0.1020  0.0392
  664MPD2    H7 9888   3.635   1.356   0.117 -0.2541  0.9721 -1.5604
  665TMC3    C1 9889   3.852   1.167   0.733  0.9483 -0.3575  0.4886
  665TMC3    C2 9890   3.870   1.112   0.860  1.4549  0.3102 -0.8097
  665TMC3    C3 9891   4.003   1.085   0.887  0.8290  0.0936 -0.6160
  665TMC3    C4 9892   3.949   1.182   0.637  0.5788 -0.6573  0.3000
  665TMC3    C5 9893   4.080   1.155   0.665 -0.2674 -0.1907  0.2701
  665TMC3    C6 9894   4.107   1.102   0.796  0.3264  0.4157 -0.4617
  665TMC3     C 9895   3.719   1.208   0.706  0.6318 -0.7139  0.5569
  665TMC3     O 9896   3.643   1.233   0.796  0.3254  0.0069  0.5405
  665TMC3     H 9897   3.781   1.108   0.921  1.4582  1.7230 -0.7026
  665TMC3    H1 9898   3.936   1.234   0.542 -1.0171  0.0108  0.8893
  665TMC3    H2 9899   4.206   1.085   0.835  0.1857 -0.6508 -0.5704
  665TMC3    C7 9900   4.171   1.243   0.588 -0.1402 -0.0371 -0.4039
  665TMC3    C8 9901   4.034   1.044   1.024 -0.2785 -0.8250  0.6009
  665TMC3    O1 9902   4.146   1.263   0.473 -0.2243  0.3458  0.1985
  665TMC3    O2 9903   4.151   1.026   1.052  0.5565  0.0564  0.8095
  666TMC3    C1 9904   2.871   1.070  10.409  0.1199 -1.0162 -0.1166
  666TMC3    C2 9905   2.903   1.024  10.286 -0.1572 -0.4819  0.3930
  666TMC3    C3 9906   2.874   1.107  10.177 -0.4616  0.6929 -0.0157
  666TMC3    C4 9907   2.832   1.202  10.426 -0.4775  0.2321  0.0011
  666TMC3    C5 9908   2.809   1.279  10.311 -0.6202 -0.2747  0.0694
  666TMC3    C6 9909   2.829   1.234  10.182  0.1021  0.7353 -0.0428
  666TMC3     C 9910   2.857   0.971  10.512 -0.1939 -0.3274  0.0762
  666TMC3     O 9911   2.903   0.986  10.625 -0.5833  0.3579 -0.0796
  666TMC3     H 9912   2.954   0.928  10.283 -0.2083 -0.5385  1.4547
  666TMC3    H1 9913   2.814   1.229  10.529  0.3659 -1.2975  0.5502
  666TMC3    H2 9914   2.803   1.294  10.096 -0.2037  0.6593 -0.0059
  666TMC3    C7 9915   2.762   1.420  10.328  0.1426 -0.0699 -0.2604
  666TMC3    C8 9916   2.887   1.032  10.049 -0.1444  0.3203 -0.6697
  666TMC3    O1 9917   2.708   1.447  10.438  0.1311 -0.8150  0.3787
  666TMC3    O2 9918   2.880   0.909  10.064  0.1499 -0.2612  0.0756
  667MPD2     C 9919   4.737   1.083  14.557 -0.2527  0.0545  0.0158
  667MPD2    C1 9920   4.649   1.130  14.658 -0.1850 -0.2579  0.1810
  667MPD2    C2 9921   4.527   1.060  14.683  0.1824  0.7913  0.1593
  667MPD2    C3 9922   4.487   0.954  14.600 -1.0856  0.0430 -0.1596
  667MPD2    C4 9923   4.586   0.910  14.510 -0.3587 -0.2614 -1.0202
  667MPD2    C5 9924   4.706   0.976  14.479  0.1369  0.4378  0.4108
  667MPD2     H 9925   4.455   1.102  14.753  0.3622  2.7584 -0.8232
  667MPD2    H1 9926   4.564   0.827  14.444 -1.6103  0.1959 -1.1761
  667MPD2    H2 9927   0.098   1.119  14.541 -0.7835 -0.2716 -3.9586
  667MPD2    H3 9928   0.044   0.932  14.417 -0.2839  0.6589 -0.2768
  667MPD2     N 9929   4.367   0.879  14.610  0.5810  0.0503  0.6451
  667MPD2    H5 9930   4.373   0.782  14.580  1.9873 -0.3160  2.1265
  667MPD2    N1 9931   4.675   1.250  14.735 -0.0688 -0.0199  0.2091
  667MPD2    H7 9932   4.615   1.277  14.812  0.6865  1.3195  0.3228
  668TMC3    C1 9933   0.053   1.423  14.831  0.1786  0.0333 -0.2608
  668TMC3    C2 9934   0.107   1.548  14.813  0.5330 -0.2904  0.3738
  668TMC3    C3 9935   0.133   1.628  14.921 -0.2619  0.2892 -0.0124
  668TMC3    C4 9936   0.022   1.371  14.955  0.0183 -0.1778  0.2599
  668TMC3    C5 9937   0.049   1.449  15.060 -0.5017 -0.3987 -0.3935
  668TMC3    C6 9938   0.096   1.580  15.047  0.6618 -1.6614 -0.2175
  668TMC3     C 9939   0.040   1.337  14.715  0.0202 -0.3165 -0.4991
  668TMC3     O 9940   0.103   1.357  14.612 -0.5545  0.6472  0.1990
  668TMC3     H 9941   0.134   1.581  14.713 -0.4935  0.1219  0.2297
  668TMC3    H1 9942   4.738   1.266  14.965  1.1191 -0.3820  0.7285
  668TMC3    H2 9943   0.113   1.638  15.137 -1.7051 -0.3138 -0.6459
  668TMC3    C7 9944   0.006   1.409  15.195 -0.3334  0.5366  0.0989
  668TMC3    C8 9945   0.196   1.757  14.914 -0.4448 -0.3959  0.1676
  668TMC3    O1 9946   0.055   1.478  15.285 -0.6350 -0.0434 -0.1022
  668TMC3    O2 9947   0.176   1.817  15.019 -0.5012  0.2138  0.5198
  669TMC3    C1 9948   2.462   0.720  14.666 -0.0709  0.1345  0.4367
  669TMC3    C2 9949   2.385   0.710  14.554  0.3715 -0.2583  1.0433
  669TMC3    C3 9950   2.458   0.736  14.438 -0.1057 -0.5673  0.5680
  669TMC3    C4 9951   2.602   0.736  14.664 -0.6430  0.2176 -0.0941
  669TMC3    C5 9952   2.657   0.749  14.541 -0.5813 -0.3604 -0.0476
  669TMC3    C6 9953   2.591   0.754  14.430  0.6522 -0.2889 -0.0613
  669TMC3     C 9954   2.414   0.641  14.782  0.5221  0.2778 -0.2023
  669TMC3     O 9955   2.297   0.654  14.815  0.1649  0.4749 -0.4534
  669TMC3     H 9956   2.284   0.670  14.562 -1.1913  3.4947 -0.0254
  669TMC3    H1 9957   2.670   0.731  14.749  1.1935 -2.7787 -1.7283
  669TMC3    H2 9958   2.634   0.772  14.332  1.8210  1.1872  0.7146
  669TMC3    C7 9959   2.783   0.825  14.539 -0.6880  0.6931  0.3423
  669TMC3    C8 9960   2.380   0.753  14.318 -0.9459 -0.3052  0.3288
  669TMC3    O1 9961   2.784   0.916  14.624 -0.4349 -0.3097  0.6205
  669TMC3    O2 9962   2.263   0.708  14.318 -0.3486  0.1469  0.3926
  670MPD2     C 9963   0.697   3.442  13.612  0.2020  0.7499  0.0897
  670MPD2    C1 9964   0.774   3.508  13.704  0.1128  0.4109 -0.1004
  670MPD2    C2 9965   0.746   3.475  13.838  0.1302 -0.0705 -0.2251
  670MPD2    C3 9966   0.658   3.372  13.878  0.0634  0.4935  0.4243
  670MPD2    C4 9967   0.599   3.291  13.784  0.5192  0.6124 -0.4543
  670MPD2    C5 9968   0.618   3.333  13.654 -0.2448  0.0482 -0.1714
  670MPD2     H 9969   0.791   3.533  13.918 -1.1723  0.3488  0.2065
  670MPD2    H1 9970   0.527   3.216  13.817  0.4211  0.6949 -0.4809
  670MPD2    H2 9971   0.696   3.466  13.506 -1.2772 -0.4712 -0.1769
  670MPD2    H3 9972   0.561   3.279  13.580 -1.9780 -1.7968  2.5230
  670MPD2     N 9973   0.657   3.339  14.011 -0.5207 -0.0003 -0.8990
  670MPD2    H5 9974   0.706   3.401  14.076  0.2994 -0.3584 -1.1736
  670MPD2    N1 9975   0.872   3.605  13.672 -0.5718  0.2807 -0.0778
  670MPD2    H7 9976   0.918   3.647  13.753  0.4290 -3.2276  1.1495
  671TMC3    C1 9977   0.640   3.219  14.209 -0.6190 -0.4757  0.0103
  671TMC3    C2 9978   0.768   3.245  14.247 -0.6501 -0.1228 -0.4906
  671TMC3    C3 9979   0.821   3.187  14.362  0.2296 -0.5923 -0.3739
  671TMC3    C4 9980   0.559   3.146  14.292  0.0616  0.1390  0.1713
  671TMC3    C5 9981   0.609   3.089  14.403  0.4754  0.0278 -0.2251
  671TMC3    C6 9982   0.737   3.112  14.445  0.6461  0.3017  0.0152
  671TMC3     C 9983   0.597   3.228  14.073 -0.6689 -0.3506  0.0148
  671TMC3     O 9984   0.544   3.133  14.017  0.0134  1.1131  0.1529
  671TMC3     H 9985   0.836   3.284  14.173 -2.2337 -1.1528 -2.4941
  671TMC3    H1 9986   0.460   3.122  14.254 -0.0532 -0.0180  0.5712
  671TMC3    H2 9987   0.767   3.056  14.533  0.0985  0.7447  0.4833
  671TMC3    C7 9988   0.574   2.952  14.411 -0.1767  0.2270 -0.5130
  671TMC3    C8 9989   0.969   3.171  14.366  0.8085 -0.3652  1.0368
  671TMC3    O1 9990   0.590   2.897  14.523 -0.0945 -0.0556  0.0697
  671TMC3    O2 9991   1.023   3.199  14.259  0.3776 -0.5313 -0.3968
  672MPD2     C 9992   1.630   4.509   0.114 -0.1575  0.4903 -0.3395
  672MPD2    C1 9993   1.728   4.431   0.068  0.1335 -0.0824 -0.1753
  672MPD2    C2 9994   1.857   4.482   0.052  0.7046 -0.0546 -0.5629
  672MPD2    C3 9995   1.883   4.610   0.092 -0.5471 -0.0017 -0.5122
  672MPD2    C4 9996   1.779   4.696   0.129 -0.6260  0.2766 -0.7182
  672MPD2    C5 9997   1.655   4.641   0.138 -0.2400  0.5071  0.0811
  672MPD2     H 9998   1.934   4.417   0.011 -0.5668 -0.4938 -2.2686
  672MPD2    H1 9999   1.791   0.061   0.153  0.2030 -0.0404  0.3160
  672MPD2    H210000   1.528   4.476   0.127 -0.0313  1.1225  2.2620
  672MPD2    H310001   1.565   4.700   0.154  1.1159  1.7946  3.0210
  672MPD2     N10002   2.009   4.681   0.085  0.2089 -0.4625 -0.7738
  672MPD2    H510003   2.016   0.039   0.111 -0.0735 -0.5546 -0.3582
  672MPD2    N110004   1.709   4.290   0.031 -0.6387  0.3593 -0.6945
  672MPD2    H710005   1.787   4.228   0.012 -0.8943  0.9895 -3.6697
  673TMC3    C110006   1.581   4.087  17.756 -0.3703 -0.5335 -0.2892
  673TMC3    C210007   1.693   4.002   0.001  0.3163 -0.6469 -0.4466
  673TMC3    C310008   1.673   3.866   0.015 -0.3334 -0.0870 -0.0403
  673TMC3    C410009   1.456   4.030   0.017  0.0524  0.1893  0.3742
  673TMC3    C510010   1.444   3.894   0.025 -0.7928 -0.3149 -0.6642
  673TMC3    C610011   1.550   3.811   0.035  0.0316  0.3493 -0.4950
  673TMC3     C10012   1.583   4.228   0.030  0.4991 -0.4286 -0.4473
  673TMC3     O10013   1.475   4.275   0.062  0.2983  0.1750 -0.2109
  673TMC3     H10014   1.787   4.042  17.722 -0.0846  1.2315  0.5855
  673TMC3    H110015   1.361   4.081   0.007  1.8662  3.0228 -2.6242
  673TMC3    H210016   1.547   3.703   0.047  3.2393 -0.0717 -3.2786
  673TMC3    C710017   1.318   3.837   0.075 -0.9911 -0.0912  0.1912
  673TMC3    C810018   1.780   3.775  17.735  0.0223  0.4589 -0.8677
  673TMC3    O110019   1.303   3.717   0.069 -0.5637  0.0468 -0.0786
  673TMC3    O210020   1.746   3.666  17.688  0.4384 -0.4552 -0.0474
  674MPD2     C10021   0.962   2.055  17.539  0.0728 -0.2734  0.3114
  674MPD2    C110022   1.076   2.061  17.611  0.2308 -0.1784 -0.7329
  674MPD2    C210023   1.087   2.164  17.700  0.8186 -0.8498 -0.3204
  674MPD2    C310024   0.991   2.267  17.707  0.2403 -1.0683 -0.1187
  674MPD2    C410025   0.880   2.259  17.631 -0.2430 -0.1433  0.3170
  674MPD2    C510026   0.863   2.151  17.547  0.3349 -0.0900 -0.2452
  674MPD2     H10027   1.175   2.172   0.007 -0.1339 -0.0805  0.8965
  674MPD2    H110028   0.803   2.334  17.643  0.8905  1.3313 -1.6862
  674MPD2    H210029   0.955   1.985  17.456 -0.8990  0.6157 -0.3552
  674MPD2    H310030   0.782   2.150  17.476 -0.6977  0.8740  0.9353
  674MPD2     N10031   1.040   2.386   0.010 -0.9076  0.6324  0.0079
  674MPD2    H510032   1.118   2.368   0.073 -1.0691  1.2286  0.3797
  674MPD2    N110033   1.181   1.972  17.592  0.1413  0.2180 -0.6053
  674MPD2    H710034   1.156   1.887  17.542 -0.2989  0.5020 -0.8690
  675TMC3    C110035   1.358   2.133  17.609 -0.0688 -0.3707  0.7227
  675TMC3    C210036   1.433   2.196  17.706  0.0747 -0.2263  0.2375
  675TMC3    C310037   1.453   2.331  17.696  1.1517 -0.2427 -0.3728
  675TMC3    C410038   1.312   2.212  17.501 -0.7140  0.2556 -0.2424
  675TMC3    C510039   1.326   2.348  17.496 -0.6116 -0.4240 -0.5363
  675TMC3    C610040   1.400   2.406  17.591 -0.3156 -0.5199  0.5630
  675TMC3     C10041   1.317   1.997  17.614  0.2369 -0.8032  0.0262
  675TMC3     O10042   1.411   1.917  17.619  0.4282 -0.0373 -0.1106
  675TMC3     H10043   1.481   2.142   0.031 -1.7149  1.3618  2.3449
  675TMC3    H110044   1.255   2.165  17.422 -2.4109 -1.0825  1.8024
  675TMC3    H210045   1.401   2.514  17.596  0.7978 -0.5795  1.6865
  675TMC3    C710046   1.233   2.429  17.415  0.0397  0.5272 -1.0053
  675TMC3    C810047   1.422   2.392   0.063  0.3033 -0.3746 -0.7327
  675TMC3    O110048   1.144   2.372  17.354  0.7228  0.1773  0.4223
  675TMC3    O210049   1.348   2.329   0.137 -0.5730 -0.3253  0.0883
  676MPD2     C10050   3.178   2.264  11.019  0.2132 -0.3394  0.0238
  676MPD2    C110051   3.098   2.199  11.110 -0.2937 -0.5126 -0.5752
  676MPD2    C210052   3.051   2.075  11.078 -0.0062 -0.2616 -0.3954
  676MPD2    C310053   3.083   2.002  10.965  0.0050 -1.1751  0.3359
  676MPD2    C410054   3.152   2.075  10.874  0.6137  0.1160  0.8808
  676MPD2    C510055   3.197   2.202  10.901  0.0651 -0.3510  0.0461
  676MPD2     H10056   2.993   2.019  11.150  0.1998 -1.4422 -1.1368
  676MPD2    H110057   3.179   2.033  10.777  2.4371  0.5618  1.1851
  676MPD2    H210058   3.213   2.366  11.028 -0.4660  0.0007 -1.1683
  676MPD2    H310059   3.245   2.252  10.818 -0.6128  1.6863  0.9017
  676MPD2     N10060   3.042   1.870  10.946  0.3188  0.7445  0.1243
  676MPD2    H510061   2.983   1.826  11.015  1.1455  1.6801  1.4212
  676MPD2    N110062   3.070   2.246  11.239 -0.3462  0.0356  0.0304
  676MPD2    H710063   3.018   2.188  11.304  0.1901 -0.7946 -0.2836
  677TMC3    C110064   3.047   2.406  11.406 -0.3046 -0.0079  0.1112
  677TMC3    C210065   3.080   2.307  11.490 -0.3358 -0.2561  0.2929
  677TMC3    C310066   3.060   2.339  11.625 -0.1722  0.8968 -0.5899
  677TMC3    C410067   3.019   2.531  11.445  0.4582  0.2263  0.1113
  677TMC3    C510068   3.011   2.555  11.575  0.0786  0.1869  0.2534
  677TMC3    C610069   3.027   2.459  11.673 -0.1681 -0.1759  0.1735
  677TMC3     C10070   3.085   2.380  11.271 -0.3255 -0.2642  0.2122
  677TMC3     O10071   3.106   2.473  11.194 -0.0914 -0.0513  0.0740
  677TMC3     H10072   3.129   2.219  11.452 -0.7384  0.2836 -1.5029
  677TMC3    H110073   2.975   2.605  11.378 -1.8858 -2.3022 -1.1661
  677TMC3    H210074   3.057   2.491  11.772  0.6482  1.0361 -0.4633
  677TMC3    C710075   3.013   2.696  11.616  0.5359  0.4940 -0.3126
  677TMC3    C810076   3.094   2.234  11.721 -0.5598 -0.0581 -0.0196
  677TMC3    O110077   2.973   2.722  11.727 -0.1624 -0.0992 -0.4901
  677TMC3    O210078   3.182   2.148  11.711  0.0183  0.1166  0.3958
  678MPD2     C10079   1.064   2.402   1.112  0.0410  1.0685  0.6017
  678MPD2    C110080   1.032   2.365   0.979 -0.1180 -0.5322  0.3305
  678MPD2    C210081   0.901   2.347   0.947 -0.2895 -0.0501  0.5520
  678MPD2    C310082   0.793   2.368   1.034  0.3269  0.5483  0.1851
  678MPD2    C410083   0.825   2.397   1.165  0.2351  0.2784 -0.0220
  678MPD2    C510084   0.961   2.412   1.202 -0.4390 -0.3641 -0.2667
  678MPD2     H10085   0.883   2.314   0.845  0.0646  2.8766 -0.4633
  678MPD2    H110086   0.750   2.412   1.242  1.6773 -0.9535  1.6251
  678MPD2    H210087   1.166   2.424   1.142  0.3041 -0.6836  0.9686
  678MPD2    H310088   0.984   2.440   1.304 -0.3575 -1.4858  0.0133
  678MPD2     N10089   0.666   2.333   0.988  0.4780 -1.2476  0.2219
  678MPD2    H510090   0.658   2.274   0.905  0.9403 -0.0634 -0.6634
  678MPD2    N110091   1.131   2.357   0.874 -0.0109  0.2186  0.5083
  678MPD2    H710092   1.091   2.354   0.781 -0.2481 -0.1466  0.6210
  679TMC3    C110093   1.523   2.214   0.685  0.6507 -0.4012 -0.1488
  679TMC3    C210094   1.470   2.275   0.791  0.2458 -0.5197 -0.3482
  679TMC3    C310095   1.346   2.331   0.771  0.6610 -0.5603 -0.1906
  679TMC3    C410096   1.461   2.192   0.565 -0.2922 -0.2923 -0.1862
  679TMC3    C510097   1.337   2.236   0.554 -0.1062  0.4463 -0.1212
  679TMC3    C610098   1.273   2.313   0.653 -0.3472  0.2682  0.5321
  679TMC3     C10099   1.633   2.120   0.713  0.2625  0.3003  0.3114
  679TMC3     O10100   1.676   2.067   0.612  0.2103 -0.3668  0.4853
  679TMC3     H10101   1.522   2.279   0.886 -0.5858 -0.4772  0.1034
  679TMC3    H110102   1.506   2.138   0.483 -0.5848 -2.6460  1.2100
  679TMC3    H210103   1.182   2.368   0.630 -2.1597 -2.5546  1.0004
  679TMC3    C710104   1.252   2.189   0.444  0.2798 -0.1254  0.0489
  679TMC3    C810105   1.268   2.363   0.891  0.5478  0.3749 -0.1847
  679TMC3    O110106   1.138   2.237   0.431 -0.5301 -0.2343 -0.0534
  679TMC3    O210107   1.326   2.357   1.002  0.2605 -0.0702  0.7515
  680MPD2     C10108   0.135   1.003  13.656 -0.1646  0.2337 -0.8063
  680MPD2    C110109   0.210   0.911  13.725 -0.2186  0.6128 -0.3318
  680MPD2    C210110   0.308   0.958  13.816  0.7721 -0.3800 -0.1643
  680MPD2    C310111   0.326   1.091  13.842 -0.2335  0.4614 -0.3244
  680MPD2    C410112   0.254   1.183  13.769  0.5982  0.2689 -0.3623
  680MPD2    C510113   0.157   1.131  13.683 -0.3306  0.1467 -0.0224
  680MPD2     H10114   0.372   0.885  13.865 -0.2197 -0.7083  0.6312
  680MPD2    H110115   0.267   1.291  13.771 -1.1876  0.4729 -0.3682
  680MPD2    H210116   0.071   0.980  13.572 -0.1785 -1.1433 -0.4141
  680MPD2    H310117   0.113   1.202  13.614  0.8366  1.1990  0.3197
  680MPD2     N10118   0.430   1.145  13.922 -0.0998  0.2631  0.5199
  680MPD2    H510119   0.428   1.245  13.939 -1.6850  0.3467 -0.1961
  680MPD2    N110120   0.214   0.778  13.686  0.0423 -0.0393  0.2227
  680MPD2    H710121   0.298   0.735  13.723  0.4760  1.0883  0.5531
  681TMC3    C110122   0.211   0.585  13.567 -0.6359  0.6689 -0.1040
  681TMC3    C210123   0.229   0.503  13.675  0.6186  0.0064  0.5597
  681TMC3    C310124   0.301   0.388  13.650 -0.5216  0.1772 -0.1588
  681TMC3    C410125   0.258   0.556  13.443 -0.3307 -0.1390 -0.3863
  681TMC3    C510126   0.314   0.429  13.425 -0.4650  0.0992 -0.0585
  681TMC3    C610127   0.341   0.347  13.530  0.1295  0.0523 -0.0507
  681TMC3     C10128   0.156   0.716  13.583  0.3993  0.4051 -1.0778
  681TMC3     O10129   0.084   0.756  13.492 -0.1981 -0.2482  0.3615
  681TMC3     H10130   0.190   0.533  13.772  0.0200  0.4908  0.1681
  681TMC3    H110131   0.224   0.619  13.362  1.4303 -0.0279 -1.0252
  681TMC3    H210132   0.386   0.249  13.521 -0.1651 -0.1171  0.3504
  681TMC3    C710133   0.417   0.409  13.322  0.1758  0.3350  0.6780
  681TMC3    C810134   0.302   0.286  13.753  0.2624 -0.1790  0.4231
  681TMC3    O110135   0.448   0.288  13.308  0.0566 -0.3401 -0.0026
  681TMC3    O210136   0.296   0.172  13.709 -0.1371  0.9674  0.8481
  682MPD2     C10137   2.349   2.644  10.745 -0.4299 -0.7197  0.2292
  682MPD2    C110138   2.288   2.528  10.795  0.4225  0.3490  0.4604
  682MPD2    C210139   2.197   2.539  10.899 -0.3048 -0.1762 -0.1396
  682MPD2    C310140   2.170   2.662  10.954 -0.3386  0.9681 -0.2014
  682MPD2    C410141   2.250   2.770  10.918  0.0862 -0.3989 -1.1442
  682MPD2    C510142   2.334   2.764  10.810 -0.0885 -0.2661  0.0818
  682MPD2     H10143   2.132   2.458  10.930  0.9576 -1.2340 -0.2267
  682MPD2    H110144   2.230   2.869  10.959  1.9962  0.2014 -1.6463
  682MPD2    H210145   2.417   2.653  10.662  0.0400 -1.6985  0.5121
  682MPD2    H310146   2.394   2.849  10.779 -0.4772  0.9619  2.6689
  682MPD2     N10147   2.088   2.689  11.064 -0.3319  1.0564  0.6428
  682MPD2    H510148   2.108   2.771  11.120  1.6170  1.0040  0.0011
  682MPD2    N110149   2.326   2.394  10.758  0.2888  0.3396  0.1023
  682MPD2    H710150   2.276   2.314  10.797 -1.5990  0.3725 -2.2559
  683TMC3    C110151   2.110   2.573  11.436  0.2786  0.6890 -0.7325
  683TMC3    C210152   2.033   2.474  11.481  0.3533 -0.3167  0.7216
  683TMC3    C310153   1.921   2.447  11.405 -0.2346  0.1772  0.1676
  683TMC3    C410154   2.075   2.653  11.330 -0.2803 -0.0134 -0.1004
  683TMC3    C510155   1.974   2.609  11.250  0.4234  0.4719 -0.4118
  683TMC3    C610156   1.893   2.515  11.291 -0.7719  0.9552  0.2725
  683TMC3     C10157   2.211   2.619  11.531 -0.5169  0.4980 -0.1890
  683TMC3     O10158   2.206   2.741  11.545  0.0053  0.5303  0.0822
  683TMC3     H10159   2.068   2.420  11.568 -1.1825 -0.1318  1.4353
  683TMC3    H110160   2.143   2.732  11.302 -1.4475  1.5458  1.4603
  683TMC3    H210161   1.810   2.482  11.230  1.6078 -0.2262 -2.2625
  683TMC3    C710162   2.001   2.593  11.109  0.1268  0.4705  0.3699
  683TMC3    C810163   1.874   2.307  11.406  0.1708 -0.3109  0.0517
  683TMC3    O110164   1.940   2.510  11.044 -0.1454 -0.2144 -0.3740
  683TMC3    O210165   1.760   2.279  11.387 -0.5854  0.4023  1.0584
  684MPD2     C10166   0.790   1.086  16.325 -0.0311 -0.1903 -0.2068
  684MPD2    C110167   0.756   1.147  16.206 -0.1407 -0.2825 -0.0860
  684MPD2    C210168   0.780   1.286  16.196 -0.2198 -0.1083  0.0881
  684MPD2    C310169   0.852   1.353  16.294  0.6666 -0.0538 -0.1197
  684MPD2    C410170   0.896   1.287  16.401  0.7120 -0.4550  0.1464
  684MPD2    C510171   0.864   1.156  16.416  0.1063  0.3708  0.4744
  684MPD2     H10172   0.748   1.334  16.104  1.1664 -0.1765 -0.4295
  684MPD2    H110173   0.955   1.335  16.478  2.2855 -0.7381 -0.8773
  684MPD2    H210174   0.776   0.979  16.335  0.5992 -0.0743  1.9469
  684MPD2    H310175   0.894   1.101  16.505 -0.7313 -1.3670 -0.3071
  684MPD2     N10176   0.879   1.492  16.287 -0.0430  0.5291  0.0755
  684MPD2    H510177   0.954   1.515  16.351 -0.6829 -0.7208  1.2884
  684MPD2    N110178   0.714   1.084  16.090  0.2972 -0.1376  0.0508
  684MPD2    H710179   0.720   1.135  16.002  0.2605 -0.6208 -0.2325
  685TMC3    C110180   0.688   0.925  15.928  0.1451  0.0681 -0.4621
  685TMC3    C210181   0.615   1.010  15.857 -0.1289  0.4082  0.0484
  685TMC3    C310182   0.665   1.050  15.734 -0.6543 -0.9508  0.5511
  685TMC3    C410183   0.799   0.865  15.882  0.8437  0.3620 -0.7294
  685TMC3    C510184   0.839   0.890  15.753  0.4666 -0.9989  0.0992
  685TMC3    C610185   0.774   0.989  15.680  0.4553  0.4165  0.2792
  685TMC3     C10186   0.705   0.948  16.074 -0.7125 -0.3414  0.2348
  685TMC3     O10187   0.736   0.858  16.151  0.1747  0.3603 -0.4477
  685TMC3     H10188   0.535   1.062  15.909 -2.4884 -2.2505 -0.9168
  685TMC3    H110189   0.870   0.821  15.952 -0.4609  0.6877  0.7853
  685TMC3    H210190   0.806   1.016  15.580 -0.4857  0.3891 -0.0280
  685TMC3    C710191   0.977   0.859  15.727 -0.4860 -0.6568 -0.1721
  685TMC3    C810192   0.656   1.186  15.699  0.1093 -0.3119  0.1936
  685TMC3    O110193   1.009   0.744  15.751 -0.1962 -0.5262 -0.3121
  685TMC3    O210194   0.741   1.239  15.629  0.1127  0.3065 -0.1147
  686MPD2     C10195   2.136   1.369  15.173 -0.3178 -0.4127 -0.7450
  686MPD2    C110196   2.160   1.261  15.256 -0.0747  0.4835 -0.0072
  686MPD2    C210197   2.233   1.152  15.212 -0.0336 -0.0936  0.2518
  686MPD2    C310198   2.276   1.148  15.079  0.3262  0.4434 -0.4233
  686MPD2    C410199   2.248   1.250  14.998 -0.5200 -0.1239  0.1224
  686MPD2    C510200   2.185   1.361  15.040 -0.2080 -0.5798 -0.1649
  686MPD2     H10201   2.270   1.085  15.289  1.7499  0.5070 -0.0886
  686MPD2    H110202   2.294   1.256  14.900 -1.1921  0.2403 -0.1657
  686MPD2    H210203   2.098   1.463  15.210 -1.4090 -0.6577 -1.2688
  686MPD2    H310204   2.173   1.448  14.976 -1.6321 -0.7917 -0.2001
  686MPD2     N10205   2.343   1.031  15.021  0.1307 -0.4435 -0.8282
  686MPD2    H510206   2.366   1.054  14.925  0.2832  1.0165 -0.4459
  686MPD2    N110207   2.101   1.270  15.379  0.0339 -0.2007 -0.1608
  686MPD2    H710208   2.050   1.354  15.405 -1.6686 -0.8582 -1.3270
  687TMC3    C110209   2.329   0.857  15.197 -0.4911 -0.2628  0.5152
  687TMC3    C210210   2.193   0.842  15.195  0.0632 -0.1250  0.1188
  687TMC3    C310211   2.145   0.791  15.309 -0.7895  0.8599  0.0150
  687TMC3    C410212   2.413   0.826  15.304 -0.1610 -0.1449 -0.6932
  687TMC3    C510213   2.357   0.773  15.415 -0.7241  0.1164 -0.7709
  687TMC3    C610214   2.217   0.765  15.430 -0.2209 -0.7592  0.2042
  687TMC3     C10215   2.384   0.908  15.073  0.2958  0.2937 -0.0453
  687TMC3     O10216   2.469   0.837  15.014  0.5959  0.4928  0.4618
  687TMC3     H10217   2.140   0.856  15.102 -1.1822  0.1229  0.8694
  687TMC3    H110218   2.520   0.836  15.287  0.0568  1.0691  1.3954
  687TMC3    H210219   2.166   0.743  15.523 -0.4298 -0.3335  0.1867
  687TMC3    C710220   2.430   0.696  15.516 -0.2065  0.3761  0.4127
  687TMC3    C810221   2.002   0.806  15.327 -0.1135  0.2628  0.0052
  687TMC3    O110222   2.375   0.678  15.624  0.4001 -0.1866 -0.1220
  687TMC3    O210223   1.944   0.721  15.394  0.4532 -1.1880 -0.3904
  688MPD2     C10224   1.410   4.719  17.028  0.6899 -0.4874 -0.8045
  688MPD2    C110225   1.444   4.597  17.091  0.3042 -0.0043  0.2248
  688MPD2    C210226   1.550   4.516  17.047  0.2159 -0.0468  0.5756
  688MPD2    C310227   1.623   4.556  16.934 -0.2428 -0.1441 -0.3407
  688MPD2    C410228   1.586   4.677  16.871  0.2520 -0.3260  0.4289
  688MPD2    C510229   1.484   0.017  16.915 -0.6024 -0.4810  0.0494
  688MPD2     H10230   1.582   4.421  17.089 -0.9876 -0.3011  0.9152
  688MPD2    H110231   1.632   4.714  16.780 -1.2564 -2.4383 -1.2153
  688MPD2    H210232   1.327   0.043  17.056  0.6684 -0.3639 -1.1488
  688MPD2    H310233   1.480   0.112  16.864 -0.0576 -1.1798 -1.2954
  688MPD2     N10234   1.727   4.485  16.872 -0.7441  0.4074  0.4306
  688MPD2    H510235   1.762   4.532  16.788  0.5310  0.7970  1.1812
  688MPD2    N110236   1.382   4.549  17.209 -0.2577 -0.0227 -0.7340
  688MPD2    H710237   1.412   4.456  17.235 -1.5659 -0.2538 -0.0400
  689TMC3    C110238   1.249   4.540  17.393 -0.0448 -0.6932  0.7380
  689TMC3    C210239   1.262   4.596  17.517 -0.5234  0.6359 -0.0635
  689TMC3    C310240   1.230   4.531  17.621 -0.7966 -0.2142  0.4618
  689TMC3    C410241   1.210   4.419  17.376  0.0653  0.4660  0.0176
  689TMC3    C510242   1.185   4.348  17.493 -0.1493  0.6592 -0.8009
  689TMC3    C610243   1.196   4.402  17.621  0.3069  0.3477  0.0516
  689TMC3     C10244   1.294   4.621  17.284 -0.2366 -0.8519  0.1258
  689TMC3     O10245   1.257   4.735  17.274  1.1413  1.1034  0.4503
  689TMC3     H10246   1.299   4.698  17.528  0.0349  0.5750 -1.4138
  689TMC3    H110247   1.214   4.365  17.282  1.4749 -0.0887  0.3884
  689TMC3    H210248   1.202   4.338  17.708  1.2599 -0.7276 -0.7925
  689TMC3    C710249   1.188   4.204  17.490  0.4144 -0.0477 -0.0488
  689TMC3    C810250   1.278   4.585  17.748 -0.4079 -0.2198  0.2372
  689TMC3    O110251   1.235   4.156  17.594 -0.6559  0.4227  0.2550
  689TMC3    O210252   1.363   4.673   0.004 -0.3530  0.1128  0.0262
  690MPD2     C10253   3.019   1.715  15.624  0.0611  0.2882 -0.5028
  690MPD2    C110254   3.125   1.716  15.709 -0.1267 -0.6070  0.5735
  690MPD2    C210255   3.254   1.726  15.656  0.5930  0.4108 -0.1839
  690MPD2    C310256   3.269   1.755  15.518 -0.4498  0.3930  0.1527
  690MPD2    C410257   3.152   1.764  15.437 -0.2116  0.5417  0.2707
  690MPD2    C510258   3.028   1.730  15.487  0.1143  0.5448 -0.2929
  690MPD2     H10259   3.340   1.721  15.722  0.3279  0.6014  0.1757
  690MPD2    H110260   3.159   1.793  15.332 -0.6539 -0.8366 -0.1416
  690MPD2    H210261   2.921   1.713  15.670  0.1640  2.1764 -0.1714
  690MPD2    H310262   2.944   1.750  15.421  1.2036  3.1919 -0.9015
  690MPD2     N10263   3.402   1.773  15.467 -0.5587 -0.1187 -0.1955
  690MPD2    H510264   3.474   1.768  15.539  0.0960 -3.1270 -1.0523
  690MPD2    N110265   3.116   1.694  15.844  0.2270 -0.1922  0.0514
  690MPD2    H710266   3.205   1.683  15.893  0.8164  0.0575 -0.9574
  691TMC3    C110267   3.028   1.694  16.065  0.2634 -0.5176  0.0081
  691TMC3    C210268   2.944   1.770  16.137  0.5125  0.7708  0.7154
  691TMC3    C310269   2.915   1.735  16.269 -0.1251  0.4088  0.6740
  691TMC3    C410270   3.090   1.581  16.110 -0.3560 -0.3139 -0.0490
  691TMC3    C510271   3.063   1.554  16.240 -0.3291  0.3757 -0.5846
  691TMC3    C610272   2.976   1.626  16.314  0.2825  0.0203  0.3961
  691TMC3     C10273   3.006   1.713  15.920  0.8450 -0.2991  0.3734
  691TMC3     O10274   2.895   1.748  15.883 -0.0526 -0.1458 -0.3179
  691TMC3     H10275   2.912   1.864  16.095 -1.3002  1.1538  2.8988
  691TMC3    H110276   3.159   1.531  16.044  0.7129  0.5738  0.4111
  691TMC3    H210277   2.955   1.590  16.415  2.7803  1.3946  1.4181
  691TMC3    C710278   3.103   1.427  16.294  0.0171 -0.0594  0.5909
  691TMC3    C810279   2.765   1.749  16.301 -0.0807 -0.0066  0.3285
  691TMC3    O110280   3.149   1.417  16.409 -0.3899 -0.4251  0.5741
  691TMC3    O210281   2.728   1.668  16.385  0.1487  0.0919 -0.2883
  692TMC3    C110282   0.417   2.863  15.846 -0.1256 -1.3221  0.1215
  692TMC3    C210283   0.544   2.896  15.866 -0.3763  0.1558  0.0664
  692TMC3    C310284   0.645   2.805  15.855  0.4269  0.4805 -0.0367
  692TMC3    C410285   0.384   2.738  15.795  0.0431  0.7399  0.6407
  692TMC3    C510286   0.486   2.653  15.770 -0.7861 -0.8354 -0.0855
  692TMC3    C610287   0.614   2.682  15.803  0.3482  0.1984  0.3231
  692TMC3     C10288   0.313   2.953  15.894  0.0967 -0.6505 -0.8267
  692TMC3     O10289   0.196   2.919  15.869 -0.5697 -0.0448  0.2576
  692TMC3     H10290   0.562   2.979  15.933  0.0893  0.1378 -0.0322
  692TMC3    H110291   0.283   2.721  15.761  0.3204 -0.7624  0.6030
  692TMC3    H210292   0.694   2.618  15.767 -0.4040 -0.2073 -0.6153
  692TMC3    C710293   0.447   2.513  15.730  0.0807 -0.2461 -0.2893
  692TMC3    C810294   0.745   2.803  15.956 -0.7798  0.3987 -0.8184
  692TMC3    O110295   0.339   2.499  15.670  0.0296  0.4621 -0.3545
  692TMC3    O210296   0.783   2.693  15.993 -0.1468 -0.6782  0.1563
  693MPD2     C10297   4.548   1.447  10.721 -0.5309 -0.5298 -0.8586
  693MPD2    C110298   4.502   1.322  10.713  0.1637 -0.7536 -0.0178
  693MPD2    C210299   4.592   1.217  10.715  0.0510 -0.2787  0.0017
  693MPD2    C310300   4.726   1.238  10.750  0.3862  0.0328 -0.0700
  693MPD2    C410301   0.026   1.372  10.764 -0.2456  0.5990  0.3330
  693MPD2    C510302   4.680   1.472  10.736 -0.7774  0.0517 -0.4387
  693MPD2     H10303   4.556   1.116  10.696  1.8968 -0.6277 -1.6935
  693MPD2    H110304   0.130   1.396  10.782 -0.3053 -1.1067  2.9605
  693MPD2    H210305   4.486   1.536  10.720 -2.0424 -1.6086 -2.4639
  693MPD2    H310306   4.710   1.577  10.739  1.4090 -0.5088 -2.3131
  693MPD2     N10307   0.082   1.133  10.779  0.0714  0.2042 -0.8524
  693MPD2    H510308   0.177   1.165  10.797 -0.7226  1.9271  0.3654
  693MPD2    N110309   4.363   1.306  10.704 -0.5130  0.5349 -0.2757
  693MPD2    H710310   4.309   1.392  10.710 -0.9561  0.2504 -0.2144
  694TMC3    C110311   4.163   1.192  10.736  0.8661 -0.7192  0.6809
  694TMC3    C210312   4.078   1.110  10.673 -0.6449 -0.7197  0.2435
  694TMC3    C310313   3.973   1.048  10.741 -0.0512  0.5546 -0.7433
  694TMC3    C410314   4.150   1.216  10.869  1.0382 -0.0781 -0.0618
  694TMC3    C510315   4.048   1.149  10.935  1.0795  0.0967  0.1197
  694TMC3    C610316   3.959   1.066  10.875 -0.5790 -0.0507 -0.5399
  694TMC3     C10317   4.297   1.191  10.675 -0.0900 -0.3553  0.6819
  694TMC3     O10318   4.341   1.104  10.605  0.4038 -0.0980  0.0884
  694TMC3     H10319   4.100   1.094  10.568 -0.1165  0.6790  0.1388
  694TMC3    H110320   4.211   1.286  10.925  1.7571  0.4992 -1.5593
  694TMC3    H210321   3.897   0.997  10.931 -1.4362  0.3963 -0.9352
  694TMC3    C710322   4.046   1.165  11.079  0.1450 -0.5665 -0.4242
  694TMC3    C810323   3.894   0.947  10.678  0.4293  0.4324  0.0197
  694TMC3    O110324   4.056   1.284  11.110  0.6225 -0.6090 -0.1703
  694TMC3    O210325   3.830   0.878  10.757  0.1985  0.3440 -0.3509
  695MPD2     C10326   1.280   3.087  13.558  0.1203  0.5684 -0.0044
  695MPD2    C110327   1.287   2.981  13.637  0.3353  0.3530  0.5546
  695MPD2    C210328   1.191   2.877  13.614 -0.0704  0.3877 -0.0669
  695MPD2    C310329   1.080   2.883  13.528  0.2461 -0.0879 -0.4667
  695MPD2    C410330   1.087   2.994  13.444 -0.0753 -0.4730  0.2993
  695MPD2    C510331   1.183   3.087  13.462  0.8210  0.1337  0.3734
  695MPD2     H10332   1.199   2.801  13.691 -0.1684  0.3241 -0.1194
  695MPD2    H110333   1.023   3.024  13.361  0.2886  0.9603  0.5274
  695MPD2    H210334   1.341   3.175  13.574  0.3232  0.6230 -1.0621
  695MPD2    H310335   1.189   3.172  13.395  2.0553 -0.4902 -0.3013
  695MPD2     N10336   0.987   2.781  13.515  0.0195  0.4794  0.6167
  695MPD2    H510337   1.006   2.699  13.570  0.0812  0.6056  0.7815
  695MPD2    N110338   1.383   2.964  13.735 -0.1586 -0.2687  0.0992
  695MPD2    H710339   1.393   2.871  13.775 -0.0722 -1.1124 -1.8755
  696TMC3    C110340   0.778   2.673  13.488  0.4478  0.0273  0.7120
  696TMC3    C210341   0.781   2.627  13.610  0.5061  0.8089  0.1220
  696TMC3    C310342   0.670   2.635  13.689  0.9156  0.3372 -0.4175
  696TMC3    C410343   0.659   2.677  13.416  0.5156 -0.1737  0.0704
  696TMC3    C510344   0.548   2.687  13.496  0.2611  0.5194 -0.1780
  696TMC3    C610345   0.554   2.683  13.633 -0.1002 -0.5753  0.3225
  696TMC3     C10346   0.870   2.789  13.444 -0.6192  0.2142  0.1618
  696TMC3     O10347   0.818   2.889  13.388  0.0407  0.1541 -0.2209
  696TMC3     H10348   0.876   2.619  13.662  1.9788 -2.0555 -2.9808
  696TMC3    H110349   0.654   2.736  13.326  0.0192 -0.3960 -0.0482
  696TMC3    H210350   0.475   2.690  13.707 -1.6202 -0.0155 -1.3867
  696TMC3    C710351   0.465   2.796  13.451  0.2814 -0.0106  0.2214
  696TMC3    C810352   0.687   2.674  13.828  0.4647  0.2547 -0.0033
  696TMC3    O110353   0.429   2.793  13.334  0.0816  0.3007  0.1835
  696TMC3    O210354   0.760   2.768  13.848  0.2942  0.1296 -0.3419
  697MPD2     C10355   4.519   4.570  15.685 -0.1308 -0.5889  0.1251
  697MPD2    C110356   4.580   4.519  15.571  0.1862  0.1732 -0.1454
  697MPD2    C210357   4.655   4.597  15.485  0.4484 -0.2491 -0.0980
  697MPD2    C310358   4.689   4.727  15.518 -0.0605 -0.3218 -0.1772
  697MPD2    C410359   4.632   0.032  15.631 -0.1307  0.8869  0.5615
  697MPD2    C510360   4.542   4.701  15.711  0.5358  1.0233 -0.2982
  697MPD2     H10361   4.689   4.548  15.395  3.9852  2.0201  0.0176
  697MPD2    H110362   4.650   0.134  15.663  1.2449  1.4919 -2.1721
  697MPD2    H210363   4.452   4.503  15.737  1.2351 -1.4079  0.8387
  697MPD2    H310364   4.481   0.009  15.787 -1.6499 -0.5373 -1.0723
  697MPD2     N10365   0.031   0.068  15.434 -0.3923  0.1341 -0.6217
  697MPD2    H510366   0.083   0.028  15.356  0.1775  0.1298 -0.2407
  697MPD2    N110367   4.581   4.384  15.546 -0.2013 -0.1829  0.2538
  697MPD2    H710368   4.614   4.351  15.456 -1.5452  0.0898 -0.3352
  698TMC3    C110369   0.159   0.249  15.351  1.3459  0.0311  0.5922
  698TMC3    C210370   0.231   0.360  15.374  1.4964  0.5739 -0.2269
  698TMC3    C310371   0.333   0.389  15.284 -1.0044 -0.1033 -0.5852
  698TMC3    C410372   0.191   0.165  15.252  0.3825 -0.2375 -0.4154
  698TMC3    C510373   0.291   0.196  15.161  0.8090  0.1027  0.4501
  698TMC3    C610374   0.364   0.312  15.178 -1.0654  0.2237  0.1246
  698TMC3     C10375   0.069   0.201  15.453 -0.1123  0.7961  0.2468
  698TMC3     O10376   0.023   0.281  15.533 -0.0234 -0.1273  0.3725
  698TMC3     H10377   0.218   0.423  15.462 -0.1114  3.3321 -2.4491
  698TMC3    H110378   0.131   0.080  15.224  0.3476 -0.3370 -0.0320
  698TMC3    H210379   0.436   0.338  15.101  1.0826 -3.0750  1.0020
  698TMC3    C710380   0.312   0.117  15.043 -0.1133  0.1341  0.2758
  698TMC3    C810381   0.382   0.524  15.285  0.1073 -0.1815  0.2824
  698TMC3    O110382   0.366   0.175  14.948  0.1591 -0.0408 -0.7145
  698TMC3    O210383   0.321   0.600  15.359  0.1965 -0.2557 -0.1401
  699TMC3    C110384   0.060   3.045  13.326 -0.6566 -0.2688  0.1067
  699TMC3    C210385   0.086   2.909  13.347  0.6993  0.1318  0.4256
  699TMC3    C310386   0.053   2.852  13.466 -0.6385  0.3849  0.1867
  699TMC3    C410387   4.728   3.116  13.423  0.3779 -0.0500  0.2065
  699TMC3    C510388   4.680   3.047  13.533 -0.4583 -0.4638 -0.2593
  699TMC3    C610389   4.708   2.910  13.557  0.4537 -0.3762 -0.3040
  699TMC3     C10390   0.080   3.109  13.194 -0.3780 -0.6670 -0.2250
  699TMC3     O10391   0.007   3.209  13.168 -0.4760 -0.3627  0.0180
  699TMC3     H10392   0.120   2.850  13.263 -1.0748 -0.6505  0.2506
  699TMC3    H110393   4.711   3.221  13.402  0.6640 -0.3491 -1.5783
  699TMC3    H210394   4.670   2.864  13.647 -0.1883  1.8253  0.5639
  699TMC3    C710395   4.596   3.112  13.632  0.2978  0.2913  0.3152
  699TMC3    C810396   0.050   2.710  13.482 -0.0142 -0.4045 -0.2298
  699TMC3    O110397   4.562   3.048  13.731 -0.3595 -0.4719  0.5713
  699TMC3    O210398   4.702   2.667  13.553 -0.7584  0.3507  0.2400
  700TMC3    C110399   4.168   0.120  17.522 -0.0270  1.0085 -0.1482
  700TMC3    C210400   4.249   0.036  17.450  0.2406 -0.2699  0.3617
  700TMC3    C310401   4.383   0.017  17.496 -0.0388 -0.4815  0.3497
  700TMC3    C410402   4.218   0.217  17.597  0.0957 -0.0233  0.4087
  700TMC3    C510403   4.349   0.207  17.628  0.3552  0.0171  0.1894
  700TMC3    C610404   4.431   0.110  17.588 -0.1796  0.8414 -0.1207
  700TMC3     C10405   4.087   0.184  17.425 -0.0705 -0.4587 -0.4280
  700TMC3     O10406   4.002   0.116  17.368  0.4308  0.2395 -0.3617
  700TMC3     H10407   4.210   4.718  17.367  0.5387 -1.9607  1.3753
  700TMC3    H110408   4.155   0.297  17.634 -1.5738 -0.2837 -1.8610
  700TMC3    H210409   4.536   0.107  17.616 -0.0973 -1.0553 -0.6964
  700TMC3    C710410   4.414   0.334  17.669 -0.2632 -0.0733  0.0317
  700TMC3    C810411   4.476   4.670  17.418  0.2020 -1.3164  0.0902
  700TMC3    O110412   4.538   0.336  17.665 -0.1114 -0.1623  0.0487
  700TMC3    O210413   4.432   4.616  17.317 -0.4805  0.0334 -0.2740
  701TMC3    C110414   4.307   3.578  15.284 -0.6956 -0.2971  0.2680
  701TMC3    C210415   4.301   3.565  15.151 -0.6126 -0.3533 -0.7428
  701TMC3    C310416   4.266   3.671  15.070 -0.5776 -0.3242 -0.9302
  701TMC3    C410417   4.270   3.696  15.346 -0.6926 -0.2375 -0.2417
  701TMC3    C510418   4.230   3.797  15.259 -0.4653 -0.7000 -0.7884
  701TMC3    C610419   4.220   3.784  15.123 -0.1807 -0.0523  0.5509
  701TMC3     C10420   4.263   3.459  15.350  0.2716 -0.9188 -0.3670
  701TMC3     O10421   4.345   3.368  15.360  0.3281  0.0484 -0.4868
  701TMC3     H10422   4.346   3.483  15.095  0.6685  0.7262 -1.2909
  701TMC3    H110423   4.272   3.719  15.452 -1.5302 -0.8429 -0.0986
  701TMC3    H210424   4.180   3.862  15.060 -0.5194  1.5245  2.7313
  701TMC3    C710425   4.224   3.939  15.299  0.4026  0.5657 -0.1468
  701TMC3    C810426   4.246   3.647  14.931  0.2482 -0.0910 -0.0990
  701TMC3    O110427   4.231   4.021  15.213  0.3711 -1.3239  0.4716
  701TMC3    O210428   4.331   3.583  14.869 -0.0850  0.2532 -0.2528
  702MPD2     C10429   3.266   1.338  10.422  0.0838  0.2349  0.2586
  702MPD2    C110430   3.159   1.430  10.452  0.7346 -0.3698  0.6654
  702MPD2    C210431   3.156   1.546  10.382  0.5050 -0.2099  0.5070
  702MPD2    C310432   3.243   1.567  10.275  0.3559  0.5593  0.3905
  702MPD2    C410433   3.340   1.479  10.239 -0.4997 -0.1938  0.4331
  702MPD2    C510434   3.348   1.366  10.319 -0.0777 -0.1076 -0.8328
  702MPD2     H10435   3.082   1.618  10.415  0.2865  0.0406 -0.5131
  702MPD2    H110436   3.410   1.485  10.156 -0.3875  2.0477  0.6909
  702MPD2    H210437   3.287   1.252  10.485 -1.1593  0.9991  1.7123
  702MPD2    H310438   3.421   1.290  10.294  0.9235  0.2178  1.0876
  702MPD2     N10439   3.239   1.696  10.214  0.0925 -0.3347 -0.2418
  702MPD2    H510440   3.293   1.720  10.132  0.1775  0.0336 -0.0783
  702MPD2    N110441   3.078   1.427  10.567  0.1625  0.9856 -0.6367
  702MPD2    H710442   3.029   1.514  10.588 -1.2449  0.4019 -1.5393
  703TMC3    C110443   3.240   1.916  10.198 -0.1701 -0.2313 -0.7154
  703TMC3    C210444   3.181   2.038  10.226  0.2084 -0.3595  0.1266
  703TMC3    C310445   3.237   2.160  10.185  0.5361  0.5366 -0.5376
  703TMC3    C410446   3.358   1.909  10.139 -0.1194  0.2013 -0.0866
  703TMC3    C510447   3.416   2.029  10.101 -0.1831 -0.0145 -0.2635
  703TMC3    C610448   3.356   2.151  10.111 -0.4800 -0.6827 -0.0696
  703TMC3     C10449   3.184   1.811  10.273 -0.0084  0.7175 -0.4578
  703TMC3     O10450   3.138   1.834  10.383 -0.6839  0.0691  0.4020
  703TMC3     H10451   3.086   2.047  10.278  1.7672  2.3462  2.4878
  703TMC3    H110452   3.417   1.819  10.137 -0.9359 -0.3096 -1.2911
  703TMC3    H210453   3.397   2.241  10.065 -1.2605  0.0981  0.7682
  703TMC3    C710454   3.556   2.034  10.153  0.5479 -0.1621 -0.8421
  703TMC3    C810455   3.239   2.268  10.286 -0.3436  0.0236 -0.0767
  703TMC3    O110456   3.600   1.941  10.221 -0.6151  0.3707  0.2641
  703TMC3    O210457   3.352   2.320  10.276 -0.4008  0.2532  0.0082
  704TMC3    C110458   1.346   4.649  12.752 -0.0081  0.1519  0.1871
  704TMC3    C210459   1.451   4.639  12.672  0.1192 -0.6458  0.3108
  704TMC3    C310460   1.549   4.547  12.681 -0.0224 -0.2620 -0.5099
  704TMC3    C410461   1.338   4.568  12.859  0.5026  0.1903 -0.1920
  704TMC3    C510462   1.433   4.469  12.871 -0.0323  0.0309  0.6507
  704TMC3    C610463   1.534   4.457  12.788 -0.0011  0.1031 -0.3817
  704TMC3     C10464   1.221   4.688  12.682 -0.5532  0.4352  0.1745
  704TMC3     O10465   1.129   4.710  12.757  0.0948  0.0736  0.5180
  704TMC3     H10466   1.457   4.707  12.587 -0.7085 -0.9148  0.0304
  704TMC3    H110467   1.240   4.550  12.901  1.1158 -0.1435  1.0995
  704TMC3    H210468   1.595   4.368  12.787  1.5845  1.1980 -0.7610
  704TMC3    C710469   1.397   4.339  12.933 -0.1072  0.6754  0.2686
  704TMC3    C810470   1.601   4.496  12.561 -0.8214  0.0529 -0.3607
  704TMC3    O110471   1.429   4.239  12.874 -0.5383 -0.7291  0.5400
  704TMC3    O210472   1.521   4.507  12.469  0.0534  0.4636 -0.4684
  705MPD2     C10473   0.756   2.362  16.278 -0.5251 -0.5941  0.5826
  705MPD2    C110474   0.810   2.464  16.353  0.0156  0.2699  0.2269
  705MPD2    C210475   0.722   2.534  16.440 -0.4224  0.7089  0.7882
  705MPD2    C310476   0.589   2.496  16.445  0.7101  0.0034  0.2536
  705MPD2    C410477   0.539   2.391  16.373 -0.3338 -0.3324 -0.4718
  705MPD2    C510478   0.624   2.319  16.299 -0.2866  0.8787 -0.9147
  705MPD2     H10479   0.752   2.610  16.511  1.8774  1.4360 -0.9821
  705MPD2    H110480   0.432   2.373  16.365 -0.5616  1.4990 -1.4704
  705MPD2    H210481   0.817   2.305  16.209  0.3879  0.7725  0.2517
  705MPD2    H310482   0.580   2.248  16.230 -1.0851  0.9275 -0.4528
  705MPD2     N10483   0.495   2.574  16.508  0.1819  0.7119  0.5782
  705MPD2    H510484   0.399   2.539  16.509  0.7004 -0.7238 -0.2394
  705MPD2    N110485   0.942   2.497  16.344  0.4310  0.5596  0.0974
  705MPD2    H710486   0.972   2.573  16.404 -0.1649  1.7422 -1.1283
  706TMC3    C110487   1.348   2.541  16.138  0.8389  0.2719  0.3749
  706TMC3    C210488   1.360   2.668  16.184 -0.2203 -0.2468 -0.0545
  706TMC3    C310489   1.272   2.708  16.277 -0.2245  0.0729  0.0269
  706TMC3    C410490   1.250   2.454  16.180  0.3289  0.4216 -0.1441
  706TMC3    C510491   1.166   2.501  16.275  0.2432 -0.5873 -0.5698
  706TMC3    C610492   1.170   2.630  16.321 -0.1906  1.1314 -0.5068
  706TMC3     C10493   1.421   2.511  16.018 -0.1220  0.2089  0.1528
  706TMC3     O10494   1.529   2.565  16.019 -0.3293 -0.2301  0.2505
  706TMC3     H10495   1.427   2.731  16.126  1.3036  0.3952  2.4233
  706TMC3    H110496   1.261   2.353  16.142  0.0688  0.5768 -0.6214
  706TMC3    H210497   1.111   2.673  16.401 -0.4231  0.9858 -0.6022
  706TMC3    C710498   1.040   2.432  16.273  0.8100  0.2367  1.2186
  706TMC3    C810499   1.242   2.850  16.253  0.3102  0.5504  0.0323
  706TMC3    O110500   1.029   2.331  16.204  0.1146 -0.6348 -0.3789
  706TMC3    O210501   1.251   2.885  16.138 -0.1847 -0.4704  0.7011
  707TMC3    C110502   0.366   1.746   1.594  0.4241 -1.3576  0.1752
  707TMC3    C210503   0.389   1.676   1.712  0.1447  0.0314  0.2918
  707TMC3    C310504   0.500   1.598   1.715 -0.6846  0.2859 -0.0944
  707TMC3    C410505   0.440   1.723   1.484  0.0540 -0.2456 -0.3781
  707TMC3    C510506   0.552   1.655   1.496 -0.0554 -0.8649 -0.1036
  707TMC3    C610507   0.594   1.603   1.619  0.0998 -0.2147  0.0244
  707TMC3     C10508   0.230   1.733   1.575 -0.5094  0.2246 -0.6161
  707TMC3     O10509   0.181   1.632   1.622  0.5846 -0.3850  0.2755
  707TMC3     H10510   0.326   1.671   1.799  1.5058 -0.5038  1.2512
  707TMC3    H110511   0.406   1.769   1.392 -0.1711  1.1730  0.4094
  707TMC3    H210512   0.688   1.553   1.640  0.1273 -0.3834 -0.5224
  707TMC3    C710513   0.657   1.701   1.414 -0.1160  0.4223  0.3544
  707TMC3    C810514   0.489   1.473   1.784  0.4289 -0.1438  0.5027
  707TMC3    O110515   0.745   1.742   1.492 -0.1766 -0.2583 -0.3151
  707TMC3    O210516   0.582   1.404   1.823  0.0358  0.1931 -0.3553
  708MPD2     C10517   3.849   1.407  13.585  0.7989 -0.2376  0.0252
  708MPD2    C110518   3.787   1.286  13.633 -0.0298  0.9636 -0.1625
  708MPD2    C210519   3.854   1.210  13.729 -0.4141  0.2132  0.5921
  708MPD2    C310520   3.978   1.246  13.771  0.3630  0.0501  0.5079
  708MPD2    C410521   4.032   1.360  13.728  0.2583 -0.2057 -0.0913
  708MPD2    C510522   3.968   1.446  13.645 -0.3459  0.5434  0.0438
  708MPD2     H10523   3.806   1.122  13.769  0.3615 -1.2899 -1.7909
  708MPD2    H110524   4.127   1.388  13.773  0.1525 -1.2181  0.7603
  708MPD2    H210525   3.787   1.480  13.533  0.3169 -0.2192  0.6281
  708MPD2    H310526   4.018   1.540  13.621  1.2439  0.3787  2.7316
  708MPD2     N10527   4.050   1.167  13.867 -0.0466  0.5264  0.1857
  708MPD2    H510528   4.143   1.196  13.895 -0.0584  0.2657  0.4972
  708MPD2    N110529   3.659   1.246  13.608  0.5100 -0.0574  0.8695
  708MPD2    H710530   3.636   1.171  13.672 -0.2036  0.6568  1.4489
  709TMC3    C110531   3.450   1.225  13.515 -0.1357  0.2323  0.9165
  709TMC3    C210532   3.417   1.152  13.406 -0.2212 -0.2634  0.2906
  709TMC3    C310533   3.389   1.020  13.427  0.0754  0.2774  0.5880
  709TMC3    C410534   3.430   1.187  13.643 -0.2580 -0.2101  0.3021
  709TMC3    C510535   3.389   1.059  13.658 -1.2740 -0.6571  0.1823
  709TMC3    C610536   3.372   0.973  13.553  0.4003 -0.4642  0.5166
  709TMC3     C10537   3.577   1.283  13.506 -0.3920  0.4251 -1.1088
  709TMC3     O10538   3.608   1.345  13.405  0.9089  0.1751 -0.5649
  709TMC3     H10539   3.434   1.185  13.304  2.9610 -0.8923  0.6268
  709TMC3    H110540   3.448   1.251  13.728 -0.1324 -1.9042  1.5655
  709TMC3    H210541   3.360   0.866  13.569  1.1296 -0.3212  2.0591
  709TMC3    C710542   3.466   0.996  13.766 -0.2652 -0.3339  0.9779
  709TMC3    C810543   3.384   0.922  13.318  1.0974 -0.0246  0.0123
  709TMC3    O110544   3.559   1.072  13.797  0.0210  0.0837 -0.1652
  709TMC3    O210545   3.319   0.819  13.340 -0.1218 -0.4631 -0.6240
  710TMC3    C110546   0.517   2.112  17.731 -0.8936 -0.2528 -0.0667
  710TMC3    C210547   0.517   2.041  17.614  0.2004 -0.2823 -0.2226
  710TMC3    C310548   0.618   1.946  17.603 -0.4971  0.8027 -0.2295
  710TMC3    C410549   0.608   2.101   0.076 -0.4629 -0.3138  0.2190
  710TMC3    C510550   0.711   2.011   0.056 -1.5779  0.1361  0.0061
  710TMC3    C610551   0.707   1.924  17.705 -0.1642 -0.3488 -0.1331
  710TMC3     C10552   0.419   2.225  17.723 -0.3760 -0.4202 -0.1292
  710TMC3     O10553   0.312   2.213  17.661 -0.3243 -0.0555 -0.1784
  710TMC3     H10554   0.452   2.064  17.531  0.2572 -1.2474 -0.5367
  710TMC3    H110555   0.601   2.158   0.169  1.0671  1.5253 -0.7940
  710TMC3    H210556   0.791   1.858  17.685  0.0613 -0.4625  1.1720
  710TMC3    C710557   0.822   2.031   0.138  0.1890  0.2791 -0.4262
  710TMC3    C810558   0.643   1.904  17.464 -0.4994 -0.2836  0.2108
  710TMC3    O110559   0.833   2.130   0.211  0.9571 -0.1574 -0.2003
  710TMC3    O210560   0.632   1.986  17.373 -0.7536 -0.6760  0.1223
  711TMC3    C110561   4.616   3.388  15.176 -0.3547  0.2198  0.1000
  711TMC3    C210562   4.688   3.385  15.289  0.1685  0.9629  0.4732
  711TMC3    C310563   0.039   3.482  15.318  0.0454 -0.0027 -0.0605
  711TMC3    C410564   4.636   3.489  15.090 -0.4929 -0.0139  0.1810
  711TMC3    C510565   4.740   3.573  15.114 -0.0388  0.0600 -0.9162
  711TMC3    C610566   0.063   3.572  15.234  0.3034  0.0662  1.0347
  711TMC3     C10567   4.571   3.262  15.111 -0.1719  0.0514 -0.1294
  711TMC3     O10568   4.480   3.272  15.028 -0.2091 -0.2894  0.1398
  711TMC3     H10569   4.666   3.306  15.360  2.6655  0.4380  0.6626
  711TMC3    H110570   4.606   3.462  14.990 -1.8244 -1.3741  0.9488
  711TMC3    H210571   0.145   3.639  15.256  1.8753 -0.3397 -3.4463
  711TMC3    C710572   0.081   3.555  14.997 -0.4101 -0.2018 -0.2084
  711TMC3    C810573   0.156   3.452  15.403 -0.3274  0.2956 -0.1156
  711TMC3    O110574   0.025   3.558  14.888 -0.1566 -0.1432  0.6123
  711TMC3    O210575   0.211   3.544  15.459 -0.3809  0.6804 -0.3111
  712MPD2     C10576   0.823   0.524  13.953 -0.0487 -0.8726 -0.8667
  712MPD2    C110577   0.732   0.500  13.849  0.5220  0.4411  0.3315
  712MPD2    C210578   0.684   0.602  13.764 -0.5797 -0.4702 -0.3712
  712MPD2    C310579   0.726   0.734  13.792 -0.0416  0.5971 -0.8887
  712MPD2    C410580   0.815   0.757  13.892 -0.3093 -0.7936 -0.5413
  712MPD2    C510581   0.860   0.654  13.971  0.1181  0.1778 -0.0636
  712MPD2     H10582   0.624   0.573  13.679 -1.2665 -1.0378  0.3126
  712MPD2    H110583   0.856   0.856  13.904  2.2061 -1.7792 -0.9541
  712MPD2    H210584   0.859   0.443  14.016 -0.4286 -1.6397 -1.6311
  712MPD2    H310585   0.937   0.674  14.045  0.4751  1.0976 -0.6830
  712MPD2     N10586   0.686   0.840  13.711 -0.2322  0.3161 -0.1241
  712MPD2    H510587   0.731   0.929  13.733  1.0530 -0.4561  0.4038
  712MPD2    N110588   0.681   0.373  13.823  0.4613 -0.3139 -0.3196
  712MPD2    H710589   0.636   0.353  13.735  2.5600  0.3021 -1.5187
  713TMC3    C110590   0.597   0.963  13.536 -0.9048 -0.0578  0.2037
  713TMC3    C210591   0.715   0.963  13.467  0.6632 -0.0748  0.2994
  713TMC3    C310592   0.715   1.014  13.340  1.0030 -0.2244 -0.4546
  713TMC3    C410593   0.478   0.992  13.477 -0.1448 -0.0146 -0.0305
  713TMC3    C510594   0.485   1.044  13.352 -0.3593 -0.2289  0.3842
  713TMC3    C610595   0.597   1.057  13.276 -0.0998 -0.2755 -0.3908
  713TMC3     C10596   0.581   0.846  13.622  0.0972  0.3850  0.3602
  713TMC3     O10597   0.492   0.766  13.597  0.1596 -0.7442  0.0587
  713TMC3     H10598   0.806   0.945  13.524  1.4311 -1.3328 -1.3342
  713TMC3    H110599   0.384   0.996  13.530  0.8145 -1.0109  1.7459
  713TMC3    H210600   0.597   1.091  13.173 -2.7995 -2.8446 -1.2578
  713TMC3    C710601   0.357   1.089  13.291 -0.6187  0.3196 -0.0389
  713TMC3    C810602   0.811   0.940  13.264 -0.8556 -0.1296 -0.4666
  713TMC3    O110603   0.280   1.141  13.368 -0.5005  0.3547  0.0249
  713TMC3    O210604   0.875   0.998  13.175 -0.4573  0.7429 -0.4076
  714MPD2     C10605   4.536   3.587   1.206  0.2706 -0.5502  0.0953
  714MPD2    C110606   4.538   3.500   1.100 -0.0658  0.1724 -0.0459
  714MPD2    C210607   4.439   3.513   1.003  0.4193 -0.2739  0.2680
  714MPD2    C310608   4.335   3.605   1.020 -0.2109 -0.1307  0.5260
  714MPD2    C410609   4.349   3.708   1.110 -0.0080  0.1791 -0.0413
  714MPD2    C510610   4.442   3.689   1.208 -0.5093  0.7229  0.1008
  714MPD2     H10611   4.428   3.443   0.921 -3.5218  0.1197  0.4494
  714MPD2    H110612   4.281   3.791   1.126 -1.8596 -0.9751 -1.9688
  714MPD2    H210613   4.609   3.589   1.287  0.0022  0.8185  0.3146
  714MPD2    H310614   4.442   3.754   1.295  1.6847  1.5623 -0.5355
  714MPD2     N10615   4.226   3.598   0.926 -0.5513 -0.4059  0.1483
  714MPD2    H510616   4.238   3.535   0.848 -2.5771  1.2126 -1.4728
  714MPD2    N110617   4.630   3.398   1.104  0.0470  0.3876  0.1304
  714MPD2    H710618   4.705   3.407   1.172 -1.4888 -1.6052  2.0803
  715TMC3    C110619   0.043   3.247   1.014 -0.7115 -0.1819  0.1672
  715TMC3    C210620   0.071   3.138   0.937  0.1527 -0.0866 -0.3417
  715TMC3    C310621   0.200   3.090   0.935  0.1267 -0.0317  0.7492
  715TMC3    C410622   0.140   3.323   1.070 -0.0246 -0.2531  0.3536
  715TMC3    C510623   0.270   3.275   1.046 -0.0559 -0.2962 -0.3538
  715TMC3    C610624   0.305   3.158   0.984  0.1571 -0.3160 -0.6868
  715TMC3     C10625   4.648   3.300   1.009  0.3497 -0.3120  0.5653
  715TMC3     O10626   4.569   3.248   0.936  0.3208  0.6416  0.5445
  715TMC3     H10627   4.739   3.082   0.878 -0.9441  1.9865 -0.9666
  715TMC3    H110628   0.120   3.426   1.100  0.8028  0.5450 -1.8229
  715TMC3    H210629   0.410   3.136   0.969 -0.1650 -1.4718 -1.2193
  715TMC3    C710630   0.380   3.350   1.089  0.2528 -0.0949 -0.1074
  715TMC3    C810631   0.224   2.977   0.839 -0.0296 -0.2677  0.1660
  715TMC3    O110632   0.492   3.317   1.056  0.0071 -0.0565 -0.3110
  715TMC3    O210633   0.147   2.949   0.750  0.4905 -0.1012 -0.4986
  716MPD2     C10634   3.770   1.692  10.113 -0.2942 -0.5634  0.6440
  716MPD2    C110635   3.730   1.666   9.986 -0.7468 -0.2256  0.3006
  716MPD2    C210636   3.703   1.538   9.939 -0.4374  0.4641  0.3586
  716MPD2    C310637   3.697   1.428  10.025 -0.0090  0.0688 -0.6798
  716MPD2    C410638   3.718   1.455  10.155  0.2573  0.2269 -0.7474
  716MPD2    C510639   3.755   1.581  10.203 -0.1672  0.0299 -0.0733
  716MPD2     H10640   3.658   1.514   9.843  0.0438  0.3437  0.1633
  716MPD2    H110641   3.714   1.381  10.234 -0.2889  0.9182 -0.1293
  716MPD2    H210642   3.798   1.791  10.145 -0.0823  0.1811 -1.8727
  716MPD2    H310643   3.767   1.588  10.310  1.2994  0.8136 -0.2887
  716MPD2     N10644   3.680   1.298   9.971  0.2788  0.3002 -0.5795
  716MPD2    H510645   3.649   1.295   9.874  1.8359 -2.5658 -0.9851
  716MPD2    N110646   3.734   1.781   9.906 -0.8226 -0.0124  0.1389
  716MPD2    H710647   3.741   1.870   9.954  1.9348  0.1752 -0.6186
  717TMC3    C110648   3.668   1.066   9.951 -0.1950 -0.4669  0.0996
  717TMC3    C210649   3.589   1.106   9.848 -0.6287 -0.2319 -0.3109
  717TMC3    C310650   3.626   1.083   9.721  0.0099  0.3597  0.0546
  717TMC3    C410651   3.778   0.983   9.931 -0.1899 -0.8141 -0.0770
  717TMC3    C510652   3.812   0.956   9.799  0.4214  0.1830  0.1722
  717TMC3    C610653   3.750   1.023   9.693 -0.2612  0.1607  0.3010
  717TMC3     C10654   3.702   1.185  10.032  0.5787 -0.2435 -0.2605
  717TMC3     O10655   3.768   1.169  10.136 -0.5976  0.4869  0.0841
  717TMC3     H10656   3.501   1.162   9.879 -0.1811 -0.2009  0.9277
  717TMC3    H110657   3.856   0.970  10.006  0.1313  2.1337  0.0815
  717TMC3    H210658   3.775   1.007   9.589 -1.0034 -0.4503  0.2138
  717TMC3    C710659   3.923   0.872   9.773 -0.2173 -0.3386  0.2948
  717TMC3    C810660   3.606   1.208   9.651 -0.0005 -0.4781 -0.4413
  717TMC3    O110661   3.947   0.793   9.859  0.1821 -0.1917 -0.4995
  717TMC3    O210662   3.568   1.301   9.720  0.8149 -0.7270 -0.3439
  718MPD2     C10663   2.919   4.663  12.880 -0.0923 -0.5058  0.0532
  718MPD2    C110664   2.882   4.619  12.748 -0.2060  0.9639  0.1983
  718MPD2    C210665   2.752   4.580  12.731  0.4164 -0.3047  0.4080
  718MPD2    C310666   2.668   4.564  12.837 -0.7772  0.4188 -0.3852
  718MPD2    C410667   2.712   4.588  12.968 -0.1917  0.0081  0.4302
  718MPD2    C510668   2.838   4.635  12.985 -0.4115 -0.3903 -0.4154
  718MPD2     H10669   2.708   4.556  12.635  1.2376 -0.6351  0.1157
  718MPD2    H110670   2.652   4.570  13.056  0.6403  0.0156  0.9959
  718MPD2    H210671   3.006   4.720  12.909  1.2736 -2.5109 -0.0447
  718MPD2    H310672   2.872   4.660  13.085  1.4622 -2.4310 -0.5368
  718MPD2     N10673   2.537   4.511  12.808  0.4219  0.4636 -0.4754
  718MPD2    H510674   2.528   4.485  12.710  1.3906 -0.4152 -0.3366
  718MPD2    N110675   2.976   4.640  12.643 -0.0243 -0.2214  0.3458
  718MPD2    H710676   3.061   4.692  12.662 -0.5458  0.6340  0.3335
  719TMC3    C110677   3.023   4.667  12.407 -0.2748  0.3304 -0.1923
  719TMC3    C210678   2.967   4.639  12.281  0.1373 -0.4388  0.4385
  719TMC3    C310679   2.962   4.739  12.189  0.0688  0.3090 -0.1593
  719TMC3    C410680   3.081   0.046  12.431  0.4179  0.1592 -0.2991
  719TMC3    C510681   3.071   0.142  12.336  0.3711 -0.6307 -0.5170
  719TMC3    C610682   3.021   0.122  12.208  0.2960  0.4422  0.0474
  719TMC3     C10683   2.948   4.604  12.512  0.5192  0.0858  0.0643
  719TMC3     O10684   2.871   4.512  12.479  0.3226 -0.4656  0.1244
  719TMC3     H10685   2.943   4.536  12.260 -0.1681 -0.3723  0.4579
  719TMC3    H110686   3.101   0.074  12.534 -1.9394 -1.0954  0.5075
  719TMC3    H210687   2.995   0.202  12.140  0.3149  1.2334  0.9743
  719TMC3    C710688   3.152   0.260  12.336  0.1948 -0.7069  0.1534
  719TMC3    C810689   2.831   0.002  12.131 -0.3999 -0.6281 -0.3146
  719TMC3    O110690   3.154   0.321  12.229 -0.1199  0.1842 -0.0739
  719TMC3    O210691   2.815   0.060  12.026 -0.6331 -0.0559  0.3471
  720MPD2     C10692   1.372   1.527  13.936  0.4863 -0.1237  0.2374
  720MPD2    C110693   1.463   1.594  13.848  0.0899 -0.5304 -0.3672
  720MPD2    C210694   1.583   1.635  13.890  0.1528 -0.6519 -0.0638
  720MPD2    C310695   1.622   1.608  14.024 -0.3506  0.0666 -0.5461
  720MPD2    C410696   1.535   1.537  14.106 -0.5074  0.2064  0.8041
  720MPD2    C510697   1.409   1.504  14.067 -0.0822  0.1322 -0.3338
  720MPD2     H10698   1.648   1.685  13.819  0.0378  0.9359  0.9529
  720MPD2    H110699   1.564   1.510  14.207 -4.1751 -0.9777  1.5577
  720MPD2    H210700   1.273   1.494  13.908 -0.7683  2.7196  1.4664
  720MPD2    H310701   1.343   1.467  14.144 -0.2274 -0.2242 -0.6320
  720MPD2     N10702   1.744   1.655  14.071 -0.0035  0.2667  0.2049
  720MPD2    H510703   1.798   1.718  14.012  2.1382 -0.3030  1.5381
  720MPD2    N110704   1.426   1.635  13.716 -0.1526 -0.4690 -0.1843
  720MPD2    H710705   1.474   1.717  13.680  0.2341 -0.5930  0.0481
  721TMC3    C110706   1.934   1.685  14.205  0.4015  0.1022  0.3374
  721TMC3    C210707   1.974   1.700  14.337  0.0009  0.0504 -0.9154
  721TMC3    C310708   2.105   1.737  14.353  0.3074  0.0911  0.3136
  721TMC3    C410709   2.016   1.689  14.093  0.0784 -0.2345  0.3222
  721TMC3    C510710   2.147   1.714  14.122 -0.5996  0.0292 -0.1938
  721TMC3    C610711   2.196   1.747  14.249  0.0846  0.2063  0.8052
  721TMC3     C10712   1.806   1.625  14.192  0.2287  0.6582 -0.3618
  721TMC3     O10713   1.768   1.565  14.291  0.4007 -0.0902  0.3155
  721TMC3     H10714   1.917   1.662  14.421  0.3023 -0.3835 -0.9011
  721TMC3    H110715   1.977   1.655  13.998 -0.4387 -0.6578  0.6884
  721TMC3    H210716   2.300   1.776  14.258 -0.3097  2.1000 -0.7439
  721TMC3    C710717   2.242   1.723  14.024  0.6102  0.5115  0.2256
  721TMC3    C810718   2.166   1.747  14.486 -1.2583 -0.0298 -0.0709
  721TMC3    O110719   2.320   1.820  14.014  0.0046  0.5982 -0.4963
  721TMC3    O210720   2.285   1.724  14.486  0.0055  0.3239  0.4024
  722MPD2     C10721   4.714   0.621  12.297  0.6411  0.9649 -0.8369
  722MPD2    C110722   4.661   0.747  12.322  0.2059  0.3156  0.1614
  722MPD2    C210723   4.528   0.769  12.348  0.3892  0.5102 -0.1191
  722MPD2    C310724   4.445   0.653  12.361 -0.0392  0.3899 -0.2129
  722MPD2    C410725   4.499   0.535  12.327 -0.0050 -0.3895  0.1596
  722MPD2    C510726   4.627   0.523  12.288 -0.6992 -0.7645  0.0623
  722MPD2     H10727   4.487   0.869  12.359  0.8226  0.9213 -2.1954
  722MPD2    H110728   4.439   0.445  12.321 -0.3332 -0.1686  0.0684
  722MPD2    H210729   0.080   0.613  12.279  1.0542 -1.0683  2.5273
  722MPD2    H310730   4.666   0.427  12.259  2.7838  0.9108 -0.8110
  722MPD2     N10731   4.317   0.680  12.405 -0.1964 -0.1137 -0.1574
  722MPD2    H510732   4.304   0.771  12.449  2.8827  0.3625 -0.2466
  722MPD2    N110733   0.009   0.862  12.331 -0.3475 -0.2528 -0.2424
  722MPD2    H710734   4.707   0.950  12.359 -0.2290 -0.1341 -0.4435
  723TMC3    C110735   4.094   0.637  12.476 -0.1975  0.0674  0.2083
  723TMC3    C210736   4.034   0.535  12.538  0.7613  0.5463  0.6194
  723TMC3    C310737   3.954   0.559  12.647 -0.1086 -0.0866  0.4604
  723TMC3    C410738   4.073   0.768  12.504  0.1363  0.4165  0.1976
  723TMC3    C510739   3.977   0.791  12.599  0.1651  0.2984  0.1556
  723TMC3    C610740   3.926   0.688  12.686 -1.2747  0.5091  0.3815
  723TMC3     C10741   4.215   0.588  12.411 -0.0939  0.3689 -0.5972
  723TMC3     O10742   4.212   0.476  12.363 -0.7759  1.0282  0.7176
  723TMC3     H10743   4.054   0.436  12.500  2.3561  0.8762  0.5798
  723TMC3    H110744   4.127   0.842  12.446  0.4720 -0.4926 -0.6469
  723TMC3    H210745   3.861   0.700  12.771  0.5740  1.7857  1.6295
  723TMC3    C710746   3.942   0.931  12.636 -0.8582  0.4832 -0.6884
  723TMC3    C810747   3.917   0.456  12.750 -0.4996  0.1145  0.1435
  723TMC3    O110748   3.926   0.934  12.758 -0.3435 -0.5732  0.5203
  723TMC3    O210749   3.849   0.494  12.841  0.0408 -0.1155 -0.0247
  724TMC3    C110750   0.427   3.609   9.844  0.2943 -0.6473 -0.6177
  724TMC3    C210751   0.515   3.684   9.763  0.0197  0.6928  0.4339
  724TMC3    C310752   0.621   3.745   9.822 -0.4731  0.2175 -0.3002
  724TMC3    C410753   0.447   3.597   9.976 -0.2234  0.0355  0.1254
  724TMC3    C510754   0.552   3.671  10.028 -0.2561 -0.1800  0.2183
  724TMC3    C610755   0.645   3.738   9.953  0.3901 -0.4079  0.1257
  724TMC3     C10756   0.337   3.515   9.776  0.8476  0.1262 -0.2492
  724TMC3     O10757   0.326   3.533   9.653 -0.0408 -0.1563  0.5828
  724TMC3     H10758   0.483   3.728   9.670 -0.4217  0.1155  0.3091
  724TMC3    H110759   0.368   3.570  10.045  0.8258 -1.0880  0.8707
  724TMC3    H210760   0.730   3.783  10.004  0.5425  0.2889 -0.7340
  724TMC3    C710761   0.573   3.649  10.165 -0.1544 -0.1543 -0.0637
  724TMC3    C810762   0.696   3.842   9.744  0.7044 -0.4053  0.0422
  724TMC3    O110763   0.636   3.739  10.218 -0.6398 -0.2431  0.5468
  724TMC3    O210764   0.682   3.834   9.622 -0.0093  0.5176 -0.1543
  725TMC3    C110765   2.160   2.260  13.007  0.2701 -0.4704 -0.3660
  725TMC3    C210766   2.044   2.274  12.940  0.0080 -0.1801  0.4219
  725TMC3    C310767   1.979   2.170  12.882 -0.3736  0.8928  0.3649
  725TMC3    C410768   2.214   2.135  13.028 -0.3768 -0.0974  0.2305
  725TMC3    C510769   2.145   2.030  12.971 -0.3197 -0.7266  0.6394
  725TMC3    C610770   2.018   2.041  12.912 -0.7141  0.0368  0.3593
  725TMC3     C10771   2.236   2.385  13.028  0.3165 -0.1359  0.0813
  725TMC3     O10772   2.196   2.484  12.968 -0.3052  0.1110  0.2654
  725TMC3     H10773   2.003   2.375  12.935 -3.2605 -1.5122  0.4452
  725TMC3    H110774   2.316   2.122  13.061 -1.8100 -1.0756  4.3609
  725TMC3    H210775   1.968   1.953  12.873 -2.4213  1.5863 -1.0086
  725TMC3    C710776   2.225   1.927  12.916 -0.7379 -0.1890  0.1185
  725TMC3    C810777   1.965   2.179  12.742 -0.9915  0.6407  0.0469
  725TMC3    O110778   2.340   1.954  12.878  0.1508  0.0359 -0.5649
  725TMC3    O210779   1.948   2.075  12.680  0.3366  0.4408 -0.4201
  726MPD2     C10780   4.571   3.633  10.427 -0.4639 -0.1077 -0.2664
  726MPD2    C110781   4.493   3.708  10.346 -0.2195  0.3602  0.0726
  726MPD2    C210782   4.363   3.673  10.331 -0.1803  0.8846  0.4737
  726MPD2    C310783   4.303   3.571  10.409  0.6122  0.0856 -0.3952
  726MPD2    C410784   4.388   3.488  10.482  0.2666  0.5651  0.1166
  726MPD2    C510785   4.517   3.522  10.489 -0.0752  0.5096 -0.0255
  726MPD2     H10786   4.297   3.744  10.283  0.3068  1.4622  0.6599
  726MPD2    H110787   4.354   3.404  10.541  2.3301 -0.6158 -0.3744
  726MPD2    H210788   4.678   3.651  10.437 -0.6083  0.4766  0.2466
  726MPD2    H310789   4.594   3.474  10.548 -2.2705 -0.2913  2.1741
  726MPD2     N10790   4.164   3.553  10.420  0.2585 -0.4106  0.1187
  726MPD2    H510791   4.137   3.492  10.496 -1.2357  1.7650  1.3428
  726MPD2    N110792   4.546   3.823  10.290 -0.2122 -0.1398 -0.4323
  726MPD2    H710793   4.487   3.871  10.223 -1.3959 -0.9399  0.0377
  727TMC3    C110794   4.695   3.998  10.253  0.6773 -1.0508  0.0157
  727TMC3    C210795   0.016   4.097  10.326  0.2403 -1.3431  0.3007
  727TMC3    C310796   0.029   4.224  10.264  1.3229 -0.1549  0.2798
  727TMC3    C410797   4.664   4.013  10.121  0.4933 -0.2225 -0.0620
  727TMC3    C510798   4.691   4.131  10.065  0.5830  0.5310  0.4848
  727TMC3    C610799   0.004   4.236  10.132 -0.0456  0.0498 -0.6520
  727TMC3     C10800   4.654   3.879  10.334  0.8049 -0.5769  0.1996
  727TMC3     O10801   4.724   3.867  10.439 -0.9518 -0.1893 -0.2244
  727TMC3     H10802   0.029   4.085  10.433  0.2151  0.2035  0.4828
  727TMC3    H110803   4.637   3.929  10.058 -1.2079  0.4235 -0.1883
  727TMC3    H210804   0.022   4.332  10.086  2.0011 -0.0819 -0.1437
  727TMC3    C710805   4.700   4.137   9.919  0.1125 -0.3572  0.3893
  727TMC3    C810806   0.071   4.337  10.338  0.6761  0.4945  0.0341
  727TMC3    O110807   4.690   4.034   9.852  0.8963 -0.0713 -0.1553
  727TMC3    O210808   0.122   4.295  10.443 -0.2148 -0.3721  0.0753
  728TMC3    C110809   3.572   1.858  15.331 -0.5517 -0.4599 -0.3766
  728TMC3    C210810   3.667   1.836  15.428 -0.5399 -0.5376 -0.4591
  728TMC3    C310811   3.797   1.872  15.393  0.0862  0.0195 -0.0279
  728TMC3    C410812   3.604   1.918  15.214  0.0009 -0.8315 -0.7460
  728TMC3    C510813   3.732   1.961  15.194 -0.7437 -0.4835  0.6069
  728TMC3    C610814   3.832   1.945  15.288  0.0966 -0.3216 -0.8230
  728TMC3     C10815   3.438   1.808  15.340  0.8215  0.2076 -0.1151
  728TMC3     O10816   3.370   1.813  15.239 -0.0737  0.0162  0.3569
  728TMC3     H10817   3.639   1.770  15.509  0.5591 -1.8430 -1.1184
  728TMC3    H110818   3.532   1.925  15.133 -0.3193  0.9450 -0.3081
  728TMC3    H210819   3.932   1.979  15.263  1.1250 -1.8677  1.2171
  728TMC3    C710820   3.778   2.018  15.067 -0.1290 -0.3456  0.0006
  728TMC3    C810821   3.903   1.835  15.488  0.4074 -0.1438  0.1266
  728TMC3    O110822   3.892   2.001  15.029 -0.5846 -1.1761 -0.2751
  728TMC3    O210823   3.878   1.792  15.600  0.2885  0.2861 -0.3503
  729MPD2     C10824   1.197   3.564  16.608  1.0215  0.3989  0.8801
  729MPD2    C110825   1.283   3.460  16.616  0.0445  0.0403 -0.1871
  729MPD2    C210826   1.313   3.393  16.732  0.4074  0.2217  0.4000
  729MPD2    C310827   1.254   3.437  16.843  0.6293 -0.6542 -0.9797
  729MPD2    C410828   1.174   3.547  16.838 -0.8704  0.4524  0.3401
  729MPD2    C510829   1.141   3.607  16.723 -0.3646  0.0894  0.6708
  729MPD2     H10830   1.393   3.323  16.751  1.1832  1.3101  1.1645
  729MPD2    H110831   1.125   3.583  16.928 -0.6905  1.6999 -0.0737
  729MPD2    H210832   1.171   3.621  16.519 -1.5718 -2.4443 -0.2080
  729MPD2    H310833   1.066   3.686  16.717  0.6993  1.0444 -0.1832
  729MPD2     N10834   1.258   3.367  16.966 -0.3004  0.1124 -0.4032
  729MPD2    H510835   1.240   3.435  17.039 -0.2543  1.1078 -1.3187
  729MPD2    N110836   1.359   3.438  16.498 -0.3752 -0.1775 -0.5692
  729MPD2    H710837   1.346   3.511  16.429  1.9056  1.4809  0.7908
  730TMC3    C110838   1.352   3.249  17.137  0.7010  0.0677  0.0501
  730TMC3    C210839   1.486   3.224  17.133  0.5070  0.2543  0.5978
  730TMC3    C310840   1.570   3.307  17.216  0.1733  0.2414  0.9883
  730TMC3    C410841   1.299   3.342  17.220  0.6590 -0.8446  0.6291
  730TMC3    C510842   1.379   3.429  17.297  0.0710 -0.8270  0.5007
  730TMC3    C610843   1.514   3.397  17.302  0.3544 -0.5235  0.3639
  730TMC3     C10844   1.300   3.243  17.005  0.4094  0.0125 -0.0454
  730TMC3     O10845   1.338   3.154  16.930 -0.1778 -0.1023 -0.1863
  730TMC3     H10846   1.534   3.163  17.058 -0.7561  0.0787 -0.0688
  730TMC3    H110847   1.199   3.383  17.213  1.8902  1.8806 -1.1244
  730TMC3    H210848   1.568   3.464  17.367  0.9749 -0.1192 -0.5672
  730TMC3    C710849   1.351   3.569  17.256 -0.7060 -0.0565 -0.8789
  730TMC3    C810850   1.671   3.376  17.136 -0.0523  0.0434 -0.3387
  730TMC3    O110851   1.285   3.601  17.158 -0.1319  0.1005  0.0759
  730TMC3    O210852   1.659   3.373  17.010  0.6892  0.3106 -0.4902
  731MPD2     C10853   1.770   2.539  12.573 -0.4451 -0.2803 -0.1206
  731MPD2    C110854   1.720   2.421  12.520  0.1819  0.4158 -0.1331
  731MPD2    C210855   1.658   2.328  12.610  0.1458 -0.1854 -0.2284
  731MPD2    C310856   1.667   2.350  12.745 -0.2416  0.2848  0.3954
  731MPD2    C410857   1.710   2.475  12.792  0.6868 -0.3565  0.4369
  731MPD2    C510858   1.758   2.572  12.707 -0.4766 -0.2972  0.5477
  731MPD2     H10859   1.637   2.224  12.587 -0.3310 -0.3113  0.7874
  731MPD2    H110860   1.692   2.512  12.893  0.6171  2.8781 -0.7560
  731MPD2    H210861   1.816   2.609  12.504 -1.7271  0.8487  0.1839
  731MPD2    H310862   1.781   2.669  12.748 -0.9154 -0.4080  1.0530
  731MPD2     N10863   1.610   2.254  12.842  0.3030  0.4218  0.2759
  731MPD2    H510864   1.573   2.169  12.800 -1.2021  0.5019  1.4478
  731MPD2    N110865   1.732   2.403  12.380  0.5933 -0.1585  0.6458
  731MPD2    H710866   1.777   2.477  12.326 -0.2840  0.1419  0.3299
  732TMC3    C110867   1.698   2.298  12.175  0.4839 -0.5052  0.4196
  732TMC3    C210868   1.590   2.307  12.079 -0.7256 -0.4606 -0.5293
  732TMC3    C310869   1.622   2.309  11.944  0.2115 -0.8472 -0.4045
  732TMC3    C410870   1.824   2.311  12.123  0.2888  0.3441 -0.6430
  732TMC3    C510871   1.852   2.320  11.989  0.1532  0.1520 -0.1542
  732TMC3    C610872   1.750   2.315  11.901 -0.4103 -0.2691 -0.3936
  732TMC3     C10873   1.666   2.302  12.311 -0.1686  0.5998  0.3573
  732TMC3     O10874   1.575   2.230  12.351  0.5657  0.4759 -0.3236
  732TMC3     H10875   1.490   2.286  12.116 -0.6478 -2.8345 -1.6952
  732TMC3    H110876   1.907   2.334  12.189  0.6945  0.3415 -1.1563
  732TMC3    H210877   1.771   2.322  11.795 -0.1612 -0.5974 -0.3696
  732TMC3    C710878   1.985   2.308  11.934 -0.3170 -0.0769  0.3610
  732TMC3    C810879   1.538   2.229  11.843 -0.5102  0.2951 -0.2794
  732TMC3    O110880   2.009   2.352  11.821  0.0304  0.0455  0.0123
  732TMC3    O210881   1.613   2.180  11.762 -0.0196  0.1949  0.5168
  733TMC3    C110882   2.087   4.529  12.811  0.7535 -1.0943  0.1195
  733TMC3    C210883   2.200   4.511  12.891 -0.0666  0.2270 -0.0553
  733TMC3    C310884   2.316   4.473  12.820  0.8465 -0.5548  0.7310
  733TMC3    C410885   2.094   4.521  12.673  0.1283 -0.4503 -0.5162
  733TMC3    C510886   2.211   4.487  12.610 -0.2615 -0.1250 -0.7555
  733TMC3    C610887   2.321   4.457  12.683  0.1987 -0.3474  0.6248
  733TMC3     C10888   1.962   4.555  12.869 -0.6868 -0.2049  0.8802
  733TMC3     O10889   1.869   4.570  12.791 -0.1265 -0.2121  0.2674
  733TMC3     H10890   2.201   4.520  12.999  0.1387 -2.2102  0.1614
  733TMC3    H110891   2.008   4.547  12.614 -0.7325 -0.0908  0.8941
  733TMC3    H210892   2.407   4.415  12.631  0.8577  1.3855  0.3342
  733TMC3    C710893   2.223   4.520  12.472 -0.1581 -0.0332  0.7146
  733TMC3    C810894   2.434   4.490  12.893 -0.5572  0.0625  0.5833
  733TMC3    O110895   2.125   4.523  12.400  0.4980  0.0828  0.2300
  733TMC3    O210896   2.425   4.514  13.010  0.0202  0.5377  0.3985
  734MPD2     C10897   0.132   2.933  12.005 -0.2831  0.5592 -0.0431
  734MPD2    C110898   0.028   2.847  11.976 -0.1844  0.4093  0.1137
  734MPD2    C210899   0.013   2.817  11.846 -0.6663 -0.4340  0.1437
  734MPD2    C310900   0.086   2.877  11.745  0.4009  0.5332 -0.6166
  734MPD2    C410901   0.189   2.970  11.777  0.2159  0.1699  0.1947
  734MPD2    C510902   0.209   2.998  11.910 -0.2524  1.3009  0.3545
  734MPD2     H10903   4.680   2.746  11.809 -2.4875  1.7509 -0.4620
  734MPD2    H110904   0.250   3.024  11.706 -2.8942  1.8642 -1.2274
  734MPD2    H210905   0.151   2.964  12.107 -2.0648 -0.1971  0.5148
  734MPD2    H310906   0.278   3.072  11.950  1.3735  1.0872 -2.0254
  734MPD2     N10907   0.051   2.836  11.608  0.2311 -0.1225 -0.7909
  734MPD2    H510908   4.725   2.759  11.598 -1.2357  1.1608 -0.9144
  734MPD2    N110909   4.690   2.790  12.077  0.1070 -0.3250  0.0235
  734MPD2    H710910   4.714   2.808  12.174  1.9030 -0.1673 -0.4426
  735TMC3    C110911   4.505   2.676  12.161  0.7895  0.0968 -0.2623
  735TMC3    C210912   4.380   2.639  12.127  0.1179 -0.0899  0.5429
  735TMC3    C310913   4.339   2.505  12.140  0.2885 -0.2715  0.2654
  735TMC3    C410914   4.590   2.593  12.224  1.1057  0.2583 -0.4874
  735TMC3    C510915   4.541   2.469  12.248  1.2245 -0.1612  0.2711
  735TMC3    C610916   4.416   2.425  12.211  0.0721  0.4849  0.2730
  735TMC3     C10917   4.566   2.739  12.050 -0.7902  0.7147  0.6866
  735TMC3     O10918   4.492   2.760  11.954  0.3127 -0.9232 -0.8988
  735TMC3     H10919   4.312   2.709  12.079 -1.2856 -1.5743  0.3254
  735TMC3    H110920   4.693   2.621  12.244  1.0022 -0.6950  1.3182
  735TMC3    H210921   4.404   2.317  12.204  1.3758  0.2538  1.5349
  735TMC3    C710922   4.646   2.379  12.211  0.2309 -0.5185  0.1449
  735TMC3    C810923   4.286   2.446  12.022 -0.2899 -0.0615 -0.0330
  735TMC3    O110924   4.720   2.424  12.132  0.2693 -0.5999 -0.2170
  735TMC3    O210925   4.230   2.333  12.025 -0.3640 -0.1648  0.3057
  736MPD2     C10926   4.734   2.045  12.328  0.2310  0.3091  0.0819
  736MPD2    C110927   4.725   2.151  12.238  0.5830  0.5972  0.5750
  736MPD2    C210928   0.055   2.150  12.115 -0.2406 -0.2194  0.6601
  736MPD2    C310929   0.131   2.043  12.089 -0.0808 -0.0637 -0.2448
  736MPD2    C410930   0.148   1.938  12.186  0.7723  1.0940  0.4287
  736MPD2    C510931   0.080   1.945  12.305  0.1146 -0.4113  0.8199
  736MPD2     H10932   0.049   2.235  12.048 -0.8397 -1.1798 -0.4976
  736MPD2    H110933   0.210   1.850  12.175  1.6540  1.3577  3.4108
  736MPD2    H210934   4.677   2.040  12.420 -0.4897  0.6015 -0.3474
  736MPD2    H310935   0.095   1.869  12.380  0.7755  0.2953  1.3984
  736MPD2     N10936   0.197   2.019  11.961  0.6512  0.2829 -0.7420
  736MPD2    H510937   0.259   1.939  11.963  1.7201  1.1819  2.1922
  736MPD2    N110938   4.632   2.253  12.265 -0.3777  0.0758 -0.0925
  736MPD2    H710939   4.563   2.235  12.337  3.5507 -1.1149  3.3466
  737TMC3    C110940   0.266   2.063  11.738 -1.1063 -0.1066  1.1757
  737TMC3    C210941   0.261   2.145  11.631 -0.1990 -0.1606 -0.7728
  737TMC3    C310942   0.373   2.152  11.548  0.0711 -0.0231 -1.0732
  737TMC3    C410943   0.374   1.977  11.763 -0.3221 -0.0486 -0.2923
  737TMC3    C510944   0.476   1.982  11.670  0.2616 -0.9328 -0.2549
  737TMC3    C610945   0.484   2.078  11.577 -0.0842  0.1732 -0.3980
  737TMC3     C10946   0.180   2.097  11.851 -0.0892  0.1982 -0.2420
  737TMC3     O10947   0.095   2.181  11.827 -0.5901 -0.1167  0.4729
  737TMC3     H10948   0.180   2.212  11.605  0.8860  1.5469  0.2622
  737TMC3    H110949   0.387   1.917  11.852 -0.9577 -0.6035 -0.5655
  737TMC3    H210950   0.564   2.077  11.503  0.6731  1.3378  0.4019
  737TMC3    C710951   0.576   1.877  11.686 -0.4651 -0.2129  0.0425
  737TMC3    C810952   0.377   2.256  11.453  0.5836  0.7292  0.3867
  737TMC3    O110953   0.542   1.773  11.745  0.3975  0.1641 -0.3889
  737TMC3    O210954   0.489   2.288  11.415 -0.6224  0.3285 -0.2178
  738MPD2     C10955   0.461   0.783  15.147 -0.2144 -0.6810 -0.3256
  738MPD2    C110956   0.539   0.669  15.152 -0.1387  0.2024 -0.1712
  738MPD2    C210957   0.669   0.667  15.099 -0.3106  0.4452  0.0194
  738MPD2    C310958   0.717   0.773  15.025  0.4475 -0.2075  0.2812
  738MPD2    C410959   0.633   0.885  15.017 -0.1319  0.3779  0.5923
  738MPD2    C510960   0.511   0.890  15.079 -0.2282 -0.5205  0.4343
  738MPD2     H10961   0.728   0.577  15.115  2.0892  1.9309 -0.5561
  738MPD2    H110962   0.662   0.970  14.956 -0.9457 -1.4482 -2.3821
  738MPD2    H210963   0.355   0.783  15.172 -0.4186 -1.3326 -1.1988
  738MPD2    H310964   0.452   0.981  15.068  1.5463  0.6291  0.3247
  738MPD2     N10965   0.842   0.789  14.961 -0.6411  0.1430  0.2627
  738MPD2    H510966   0.860   0.883  14.929  0.4085 -0.4424 -0.8839
  738MPD2    N110967   0.495   0.545  15.212  0.1262  0.0285  0.3372
  738MPD2    H710968   0.554   0.465  15.193 -1.1352 -0.4430 -1.6064
  739TMC3    C110969   1.072   0.741  14.913 -0.2716 -0.0476 -0.7240
  739TMC3    C210970   1.067   0.818  14.800  0.3709 -0.4246 -0.3701
  739TMC3    C310971   1.183   0.834  14.725 -0.6926  1.0939 -0.2435
  739TMC3    C410972   1.185   0.688  14.965  0.5946 -0.2612 -0.5484
  739TMC3    C510973   1.300   0.717  14.893 -0.0962 -0.4818 -0.0855
  739TMC3    C610974   1.301   0.790  14.773  0.3324 -0.5347 -0.1025
  739TMC3     C10975   0.946   0.708  14.985  0.4822  0.2242  0.6679
  739TMC3     O10976   0.948   0.610  15.059 -0.1761 -0.3568 -0.3626
  739TMC3     H10977   0.977   0.852  14.751 -0.9157 -0.2040  2.1476
  739TMC3    H110978   1.181   0.624  15.052 -2.1065 -2.7153 -2.4842
  739TMC3    H210979   1.384   0.768  14.708  0.6513  2.8108 -0.8141
  739TMC3    C710980   1.423   0.706  14.967 -0.4585 -0.9793  0.0385
  739TMC3    C810981   1.165   0.890  14.584  0.6131  0.9349  0.1559
  739TMC3    O110982   1.419   0.638  15.069 -0.1005 -0.0363  0.0282
  739TMC3    O210983   1.049   0.901  14.550 -0.1782 -0.3265 -0.4997
  740TMC3    C110984   1.453   2.132  14.498  0.0074 -0.2127  0.0448
  740TMC3    C210985   1.518   2.041  14.582  0.7317 -0.4971 -0.7196
  740TMC3    C310986   1.638   1.993  14.537 -0.1602  0.3952  1.4259
  740TMC3    C410987   1.514   2.170  14.375  0.2426  0.2530  0.9515
  740TMC3    C510988   1.624   2.103  14.333 -0.4048 -0.3494  0.7837
  740TMC3    C610989   1.690   2.016  14.411  0.4478 -0.7405 -0.2781
  740TMC3     C10990   1.326   2.197  14.534 -0.1181  0.3265 -0.3590
  740TMC3     O10991   1.304   2.307  14.483  0.1252 -0.4781 -0.0827
  740TMC3     H10992   1.487   2.025  14.684  1.9014 -0.3886 -0.3476
  740TMC3    H110993   1.459   2.236  14.308  1.9966 -0.2719 -0.9815
  740TMC3    H210994   1.761   1.945  14.368 -1.0927 -1.8157 -1.0402
  740TMC3    C710995   1.663   2.093  14.190  0.0705 -0.1606  0.5869
  740TMC3    C810996   1.702   1.879  14.604  0.7318  0.1872 -0.4658
  740TMC3    O110997   1.723   1.993  14.157 -0.4420 -0.3311 -0.8124
  740TMC3    O210998   1.817   1.849  14.573  0.1328 -0.2473  0.3006
  741TMC3    C110999   0.830   1.488  14.355  0.1813  0.2432  0.1552
  741TMC3    C211000   0.706   1.438  14.333 -0.0070 -0.2937  0.5606
  741TMC3    C311001   0.677   1.343  14.418 -0.0317 -0.5182  0.1655
  741TMC3    C411002   0.911   1.447  14.459  0.4596  0.2631 -0.7484
  741TMC3    C511003   0.878   1.341  14.540 -0.1301  0.3299 -0.5808
  741TMC3    C611004   0.754   1.290  14.522 -0.6538  0.1324 -0.1675
  741TMC3     C11005   0.906   1.551  14.249 -0.0083  0.2357  0.3163
  741TMC3     O11006   1.027   1.524  14.241 -0.1734 -1.1011 -0.2313
  741TMC3     H11007   0.653   1.452  14.240  1.3277  0.5809 -0.0685
  741TMC3    H111008   1.004   1.503  14.465  1.4876 -1.2957 -2.2092
  741TMC3    H211009   0.706   1.221  14.591 -2.2668  1.8706  0.4783
  741TMC3    C711010   0.957   1.299  14.646  0.3351 -0.1952  0.0984
  741TMC3    C811011   0.569   1.264  14.372  0.5314  0.1326 -0.3303
  741TMC3    O111012   0.901   1.233  14.731 -0.0653 -0.1074  0.9683
  741TMC3    O211013   0.487   1.327  14.301 -0.8752 -0.1528  0.0304
  742TMC3    C111014   0.664   4.681  15.254  0.4060  0.5154  0.1911
  742TMC3    C211015   0.632   4.607  15.148 -0.2178  0.4647 -0.2733
  742TMC3    C311016   0.707   4.615  15.040 -0.2922  0.6563  0.3569
  742TMC3    C411017   0.781   0.007  15.265  0.0085 -1.3069  0.3244
  742TMC3    C511018   0.862   0.003  15.152  0.0351  0.3833  0.1097
  742TMC3    C611019   0.829   4.678  15.038 -0.2715 -0.1050  0.1057
  742TMC3     C11020   0.566   4.705  15.355 -0.8112  0.3502 -0.6516
  742TMC3     O11021   0.478   4.618  15.363  0.3989 -0.2028 -0.0369
  742TMC3     H11022   0.527   4.585  15.131 -0.4261  0.1943  1.4292
  742TMC3    H111023   0.804   0.056  15.359  1.1764  1.2449 -1.2732
  742TMC3    H211024   0.891   4.689  14.949 -0.2735  0.0117  0.1182
  742TMC3    C711025   1.004   0.025  15.170 -0.1286 -0.2402 -0.3401
  742TMC3    C811026   0.655   4.540  14.924  1.1699 -0.8772 -0.5851
  742TMC3    O111027   1.031   0.095  15.266 -0.7696 -0.1789  0.1073
  742TMC3    O211028   0.602   4.428  14.946 -0.1412 -0.0267 -0.2262
  743MPD2     C11029   4.369   0.493   1.962 -0.5730 -0.1625  0.5570
  743MPD2    C111030   4.456   0.591   1.907 -0.4772 -0.4253  0.2843
  743MPD2    C211031   4.585   0.553   1.869  0.3261  0.6111  0.2110
  743MPD2    C311032   4.634   0.427   1.877  0.1767 -0.7937 -0.4583
  743MPD2    C411033   4.548   0.328   1.934 -0.4293 -0.6957 -0.0130
  743MPD2    C511034   4.418   0.366   1.975 -0.1158  0.6839 -0.0439
  743MPD2     H11035   4.648   0.626   1.819 -0.8773  0.1091 -2.0806
  743MPD2    H111036   4.580   0.225   1.945  2.0335  0.1867  1.1439
  743MPD2    H211037   4.268   0.517   1.994 -1.2012 -0.1480 -1.3884
  743MPD2    H311038   4.356   0.289   2.020  3.3612 -1.7246  0.6443
  743MPD2     N11039   0.022   0.403   1.821  0.5165 -0.1597  0.1499
  743MPD2    H511040   0.066   0.487   1.785  1.2261 -1.2490 -1.5065
  743MPD2    N111041   4.410   0.731   1.883  0.2569  0.5214 -0.9057
  743MPD2    H711042   4.312   0.752   1.892 -0.1760 -0.7150 -2.6976
  744TMC3    C111043   4.408   0.955   1.824 -0.5471 -0.2135 -0.2244
  744TMC3    C211044   4.480   1.068   1.838 -0.7458  0.6184 -0.0935
  744TMC3    C311045   4.491   1.162   1.741  0.4824 -0.3785  0.4622
  744TMC3    C411046   4.321   0.953   1.718 -0.7172  0.1579  0.2627
  744TMC3    C511047   4.305   1.064   1.636  0.5203 -0.6714 -0.3098
  744TMC3    C611048   4.393   1.165   1.641 -0.1379 -0.0843  0.2901
  744TMC3     C11049   4.482   0.835   1.842  0.3582  0.3325  0.3308
  744TMC3     O11050   4.603   0.859   1.851  0.2820 -0.3704 -0.6609
  744TMC3     H11051   4.548   1.066   1.923  0.9979 -1.7009 -1.5649
  744TMC3    H111052   4.281   0.855   1.696  2.0322 -1.1415  1.0551
  744TMC3    H211053   4.377   1.250   1.576  2.8570 -0.0279 -0.3325
  744TMC3    C711054   4.212   1.059   1.522 -0.4352 -0.4576 -0.1946
  744TMC3    C811055   4.618   1.233   1.727  0.2816  0.8931 -0.3224
  744TMC3    O111056   4.222   1.153   1.441  0.1406 -0.4412 -0.2395
  744TMC3    O211057   4.620   1.346   1.683  0.2514 -0.2338  0.8145
  745TMC3    C111058   0.612   0.145  13.863 -0.2157  0.6276 -0.9607
  745TMC3    C211059   0.616   0.055  13.963 -0.2489 -0.2060  0.1756
  745TMC3    C311060   0.612   4.663  13.927 -0.9462  0.2496 -0.4447
  745TMC3    C411061   0.623   0.113  13.730 -1.1748  0.2542 -0.2188
  745TMC3    C511062   0.621   4.720  13.697  0.1294  0.5480  0.2948
  745TMC3    C611063   0.609   4.627  13.792 -0.3565 -0.0539  0.9021
  745TMC3     C11064   0.699   0.262  13.903  0.4503 -0.3785 -0.8344
  745TMC3     O11065   0.761   0.247  14.005 -0.5096 -0.4898  0.0742
  745TMC3     H11066   0.601   0.084  14.067 -0.1138  0.5833 -0.0265
  745TMC3    H111067   0.620   0.184  13.648  2.0701  1.5541  0.8006
  745TMC3    H211068   0.614   4.523  13.760 -0.8087 -0.0557  0.8350
  745TMC3    C711069   0.613   4.682  13.557 -0.4942  0.8168 -0.2577
  745TMC3    C811070   0.654   4.563  14.022  0.0034 -0.0712 -0.3141
  745TMC3    O111071   0.561   4.578  13.519 -0.4626  0.5691 -0.7141
  745TMC3    O211072   0.625   4.447  14.007 -0.1739 -0.5194  0.5242
  746TMC3    C111073   3.043   1.642  10.857  0.1281 -0.9782 -0.3938
  746TMC3    C211074   3.107   1.548  10.772 -0.6062  0.6200 -0.5158
  746TMC3    C311075   3.071   1.415  10.790  0.3988 -0.3160  0.0014
  746TMC3    C411076   2.943   1.604  10.939  0.3430  0.8460  0.4649
  746TMC3    C511077   2.898   1.474  10.944 -0.1149  0.7096 -0.5805
  746TMC3    C611078   2.958   1.379  10.866 -0.1464 -0.2798  0.5669
  746TMC3     C11079   3.092   1.784  10.847 -0.6270  0.0053  0.2896
  746TMC3     O11080   3.175   1.809  10.764 -0.4895 -0.7249 -0.2322
  746TMC3     H11081   3.197   1.580  10.720 -1.1703 -0.9367 -2.4464
  746TMC3    H111082   2.892   1.675  11.002 -1.1818 -0.1084  0.3102
  746TMC3    H211083   2.926   1.276  10.860 -0.2894 -0.1015 -1.7773
  746TMC3    C711084   2.777   1.442  11.015  0.5038  0.0955  0.3630
  746TMC3    C811085   3.090   1.338  10.666  0.0739 -0.2477  0.0193
  746TMC3    O111086   2.675   1.507  11.003 -0.4251  0.1267 -0.3064
  746TMC3    O211087   3.147   1.228  10.667  0.2165 -0.6248  0.3683
  747TMC3    C111088   1.227   2.020  10.902  0.4101  0.6181 -0.2165
  747TMC3    C211089   1.177   1.920  10.978 -0.1176  0.0148  0.4661
  747TMC3    C311090   1.168   1.940  11.112 -0.2425 -0.1199 -0.0364
  747TMC3    C411091   1.259   2.143  10.944 -0.9476 -0.0754  0.1264
  747TMC3    C511092   1.238   2.161  11.080 -0.1172 -0.5451 -0.0159
  747TMC3    C611093   1.196   2.060  11.165 -0.7609  0.0146 -0.7405
  747TMC3     C11094   1.214   2.013  10.755  0.0911  0.2425  0.5552
  747TMC3     O11095   1.251   2.111  10.688 -0.6952 -0.5286 -0.3865
  747TMC3     H11096   1.137   1.824  10.949 -1.7064  0.9369 -0.3913
  747TMC3    H111097   1.302   2.217  10.878 -1.3095 -3.3677 -3.8542
  747TMC3    H211098   1.167   2.081  11.267  2.1996 -0.7168  0.2249
  747TMC3    C711099   1.276   2.289  11.154  0.3017 -0.0323 -0.3208
  747TMC3    C811100   1.091   1.838  11.181  0.2670  0.5321 -0.4862
  747TMC3    O111101   1.227   2.303  11.267  0.0539 -0.4352 -0.2808
  747TMC3    O211102   1.087   1.724  11.140  0.9208 -0.2027 -0.7351
  748MPD2     C11103   3.818   3.039   1.738 -0.9833  0.0289  0.2860
  748MPD2    C111104   3.768   2.998   1.615 -0.6122 -0.4619  0.3360
  748MPD2    C211105   3.861   2.937   1.531 -0.3508  0.5098  0.7779
  748MPD2    C311106   3.984   2.913   1.579 -0.4916  0.3064 -0.1926
  748MPD2    C411107   4.039   2.957   1.703 -0.0435  0.2377 -1.1015
  748MPD2    C511108   3.948   3.022   1.783  0.2949 -0.0747  0.1363
  748MPD2     H11109   3.825   2.905   1.434 -0.5345  0.5755  0.8246
  748MPD2    H111110   4.141   2.958   1.739 -0.5667  1.7798  0.3020
  748MPD2    H211111   3.762   3.102   1.806  0.4933  0.7955  0.7919
  748MPD2    H311112   3.979   3.074   1.873  1.5059  1.2925 -1.0633
  748MPD2     N11113   4.066   2.851   1.484  0.1066  0.2948 -0.1871
  748MPD2    H511114   4.027   2.820   1.396  1.9005  3.6255 -2.1608
  748MPD2    N111115   3.635   3.011   1.587 -0.3344  0.1661 -0.8117
  748MPD2    H711116   3.581   3.058   1.659 -1.4405 -0.2631 -1.3622
  749TMC3    C111117   4.266   2.776   1.387  0.4303  0.7208  0.8009
  749TMC3    C211118   4.375   2.694   1.399 -0.3648 -0.8716 -0.0667
  749TMC3    C311119   4.427   2.629   1.284 -0.2008  0.2479  0.0408
  749TMC3    C411120   4.228   2.821   1.263 -0.1237  0.2330 -0.2503
  749TMC3    C511121   4.275   2.751   1.156  0.4925  0.1054 -0.5103
  749TMC3    C611122   4.378   2.661   1.161  0.0949  0.8869  0.9109
  749TMC3     C11123   4.204   2.823   1.507 -0.2306 -1.5577  0.3728
  749TMC3     O11124   4.272   2.811   1.611 -0.1800  0.0774  0.6225
  749TMC3     H11125   4.413   2.660   1.495  0.6160 -0.7753 -0.4141
  749TMC3    H111126   4.168   2.908   1.238  0.6629  0.3690 -1.6446
  749TMC3    H211127   4.428   2.623   1.073 -1.7731  0.2371  0.1137
  749TMC3    C711128   4.240   2.819   1.027  0.1027  0.6192  0.5681
  749TMC3    C811129   4.556   2.566   1.302  0.3886  0.2636 -0.1661
  749TMC3    O111130   4.273   2.938   1.017  0.9499  0.5795 -0.0814
  749TMC3    O211131   4.621   2.592   1.402 -0.5126  0.1472 -0.1975
  750MPD2     C11132   3.554   3.744  11.518 -0.3727  0.0297  0.0806
  750MPD2    C111133   3.449   3.673  11.573  0.0417 -0.1721 -0.0229
  750MPD2    C211134   3.400   3.558  11.513  0.7145 -0.9838  0.0908
  750MPD2    C311135   3.448   3.512  11.397  0.4683  0.2575  0.1038
  750MPD2    C411136   3.543   3.592  11.336  0.7736 -0.5771  0.2786
  750MPD2    C511137   3.599   3.695  11.403 -0.4291  0.9663 -0.0708
  750MPD2     H11138   3.324   3.501  11.564 -0.3382 -1.0180 -1.5343
  750MPD2    H111139   3.588   3.558  11.243  0.2878  1.3399 -0.6610
  750MPD2    H211140   3.607   3.826  11.565  1.5622 -1.3658  0.3744
  750MPD2    H311141   3.681   3.748  11.356 -0.0517  0.8979  0.5149
  750MPD2     N11142   3.401   3.394  11.325 -0.6321  0.4620  0.7886
  750MPD2    H511143   3.466   3.368  11.252 -0.3491 -1.2961  1.6511
  750MPD2    N111144   3.402   3.729  11.697  0.5934  0.0572 -0.4897
  750MPD2    H711145   3.456   3.812  11.720 -1.2407  0.6945  1.5078
  751TMC3    C111146   3.276   3.191  11.295  0.4680 -0.1177  0.0864
  751TMC3    C211147   3.159   3.124  11.321  0.6493 -0.0125  0.3196
  751TMC3    C311148   3.153   2.995  11.277  0.1958 -0.5783 -0.1074
  751TMC3    C411149   3.376   3.139  11.216 -0.6900  0.8288  1.0269
  751TMC3    C511150   3.360   3.013  11.159  0.1892  0.0091  0.0287
  751TMC3    C611151   3.254   2.936  11.204  0.2324  0.1304 -0.4667
  751TMC3     C11152   3.291   3.320  11.368  0.1576  0.4200 -0.5205
  751TMC3     O11153   3.206   3.352  11.447 -0.0432 -0.6837 -1.0504
  751TMC3     H11154   3.083   3.173  11.380  0.4382  0.5014 -0.3838
  751TMC3    H111155   3.475   3.177  11.192 -0.0533  0.5185  3.1576
  751TMC3    H211156   3.232   2.849  11.144 -1.9445 -0.1917  0.7845
  751TMC3    C711157   3.452   2.956  11.061 -0.0216 -0.8430  0.4944
  751TMC3    C811158   3.019   2.932  11.264  0.3703 -0.3561 -0.0492
  751TMC3    O111159   3.517   3.034  10.986  0.1205  0.1317  0.3367
  751TMC3    O211160   3.001   2.859  11.168  0.1927 -0.0252  0.1662
  752TMC3    C111161   2.264   3.198  16.976  0.0588 -0.3605  0.0816
  752TMC3    C211162   2.362   3.147  17.052  0.3902  0.3973 -0.5456
  752TMC3    C311163   2.341   3.142  17.192 -0.4542  0.0625  0.3320
  752TMC3    C411164   2.148   3.241  17.031  0.3485 -0.5330  0.2494
  752TMC3    C511165   2.134   3.233  17.166 -0.1529  0.4707  1.1059
  752TMC3    C611166   2.234   3.192  17.254  0.3710 -1.0648  0.3178
  752TMC3     C11167   2.280   3.203  16.831  0.0837 -0.7921  0.1270
  752TMC3     O11168   2.390   3.154  16.799 -0.3463  0.1640  0.4304
  752TMC3     H11169   2.438   3.082  17.010  1.2272  1.0833 -0.0976
  752TMC3    H111170   2.075   3.287  16.965  1.6393  0.5647 -0.4242
  752TMC3    H211171   2.221   3.160  17.357  2.8660 -0.3221  0.8745
  752TMC3    C711172   1.998   3.217  17.211 -0.4129  0.1690  0.2391
  752TMC3    C811173   2.461   3.100  17.276  0.3226 -0.0550 -0.2210
  752TMC3    O111174   1.914   3.200  17.124  0.0616 -0.3996 -0.6565
  752TMC3    O211175   2.548   3.040  17.214 -0.0633 -0.2470  0.3590
  753TMC3    C111176   4.312   4.546  13.290 -0.4672  0.0530 -0.1524
  753TMC3    C211177   4.376   4.487  13.395 -0.5490  0.5633 -0.2415
  753TMC3    C311178   4.347   4.351  13.408  0.1168 -0.1571  0.0381
  753TMC3    C411179   4.219   4.480  13.208 -0.5389 -0.0121  0.6364
  753TMC3    C511180   4.197   4.345  13.227 -0.1896  0.7187  0.1087
  753TMC3    C611181   4.275   4.279  13.324  0.3540  0.5704 -0.8809
  753TMC3     C11182   4.346   4.689  13.282 -0.0729  0.1664  0.6715
  753TMC3     O11183   4.416   4.736  13.372  0.0994 -0.1618 -0.0873
  753TMC3     H11184   4.448   4.538  13.458 -1.6107  0.2230  1.2514
  753TMC3    H111185   4.164   4.529  13.129  0.8262 -0.7511 -0.7761
  753TMC3    H211186   4.262   4.175  13.351  1.3507  1.0813  1.4999
  753TMC3    C711187   4.136   4.274  13.117 -0.2015 -0.1660  0.4802
  753TMC3    C811188   4.419   4.273  13.508  0.1594 -0.0240  0.3933
  753TMC3    O111189   4.154   4.335  13.012  0.6626 -0.1036 -0.6050
  753TMC3    O211190   4.431   4.151  13.492 -0.6894  0.5163  0.5242
  754MPD2     C11191   3.202   3.421  13.279  0.3392 -0.2740 -0.0430
  754MPD2    C111192   3.179   3.295  13.231  0.2546 -0.1932 -0.0956
  754MPD2    C211193   3.054   3.269  13.174  0.3963 -0.3754 -0.3102
  754MPD2    C311194   2.943   3.350  13.196  0.8076  0.5393  0.3871
  754MPD2    C411195   2.970   3.476  13.251  0.0415 -0.1706  0.5532
  754MPD2    C511196   3.099   3.510  13.286 -0.1404 -0.4716  0.4889
  754MPD2     H11197   3.042   3.179  13.115 -0.7313 -1.8271  2.1794
  754MPD2    H111198   2.899   3.558  13.249 -0.9709 -1.0772 -1.1518
  754MPD2    H211199   3.294   3.447  13.331  0.0502  0.7177 -0.0390
  754MPD2    H311200   3.117   3.606  13.333  2.9053 -1.6125  1.6762
  754MPD2     N11201   2.812   3.320  13.155 -0.6511 -0.1896 -0.0460
  754MPD2    H511202   2.736   3.387  13.160 -0.8805 -0.3394 -1.3658
  754MPD2    N111203   3.290   3.202  13.231  0.7697  0.2275  0.6648
  754MPD2    H711204   3.376   3.253  13.248  0.4867  1.4156 -1.4626
  755MPD2     C11205   2.125   3.806  13.164  0.0271 -0.4643 -0.2198
  755MPD2    C111206   2.059   3.691  13.198  0.0182 -0.5184 -0.5905
  755MPD2    C211207   2.129   3.570  13.183 -0.6487  0.4163  0.4234
  755MPD2    C311208   2.262   3.572  13.135 -0.0900 -0.7143  0.5618
  755MPD2    C411209   2.322   3.689  13.107 -0.6796  0.7844 -0.4284
  755MPD2    C511210   2.246   3.807  13.106 -0.6199  0.5819  0.9042
  755MPD2     H11211   2.075   3.481  13.212  1.3091 -0.8999 -0.0395
  755MPD2    H111212   2.427   3.698  13.083 -0.5217 -0.9222 -0.3687
  755MPD2    H211213   2.076   3.903  13.167  2.1110  0.5761  0.2461
  755MPD2    H311214   2.302   3.898  13.085 -1.4767  1.2660  1.5737
  755MPD2     N11215   2.347   3.462  13.120 -0.0843 -0.1839  0.0646
  755MPD2    H511216   2.439   3.478  13.082 -0.1792 -1.5247 -0.7177
  755MPD2    N111217   1.929   3.686  13.248  0.2762  0.3061  0.1205
  755MPD2    H711218   1.884   3.597  13.268  0.9063 -0.5055 -2.1112
  756MPD2     C11219   3.929   0.002   9.950  0.3423 -0.3232  0.0421
  756MPD2    C111220   3.793   4.707   9.930 -0.4149 -0.2427  0.5422
  756MPD2    C211221   3.739   4.703   9.802 -0.0214 -0.2090 -0.6575
  756MPD2    C311222   3.811   4.732   9.689 -0.0159  0.7921 -0.4714
  756MPD2    C411223   3.938   0.041   9.711 -0.7860  0.0536 -0.2454
  756MPD2    C511224   4.000   0.045   9.837  0.1019 -0.2394 -0.3263
  756MPD2     H11225   3.635   4.674   9.786 -0.8712  0.2748  4.0638
  756MPD2    H111226   4.003   0.066   9.628 -1.0145  1.1579 -0.0952
  756MPD2    H211227   3.985   0.002  10.043  0.4453 -1.3299 -0.0164
  756MPD2    H311228   4.098   0.091   9.842  0.9757 -2.2509  1.4076
  756MPD2     N11229   3.747   4.730   9.563  0.1921  0.0673  0.0030
  756MPD2    H511230   3.652   4.695   9.561  0.6164 -0.9861 -1.6831
  756MPD2    N111231   3.709   4.707  10.046 -0.1497 -0.2518 -0.3610
  756MPD2    H711232   3.756   4.704  10.136  0.9737  0.4171 -0.9260
  757MPD2     C11233   3.326   4.067   9.230 -0.3945 -0.1521  0.4238
  757MPD2    C111234   3.463   4.071   9.270 -0.8037  0.0138 -0.2869
  757MPD2    C211235   3.527   4.192   9.269  0.5087 -0.7232 -0.8862
  757MPD2    C311236   3.458   4.308   9.236  0.1370  1.0310 -0.3092
  757MPD2    C411237   3.319   4.299   9.210  0.3571  0.3982 -0.6828
  757MPD2    C511238   3.256   4.180   9.197 -0.3301  0.0226  0.0457
  757MPD2     H11239   3.631   4.199   9.298  0.5488  0.0381 -1.2249
  757MPD2    H111240   3.253   4.380   9.180  0.0688 -0.0975 -1.4051
  757MPD2    H211241   3.262   3.980   9.235 -0.1232 -0.4643 -1.4783
  757MPD2    H311242   3.152   4.164   9.171  0.4302 -0.9133 -2.4003
  757MPD2     N11243   3.532   4.429   9.223  0.1238  0.0211  0.4668
  757MPD2    H511244   3.630   4.434   9.249 -0.3520 -0.6127  2.3796
  757MPD2    N111245   3.519   3.953   9.314  0.1271  0.1787 -0.2447
  757MPD2    H711246   3.463   3.868   9.311  2.8980 -1.6564 -1.1913
  758MPD2     C11247   2.964   2.109  15.653 -0.1932 -0.2284 -0.2831
  758MPD2    C111248   3.058   2.089  15.750 -0.4116  0.9531 -0.1672
  758MPD2    C211249   3.026   2.102  15.885 -0.2859 -1.1308  0.7443
  758MPD2    C311250   2.894   2.130  15.920  0.2382  0.0167 -0.4397
  758MPD2    C411251   2.804   2.158  15.821 -0.3206 -0.0207  0.2971
  758MPD2    C511252   2.841   2.160  15.686  0.1406  0.6519  0.2211
  758MPD2     H11253   3.103   2.086  15.960  1.4669  0.3523 -0.7172
  758MPD2    H111254   2.701   2.178  15.849 -0.4104  0.2936 -0.2540
  758MPD2    H211255   2.986   2.091  15.548  1.1961 -1.3093  0.2040
  758MPD2    H311256   2.764   2.175  15.612 -0.7467 -0.3973  0.9391
  758MPD2     N11257   2.851   2.149  16.052 -0.8756 -0.4457 -0.0973
  758MPD2    H511258   2.759   2.192  16.063 -0.4494  0.7230 -0.9921
  758MPD2    N111259   3.185   2.056  15.704 -0.2099  0.6017  0.2754
  758MPD2    H711260   3.198   2.057  15.603  0.7423  1.7187  0.4084
  759MPD2     C11261   2.492   1.021  10.159  0.2725 -0.9461  0.3622
  759MPD2    C111262   2.404   1.084  10.246 -0.0284  0.0048  0.4075
  759MPD2    C211263   2.384   1.218  10.242 -0.3603 -0.1323  0.7515
  759MPD2    C311264   2.444   1.299  10.148  0.5390 -0.4609  0.4572
  759MPD2    C411265   2.533   1.244  10.061  0.2714  0.1143  0.3651
  759MPD2    C511266   2.557   1.101  10.069  0.0187 -0.7692  0.5085
  759MPD2     H11267   2.313   1.268  10.307 -0.5161  0.7471 -0.1076
  759MPD2    H111268   2.585   1.305   9.988  0.3773 -0.1041  0.2566
  759MPD2    H211269   2.501   0.913  10.155 -0.8896 -0.9992 -0.8847
  759MPD2    H311270   2.624   1.050  10.002  2.4474 -0.5635  2.7738
  759MPD2     N11271   2.415   1.438  10.148 -0.3599 -0.0352  0.3064
  759MPD2    H511272   2.357   1.473  10.223 -0.8129 -1.3154  0.5347
  759MPD2    N111273   2.323   1.020  10.340 -0.4348  0.1209 -0.2585
  759MPD2    H711274   2.263   1.081  10.395 -1.2148 -1.1969  0.3569
  760MPD2     C11275   1.418   3.117  12.299  0.4121 -0.5744 -0.4310
  760MPD2    C111276   1.513   3.181  12.226 -0.4607  0.7355  0.1302
  760MPD2    C211277   1.640   3.158  12.269 -0.2486  0.6339 -0.0349
  760MPD2    C311278   1.678   3.073  12.366  0.1735  0.1059 -0.8304
  760MPD2    C411279   1.578   3.010  12.439 -0.0579  0.2826  0.4085
  760MPD2    C511280   1.452   3.031  12.396  0.5033  0.5005  0.6797
  760MPD2     H11281   1.718   3.216  12.221  0.4758 -0.8292 -0.6367
  760MPD2    H111282   1.597   2.941  12.521 -0.3599  0.0109  0.2471
  760MPD2    H211283   1.316   3.107  12.264  0.2712  0.5531 -0.3406
  760MPD2    H311284   1.380   2.961  12.437 -0.2083 -0.7893 -2.7565
  760MPD2     N11285   1.817   3.052  12.395 -0.1040  0.0295  0.2345
  760MPD2    H511286   1.828   3.013  12.487  1.3859 -0.2765 -0.0831
  760MPD2    N111287   1.484   3.287  12.136  0.5584  0.1701  0.0673
  760MPD2    H711288   1.568   3.343  12.130  0.8431 -0.1718  0.7733
  761MPD2     C11289   2.543   2.804  11.403  0.1887  0.7152 -0.5396
  761MPD2    C111290   2.620   2.789  11.289 -0.0591  0.1687 -0.3391
  761MPD2    C211291   2.742   2.841  11.275  0.3079 -0.1745  0.0172
  761MPD2    C311292   2.794   2.915  11.377 -0.2347  0.0537 -0.5274
  761MPD2    C411293   2.723   2.935  11.490 -0.2798  0.5301 -0.4905
  761MPD2    C511294   2.602   2.873  11.507 -0.0274 -0.1728 -0.0831
  761MPD2     H11295   2.790   2.825  11.179  0.9414  0.3935  0.2468
  761MPD2    H111296   2.765   2.980  11.578  0.1931  1.6518 -1.2902
  761MPD2    H211297   2.441   2.766  11.402  0.7373 -0.7708 -0.1086
  761MPD2    H311298   2.549   2.877  11.601  0.5742  2.2639  0.1425
  761MPD2     N11299   2.927   2.962  11.371  0.0023 -0.4837 -0.3028
  761MPD2    H511300   2.954   3.034  11.437 -0.0385 -0.8758  0.1457
  761MPD2    N111301   2.564   2.721  11.179  0.2195  0.6812 -0.4942
  761MPD2    H711302   2.480   2.668  11.201  1.3599 -0.2849  1.5141
  762MPD2     C11303   3.133   2.541  10.698  0.2898 -0.0924 -0.7896
  762MPD2    C111304   3.031   2.454  10.681 -0.1103  0.1437 -0.5921
  762MPD2    C211305   3.041   2.356  10.577  0.0045 -0.1313 -0.5129
  762MPD2    C311306   3.141   2.364  10.488 -0.8059  0.6218 -0.0641
  762MPD2    C411307   3.256   2.435  10.514  0.3486  0.1631 -0.2282
  762MPD2    C511308   3.247   2.518  10.619 -0.0781  0.3190 -0.1103
  762MPD2     H11309   2.960   2.283  10.572  0.3155 -0.4839 -0.4226
  762MPD2    H111310   3.339   2.455  10.447  1.7205  4.7475  2.8140
  762MPD2    H211311   3.138   2.618  10.774  0.4474  0.6037 -1.5079
  762MPD2    H311312   3.326   2.591  10.622  0.8696 -0.7186  0.2459
  762MPD2     N11313   3.143   2.273  10.380  0.6357  0.2851 -0.0848
  762MPD2    H511314   3.064   2.212  10.364  2.6371 -2.6457  1.2010
  762MPD2    N111315   2.919   2.480  10.765 -0.0924  0.0517  0.4461
  762MPD2    H711316   2.923   2.549  10.839  0.9883 -0.5866  0.9987
  763MPD2     C11317   0.387   2.578  16.117  0.4252  0.7725 -0.3014
  763MPD2    C111318   0.262   2.640  16.110 -0.0125 -0.4606  0.7633
  763MPD2    C211319   0.256   2.765  16.169  0.6066  0.0466 -0.3910
  763MPD2    C311320   0.369   2.824  16.235 -0.6839  0.8946 -0.0767
  763MPD2    C411321   0.488   2.757  16.245  0.0973  0.5008 -0.2519
  763MPD2    C511322   0.492   2.637  16.184  0.2116  0.2559  0.4730
  763MPD2     H11323   0.166   2.824  16.167 -0.1083 -1.0229  0.3744
  763MPD2    H111324   0.588   2.789  16.274  0.8159 -1.1343 -0.9100
  763MPD2    H211325   0.409   2.487  16.064 -0.1746  0.8734 -0.7293
  763MPD2    H311326   0.590   2.594  16.167 -0.1051 -1.4495  3.1698
  763MPD2     N11327   0.379   2.956  16.285  0.2061  0.2363 -0.0212
  763MPD2    H511328   0.470   2.990  16.316  0.3165 -3.6907  4.0063
  763MPD2    N111329   0.154   2.595  16.031  0.2886  0.2330  0.1999
  763MPD2    H711330   0.078   2.661  16.015 -0.2307 -0.8758 -1.9886
  764MPD2     C11331   3.271   3.972  17.027  0.0354 -0.3759  0.0620
  764MPD2    C111332   3.155   3.905  17.048  0.2286 -0.0595  0.2995
  764MPD2    C211333   3.142   3.814  17.139 -0.4656  0.1271  0.6387
  764MPD2    C311334   3.235   3.790  17.227  0.2230  0.0325 -0.1806
  764MPD2    C411335   3.358   3.858  17.210  0.6410  0.9367  1.0216
  764MPD2    C511336   3.380   3.952  17.108  0.6583  0.4101  0.1142
  764MPD2     H11337   3.046   3.764  17.144 -0.8723  0.8214 -0.2933
  764MPD2    H111338   3.448   3.834  17.266 -0.3177  1.4628  2.8053
  764MPD2    H211339   3.274   4.053  16.956 -0.8236 -0.0818  0.3498
  764MPD2    H311340   3.476   4.000  17.096  0.9846  0.1811  1.7692
  764MPD2     N11341   3.215   3.689  17.330  0.6332  1.1503 -0.1281
  764MPD2    H511342   3.123   3.646  17.335  1.6109 -1.1531 -1.9881
  764MPD2    N111343   3.045   3.932  16.959  0.3496 -0.4179 -0.1657
  764MPD2    H711344   2.961   3.875  16.966  0.1276 -0.3561 -2.3168
  765MPD2     C11345   2.301   1.932  16.195 -0.5906  0.6021 -0.2326
  765MPD2    C111346   2.396   2.013  16.141 -1.1118  0.1715  0.6592
  765MPD2    C211347   2.530   1.981  16.151 -0.2394 -0.7075  0.7133
  765MPD2    C311348   2.575   1.875  16.221 -0.1471 -0.5978  0.3012
  765MPD2    C411349   2.482   1.792  16.267 -0.0520  0.9834  0.5576
  765MPD2    C511350   2.345   1.816  16.255 -0.2559  0.0745 -0.0896
  765MPD2     H11351   2.604   2.045  16.104 -1.5239  0.7801  0.7054
  765MPD2    H111352   2.506   1.702  16.324  0.9160 -0.7977 -2.6523
  765MPD2    H211353   2.199   1.954  16.167 -1.4603  0.8354  3.0414
  765MPD2    H311354   2.276   1.739  16.288  0.9170 -1.6069 -1.5476
  765MPD2     N11355   2.715   1.854  16.241 -0.5678 -0.0494 -0.3680
  765MPD2    H511356   2.783   1.914  16.195 -1.2935  0.5408 -0.6906
  765MPD2    N111357   2.343   2.124  16.066  0.5062  0.7326  0.2256
  765MPD2    H711358   2.245   2.150  16.066  0.5381  0.8534  0.3652
  766MPD2     C11359   1.952   2.200  15.474  0.4503 -0.0666  0.1921
  766MPD2    C111360   2.084   2.197  15.508  0.2025 -0.1326 -0.3152
  766MPD2    C211361   2.170   2.133  15.420  0.6480 -0.3816  0.1812
  766MPD2    C311362   2.133   2.093  15.295 -0.0049 -0.4812 -0.4584
  766MPD2    C411363   1.998   2.096  15.269  0.3495  0.1280  0.1063
  766MPD2    C511364   1.908   2.154  15.358 -0.1009 -0.0528  0.3777
  766MPD2     H11365   2.272   2.131  15.455  2.0988 -0.6326 -3.9883
  766MPD2    H111366   1.954   2.042  15.186  0.7441 -0.8326  0.5253
  766MPD2    H211367   1.875   2.244  15.536  2.3541  0.4999  2.1945
  766MPD2    H311368   1.804   2.173  15.335  0.1036  0.2959 -0.2548
  766MPD2     N11369   2.225   2.047  15.195 -0.1676  0.0698  0.9717
  766MPD2    H511370   2.196   2.048  15.098 -0.9976 -0.6702  1.2131
  766MPD2    N111371   2.144   2.253  15.621 -0.1054 -0.3598 -0.1454
  766MPD2    H711372   2.245   2.244  15.632 -0.0351 -0.3132 -0.7834
  767MPD2     C11373   1.936   2.345  15.076  0.3047 -1.1879 -0.1328
  767MPD2    C111374   2.076   2.353  15.063 -0.2710  0.1306 -0.0133
  767MPD2    C211375   2.131   2.298  14.947 -0.1869 -0.4240 -0.3071
  767MPD2    C311376   2.049   2.236  14.855 -0.1264 -0.1660  0.1636
  767MPD2    C411377   1.918   2.216  14.883 -0.1730 -0.1944 -0.8368
  767MPD2    C511378   1.860   2.269  14.988  0.7284 -0.6048 -1.0596
  767MPD2     H11379   2.235   2.321  14.924 -0.3270 -1.0499 -1.5445
  767MPD2    H111380   1.854   2.162  14.815  1.9025 -1.2082 -1.9862
  767MPD2    H211381   1.891   2.386  15.165  0.5993  1.9655 -1.4405
  767MPD2    H311382   1.752   2.263  14.991  0.7846 -0.9390  0.0885
  767MPD2     N11383   2.104   2.193  14.726 -1.1504  0.4914  0.2237
  767MPD2    H511384   2.206   2.194  14.727 -1.2101  4.2580  0.5254
  767MPD2    N111385   2.142   2.429  15.158 -0.4297 -0.1844 -0.1775
  767MPD2    H711386   2.076   2.473  15.220 -0.5143  1.8824 -1.7544
  768MPD2     C11387   2.353   0.764  10.806 -0.3397 -0.1143  0.0866
  768MPD2    C111388   2.352   0.835  10.925 -0.6745  0.3260  0.8182
  768MPD2    C211389   2.449   0.818  11.022 -0.8606  0.3532  0.7659
  768MPD2    C311390   2.554   0.725  11.000 -0.1691 -0.0262  0.3050
  768MPD2    C411391   2.561   0.665  10.876  1.1859 -0.6547 -0.4736
  768MPD2    C511392   2.455   0.675  10.786 -0.0944 -0.2369 -0.4018
  768MPD2     H11393   2.440   0.885  11.107  1.6650  0.5008  0.9128
  768MPD2    H111394   2.643   0.602  10.846  0.3074 -1.7886 -0.5089
  768MPD2    H211395   2.277   0.759  10.729 -0.9791  0.8946  0.6601
  768MPD2    H311396   2.464   0.614  10.696 -0.3045  1.3291 -1.4780
  768MPD2     N11397   2.665   0.699  11.085 -0.6861  0.0396  0.2334
  768MPD2    H511398   2.747   0.656  11.044 -1.8248 -0.8581 -1.0908
  768MPD2    N111399   2.242   0.918  10.960 -0.4351 -0.1994 -0.0696
  768MPD2    H711400   2.240   0.953  11.055  2.5700  2.1749 -0.8664
  769MPD2     C11401   3.977   3.708  14.493 -0.3704 -0.1048 -0.2936
  769MPD2    C111402   3.888   3.720  14.600 -0.0467 -0.2685 -0.6016
  769MPD2    C211403   3.943   3.714  14.731  0.4198  0.7642 -0.0207
  769MPD2    C311404   4.075   3.695  14.753 -0.1428  0.7328  0.0173
  769MPD2    C411405   4.160   3.681  14.644  0.5447 -0.5065 -0.1319
  769MPD2    C511406   4.113   3.685  14.512 -0.4178  0.0052 -0.3675
  769MPD2     H11407   3.892   3.738  14.824 -0.6754 -0.5462 -0.2818
  769MPD2    H111408   4.266   3.658  14.642  1.1167  2.1801  0.7248
  769MPD2    H211409   3.946   3.719  14.389  0.3840 -1.4439 -0.6627
  769MPD2    H311410   4.170   3.657  14.425 -0.9831 -0.2565 -0.6534
  769MPD2     N11411   4.121   3.688  14.893  0.9499 -0.3252  0.3132
  769MPD2    H511412   4.061   3.718  14.969 -0.4418 -1.8596 -0.1626
  769MPD2    N111413   3.744   3.725  14.575  0.1648  0.2080  0.2578
  769MPD2    H711414   3.715   3.710  14.479 -0.4131 -1.2687  0.6781
  770MPD2     C11415   3.140   3.163  15.098  0.4167 -0.6547 -0.3788
  770MPD2    C111416   3.252   3.139  15.018  0.5319  0.1035  0.1367
  770MPD2    C211417   3.305   3.249  14.942  0.6087 -0.0466 -0.3493
  770MPD2    C311418   3.234   3.365  14.926 -0.0185  0.7538 -0.0509
  770MPD2    C411419   3.111   3.377  14.985  0.2687 -0.6383 -0.3383
  770MPD2    C511420   3.064   3.280  15.070 -0.2942  0.3160 -0.2682
  770MPD2     H11421   3.409   3.248  14.911  1.1116  1.8561  1.2748
  770MPD2    H111422   3.049   3.466  14.973  1.9307  0.5116 -0.3710
  770MPD2    H211423   3.105   3.082  15.160 -1.2499  1.3201  1.2844
  770MPD2    H311424   2.965   3.286  15.114  0.6785 -2.7574  2.3353
  770MPD2     N11425   3.289   3.458  14.830 -0.1365 -0.4992 -0.0896
  770MPD2    H511426   3.370   3.427  14.777 -1.0374 -0.0918 -1.7367
  770MPD2    N111427   3.317   3.015  15.038 -0.3387  0.2750  0.0782
  770MPD2    H711428   3.294   2.966  15.124 -1.5720 -1.7708 -1.4439
  771MPD2     C11429   4.434   1.440  13.534  0.2224  0.3830 -0.4151
  771MPD2    C111430   4.377   1.563  13.540  0.0620  0.2883  0.5483
  771MPD2    C211431   4.273   1.593  13.451  0.4812 -0.0959 -1.2072
  771MPD2    C311432   4.214   1.493  13.376  0.2055  0.2937  1.1620
  771MPD2    C411433   4.285   1.374  13.361  0.2793  0.6300 -0.1080
  771MPD2    C511434   4.388   1.346  13.445 -0.9033  0.8866 -0.4333
  771MPD2     H11435   4.236   1.695  13.461  1.6569  0.5843 -3.6295
  771MPD2    H111436   4.248   1.300  13.291  0.4799 -0.5024  0.9850
  771MPD2    H211437   4.526   1.413  13.584 -0.0818 -0.8959 -0.5501
  771MPD2    H311438   4.435   1.251  13.425 -3.1185  0.0824 -1.8586
  771MPD2     N11439   4.088   1.526  13.318 -0.2171 -0.0851  0.2669
  771MPD2    H511440   4.051   1.619  13.336 -1.0343 -0.5748  1.1228
  771MPD2    N111441   4.432   1.675  13.600  0.2294  0.7721  0.3091
  771MPD2    H711442   4.376   1.760  13.602 -0.3535  0.2989  3.0739
  772MPD2     C11443   4.260   2.286  13.948 -0.1886 -0.3950 -0.3559
  772MPD2    C111444   4.265   2.144  13.945  0.4690  0.0215 -0.4215
  772MPD2    C211445   4.166   2.069  14.013  0.2928  0.4464 -0.2613
  772MPD2    C311446   4.063   2.131  14.090 -0.3047  0.2535 -0.8178
  772MPD2    C411447   4.063   2.276  14.083  0.1005 -0.7642  0.2309
  772MPD2    C511448   4.160   2.349  14.017 -0.4334 -0.6486 -0.2373
  772MPD2     H11449   4.171   1.961  14.005 -0.1327  0.3634  0.5805
  772MPD2    H111450   3.990   2.331  14.141 -1.8226 -0.8688 -2.1181
  772MPD2    H211451   4.334   2.348  13.900 -1.3384  0.8434 -0.5417
  772MPD2    H311452   4.148   2.457  14.015 -0.2557 -0.6444 -1.0741
  772MPD2     N11453   3.975   2.067  14.168 -0.1759 -0.5634  0.1926
  772MPD2    H511454   3.916   2.121  14.231  0.6121  2.3607 -1.5766
  772MPD2    N111455   4.369   2.063  13.893 -0.2947  0.3681  0.4907
  772MPD2    H711456   4.360   1.962  13.899  1.3861  0.0545 -2.4445
  773MPD2     C11457   3.913   3.254   0.037  1.2007 -0.3623 -0.0946
  773MPD2    C111458   3.867   3.125   0.030 -0.3980  0.8895 -0.0561
  773MPD2    C211459   3.937   3.031   0.103 -0.1704  0.3209 -0.5481
  773MPD2    C311460   4.059   3.055   0.165  0.1526 -0.6567 -0.1700
  773MPD2    C411461   4.112   3.183   0.154 -0.0810 -0.3833  0.1707
  773MPD2    C511462   4.027   3.283   0.102  0.1870  0.0865 -0.1376
  773MPD2     H11463   3.896   2.931   0.108  1.2000 -0.2398 -0.3845
  773MPD2    H111464   4.206   3.212   0.199 -0.8958  1.1140  0.9203
  773MPD2    H211465   3.871   3.342  17.747  3.5719  0.3351 -0.8703
  773MPD2    H311466   4.055   3.388   0.104  0.2215  0.0475  2.0765
  773MPD2     N11467   4.123   2.945   0.234  0.4022 -0.5446  0.3587
  773MPD2    H511468   4.077   2.855   0.229 -0.3135 -0.1468 -0.1939
  773MPD2    N111469   3.750   3.089  17.715 -0.1979  0.8321  0.5741
  773MPD2    H711470   3.726   2.991  17.709 -1.9960  1.2727  0.4716
  774MPD2     C11471   2.875   2.176  13.038  0.4839  0.2248  0.8687
  774MPD2    C111472   2.909   2.206  13.174 -0.7702 -0.1238 -0.6342
  774MPD2    C211473   2.954   2.331  13.210 -0.0347 -0.0273 -0.0339
  774MPD2    C311474   2.971   2.432  13.116 -0.2010  0.1597  0.4427
  774MPD2    C411475   2.943   2.404  12.980  0.2535  0.0588  0.3546
  774MPD2    C511476   2.894   2.279  12.940  0.5535 -0.2998  0.4881
  774MPD2     H11477   2.978   2.354  13.313 -0.6978  0.4532  0.0069
  774MPD2    H111478   2.949   2.485  12.908  2.3096  0.1256  0.5984
  774MPD2    H211479   2.840   2.077  13.010 -0.2446  0.1921  1.8952
  774MPD2    H311480   2.874   2.264  12.834  0.9223  0.3040  0.3313
  774MPD2     N11481   3.029   2.555  13.155 -0.0617 -0.7634 -0.1749
  774MPD2    H511482   3.035   2.556  13.257  0.5731  1.6709 -0.2556
  774MPD2    N111483   2.883   2.102  13.261 -0.2447 -0.5643  0.0175
  774MPD2    H711484   2.850   2.015  13.221 -1.8421 -0.4855  1.1841
  775MPD2     C11485   4.528   3.299  15.667  0.7286  0.0103 -0.3187
  775MPD2    C111486   4.418   3.385  15.682  0.2338  0.3237  0.0573
  775MPD2    C211487   4.442   3.520  15.685 -0.4451  0.5986  0.6785
  775MPD2    C311488   4.568   3.569  15.676 -0.7483  0.1556 -0.1901
  775MPD2    C411489   4.674   3.482  15.667  0.3746 -0.3625 -0.7535
  775MPD2    C511490   4.652   3.350  15.654  0.1381 -0.2099 -0.4258
  775MPD2     H11491   4.360   3.589  15.703  0.8536  1.8410  1.8502
  775MPD2    H111492   0.034   3.522  15.649  0.2468 -0.4211 -1.5976
  775MPD2    H211493   4.516   3.191  15.666  1.2567 -0.0883  3.0194
  775MPD2    H311494   0.003   3.292  15.649  0.9041  1.0818 -1.5219
  775MPD2     N11495   4.595   3.703  15.671  0.1248  0.7791 -0.1621
  775MPD2    H511496   4.692   3.726  15.652  0.4969 -0.3049  0.4456
  775MPD2    N111497   4.291   3.323  15.690 -0.4063 -0.7199 -0.2732
  775MPD2    H711498   4.283   3.223  15.676  1.1439 -0.5068 -2.6327
  776MPD2     C11499   3.014   4.297  11.689 -0.1493  0.3320 -0.3036
  776MPD2    C111500   3.139   4.255  11.720 -0.5594  0.1552  0.3563
  776MPD2    C211501   3.247   4.321  11.658  0.5473  0.2249 -0.4972
  776MPD2    C311502   3.231   4.432  11.578  0.4633  0.2344 -0.0089
  776MPD2    C411503   3.105   4.468  11.558  0.1281  0.1144  0.5869
  776MPD2    C511504   2.994   4.406  11.605 -0.0603  0.1192 -0.0398
  776MPD2     H11505   3.348   4.283  11.668  0.5841  0.4216 -0.1460
  776MPD2    H111506   3.082   4.542  11.483 -0.2785 -1.4632 -0.8289
  776MPD2    H211507   2.922   4.247  11.718  0.6036 -0.4450  0.7393
  776MPD2    H311508   2.897   4.434  11.566 -0.5089  0.9087  1.6675
  776MPD2     N11509   3.335   4.499  11.509  0.4193 -0.6204 -0.3422
  776MPD2    H511510   3.304   4.567  11.440 -0.6533 -2.0851 -1.2995
  776MPD2    N111511   3.160   4.139  11.802  0.0377  0.1721  0.2077
  776MPD2    H711512   3.257   4.125  11.828  0.0069  0.1357  0.3059
  777MPD2     C11513   4.536   1.598   0.582  0.2376 -0.2612  0.1908
  777MPD2    C111514   4.516   1.540   0.707 -0.2133  0.4588  0.1061
  777MPD2    C211515   4.437   1.434   0.741  0.0125 -0.4627  0.2213
  777MPD2    C311516   4.367   1.375   0.632 -0.2706  0.1336  0.0388
  777MPD2    C411517   4.390   1.425   0.508 -0.5549 -1.0251  0.5731
  777MPD2    C511518   4.469   1.534   0.480  0.3657 -0.1789  0.5404
  777MPD2     H11519   4.423   1.394   0.841 -0.1173  1.0813  0.8312
  777MPD2    H111520   4.335   1.382   0.424  0.5304 -1.7174  0.2099
  777MPD2    H211521   4.597   1.687   0.566  1.4382 -1.2334 -0.5911
  777MPD2    H311522   4.493   1.572   0.381 -4.6204  2.4585  0.3267
  777MPD2     N11523   4.269   1.282   0.668 -0.0458 -0.0157  0.0385
  777MPD2    H511524   4.248   1.269   0.767 -0.3046 -0.9541 -0.1371
  777MPD2    N111525   4.582   1.610   0.813 -0.2752  0.6830 -0.0456
  777MPD2    H711526   4.622   1.701   0.793 -1.6711  0.9566 -1.6409
  778MPD2     C11527   0.345   2.011  14.865 -0.3669 -0.0800 -0.0029
  778MPD2    C111528   0.337   1.907  14.775  0.0480  0.7338  0.5392
  778MPD2    C211529   0.404   1.917  14.657 -0.8760  0.1536 -0.0510
  778MPD2    C311530   0.475   2.027  14.624 -0.0931  0.3288  0.0055
  778MPD2    C411531   0.475   2.137  14.707 -0.5656  0.1223  0.0097
  778MPD2    C511532   0.414   2.127  14.827  0.1919 -0.8312 -0.2689
  778MPD2     H11533   0.398   1.827  14.597  0.3844  1.4595 -2.1816
  778MPD2    H111534   0.536   2.222  14.679 -0.8744  0.8782  1.6411
  778MPD2    H211535   0.299   2.006  14.964 -3.3802  0.7301 -1.3680
  778MPD2    H311536   0.406   2.222  14.880  1.2383  0.1697 -1.9025
  778MPD2     N11537   0.555   2.024  14.507  0.3197  0.5002  0.4727
  778MPD2    H511538   0.563   1.937  14.454 -1.2754  0.4223  0.3647
  778MPD2    N111539   0.260   1.790  14.804  0.6755  0.5715 -0.0226
  778MPD2    H711540   0.262   1.723  14.727 -1.0532 -0.0175  0.4536
  779MPD2     C11541   4.358   0.449  14.386  0.3856  0.5148 -0.3764
  779MPD2    C111542   4.465   0.427  14.302  0.4764 -0.4631 -0.4591
  779MPD2    C211543   4.499   0.530  14.213  0.6371 -0.4548 -0.4460
  779MPD2    C311544   4.444   0.657  14.221 -0.3078 -0.0808 -0.4773
  779MPD2    C411545   4.337   0.675  14.309 -0.2883 -0.0623  0.1130
  779MPD2    C511546   4.298   0.575  14.391 -0.6364 -0.6707 -0.2621
  779MPD2     H11547   4.583   0.520  14.144  2.2923  1.6759  1.2590
  779MPD2    H111548   4.282   0.769  14.310 -2.1190 -1.1291  0.9536
  779MPD2    H211549   4.314   0.364  14.437  2.0075  0.3737  0.7904
  779MPD2    H311550   4.218   0.590  14.462  0.6949 -2.6592  1.6652
  779MPD2     N11551   4.492   0.749  14.130 -0.2769 -0.0468  0.0996
  779MPD2    H511552   4.563   0.727  14.061 -0.2677  0.6845 -0.1252
  779MPD2    N111553   4.528   0.298  14.282  0.1482  0.1217 -0.3188
  779MPD2    H711554   4.595   0.300  14.206  0.9090  1.6643  0.3715
  780MPD2     C11555   3.818   0.696   0.989  0.2116  0.0980 -0.2343
  780MPD2    C111556   3.895   0.585   0.966 -0.9219 -0.2369 -0.9606
  780MPD2    C211557   3.970   0.574   0.848  0.4909  0.0319 -0.5001
  780MPD2    C311558   3.965   0.679   0.755  0.3443  0.2407 -0.0393
  780MPD2    C411559   3.876   0.782   0.775  0.4591  0.2055  0.7360
  780MPD2    C511560   3.803   0.790   0.891  0.9100  0.3236  0.2868
  780MPD2     H11561   4.033   0.488   0.825  0.4025 -0.3821  0.7901
  780MPD2    H111562   3.853   0.858   0.701 -1.3445 -0.7103  0.3443
  780MPD2    H211563   3.769   0.706   1.085  1.9452 -1.5812  0.8298
  780MPD2    H311564   3.740   0.878   0.899  1.0327  0.7150 -3.0047
  780MPD2     N11565   4.030   0.666   0.634 -0.2218  0.1076  0.3596
  780MPD2    H511566   4.079   0.580   0.612  3.3665  1.5309  2.7946
  780MPD2    N111567   3.900   0.483   1.066  0.2504  0.6647  0.2860
  780MPD2    H711568   3.834   0.494   1.142  0.7607 -3.5946  1.3724
  781MPD2     C11569   0.961   2.415  11.996 -0.0829 -0.4797  0.3959
  781MPD2    C111570   1.040   2.490  12.087  0.1986 -0.1417  0.4318
  781MPD2    C211571   1.155   2.543  12.032 -0.3276  0.0360  0.7733
  781MPD2    C311572   1.198   2.514  11.901 -1.0433  0.9183  0.3901
  781MPD2    C411573   1.112   2.443  11.816  0.9218 -0.2003 -0.3428
  781MPD2    C511574   1.004   2.390  11.872  0.0597 -0.2769 -0.3717
  781MPD2     H11575   1.220   2.607  12.091 -1.7250  0.7307  1.5719
  781MPD2    H111576   1.132   2.422  11.712  1.6420 -0.5563 -0.1364
  781MPD2    H211577   0.869   2.367  12.028  0.3608 -2.0351 -0.6869
  781MPD2    H311578   0.935   2.334  11.811 -2.3638 -0.3854  2.4882
  781MPD2     N11579   1.310   2.581  11.839  0.1449 -0.5310  0.0996
  781MPD2    H511580   1.324   2.563  11.740 -1.8997  0.7888 -0.4405
  781MPD2    N111581   0.994   2.519  12.219  0.5370  0.0032  0.3265
  781MPD2    H711582   1.044   2.592  12.268  2.5801 -2.0348  1.3199
  782MPD2     C11583   3.245   3.147  10.400 -0.3882  0.3039 -0.7181
  782MPD2    C111584   3.366   3.142  10.342 -0.0961  0.4296 -0.0228
  782MPD2    C211585   3.450   3.248  10.332 -0.2033 -0.1229  0.8513
  782MPD2    C311586   3.411   3.361  10.391 -0.5090  0.4506  0.5697
  782MPD2    C411587   3.298   3.366  10.469  0.7763  0.1651  0.0958
  782MPD2    C511588   3.207   3.257  10.461 -0.3605 -0.4134 -1.5219
  782MPD2     H11589   3.549   3.249  10.288 -0.1893 -1.8920  0.8678
  782MPD2    H111590   3.266   3.460  10.513 -0.6450 -0.7955  1.0936
  782MPD2    H211591   3.176   3.063  10.393 -2.1769  1.4951  2.3860
  782MPD2    H311592   3.113   3.269  10.514  1.6376 -0.2721  2.0034
  782MPD2     N11593   3.492   3.478  10.394  0.8057 -0.1073  0.0945
  782MPD2    H511594   3.458   3.552  10.453 -0.3101  0.9155 -1.8257
  782MPD2    N111595   3.406   3.015  10.296  0.6652  0.2568  0.2437
  782MPD2    H711596   3.354   2.933  10.327  2.1327 -1.6783 -2.4374
  783MPD2     C11597   3.554   2.606  10.999 -0.0020 -0.1485  0.2795
  783MPD2    C111598   3.515   2.737  10.963  0.0307  0.1307 -0.7826
  783MPD2    C211599   3.550   2.774  10.833  0.3544 -0.0373 -0.3242
  783MPD2    C311600   3.607   2.685  10.745 -0.2647 -0.6262 -0.0164
  783MPD2    C411601   3.633   2.557  10.785 -0.0351  0.3778 -0.1301
  783MPD2    C511602   3.605   2.515  10.906  0.4393  0.1199 -0.2546
  783MPD2     H11603   3.521   2.871  10.793  1.3205 -1.4006 -4.3653
  783MPD2    H111604   3.675   2.480  10.720 -0.3732 -0.2264  0.3739
  783MPD2    H211605   3.529   2.572  11.099  0.5771  0.7912  0.7393
  783MPD2    H311606   3.628   2.413  10.934  0.4619 -0.1270 -1.1654
  783MPD2     N11607   3.635   2.730  10.615  0.0042 -0.2032  0.2490
  783MPD2    H511608   3.600   2.822  10.592 -0.0995 -0.0761  0.8951
  783MPD2    N111609   3.465   2.819  11.067  0.9322  0.2248  0.1315
  783MPD2    H711610   3.442   2.782  11.159 -0.3680  1.1365  0.1715
  784MPD2     C11611   2.239   3.601   0.061  0.5321  0.2631 -0.3013
  784MPD2    C111612   2.239   3.723   0.115  0.1543 -0.2499  0.0654
  784MPD2    C211613   2.133   3.802   0.087 -0.1787  0.5450  0.1163
  784MPD2    C311614   2.024   3.753   0.015  0.9595 -0.8315 -0.2080
  784MPD2    C411615   2.032   3.623  17.716  0.1373 -0.1548  0.2807
  784MPD2    C511616   2.138   3.553  17.738  0.3809  0.6088 -0.3660
  784MPD2     H11617   2.129   3.903   0.126 -0.6143  0.7053 -0.3414
  784MPD2    H111618   1.956   3.570  17.660 -1.6477  1.2881  1.3286
  784MPD2    H211619   2.328   3.542   0.081  1.1234  1.2561 -0.0257
  784MPD2    H311620   2.149   3.449  17.708 -2.9955  0.5560 -1.4004
  784MPD2     N11621   1.903   3.827   0.007 -0.1744 -0.0349  0.1106
  784MPD2    H511622   1.899   3.919   0.049 -0.3853  0.1639 -0.3494
  784MPD2    N111623   2.336   3.779   0.205  0.3256  0.1837  0.1599
  784MPD2    H711624   2.324   3.870   0.249  1.1311  1.1255 -1.5685
  785MPD2     C11625   2.052   2.792  10.462  0.3190 -0.3247  0.4248
  785MPD2    C111626   2.013   2.831  10.337 -0.6174 -0.0679  0.1021
  785MPD2    C211627   1.993   2.733  10.240  0.0560 -0.1443  0.8649
  785MPD2    C311628   2.008   2.600  10.271  0.1368  0.0048 -0.7259
  785MPD2    C411629   2.052   2.562  10.394  1.0630 -0.7079 -0.1615
  785MPD2    C511630   2.068   2.660  10.491  0.1533 -0.2280 -0.6288
  785MPD2     H11631   1.984   2.757  10.135 -0.5131 -2.1188  0.4555
  785MPD2    H111632   2.071   2.459  10.422 -1.6474 -0.6603  1.8452
  785MPD2    H211633   2.050   2.866  10.540  0.5646  0.1721 -0.0379
  785MPD2    H311634   2.101   2.627  10.589 -1.0916 -3.0372 -1.1365
  785MPD2     N11635   1.984   2.511  10.165  0.0659  0.3096  0.3203
  785MPD2    H511636   1.951   2.550  10.078  1.6363 -2.1667 -1.3711
  785MPD2    N111637   2.000   2.967  10.307  0.7869 -0.4346 -0.3655
  785MPD2    H711638   2.032   3.024  10.385  0.7269  0.3582 -0.9260
  786MPD2     C11639   0.511   4.544  14.436  0.4182  0.3965  0.2872
  786MPD2    C111640   0.516   4.438  14.525 -0.3273  0.4140 -0.6863
  786MPD2    C211641   0.564   4.461  14.652 -0.6903  0.1169 -0.0050
  786MPD2    C311642   0.622   4.582  14.691  1.0591 -0.7938 -0.3372
  786MPD2    C411643   0.614   4.686  14.598 -0.1420 -0.5136 -0.0091
  786MPD2    C511644   0.566   4.663  14.474  0.0871  0.2087 -0.1606
  786MPD2     H11645   0.542   4.384  14.725 -1.6930 -0.6150 -1.0838
  786MPD2    H111646   0.644   0.048  14.623 -0.0298 -0.6468  0.4003
  786MPD2    H211647   0.471   4.533  14.336  0.3639  0.5008  0.2973
  786MPD2    H311648   0.569   4.738  14.396  2.4167  1.0592  0.7436
  786MPD2     N11649   0.654   4.621  14.820  0.3069 -0.0604  0.2290
  786MPD2    H511650   0.676   4.720  14.829 -1.0968  0.1647  1.0829
  786MPD2    N111651   0.488   4.301  14.494 -0.1232 -0.1310  0.4831
  786MPD2    H711652   0.492   4.236  14.572 -0.5437  0.9257  1.3775
  787MPD2     C11653   0.641   3.870  14.879  0.0986  0.5838  0.4452
  787MPD2    C111654   0.672   3.808  14.761  0.1378 -0.2402 -0.4129
  787MPD2    C211655   0.770   3.713  14.761  0.2801  0.0504 -0.3407
  787MPD2    C311656   0.826   3.670  14.880  0.0603  0.3876  0.8648
  787MPD2    C411657   0.800   3.733  14.995 -0.5277  0.1241  0.2021
  787MPD2    C511658   0.707   3.829  14.996 -0.0341 -1.1363 -0.7665
  787MPD2     H11659   0.801   3.663  14.670  0.6565  0.4084 -0.4105
  787MPD2    H111660   0.843   3.706  15.091  1.5560  0.6276 -0.5882
  787MPD2    H211661   0.568   3.949  14.886 -1.5014 -1.1123  2.5627
  787MPD2    H311662   0.697   3.884  15.088 -1.0851 -0.0975 -1.4969
  787MPD2     N11663   0.928   3.569  14.872  0.3496 -0.1090 -0.2917
  787MPD2    H511664   0.958   3.543  14.779  2.8550 -3.5671  1.4667
  787MPD2    N111665   0.616   3.868  14.646 -0.4248 -0.1961 -0.4257
  787MPD2    H711666   0.572   3.954  14.676  1.0992  0.6844 -0.7204
  788MPD2     C11667   2.334   2.687   0.981  0.1051 -0.1207 -0.1666
  788MPD2    C111668   2.432   2.664   0.884 -0.8777 -0.5223  0.4899
  788MPD2    C211669   2.461   2.759   0.792 -1.2002 -0.3144 -0.4521
  788MPD2    C311670   2.402   2.884   0.804  0.1831 -0.7678  0.3418
  788MPD2    C411671   2.310   2.909   0.906  0.3082  0.0330 -0.1716
  788MPD2    C511672   2.263   2.807   0.982 -0.1149  0.2164 -0.0374
  788MPD2     H11673   2.535   2.743   0.715 -0.3974  4.2713 -0.6670
  788MPD2    H111674   2.262   3.005   0.920 -1.2025 -0.5343 -1.4652
  788MPD2    H211675   2.304   2.604   1.045  1.8037  0.2376  1.0765
  788MPD2    H311676   2.170   2.815   1.037  0.4758 -0.9007  1.1205
  788MPD2     N11677   2.428   2.993   0.717 -0.1720 -0.1865  0.0686
  788MPD2    H511678   2.395   3.084   0.747 -2.9369 -0.3418 -2.5035
  788MPD2    N111679   2.489   2.540   0.861 -0.7121  0.0983  0.5942
  788MPD2    H711680   2.535   2.523   0.772 -4.2013 -2.9979 -0.6113
  789MPD2     C11681   2.827   2.222  16.783  0.2684 -0.2250 -0.0524
  789MPD2    C111682   2.715   2.200  16.711 -0.9103  0.3409  0.3918
  789MPD2    C211683   2.620   2.304  16.705 -0.0590 -0.2276  0.4895
  789MPD2    C311684   2.648   2.427  16.769 -0.4012 -0.0086  0.3937
  789MPD2    C411685   2.774   2.442  16.827 -0.6429  0.2632  0.0798
  789MPD2    C511686   2.857   2.340  16.842 -0.6150  0.4155 -0.2831
  789MPD2     H11687   2.527   2.281  16.656  0.4269  0.5502 -0.7977
  789MPD2    H111688   2.797   2.537  16.874 -2.5507 -0.4906  2.5412
  789MPD2    H211689   2.899   2.141  16.788  1.8792  1.2628  0.7631
  789MPD2    H311690   2.954   2.365  16.886 -0.6430  0.3875 -0.2059
  789MPD2     N11691   2.553   2.529  16.774 -0.2494 -0.2174  0.2480
  789MPD2    H511692   2.583   2.603  16.837 -0.5873 -0.3255  0.5346
  789MPD2    N111693   2.679   2.075  16.648  0.2922  0.5764 -0.7809
  789MPD2    H711694   2.594   2.079  16.593 -1.1267 -0.1779  1.3566
  790MPD2     C11695   3.124   0.001  13.390 -0.8910 -0.4176 -0.0139
  790MPD2    C111696   3.157   4.611  13.418  0.1956 -0.4885  0.6531
  790MPD2    C211697   3.168   4.516  13.316 -0.0303 -0.1097  0.2463
  790MPD2    C311698   3.169   4.565  13.184  0.0784 -1.1553 -0.5160
  790MPD2    C411699   3.151   4.697  13.157 -0.2145  0.9384 -0.2547
  790MPD2    C511700   3.121   0.042  13.262 -0.1383 -0.0217  0.0516
  790MPD2     H11701   3.162   4.411  13.341 -0.5579 -0.2109 -0.2760
  790MPD2    H111702   3.158   0.003  13.059  1.7747 -0.8992 -0.9638
  790MPD2    H211703   3.111   0.076  13.468  0.6654 -1.2514  1.0370
  790MPD2    H311704   3.103   0.147  13.242  2.9569  0.7639  1.2848
  790MPD2     N11705   3.189   4.468  13.079  0.0787 -0.0481  0.3860
  790MPD2    H511706   3.172   4.371  13.100 -1.6206  0.3669  0.9884
  790MPD2    N111707   3.168   4.581  13.556 -0.5396 -0.2873 -0.0990
  790MPD2    H711708   3.154   4.654  13.625 -0.6492 -0.3437 -0.0608
  791MPD2     C11709   2.629   4.311  12.475  0.4872  0.0253  0.4085
  791MPD2    C111710   2.689   4.247  12.583  0.5093  0.4665 -0.3029
  791MPD2    C211711   2.615   4.151  12.647  0.3716 -0.4222 -0.5447
  791MPD2    C311712   2.487   4.117  12.612 -0.1826 -0.3465  0.6266
  791MPD2    C411713   2.433   4.174  12.500  0.3580 -0.4437  0.4082
  791MPD2    C511714   2.513   4.265  12.423  0.2210  0.2950 -0.0598
  791MPD2     H11715   2.652   4.100  12.735 -1.8578  0.7558  1.0663
  791MPD2    H111716   2.337   4.140  12.461  0.3299  0.9891 -0.7657
  791MPD2    H211717   2.676   4.391  12.419  1.6476  0.8446  2.5537
  791MPD2    H311718   2.470   4.296  12.329  0.1555  4.1140  1.2233
  791MPD2     N11719   2.426   4.011  12.677 -0.3543  0.1567  0.3518
  791MPD2    H511720   2.482   3.959  12.744  0.4886  0.1665 -0.3324
  791MPD2    N111721   2.816   4.287  12.621 -0.8017 -0.1089  0.0018
  791MPD2    H711722   2.858   4.361  12.566  0.7872 -0.7528  0.3481
  792MPD2     C11723   3.477   4.126  11.370 -0.3510  0.0107  0.2469
  792MPD2    C111724   3.463   4.198  11.257  0.0294 -0.9204 -0.2169
  792MPD2    C211725   3.341   4.217  11.208 -0.0373 -0.5861 -0.3278
  792MPD2    C311726   3.230   4.166  11.268  0.6225  0.6789  0.5000
  792MPD2    C411727   3.244   4.095  11.383 -0.0195 -0.9302 -0.6414
  792MPD2    C511728   3.366   4.071  11.432 -0.3585  0.1020 -0.2618
  792MPD2     H11729   3.331   4.271  11.115  0.8776  0.9195  0.4519
  792MPD2    H111730   3.156   4.063  11.436  0.8032 -2.2529 -0.0799
  792MPD2    H211731   3.567   4.095  11.422  0.7994  2.6514 -0.1860
  792MPD2    H311732   3.378   4.011  11.521  0.9380 -0.1840 -0.6211
  792MPD2     N11733   3.097   4.170  11.215 -0.0214 -0.0201 -0.4506
  792MPD2    H511734   3.026   4.113  11.260  0.0232  2.5961  2.9557
  792MPD2    N111735   3.587   4.231  11.194 -0.4322 -0.1287 -0.1599
  792MPD2    H711736   3.675   4.213  11.241  0.3469 -2.0236 -2.3388
  793MPD2     C11737   2.911   4.383  10.285  0.5355  0.2449  0.6559
  793MPD2    C111738   3.014   4.382  10.375  0.2367 -0.2028  0.3211
  793MPD2    C211739   3.002   4.326  10.497  0.0320 -0.0109  0.1342
  793MPD2    C311740   2.874   4.289  10.544  0.3982  0.5116  0.0062
  793MPD2    C411741   2.773   4.295  10.449 -0.0279  0.8955 -0.2272
  793MPD2    C511742   2.793   4.341  10.323  0.5570  0.2519  0.1843
  793MPD2     H11743   3.089   4.329  10.561  1.1079  0.0708 -1.3602
  793MPD2    H111744   2.669   4.283  10.478 -0.0316  0.7659 -0.2919
  793MPD2    H211745   2.924   4.418  10.183  0.3345 -0.3804  0.4192
  793MPD2    H311746   2.707   4.345  10.258  1.4720  1.0566 -0.9634
  793MPD2     N11747   2.867   4.257  10.683  0.0794 -0.3012 -0.2451
  793MPD2    H511748   2.955   4.248  10.732 -0.3702  1.0897  0.7973
  793MPD2    N111749   3.149   4.424  10.334 -0.0003  0.2198  0.7704
  793MPD2    H711750   3.223   4.389  10.393 -1.9115  0.4412  3.3020
  794MPD2     C11751   3.301   3.422  17.081  0.5272  0.0912 -0.3764
  794MPD2    C111752   3.305   3.282  17.066  0.3188  0.2690  1.0546
  794MPD2    C211753   3.249   3.214  16.959 -0.1214  0.0297  0.7250
  794MPD2    C311754   3.172   3.289  16.872  0.0547 -0.3214  0.8814
  794MPD2    C411755   3.168   3.426  16.891  0.2593 -0.4127 -0.3888
  794MPD2    C511756   3.233   3.496  16.985  0.4635 -0.2515 -0.3202
  794MPD2     H11757   3.255   3.106  16.953 -1.2366  0.0729 -1.0535
  794MPD2    H111758   3.128   3.497  16.819 -0.6493  0.0628  0.5717
  794MPD2    H211759   3.354   3.471  17.162 -1.5225 -2.0530  2.2658
  794MPD2    H311760   3.243   3.602  17.005 -0.7754 -0.4063  1.1161
  794MPD2     N11761   3.095   3.241  16.759 -0.4916  0.1726 -0.6047
  794MPD2    H511762   3.051   3.309  16.697  1.8733  3.5875  1.4675
  794MPD2    N111763   3.357   3.209  17.173 -0.1854 -0.2367  0.1566
  794MPD2    H711764   3.405   3.120  17.161  1.2248  0.4721  0.4725
  795MPD2     C11765   0.076   1.278  12.909 -0.0889  0.0212  0.2324
  795MPD2    C111766   0.154   1.171  12.860  0.0891  0.0224  1.2431
  795MPD2    C211767   0.234   1.090  12.945 -0.3487 -0.0291 -0.1123
  795MPD2    C311768   0.245   1.135  13.075 -0.0927  0.3675  0.1742
  795MPD2    C411769   0.160   1.239  13.118 -0.2212 -0.2820 -0.2652
  795MPD2    C511770   0.081   1.316  13.032 -1.1127  0.3057  0.2034
  795MPD2     H11771   0.289   1.008  12.901 -1.1564 -0.2007 -0.7883
  795MPD2    H111772   0.156   1.259  13.225  2.3940 -1.1023 -0.0292
  795MPD2    H211773   0.014   1.327  12.834  0.5135  0.3556 -0.0516
  795MPD2    H311774   0.009   1.389  13.067 -1.5368  0.0237 -0.0722
  795MPD2     N11775   0.343   1.071  13.155 -0.1566 -0.1349  0.4691
  795MPD2    H511776   0.400   1.002  13.108  0.9712 -0.6325  2.5752
  795MPD2    N111777   0.163   1.149  12.720  0.4587 -0.5000  0.3441
  795MPD2    H711778   0.193   1.055  12.697  0.5168 -0.4817  0.3472
  796MPD2     C11779   0.457   2.022  15.869  0.2242 -0.4165 -0.2151
  796MPD2    C111780   0.569   2.083  15.910  1.1440  0.2345 -0.0368
  796MPD2    C211781   0.593   2.216  15.882  0.0580  0.4748  0.4853
  796MPD2    C311782   0.506   2.283  15.802 -0.6205 -0.1759 -0.1869
  796MPD2    C411783   0.394   2.225  15.757 -0.7662 -0.6029 -0.4467
  796MPD2    C511784   0.369   2.091  15.786  0.2379 -0.0234  0.5756
  796MPD2     H11785   0.682   2.272  15.907 -0.1182 -0.3687  2.9568
  796MPD2    H111786   0.324   2.273  15.690  0.0061 -1.2261 -1.6966
  796MPD2    H211787   0.437   1.916  15.884  1.3428 -0.7830 -1.3311
  796MPD2    H311788   0.287   2.030  15.752  0.0552  0.2730  0.4915
  796MPD2     N11789   0.528   2.418  15.785  0.1421 -0.2525  0.0357
  796MPD2    H511790   0.617   2.449  15.823  0.5264 -0.9619 -0.2671
  796MPD2    N111791   0.664   1.998  15.969 -0.1642  0.1035 -0.0147
  796MPD2    H711792   0.625   1.911  16.005 -2.1894  0.3426 -1.5909
  797MPD2     C11793   2.311   1.667  17.020  0.1150 -0.6866 -0.0558
  797MPD2    C111794   2.311   1.800  16.997 -0.0369 -0.3056 -0.2708
  797MPD2    C211795   2.189   1.865  16.987 -0.0803 -0.1056 -1.2838
  797MPD2    C311796   2.070   1.801  16.988 -0.0906 -0.6334 -0.1149
  797MPD2    C411797   2.068   1.664  17.005 -0.0544  0.5580 -0.6928
  797MPD2    C511798   2.190   1.603  17.020 -0.5502 -0.3699 -0.4371
  797MPD2     H11799   2.193   1.971  16.961  1.0756  0.3532  0.7272
  797MPD2    H111800   1.978   1.604  17.009 -0.7970  1.5184 -2.9710
  797MPD2    H211801   2.406   1.624  17.050  0.2710 -0.5405 -0.3492
  797MPD2    H311802   2.192   1.495  17.030  1.4359 -0.3578 -0.7368
  797MPD2     N11803   1.947   1.874  16.992 -0.3667  0.3706 -0.4563
  797MPD2    H511804   1.953   1.972  16.966  1.1661 -0.2301 -2.3889
  797MPD2    N111805   2.433   1.874  16.999 -0.0094  0.2173 -0.2669
  797MPD2    H711806   2.419   1.973  16.980  4.0109  0.6347 -1.0734
  798MPD2     C11807   2.037   2.474  17.083  0.6740  0.8148  1.4849
  798MPD2    C111808   2.040   2.351  17.034  0.0219  0.1894 -0.9752
  798MPD2    C211809   2.157   2.288  17.010 -0.5521 -0.3952  0.5193
  798MPD2    C311810   2.281   2.349  17.040  0.0720 -0.4194  0.0739
  798MPD2    C411811   2.279   2.473  17.099 -0.5299  0.1371  0.3264
  798MPD2    C511812   2.160   2.533  17.108  0.5078 -0.1548  0.1108
  798MPD2     H11813   2.160   2.189  16.967 -2.9614 -0.5317  0.7059
  798MPD2    H111814   2.371   2.527  17.115 -0.2271  0.1552 -1.5297
  798MPD2    H211815   1.949   2.531  17.111  1.9338  2.9075  1.2191
  798MPD2    H311816   2.152   2.633  17.150 -0.1411 -0.6704  1.1855
  798MPD2     N11817   2.402   2.280  17.013  0.5565  0.0977  0.5302
  798MPD2    H511818   2.394   2.192  16.964 -1.7462 -1.4124  3.6228
  798MPD2    N111819   1.926   2.271  17.004  0.8367 -0.5067 -0.5375
  798MPD2    H711820   1.946   2.182  16.960  0.2953 -0.5599 -0.6753
  799MPD2     C11821   0.464   3.390  14.757  0.1578 -0.1169 -0.5136
  799MPD2    C111822   0.432   3.283  14.678 -0.3972 -0.3847 -0.7398
  799MPD2    C211823   0.380   3.312  14.554 -0.7552 -0.7782 -0.4572
  799MPD2    C311824   0.373   3.442  14.503 -0.1064 -0.6711 -0.2478
  799MPD2    C411825   0.413   3.546  14.579  0.3375 -0.2074  0.7489
  799MPD2    C511826   0.448   3.522  14.708  0.3328 -0.2432 -0.1348
  799MPD2     H11827   0.355   3.223  14.497 -1.3279 -1.4126  0.7903
  799MPD2    H111828   0.391   3.644  14.537 -1.2132 -1.2323 -0.8050
  799MPD2    H211829   0.488   3.381  14.862  1.3524 -2.8630 -1.0282
  799MPD2    H311830   0.461   3.603  14.779 -1.7348  0.9675 -1.1350
  799MPD2     N11831   0.318   3.467  14.374  0.0955  0.1002  0.7609
  799MPD2    H511832   0.311   3.564  14.347  1.7678  0.4622  1.6131
  799MPD2    N111833   0.456   3.148  14.711 -1.0820  0.2193  0.4863
  799MPD2    H711834   0.415   3.076  14.652  0.0913  1.0954 -1.4238
  800MPD2     C11835   0.969   4.478  14.426 -0.4884 -0.2484  0.6370
  800MPD2    C111836   1.000   4.594  14.363  0.0988  0.5743  0.2898
  800MPD2    C211837   0.920   4.646  14.262  0.0926 -0.2761 -0.6253
  800MPD2    C311838   0.811   4.577  14.212 -0.0709  0.3236 -0.4599
  800MPD2    C411839   0.781   4.460  14.282 -0.4211  0.7535 -0.2325
  800MPD2    C511840   0.852   4.415  14.389 -0.2019  0.1157 -1.0211
  800MPD2     H11841   0.941   4.734  14.202  0.8691 -1.6816 -2.4068
  800MPD2    H111842   0.693   4.404  14.254 -0.4774  0.6085  0.2249
  800MPD2    H211843   1.025   4.440  14.510  0.8067 -1.9812 -1.0024
  800MPD2    H311844   0.822   4.320  14.431 -1.6214  0.8041 -0.4519
  800MPD2     N11845   0.745   4.633  14.103 -0.5220  0.3980  0.6870
  800MPD2    H511846   0.773   4.721  14.061 -0.6646  1.6399  3.1884
  800MPD2    N111847   1.115   4.661  14.419  0.2112 -0.2946  0.4146
  800MPD2    H711848   1.171   4.611  14.486 -0.7728 -1.2316  0.5451
  801MPD2     C11849   1.037   0.636  14.399  0.0198 -0.3861  0.3709
  801MPD2    C111850   1.023   0.557  14.508 -0.0915  0.2964 -0.8771
  801MPD2    C211851   0.897   0.544  14.564 -0.2857 -0.2867 -0.5365
  801MPD2    C311852   0.784   0.593  14.498 -0.0215  0.4993  0.3396
  801MPD2    C411853   0.796   0.656  14.374  0.1697 -0.1946 -0.2330
  801MPD2    C511854   0.924   0.684  14.325  0.1686  0.5890  0.8226
  801MPD2     H11855   0.894   0.484  14.654 -0.9822  3.2762  1.8227
  801MPD2    H111856   0.706   0.692  14.325  1.6382  2.2902 -1.1093
  801MPD2    H211857   1.137   0.670  14.373  0.4737 -0.8329  1.5195
  801MPD2    H311858   0.955   0.753  14.247 -0.0687  1.4320  1.4733
  801MPD2     N11859   0.653   0.559  14.537  0.1261 -0.2239 -0.1139
  801MPD2    H511860   0.571   0.574  14.480 -0.5853  1.3072  1.3204
  801MPD2    N111861   1.129   0.480  14.562 -0.4504 -0.0457 -0.0024
  801MPD2    H711862   1.110   0.438  14.652  0.5154 -2.4332 -0.9222
  802MPD2     C11863   0.494   0.134   0.569  0.0817  0.0270  0.3979
  802MPD2    C111864   0.519   0.226   0.471  0.1588 -0.5420  0.0441
  802MPD2    C211865   0.529   0.186   0.336  0.5937 -0.3670  0.0146
  802MPD2    C311866   0.510   0.050   0.305 -0.4848 -1.0832 -0.5443
  802MPD2    C411867   0.493   4.697   0.404  0.1363 -0.3248 -0.1749
  802MPD2    C511868   0.494   0.000   0.536  0.2959 -0.6296 -0.1697
  802MPD2     H11869   0.562   0.259   0.263  1.6536 -2.5085 -1.6380
  802MPD2    H111870   0.502   4.592   0.377 -0.5309 -0.5860  0.6282
  802MPD2    H211871   0.501   0.158   0.675  2.7931  1.8147 -0.1977
  802MPD2    H311872   0.487   4.668   0.616  1.4694 -0.1545  0.3710
  802MPD2     N11873   0.527   0.028   0.169  0.0355 -0.1549  0.5398
  802MPD2    H511874   0.553   0.104   0.107 -1.4862 -0.4681 -0.5049
  802MPD2    N111875   0.532   0.360   0.481  0.2437 -0.4933  0.2494
  802MPD2    H711876   0.537   0.414   0.395 -0.9761  0.5290  0.8212
  803MPD2     C11877   1.038   3.993  12.125  0.5655  0.2268 -0.1561
  803MPD2    C111878   1.164   3.986  12.177 -0.2587 -0.0771 -0.1982
  803MPD2    C211879   1.176   3.935  12.303 -0.2688 -0.2748  0.1876
  803MPD2    C311880   1.068   3.900  12.384 -0.1938  0.8147  0.8610
  803MPD2    C411881   0.946   3.931  12.336 -0.2539  0.4842 -0.3759
  803MPD2    C511882   0.934   3.972  12.207  0.0344  0.1409  0.4320
  803MPD2     H11883   1.277   3.935  12.344 -0.5362 -0.4257  0.8294
  803MPD2    H111884   0.855   3.923  12.395 -0.7731  0.1829 -1.2269
  803MPD2    H211885   1.013   4.022  12.024 -0.1850 -0.2934 -0.1169
  803MPD2    H311886   0.840   4.003  12.162  0.4619  1.5526  0.5126
  803MPD2     N11887   1.084   3.850  12.517 -0.2355 -0.1598  0.0598
  803MPD2    H511888   0.999   3.851  12.572  1.0314  0.9995  1.9954
  803MPD2    N111889   1.286   4.017  12.107  0.2396 -0.3041  0.0358
  803MPD2    H711890   1.368   3.995  12.162  1.5034  0.4343 -1.5377
  804MPD2     C11891   1.092   0.309  16.885  0.2381 -0.0540 -0.4388
  804MPD2    C111892   1.112   0.250  17.008 -0.1726  0.0423  0.4447
  804MPD2    C211893   1.218   0.295  17.085  0.6470 -0.2448  1.0310
  804MPD2    C311894   1.303   0.397  17.041  1.1840  0.3716 -0.3515
  804MPD2    C411895   1.286   0.444  16.909  0.0254 -0.4065  0.0940
  804MPD2    C511896   1.177   0.408  16.841  0.2592  0.7491 -0.6221
  804MPD2     H11897   1.235   0.247  17.181  2.2750 -3.0621 -0.6732
  804MPD2    H111898   1.360   0.508  16.863 -1.9649  1.5234 -0.4414
  804MPD2    H211899   1.010   0.282  16.819 -2.0170 -0.1522  2.4016
  804MPD2    H311900   1.169   0.451  16.742  0.1431 -1.5492 -1.6196
  804MPD2     N11901   1.398   0.446  17.131 -0.6268  0.1534  0.4122
  804MPD2    H511902   1.418   0.384  17.208 -0.6423  0.7577  0.9006
  804MPD2    N111903   1.041   0.130  17.051  0.0026  0.2818  0.7384
  804MPD2    H711904   1.070   0.094  17.141 -0.0819  0.8175  0.9826
  805MPD2     C11905   0.303   3.122  15.481 -0.4319 -0.9894 -0.0790
  805MPD2    C111906   0.289   3.252  15.480  0.5764  0.3028  0.6353
  805MPD2    C211907   0.379   3.329  15.562 -0.5844 -0.8259  0.5175
  805MPD2    C311908   0.486   3.260  15.619  0.7237 -0.5996  0.7896
  805MPD2    C411909   0.499   3.127  15.614 -0.1283 -0.0116 -0.4336
  805MPD2    C511910   0.400   3.058  15.549 -0.0885  0.3544  0.1883
  805MPD2     H11911   0.366   3.436  15.574 -1.0092 -0.7607 -0.5139
  805MPD2    H111912   0.580   3.070  15.657  0.6584  0.8736 -0.7521
  805MPD2    H211913   0.227   3.067  15.427 -1.3750  1.9681 -1.7558
  805MPD2    H311914   0.399   2.951  15.538  2.0100 -0.0622  3.9590
  805MPD2     N11915   0.580   3.330  15.698 -0.3105  0.0178  0.0471
  805MPD2    H511916   0.573   3.432  15.704 -1.9703 -0.2371  2.3072
  805MPD2    N111917   0.185   3.314  15.410  0.0629 -0.1504  0.3663
  805MPD2    H711918   0.108   3.252  15.387 -1.5331  2.6275 -1.7091
  806MPD2     C11919   1.485   2.734   0.437 -0.1165 -0.0450  0.0869
  806MPD2    C111920   1.587   2.750   0.347  0.2957  0.0897  0.1870
  806MPD2    C211921   1.581   2.693   0.220  0.2840  0.0055  0.9147
  806MPD2    C311922   1.480   2.601   0.199  0.2531 -0.3846 -0.6794
  806MPD2    C411923   1.397   2.568   0.304 -0.2384  0.0093  0.7842
  806MPD2    C511924   1.393   2.640   0.420  0.1336  0.6993  0.5234
  806MPD2     H11925   1.652   2.708   0.140 -0.8447 -1.6322 -0.3732
  806MPD2    H111926   1.324   2.488   0.291  2.1113 -2.3107  1.8456
  806MPD2    H211927   1.479   2.788   0.531 -2.6717  1.8779 -1.1890
  806MPD2    H311928   1.317   2.622   0.496  0.8461 -2.6999  0.4218
  806MPD2     N11929   1.479   2.519   0.077 -0.6946  0.3277  0.0299
  806MPD2    H511930   1.553   2.542   0.012 -0.1345  0.3968  0.6884
  806MPD2    N111931   1.703   2.817   0.388  0.4626  0.0868 -0.6971
  806MPD2    H711932   1.700   2.841   0.486 -0.1621 -0.6863 -0.5258
  807MPD2     C11933   2.119   2.514   0.851 -0.1588 -0.2850  0.8212
  807MPD2    C111934   2.027   2.614   0.863 -0.5456 -0.1342  0.2871
  807MPD2    C211935   1.919   2.610   0.951  0.1856  0.4166 -0.2695
  807MPD2    C311936   1.908   2.504   1.039  0.4660 -0.3994 -0.2202
  807MPD2    C411937   2.006   2.409   1.038 -0.3506 -0.5020  0.3008
  807MPD2    C511938   2.105   2.410   0.939  0.0449  0.0869  0.3651
  807MPD2     H11939   1.842   2.685   0.948 -0.4819 -0.2280  0.7147
  807MPD2    H111940   2.003   2.326   1.107 -1.1733 -0.3261  0.4713
  807MPD2    H211941   2.184   2.499   0.766  0.7532  0.2986  1.4201
  807MPD2    H311942   2.178   2.330   0.935 -0.1241 -0.0663  0.3750
  807MPD2     N11943   1.796   2.506   1.118 -0.5387 -0.2694  0.0527
  807MPD2    H511944   1.744   2.593   1.124 -0.2200 -0.1976  1.8040
  807MPD2    N111945   2.023   2.712   0.761 -0.6094 -0.9332 -0.6652
  807MPD2    H711946   1.958   2.789   0.774 -0.1750 -0.3239 -2.0693
  808MPD2     C11947   1.553   0.111  10.094 -0.3310  0.0063  0.4356
  808MPD2    C111948   1.440   0.152  10.160  0.6260  0.3376  0.4980
  808MPD2    C211949   1.426   0.288  10.201  0.5031  0.4071 -0.2453
  808MPD2    C311950   1.535   0.371  10.178 -0.3300  0.6509 -0.1777
  808MPD2    C411951   1.635   0.332  10.098 -0.2417 -0.0939 -0.0993
  808MPD2    C511952   1.649   0.201  10.065  0.9423  0.0641  0.5578
  808MPD2     H11953   1.335   0.314  10.253  1.0613 -0.4079  1.1420
  808MPD2    H111954   1.714   0.395  10.059 -2.4213  1.7343 -1.5633
  808MPD2    H211955   1.570   0.006  10.074  0.8769  0.4062 -0.6370
  808MPD2    H311956   1.741   0.173  10.014  0.8647  0.0683  0.4156
  808MPD2     N11957   1.541   0.507  10.209  0.8170  0.6147  0.5143
  808MPD2    H511958   1.630   0.551  10.189  0.3130  1.3169 -0.1924
  808MPD2    N111959   1.331   0.073  10.185 -0.8076  0.2343  0.7931
  808MPD2    H711960   1.255   0.099  10.247 -1.1710  0.6765  0.1678
  809MPD2     C11961   2.078   1.310  10.057  0.0751  0.5334 -0.5300
  809MPD2    C111962   2.070   1.187  10.006 -0.1493 -0.4428  0.2984
  809MPD2    C211963   1.965   1.107  10.049 -0.3998  0.3778  0.3033
  809MPD2    C311964   1.863   1.156  10.130 -0.3400  0.1691  0.1900
  809MPD2    C411965   1.871   1.286  10.171 -0.2554  0.3262  0.1541
  809MPD2    C511966   1.984   1.356  10.142 -0.1798 -0.9298 -0.8911
  809MPD2     H11967   1.948   1.005  10.015 -0.4661  0.0385  1.3425
  809MPD2    H111968   1.797   1.331  10.237 -0.4172 -0.5912  0.5912
  809MPD2    H211969   2.166   1.371  10.041 -0.1454  0.9117 -0.3049
  809MPD2    H311970   1.998   1.458  10.176  0.8382 -0.9227 -1.3087
  809MPD2     N11971   1.756   1.070  10.180 -0.1781 -0.0100  0.9856
  809MPD2    H511972   1.687   1.119  10.235 -0.5462 -0.6615  1.1031
  809MPD2    N111973   2.159   1.139   9.907  0.1084 -0.3480 -0.0073
  809MPD2    H711974   2.148   1.040   9.887  2.5887 -1.2129  3.0267
  810MPD2     C11975   0.797   4.361  10.674 -1.1473  0.2235 -0.8663
  810MPD2    C111976   0.687   4.275  10.693 -0.5175  0.1521 -0.3806
  810MPD2    C211977   0.587   4.307  10.784 -0.5375  0.7215 -0.3276
  810MPD2    C311978   0.591   4.431  10.852  0.0051  0.0578 -0.2580
  810MPD2    C411979   0.701   4.511  10.834  0.0329  0.2582  0.4607
  810MPD2    C511980   0.809   4.474  10.759  0.8456 -0.4491 -0.3259
  810MPD2     H11981   0.496   4.248  10.781  1.1368 -1.8623  0.9369
  810MPD2    H111982   0.708   4.608  10.881 -2.9844  0.0064  1.4190
  810MPD2    H211983   0.886   4.329  10.623 -1.7229 -0.2716 -1.5582
  810MPD2    H311984   0.905   4.524  10.764  1.2238 -1.1123 -0.9279
  810MPD2     N11985   0.488   4.473  10.934 -0.0167 -0.2050 -0.2397
  810MPD2    H511986   0.489   4.569  10.968  2.2419  0.3353 -1.9040
  810MPD2    N111987   0.676   4.155  10.619 -0.3119  0.7182  0.0619
  810MPD2    H711988   0.731   4.158  10.534  1.7345 -2.4156  1.2552
  811MPD2     C11989   0.253   4.371   9.907  0.3936  0.1182  0.2489
  811MPD2    C111990   0.306   4.415  10.035  0.1929 -0.8856  0.2855
  811MPD2    C211991   0.306   4.550  10.069  0.4742 -0.2310  0.0480
  811MPD2    C311992   0.270   4.645   9.971  0.3889 -0.2184  0.7230
  811MPD2    C411993   0.232   4.601   9.844 -0.1079  0.1397 -0.3260
  811MPD2    C511994   0.219   4.473   9.820  0.0135  0.2697  0.2661
  811MPD2     H11995   0.324   4.584  10.170  1.7497 -0.1572 -0.2054
  811MPD2    H111996   0.208   4.667   9.761 -2.4414 -2.1419 -1.4563
  811MPD2    H211997   0.250   4.269   9.873 -0.1426  0.8159 -1.7892
  811MPD2    H311998   0.175   4.447   9.725  0.3985  0.7541 -0.0502
  811MPD2     N11999   0.268   0.045  10.003 -0.1633  0.6734  0.2208
  811MPD2    H512000   0.310   0.078  10.089 -1.8825 -0.2791  1.4086
  811MPD2    N112001   0.348   4.319  10.128  0.5894  0.1236 -0.3326
  811MPD2    H712002   0.350   4.231  10.078 -1.4866 -0.7803  1.1654
  812MPD2     C12003   4.475   4.193  12.100  0.0683  0.2165 -0.0953
  812MPD2    C112004   4.371   4.248  12.173 -0.5130  0.8314 -0.4899
  812MPD2    C212005   4.288   4.161  12.245 -0.1629  0.0034 -0.0504
  812MPD2    C312006   4.323   4.031  12.255 -0.4785  0.1543  0.7100
  812MPD2    C412007   4.428   3.979  12.174  0.0104 -0.5745 -0.1481
  812MPD2    C512008   4.506   4.062  12.107 -0.1189 -0.0261 -0.3104
  812MPD2     H12009   4.206   4.205  12.301 -0.7899 -0.7945 -0.3289
  812MPD2    H112010   4.458   3.876  12.162 -0.4474 -0.4457 -2.3898
  812MPD2    H212011   4.541   4.262  12.048 -1.2527  1.3179 -0.3172
  812MPD2    H312012   4.578   4.014  12.041 -1.9020 -0.0021 -2.2942
  812MPD2     N12013   4.255   3.946  12.341  0.1715 -0.4839 -0.0550
  812MPD2    H512014   4.172   3.984  12.386  0.0736  0.5423 -1.1223
  812MPD2    N112015   4.354   4.386  12.182  0.4912  0.9285  0.1600
  812MPD2    H712016   4.430   4.432  12.134  1.0933  0.1382  0.3637
  813MPD2     C12017   2.876   0.942  12.591  0.9316 -0.4256 -0.1009
  813MPD2    C112018   2.954   1.033  12.657 -0.1566  0.2739 -0.2900
  813MPD2    C212019   2.911   1.068  12.781 -1.1121 -0.2588  0.1841
  813MPD2    C312020   2.801   1.016  12.847 -0.6694  0.2054  1.1522
  813MPD2    C412021   2.726   0.929  12.776 -0.2096 -0.1361  0.1043
  813MPD2    C512022   2.764   0.897  12.648  0.4302  0.1801  0.1564
  813MPD2     H12023   2.969   1.135  12.843  0.3599 -1.2050 -0.1738
  813MPD2    H112024   2.632   0.900  12.822 -0.0198  0.8636  1.1226
  813MPD2    H212025   2.902   0.903  12.493  2.5650 -0.8959  0.5304
  813MPD2    H312026   2.699   0.824  12.603  1.7914 -1.1492  0.3260
  813MPD2     N12027   2.777   1.073  12.975 -0.0520 -0.4595  0.8418
  813MPD2    H512028   2.853   1.125  13.015  0.1623 -0.9356  1.0526
  813MPD2    N112029   3.075   1.082  12.606 -0.2535  0.1089  0.6292
  813MPD2    H712030   3.138   1.123  12.675  2.3288 -1.8763 -0.5364
  814MPD2     C12031   3.588   2.193  12.655  0.3369  0.0403 -0.1661
  814MPD2    C112032   3.680   2.205  12.552 -0.1247 -0.1669  0.5099
  814MPD2    C212033   3.749   2.323  12.528 -0.1192  0.4212 -0.1222
  814MPD2    C312034   3.732   2.428  12.617 -0.2101  0.6427  0.2713
  814MPD2    C412035   3.655   2.413  12.730  0.4019 -0.0023 -0.2794
  814MPD2    C512036   3.579   2.298  12.742  0.1680 -0.0702  0.0885
  814MPD2     H12037   3.811   2.340  12.441 -0.8810  0.3461 -0.6831
  814MPD2    H112038   3.642   2.488  12.807 -3.0510  0.2018 -1.0744
  814MPD2    H212039   3.526   2.105  12.669 -2.3064  2.1366  1.1109
  814MPD2    H312040   3.508   2.286  12.823  1.0174  1.3347  1.0584
  814MPD2     N12041   3.805   2.547  12.615  0.0344  0.1517  0.1219
  814MPD2    H512042   3.790   2.609  12.694  0.8947 -0.8442  1.0614
  814MPD2    N112043   3.697   2.104  12.455 -0.0365 -0.1368 -0.6655
  814MPD2    H712044   3.737   2.133  12.367 -0.6453  0.7114 -0.6616
  815MPD2     C12045   4.055   1.268  11.782 -0.5723 -0.6506 -0.1775
  815MPD2    C112046   4.036   1.133  11.803 -0.3892 -0.1675 -0.2656
  815MPD2    C212047   3.939   1.092  11.891  0.0470 -0.6454 -0.5233
  815MPD2    C312048   3.859   1.180  11.961  0.8003 -0.3422 -0.2126
  815MPD2    C412049   3.875   1.320  11.932 -0.2909  0.4257  0.5306
  815MPD2    C512050   3.975   1.360  11.843 -0.7194  0.2435 -0.3463
  815MPD2     H12051   3.917   0.986  11.904  2.3798 -0.8924  1.3950
  815MPD2    H112052   3.816   1.394  11.985  0.7584  1.8537 -0.2768
  815MPD2    H212053   4.138   1.294  11.717  0.0787  0.4111  1.0874
  815MPD2    H312054   3.991   1.467  11.830 -0.1167  0.0674 -0.9967
  815MPD2     N12055   3.758   1.127  12.046  0.2039 -0.0329 -0.3380
  815MPD2    H512056   3.752   1.028  12.067  0.3496  0.1487  0.5698
  815MPD2    N112057   4.118   1.045  11.732  0.2060  0.1228  0.2253
  815MPD2    H712058   4.149   1.085  11.644 -0.8519  1.3742  0.4133
  816MPD2     C12059   0.102   4.579  17.445 -0.3621 -0.4390  0.3919
  816MPD2    C112060   4.723   4.604  17.380 -0.2848  0.0269 -0.3204
  816MPD2    C212061   4.711   4.584  17.240  0.6220  0.3310  0.2409
  816MPD2    C312062   0.084   4.554  17.162  0.1916  0.8634  0.2406
  816MPD2    C412063   0.198   4.516  17.238 -0.2004  0.3355 -0.5629
  816MPD2    C512064   0.205   4.524  17.371  0.9983 -0.1340  0.0375
  816MPD2     H12065   4.626   4.632  17.193  0.8759 -0.4604 -0.9947
  816MPD2    H112066   0.284   4.467  17.192 -0.3384  1.1609 -1.7120
  816MPD2    H212067   0.106   4.586  17.553 -0.1983 -0.4152  0.3830
  816MPD2    H312068   0.299   4.491  17.414  0.3168  1.0279  2.4571
  816MPD2     N12069   0.069   4.552  17.026 -0.5146 -1.1353  0.0211
  816MPD2    H512070   4.713   4.559  16.994  0.4487 -0.6110 -2.7513
  816MPD2    N112071   4.615   4.671  17.451 -0.1860 -0.4409  0.5274
  816MPD2    H712072   4.645   4.695  17.545  0.2881  0.0278  0.2574
  817MPD2     C12073   4.037   1.966   9.820 -0.5282 -0.5100 -0.0331
  817MPD2    C112074   4.042   1.908   9.694 -0.3608  0.3085 -0.9671
  817MPD2    C212075   4.045   1.986   9.572  0.1814  0.7653 -0.3184
  817MPD2    C312076   4.030   2.126   9.589  0.5165 -0.7226 -0.1456
  817MPD2    C412077   4.014   2.178   9.713  0.3897  0.5986  0.8192
  817MPD2    C512078   4.024   2.103   9.826  0.3001  0.6428  0.2021
  817MPD2     H12079   4.074   1.945   9.476  3.4195  2.0877  0.1118
  817MPD2    H112080   4.012   2.283   9.737 -2.1531  0.7010  0.1005
  817MPD2    H212081   4.032   1.910   9.913  0.3442  0.6817  0.7338
  817MPD2    H312082   4.029   2.155   9.921 -0.1612 -0.8211  1.0248
  817MPD2     N12083   4.039   2.202   9.475  0.3245  0.8059  0.1452
  817MPD2    H512084   4.053   2.152   9.387 -0.2448  2.5506 -0.9345
  817MPD2    N112085   4.044   1.771   9.691 -0.2745  0.2562  0.1490
  817MPD2    H712086   4.065   1.722   9.777 -0.6113  0.6022  0.4288
  818MPD2     C12087   2.786   1.898  10.192  0.0519  0.5405 -0.0450
  818MPD2    C112088   2.718   1.836  10.301  0.1850  0.0838 -0.5862
  818MPD2    C212089   2.726   1.704  10.312  0.0502  0.3070 -0.4988
  818MPD2    C312090   2.815   1.630  10.235  0.3221 -0.1189 -0.9174
  818MPD2    C412091   2.882   1.687  10.126 -0.0192  1.1347 -0.0342
  818MPD2    C512092   2.877   1.822  10.114 -0.3557  0.0548  0.4989
  818MPD2     H12093   2.670   1.669  10.398  0.6376  1.2630  0.2776
  818MPD2    H112094   2.940   1.635  10.051  2.0751  0.7135  1.8972
  818MPD2    H212095   2.773   2.002  10.161 -0.0305  0.4478 -0.3201
  818MPD2    H312096   2.934   1.873  10.037 -2.1226 -0.1328 -0.9454
  818MPD2     N12097   2.832   1.494  10.246  0.2986  0.3017  0.5022
  818MPD2    H512098   2.908   1.461  10.188 -0.2952  2.5917 -1.5516
  818MPD2    N112099   2.631   1.896  10.396 -0.6070  0.2751  0.5252
  818MPD2    H712100   2.590   1.837  10.467 -0.4514  0.4514  0.7623
  819MPD2     C12101   1.008   3.307  15.600 -0.6142  0.7188  0.3917
  819MPD2    C112102   0.982   3.172  15.617 -0.4128  0.1540 -0.4474
  819MPD2    C212103   1.065   3.104  15.707  0.2798 -0.0883  0.1050
  819MPD2    C312104   1.166   3.164  15.781 -0.0746 -0.4002  0.0783
  819MPD2    C412105   1.185   3.301  15.766 -0.0512  0.5717 -0.4236
  819MPD2    C512106   1.115   3.367  15.668 -0.9380 -0.5138 -0.7204
  819MPD2     H12107   1.060   2.996  15.714  1.7707 -0.0352  2.0475
  819MPD2    H112108   1.256   3.362  15.821  0.2516  0.0927 -0.2840
  819MPD2    H212109   0.943   3.367  15.538 -0.6537  0.6354  0.3521
  819MPD2    H312110   1.145   3.470  15.655 -0.9305 -0.3040  1.0035
  819MPD2     N12111   1.257   3.084  15.850  0.1995 -0.2472 -0.1579
  819MPD2    H512112   1.246   2.984  15.835  0.6518 -0.4114  0.6230
  819MPD2    N112113   0.897   3.106  15.527 -0.7052  0.3794  0.3172
  819MPD2    H712114   0.874   3.158  15.444  1.4005 -0.0816 -0.5315
  820MPD2     C12115   0.143   3.280  14.915 -0.2651 -0.5732  0.3232
  820MPD2    C112116   0.221   3.344  15.009 -0.9365 -0.2372 -0.0254
  820MPD2    C212117   0.315   3.279  15.085 -0.8697  0.1080 -0.0876
  820MPD2    C312118   0.325   3.138  15.072  0.2529  0.1948  0.3952
  820MPD2    C412119   0.245   3.074  14.982 -0.1952  0.7042 -0.0738
  820MPD2    C512120   0.157   3.140  14.906  0.2879 -0.9961  0.4981
  820MPD2     H12121   0.370   3.336  15.160 -0.2707  0.2022 -0.5919
  820MPD2    H112122   0.246   2.967  14.964  0.0972  0.5372  0.9541
  820MPD2    H212123   0.075   3.342  14.857  0.5164  0.5941  0.6545
  820MPD2    H312124   0.095   3.080  14.841 -0.2895  0.3903 -0.2281
  820MPD2     N12125   0.408   3.049  15.143  0.5081  0.1730 -0.3902
  820MPD2    H512126   0.370   2.956  15.156 -2.3251  1.2541 -0.8175
  820MPD2    N112127   0.194   3.486  15.037 -0.1504  0.0909  0.6652
  820MPD2    H712128   0.238   3.512  15.125 -0.9109  1.4022  0.6468
  821MPD2     C12129   0.628   4.690  13.266 -0.3816 -0.2108 -0.4765
  821MPD2    C112130   0.722   0.017  13.352 -0.0436 -0.0154  0.3163
  821MPD2    C212131   0.830   0.089  13.298 -0.5996 -0.3208 -0.1987
  821MPD2    C312132   0.856   0.087  13.164 -0.2456 -0.2263 -0.3172
  821MPD2    C412133   0.763   0.033  13.085  0.2244 -0.3367  0.3709
  821MPD2    C512134   0.656   4.695  13.133  1.2548 -0.5949  0.0435
  821MPD2     H12135   0.903   0.145  13.355  1.7206 -3.7388  0.2186
  821MPD2    H112136   0.778   0.041  12.978  1.5762 -2.4818  0.4020
  821MPD2    H212137   0.542   4.634  13.298 -1.3353  1.3992 -0.2098
  821MPD2    H312138   0.594   4.639  13.064  1.1462 -1.2409  0.6660
  821MPD2     N12139   0.973   0.132  13.094 -0.1143 -0.1298 -0.6607
  821MPD2    H512140   0.970   0.133  12.993 -3.0707 -1.7410 -0.5896
  821MPD2    N112141   0.708   0.019  13.492 -0.5452  0.6255 -0.4579
  821MPD2    H712142   0.762   0.087  13.544 -1.3623 -0.3185  1.6268
  822MPD2     C12143   1.885   4.346  15.513 -0.2677 -0.1968  0.5730
  822MPD2    C112144   1.867   4.306  15.645  0.2134  0.0894 -0.5326
  822MPD2    C212145   1.777   4.388  15.720 -0.2317 -0.1129 -0.4101
  822MPD2    C312146   1.713   4.501  15.670  0.1122 -0.8352  0.4891
  822MPD2    C412147   1.740   4.533  15.537  0.3783  0.3862  0.0615
  822MPD2    C512148   1.830   4.463  15.465  0.8126 -0.3050 -0.2037
  822MPD2     H12149   1.752   4.371  15.824 -0.0604  1.7000 -0.0730
  822MPD2    H112150   1.703   4.624  15.491  0.7923  0.6112  0.1768
  822MPD2    H212151   1.950   4.294  15.445  0.3348 -0.9809  1.7533
  822MPD2    H312152   1.842   4.493  15.361 -1.8275  0.4954 -0.2771
  822MPD2     N12153   1.646   4.583  15.762 -0.0631  0.0539 -0.0662
  822MPD2    H512154   1.626   4.545  15.854  0.7649 -0.5814 -0.1552
  822MPD2    N112155   1.912   4.182  15.703  0.0401  0.2318 -0.0087
  822MPD2    H712156   1.903   4.175  15.804  0.1003  1.4161  0.0797
  823MPD2     C12157   1.178   0.147  16.452 -0.4567 -0.1414  0.1492
  823MPD2    C112158   1.253   0.051  16.389  0.4670  0.6454  0.2134
  823MPD2    C212159   1.303   4.687  16.462 -0.7010  0.3807  0.2275
  823MPD2    C312160   1.278   4.664  16.595  0.6244 -0.4940  0.1880
  823MPD2    C412161   1.210   0.022  16.658  0.2003 -0.3753  0.5606
  823MPD2    C512162   1.149   0.128  16.585 -0.1950  0.1075  0.1853
  823MPD2     H12163   1.363   4.611  16.413  0.4047  1.5684 -0.2464
  823MPD2    H112164   1.193   0.016  16.764 -0.3998 -1.9614  0.3660
  823MPD2    H212165   1.137   0.233  16.399 -0.1504 -1.5201 -2.3020
  823MPD2    H312166   1.090   0.199  16.643  0.6658  0.4502  0.6407
  823MPD2     N12167   1.338   4.558  16.671  0.1433 -0.0058 -0.1018
  823MPD2    H512168   1.321   4.560  16.771  0.6324  1.7019 -0.0534
  823MPD2    N112169   1.291   0.075  16.259 -0.1225  0.1619  0.5095
  823MPD2    H712170   1.269   0.168  16.225  0.8797  0.7213  1.4034
  824MPD2     C12171   2.043   3.390  15.465 -0.2599  0.3822 -0.6028
  824MPD2    C112172   2.144   3.458  15.534 -0.1909  0.6115  0.1733
  824MPD2    C212173   2.268   3.411  15.532  0.8834  0.7283  0.7278
  824MPD2    C312174   2.306   3.290  15.474 -0.0383 -0.6689 -0.8498
  824MPD2    C412175   2.204   3.220  15.420  0.3439  0.9642 -0.3166
  824MPD2    C512176   2.074   3.267  15.416 -0.1146  0.5409  0.5893
  824MPD2     H12177   2.338   3.473  15.587  2.2132  2.5947 -3.0379
  824MPD2    H112178   2.236   3.120  15.394 -1.3780  0.8610 -1.9848
  824MPD2    H212179   1.944   3.433  15.454 -0.5745  0.1158  1.1120
  824MPD2    H312180   1.993   3.215  15.366 -0.3434  1.3723  0.0906
  824MPD2     N12181   2.444   3.242  15.489 -0.4284  0.2558  0.1761
  824MPD2    H512182   2.461   3.142  15.487 -2.1236 -0.0438  0.7471
  824MPD2    N112183   2.108   3.584  15.588 -0.1739 -0.2992  0.2821
  824MPD2    H712184   2.010   3.610  15.578  0.2913  1.3536 -0.0413
  825MPD2     C12185   3.349   3.437  15.252 -0.1707  0.2686  0.6255
  825MPD2    C112186   3.216   3.480  15.277 -0.5326 -0.0883  0.8130
  825MPD2    C212187   3.177   3.604  15.232  0.3272  0.1654  0.0918
  825MPD2    C312188   3.266   3.692  15.165  0.0289  0.3499 -0.1196
  825MPD2    C412189   3.395   3.647  15.146  0.0085  0.7923 -0.4151
  825MPD2    C512190   3.434   3.523  15.191  0.5679  0.1621 -1.0468
  825MPD2     H12191   3.074   3.635  15.240  0.0726 -0.6431 -0.1591
  825MPD2    H112192   3.473   3.711  15.106  1.9758 -0.3370  1.6074
  825MPD2    H212193   3.384   3.338  15.279  2.3414  0.4193 -2.0469
  825MPD2    H312194   3.535   3.486  15.178  1.1948  0.8574  1.8628
  825MPD2     N12195   3.218   3.824  15.124  0.1252 -0.0742 -0.0124
  825MPD2    H512196   3.287   3.878  15.074 -0.4809  0.2091 -0.5435
  825MPD2    N112197   3.125   3.390  15.341 -0.3344 -0.1598  0.0823
  825MPD2    H712198   3.150   3.292  15.349  2.3599  0.3776 -1.7544
  826MPD2     C12199   1.964   3.664  13.682 -1.1925  0.6075 -0.2170
  826MPD2    C112200   2.019   3.770  13.613 -0.5202  0.8359 -0.2637
  826MPD2    C212201   1.958   3.895  13.619 -0.1498  0.6515  0.1589
  826MPD2    C312202   1.840   3.909  13.690  0.0936 -0.6994 -0.6528
  826MPD2    C412203   1.784   3.796  13.756  0.1860  0.1588 -0.3933
  826MPD2    C512204   1.849   3.675  13.748  0.0183  0.0962 -0.4464
  826MPD2     H12205   2.012   3.980  13.578 -0.0173  0.1831 -0.6353
  826MPD2    H112206   1.692   3.808  13.813  0.1067 -2.4946  0.0170
  826MPD2    H212207   2.007   3.565  13.673  1.4215  1.7256 -0.1107
  826MPD2    H312208   1.814   3.579  13.786  2.9112 -0.6914  0.2182
  826MPD2     N12209   1.771   4.028  13.699 -0.4364  0.1261 -0.5154
  826MPD2    H512210   1.686   4.026  13.755 -0.3543 -0.2300 -0.4068
  826MPD2    N112211   2.144   3.742  13.555 -0.0740 -0.1860 -0.3116
  826MPD2    H712212   2.182   3.649  13.569 -0.6911 -0.5750 -1.1927
  827MPD2     C12213   3.189   0.398  10.018 -0.4241 -0.0043  0.2437
  827MPD2    C112214   3.165   0.308  10.118  0.1169 -0.7454 -0.3125
  827MPD2    C212215   3.145   0.177  10.081  0.3858 -0.1196 -0.4153
  827MPD2    C312216   3.141   0.139   9.948 -0.4153 -0.5915 -0.2438
  827MPD2    C412217   3.144   0.237   9.853  0.8327 -0.2204 -0.0245
  827MPD2    C512218   3.173   0.363   9.886  0.5046 -0.1839  0.3580
  827MPD2     H12219   3.156   0.099  10.156  2.9866 -0.1637 -0.8499
  827MPD2    H112220   3.142   0.216   9.746 -0.0435 -2.9238  0.5099
  827MPD2    H212221   3.204   0.503  10.042 -3.6418  0.7283 -0.9167
  827MPD2    H312222   3.177   0.437   9.807 -0.9751 -1.4470 -0.8692
  827MPD2     N12223   3.129   0.002   9.919 -0.8873 -0.2207  0.0052
  827MPD2    H512224   3.120   4.676   9.995 -0.4667 -1.1515 -0.7500
  827MPD2    N112225   3.191   0.357  10.251  0.0181  0.0339 -0.3819
  827MPD2    H712226   3.216   0.455  10.261 -1.0233  0.2433  0.1806
  828MPD2     C12227   1.695   0.119  12.525  0.4160 -0.3068 -0.1274
  828MPD2    C112228   1.644   0.109  12.399 -0.8941  0.1159 -0.0727
  828MPD2    C212229   1.711   0.030  12.305  0.1000 -0.1160  0.3890
  828MPD2    C312230   1.836   4.720  12.332 -0.0571  0.3969  0.2215
  828MPD2    C412231   1.892   0.003  12.454  0.0940 -0.4355 -0.0272
  828MPD2    C512232   1.824   0.075  12.549  0.0055  0.3215 -1.3433
  828MPD2     H12233   1.662   0.021  12.209 -1.7627 -0.0145  1.3362
  828MPD2    H112234   1.993   4.709  12.475  1.0156  1.8260 -0.7630
  828MPD2    H212235   1.645   0.167  12.608 -0.7543 -0.3874 -0.7938
  828MPD2    H312236   1.866   0.092  12.647 -1.8405 -0.1193 -0.4769
  828MPD2     N12237   1.904   4.635  12.242 -0.3269  0.0984 -0.1863
  828MPD2    H512238   1.993   4.599  12.276 -0.9294 -1.3279 -0.1237
  828MPD2    N112239   1.515   0.157  12.364  0.9680  0.3487  0.0504
  828MPD2    H712240   1.485   0.139  12.269  0.3303 -0.5664  0.4256
  829MPD2     C12241   1.056   4.679  11.667  0.8120 -0.0214  0.0008
  829MPD2    C112242   0.973   0.029  11.748 -0.6129  0.9508 -0.1910
  829MPD2    C212243   1.024   0.103  11.852 -0.5982  0.0018 -0.2582
  829MPD2    C312244   1.157   0.083  11.886 -0.0358  0.3908 -0.5962
  829MPD2    C412245   1.242   0.001  11.809 -0.5463  0.4288  0.2191
  829MPD2    C512246   1.189   4.668  11.703  0.2370  0.0924  1.1566
  829MPD2     H12247   0.957   0.164  11.911 -0.3077  1.5720 -1.5582
  829MPD2    H112248   1.347   4.732  11.835 -0.7371 -2.8901 -0.1632
  829MPD2    H212249   1.012   4.613  11.593 -0.0257 -0.9922  1.3617
  829MPD2    H312250   1.250   4.604  11.640 -0.0824  0.0292  0.9135
  829MPD2     N12251   1.211   0.151  11.997  0.5021  0.0980 -0.0277
  829MPD2    H512252   1.290   0.112  12.047  2.3036  4.0353  0.1707
  829MPD2    N112253   0.835   0.041  11.732  0.6358 -0.0053  0.3335
  829MPD2    H712254   0.792   0.116  11.785  2.4435  0.3112  1.3677
  830MPD2     C12255   1.985   2.815  15.671  0.4505 -0.9404 -0.4416
  830MPD2    C112256   1.863   2.849  15.618  0.0714  0.6239 -0.0302
  830MPD2    C212257   1.851   2.891  15.493 -0.6725  0.4413  0.0220
  830MPD2    C312258   1.962   2.886  15.409 -0.0888  0.2995  0.0340
  830MPD2    C412259   2.086   2.858  15.464  0.4907 -0.4169 -0.3358
  830MPD2    C512260   2.100   2.821  15.595 -0.1265 -0.1708 -0.3651
  830MPD2     H12261   1.754   2.921  15.456 -1.0042 -2.6023 -1.5551
  830MPD2    H112262   2.172   2.874  15.400  1.1352 -2.1916  0.0830
  830MPD2    H212263   2.005   2.792  15.775  2.9979 -1.0050 -0.9651
  830MPD2    H312264   2.199   2.810  15.639 -0.6992  1.3891  1.3218
  830MPD2     N12265   1.964   2.936  15.279 -0.5119 -0.7510 -0.1665
  830MPD2    H512266   2.050   2.927  15.226 -0.2533 -1.7451  0.4165
  830MPD2    N112267   1.764   2.841  15.714 -0.3896 -0.3784  0.4342
  830MPD2    H712268   1.795   2.823  15.809  1.7245  0.9621  0.0258
  831MPD2     C12269   1.841   4.629  16.164  0.3176 -0.1402 -0.1769
  831MPD2    C112270   1.853   4.506  16.104  0.2597  0.0764 -0.4608
  831MPD2    C212271   1.746   4.417  16.107  0.0018  0.6967  0.9881
  831MPD2    C312272   1.640   4.443  16.195  0.1381  0.4876 -0.1150
  831MPD2    C412273   1.648   4.552  16.282  0.1318 -0.3812  0.1689
  831MPD2    C512274   1.741   4.645  16.262  0.7837  0.3475  0.0645
  831MPD2     H12275   1.739   4.324  16.052 -0.9996  1.6298 -0.4304
  831MPD2    H112276   1.570   4.579  16.352 -0.2102  1.3712 -0.8954
  831MPD2    H212277   1.915   4.706  16.147  1.1811 -0.8881  0.2164
  831MPD2    H312278   1.757   4.736  16.318  0.2536 -0.3561  1.3806
  831MPD2     N12279   1.524   4.360  16.208 -0.3969 -0.3644 -0.5637
  831MPD2    H512280   1.452   4.383  16.276 -0.4351 -2.8610  0.2500
  831MPD2    N112281   1.975   4.489  16.026  0.4685  0.1083  0.1576
  831MPD2    H712282   2.037   4.569  16.027  1.4114 -0.6255  0.0426
  832MPD2     C12283   0.418   0.742  17.391 -0.1086 -0.4468  0.1991
  832MPD2    C112284   0.404   0.864  17.327 -0.0832  0.4719  0.3176
  832MPD2    C212285   0.283   0.898  17.276 -0.7953 -0.5092  0.0653
  832MPD2    C312286   0.170   0.821  17.305  0.8754 -0.1190 -0.2034
  832MPD2    C412287   0.180   0.701  17.377 -0.6610  0.1616 -0.1487
  832MPD2    C512288   0.307   0.656  17.407 -0.1999  0.6340 -0.6237
  832MPD2     H12289   0.275   0.971  17.196 -1.9583 -0.0318  0.6176
  832MPD2    H112290   0.096   0.636  17.398  0.0893 -0.5785  0.5525
  832MPD2    H212291   0.514   0.707  17.427  0.4034 -0.8423 -1.5083
  832MPD2    H312292   0.315   0.557  17.451  0.3461  1.5865  1.4480
  832MPD2     N12293   0.036   0.850  17.260  0.3999  0.2677  0.7490
  832MPD2    H512294   4.706   0.782  17.287  0.5751 -0.8247 -1.6211
  832MPD2    N112295   0.517   0.946  17.311  0.0195  0.5116 -0.2654
  832MPD2    H712296   0.610   0.914  17.338 -1.1581 -1.4604  1.4158
  833MPD2     C12297   2.218   2.996  12.707 -0.0699  0.4199  0.5819
  833MPD2    C112298   2.211   3.102  12.626 -0.5098  0.0793 -0.1389
  833MPD2    C212299   2.313   3.114  12.531  0.0855  0.0572  0.0153
  833MPD2    C312300   2.407   3.020  12.512 -0.6563  0.1328 -0.8901
  833MPD2    C412301   2.406   2.912  12.599  0.1022 -0.8473 -0.0731
  833MPD2    C512302   2.313   2.901  12.697 -0.5544 -0.6223 -0.3298
  833MPD2     H12303   2.313   3.199  12.464 -1.2630  1.8723  2.3377
  833MPD2    H112304   2.474   2.827  12.598 -0.1427 -1.0421  0.2712
  833MPD2    H212305   2.144   2.980  12.784 -0.9645  2.3134  0.0942
  833MPD2    H312306   2.316   2.823  12.772 -0.4395 -0.5641 -0.2736
  833MPD2     N12307   2.508   3.028  12.410  0.1253 -0.3677 -0.4210
  833MPD2    H512308   2.573   2.951  12.401  0.5532 -0.1628  0.9711
  833MPD2    N112309   2.101   3.196  12.646  0.0162 -0.4515 -0.0534
  833MPD2    H712310   2.041   3.175  12.726 -2.2379 -1.8231 -2.0836
  834MPD2     C12311   2.520   2.456  11.643 -0.5816  0.3915 -0.0790
  834MPD2    C112312   2.410   2.544  11.644 -0.1949 -0.6657 -0.3666
  834MPD2    C212313   2.423   2.659  11.722  0.3147  0.5187  0.6137
  834MPD2    C312314   2.536   2.690  11.798  0.2037  0.6405 -0.0383
  834MPD2    C412315   2.643   2.601  11.792 -0.0039 -0.4098 -0.0583
  834MPD2    C512316   2.632   2.490  11.714 -0.2749 -0.2954  0.1833
  834MPD2     H12317   2.341   2.728  11.743  1.2759  1.2167  2.0719
  834MPD2    H112318   2.726   2.625  11.856 -0.7342  0.3351  0.6140
  834MPD2    H212319   2.525   2.370  11.578 -0.5162  0.7259 -0.5203
  834MPD2    H312320   2.710   2.415  11.706  0.6450  0.5984  0.8174
  834MPD2     N12321   2.534   2.803  11.883  0.8090 -0.1920  0.3120
  834MPD2    H512322   2.453   2.863  11.870  0.2827 -0.9718 -0.0150
  834MPD2    N112323   2.301   2.519  11.562 -0.4714 -0.3908  0.3050
  834MPD2    H712324   2.296   2.436  11.503 -0.0106  0.3123 -0.7182
  835MPD2     C12325   2.095   0.570  10.948  0.3922 -0.2749  0.3830
  835MPD2    C112326   1.967   0.598  10.997 -0.7531 -0.2979  0.4113
  835MPD2    C212327   1.967   0.656  11.124  0.4109  0.0685  0.7293
  835MPD2    C312328   2.077   0.654  11.209  0.5069  0.0037  0.3140
  835MPD2    C412329   2.198   0.609  11.160  0.2472  0.1094 -0.0033
  835MPD2    C512330   2.201   0.566  11.029  0.2060  0.1831  0.6004
  835MPD2     H12331   1.868   0.676  11.163  0.7762  0.2177  1.5927
  835MPD2    H112332   2.281   0.601  11.230 -1.9660  2.4988  2.8955
  835MPD2    H212333   2.105   0.537  10.845  1.8390  2.1708 -0.2514
  835MPD2    H312334   2.294   0.521  10.999  0.9091  1.3808  0.9744
  835MPD2     N12335   2.072   0.713  11.341 -0.2553  0.3250 -0.7049
  835MPD2    H512336   2.152   0.707  11.403 -1.0751 -0.2589  0.3225
  835MPD2    N112337   1.846   0.591  10.926  0.8259  0.4076 -0.1937
  835MPD2    H712338   1.758   0.627  10.960  1.0387  0.2521  0.5219
  836MPD2     C12339   1.558   1.207  11.650  0.4627  0.3172 -0.0816
  836MPD2    C112340   1.606   1.132  11.750  0.7508 -0.0590  0.7308
  836MPD2    C212341   1.553   1.134  11.875 -0.3430 -0.2649 -0.1133
  836MPD2    C312342   1.446   1.217  11.899 -0.6951 -0.1782  0.8923
  836MPD2    C412343   1.396   1.288  11.798 -0.2924 -0.2151 -0.5410
  836MPD2    C512344   1.446   1.283  11.672  0.2881 -0.1201  0.6580
  836MPD2     H12345   1.598   1.083  11.959  1.2393  1.9921  0.4085
  836MPD2    H112346   1.313   1.353  11.823  0.5638  0.1467  1.3704
  836MPD2    H212347   1.609   1.211  11.554  2.8209  1.6698  1.2140
  836MPD2    H312348   1.413   1.352  11.595 -1.0200  2.1628  3.2887
  836MPD2     N12349   1.381   1.229  12.028 -0.1297  0.2914 -0.2246
  836MPD2    H512350   1.294   1.282  12.029 -1.2714 -1.6049  1.5717
  836MPD2    N112351   1.721   1.056  11.714 -0.0947  0.1588  0.6344
  836MPD2    H712352   1.746   1.066  11.616 -0.6959 -3.5407  0.0917
  837MPD2     C12353   0.516   0.740  10.325 -0.5548 -0.6261 -0.3722
  837MPD2    C112354   0.384   0.721  10.290  0.5423 -0.1832 -0.6838
  837MPD2    C212355   0.297   0.822  10.335  0.5491  0.7565 -0.1377
  837MPD2    C312356   0.333   0.942  10.389  0.0619  0.9246  0.6822
  837MPD2    C412357   0.463   0.957  10.416  0.5837 -0.3745 -0.3521
  837MPD2    C512358   0.551   0.856  10.391 -0.4103 -0.0863 -0.2406
  837MPD2     H12359   0.192   0.808  10.312  1.0407 -2.0656 -0.6968
  837MPD2    H112360   0.495   1.049  10.463 -0.4720  0.2672 -0.8768
  837MPD2    H212361   0.587   0.659  10.308  0.2632  0.2204 -0.9947
  837MPD2    H312362   0.654   0.864  10.424 -0.6311  1.5718  0.0743
  837MPD2     N12363   0.231   1.041  10.412  0.2047  0.5805 -0.0430
  837MPD2    H512364   0.134   1.014  10.405 -0.5803  3.1904  0.9723
  837MPD2    N112365   0.333   0.605  10.229  0.2334 -0.2047  0.2435
  837MPD2    H712366   0.233   0.605  10.213  0.4616 -0.8356 -1.2118
  838MPD2     C12367   4.083   3.345  11.901  0.0740 -0.8093  0.3034
  838MPD2    C112368   3.979   3.259  11.893 -0.1649  0.7275  0.0558
  838MPD2    C212369   3.902   3.228  12.004 -0.3233 -0.4124 -0.2285
  838MPD2    C312370   3.932   3.288  12.127 -0.4462 -0.7614 -0.1411
  838MPD2    C412371   4.036   3.379  12.130  0.9984  0.1262  0.1022
  838MPD2    C512372   4.119   3.405  12.021  0.9634 -0.1488  0.3555
  838MPD2     H12373   3.821   3.157  12.001  0.4802 -1.2437 -1.8958
  838MPD2    H112374   4.065   3.421  12.226  1.0577 -0.9820  0.5713
  838MPD2    H212375   4.149   3.346  11.814  2.2249  3.5906  2.0081
  838MPD2    H312376   4.202   3.474  12.024  0.0398  0.9553  0.4702
  838MPD2     N12377   3.852   3.254  12.244  0.1806  0.0100  0.2591
  838MPD2    H512378   3.779   3.186  12.229  2.7987 -2.6912 -0.3098
  838MPD2    N112379   3.927   3.199  11.771  0.9122 -0.0721  0.2417
  838MPD2    H712380   3.836   3.153  11.778  0.1867  1.1899 -0.7488
  839MPD2     C12381   3.133   2.958  11.683 -0.4703  0.4453 -0.1942
  839MPD2    C112382   3.190   2.870  11.596  0.0247  0.4779 -0.0388
  839MPD2    C212383   3.314   2.897  11.552 -0.1822 -1.1489  0.2221
  839MPD2    C312384   3.389   3.005  11.593  0.6172 -0.7980 -0.3595
  839MPD2    C412385   3.326   3.097  11.680 -0.2512  0.2183  0.3852
  839MPD2    C512386   3.200   3.070  11.725  0.0093  0.7355  0.5562
  839MPD2     H12387   3.366   2.821  11.493  0.1998 -1.2070  0.6362
  839MPD2    H112388   3.374   3.189  11.709  2.9761 -1.3871  0.1988
  839MPD2    H212389   3.029   2.948  11.711 -0.4796 -1.7808 -1.0393
  839MPD2    H312390   3.151   3.150  11.780 -0.8545  1.3300 -1.0680
  839MPD2     N12391   3.524   3.032  11.560  0.0814  0.7536 -0.1863
  839MPD2    H512392   3.571   3.110  11.605 -0.0133 -0.0664  1.3147
  839MPD2    N112393   3.124   2.757  11.554  0.2442  1.0018 -0.3739
  839MPD2    H712394   3.171   2.700  11.484 -1.8011  1.0273 -1.7780
  840MPD2     C12395   3.723   0.658  10.305 -0.0260  0.0380 -0.6966
  840MPD2    C112396   3.685   0.664  10.433 -0.1571 -0.3285  0.1429
  840MPD2    C212397   3.734   0.763  10.513  0.7571 -0.0024  0.7782
  840MPD2    C312398   3.832   0.848  10.465 -0.2985 -0.0084  0.4835
  840MPD2    C412399   3.874   0.838  10.339  0.1200 -0.0944  0.1896
  840MPD2    C512400   3.820   0.740  10.259 -0.2028  0.1037  0.3220
  840MPD2     H12401   3.700   0.771  10.615  0.1953  0.1521  0.5771
  840MPD2    H112402   3.956   0.897  10.299 -0.3604  0.2778 -0.2356
  840MPD2    H212403   3.681   0.579  10.244  0.3468  0.4679 -1.5177
  840MPD2    H312404   3.836   0.742  10.152  1.3238  0.9668  0.5734
  840MPD2     N12405   3.901   0.947  10.543  0.0616  0.3697  0.5469
  840MPD2    H512406   3.947   1.014  10.483 -2.9896  1.1904 -0.8938
  840MPD2    N112407   3.589   0.568  10.477  0.6643  0.5214  0.3980
  840MPD2    H712408   3.564   0.503  10.404 -1.4609  0.6478  1.0287
  841MPD2     C12409   3.327   0.637  14.514 -0.2495  0.1669 -0.2752
  841MPD2    C112410   3.420   0.541  14.475 -0.3891  0.6600  0.2679
  841MPD2    C212411   3.558   0.559  14.507  0.4094  0.2873  0.0720
  841MPD2    C312412   3.603   0.663  14.584  0.3354  0.1420 -1.0840
  841MPD2    C412413   3.513   0.757  14.634 -0.1041  0.4293 -0.1899
  841MPD2    C512414   3.379   0.731  14.599  0.4161  0.5453  0.6955
  841MPD2     H12415   3.634   0.498  14.460  0.3906 -0.0370  0.4617
  841MPD2    H112416   3.541   0.843  14.694  3.8207  0.6854 -2.3485
  841MPD2    H212417   3.221   0.642  14.490 -0.3595  1.8029  0.5110
  841MPD2    H312418   3.313   0.798  14.653 -0.0830 -0.9333  1.9065
  841MPD2     N12419   3.745   0.672  14.608 -0.4784 -0.2136 -0.6212
  841MPD2    H512420   3.808   0.612  14.556  0.2136 -0.6109  0.6813
  841MPD2    N112421   3.392   0.424  14.404 -0.4139 -0.2427 -0.5114
  841MPD2    H712422   3.471   0.366  14.376 -0.4821 -1.3089  1.5397
  842MPD2     C12423   3.693   0.877  17.226 -0.3747  0.3038 -0.4047
  842MPD2    C112424   3.703   1.004  17.167 -0.6614  0.0222  0.0766
  842MPD2    C212425   3.707   1.113  17.248 -0.1087 -0.4572 -0.3846
  842MPD2    C312426   3.696   1.099  17.386  0.2982 -0.7640  0.4533
  842MPD2    C412427   3.671   0.976  17.439 -0.2702 -1.2130  0.1588
  842MPD2    C512428   3.672   0.864  17.362 -0.4578 -0.1926  0.3405
  842MPD2     H12429   3.688   1.211  17.204  2.9906  0.3365  0.0860
  842MPD2    H112430   3.641   0.967  17.543 -3.0340  1.2473 -0.4334
  842MPD2    H212431   3.692   0.793  17.157 -0.1423 -0.2190  0.2251
  842MPD2    H312432   3.655   0.766  17.405 -2.1900  1.1680  2.7248
  842MPD2     N12433   3.712   1.208  17.475  0.4483 -0.6648  0.7892
  842MPD2    H512434   3.687   1.199  17.573  1.2594 -3.1899  0.7439
  842MPD2    N112435   3.703   1.012  17.025 -0.3085 -0.2725 -0.1581
  842MPD2    H712436   3.702   0.930  16.965  0.2543 -0.7644  0.4992
  843MPD2     C12437   2.133   1.936  17.288 -0.1891  0.0717  1.2392
  843MPD2    C112438   2.265   1.924  17.319 -0.2789  0.1296 -0.2081
  843MPD2    C212439   2.337   2.035  17.353  0.3197  0.0912  0.2565
  843MPD2    C312440   2.279   2.160  17.344 -0.5398 -0.4766  0.4414
  843MPD2    C412441   2.151   2.172  17.293  0.2991  1.1180  0.0943
  843MPD2    C512442   2.075   2.059  17.283 -1.0178  0.2827 -0.0904
  843MPD2     H12443   2.445   2.037  17.355  0.2997  1.5005 -1.0989
  843MPD2    H112444   2.098   2.266  17.278  0.3072  0.9867 -0.7804
  843MPD2    H212445   2.067   1.851  17.272  1.9852 -1.3226 -0.2137
  843MPD2    H312446   1.972   2.078  17.256 -1.2299  1.1133  1.2939
  843MPD2     N12447   2.341   2.285  17.370  0.5440  0.0959 -0.0567
  843MPD2    H512448   2.297   2.374  17.346 -0.0048 -0.2591 -0.3953
  843MPD2    N112449   2.311   1.793  17.342 -0.0325 -0.2162  0.4153
  843MPD2    H712450   2.249   1.715  17.323 -0.6238  0.9702 -2.5179
  844MPD2     C12451   4.432   0.524  16.924  1.0438 -0.4015  0.6153
  844MPD2    C112452   4.482   0.597  16.816  0.4545  0.7519  0.4632
  844MPD2    C212453   4.614   0.636  16.807 -0.2346 -0.5120  0.1300
  844MPD2    C312454   4.690   0.610  16.916 -0.2923  0.4856 -0.2252
  844MPD2    C412455   4.633   0.551  17.028  0.9679  0.5147  1.2958
  844MPD2    C512456   4.509   0.505  17.031  0.6014 -0.4430 -0.8138
  844MPD2     H12457   4.653   0.681  16.717  2.8001 -1.3050  1.0322
  844MPD2    H112458   4.687   0.543  17.122 -0.4846  0.2868  2.1115
  844MPD2    H212459   4.327   0.499  16.929  1.3815 -1.9926 -0.1302
  844MPD2    H312460   4.478   0.443  17.115  0.7836 -0.3204 -0.6570
  844MPD2     N12461   0.086   0.652  16.911  0.1174  0.1752 -0.0959
  844MPD2    H512462   0.117   0.699  16.827 -0.8491 -1.7360 -1.5011
  844MPD2    N112463   4.407   0.626  16.702 -0.1387 -0.1014  0.3733
  844MPD2    H712464   4.455   0.677  16.629 -2.9527  2.3578  0.2664
  845MPD2     C12465   0.191   1.479  16.730 -1.1287 -0.1748  0.0642
  845MPD2    C112466   0.312   1.459  16.779  0.9003 -0.0928  0.4908
  845MPD2    C212467   0.348   1.327  16.800 -1.0406 -0.1957  0.0873
  845MPD2    C312468   0.270   1.216  16.776 -0.2298  0.6379  0.0644
  845MPD2    C412469   0.148   1.244  16.728 -0.2428  0.0227 -0.4347
  845MPD2    C512470   0.114   1.373  16.704  0.4929 -0.1925 -0.0256
  845MPD2     H12471   0.441   1.321  16.856 -0.7307  4.3163  0.0491
  845MPD2    H112472   0.083   1.163  16.698  0.5280 -1.0725  0.8346
  845MPD2    H212473   0.150   1.577  16.711  0.7960  0.2797 -1.8144
  845MPD2    H312474   0.013   1.389  16.668  0.8538 -1.3007 -1.5481
  845MPD2     N12475   0.297   1.082  16.808 -0.4459 -0.4702  0.4190
  845MPD2    H512476   0.216   1.020  16.803 -0.8216  0.2355 -2.1577
  845MPD2    N112477   0.392   1.565  16.815  0.1858 -0.5809 -0.0503
  845MPD2    H712478   0.371   1.655  16.773  2.1249  0.3529  1.0431
  846MPD2     C12479   1.550   2.132  13.701 -0.4230  0.1250  0.2326
  846MPD2    C112480   1.574   2.262  13.750 -0.3158 -0.2598 -0.4198
  846MPD2    C212481   1.589   2.284  13.885 -0.5204 -0.0779 -0.4689
  846MPD2    C312482   1.603   2.175  13.972  0.6718 -0.6054  0.2455
  846MPD2    C412483   1.583   2.044  13.922  0.2527  0.0901  0.2426
  846MPD2    C512484   1.551   2.029  13.786  0.1518  0.6458  0.1475
  846MPD2     H12485   1.596   2.386  13.920  2.2644  0.1642 -1.8005
  846MPD2    H112486   1.580   1.960  13.990 -4.0020  0.0650  0.0224
  846MPD2    H212487   1.517   2.115  13.599 -0.7133  0.8931  0.2012
  846MPD2    H312488   1.538   1.930  13.745  4.3278  1.0336 -2.1568
  846MPD2     N12489   1.628   2.195  14.107  0.6697  0.4525  0.0803
  846MPD2    H512490   1.631   2.285  14.154  0.4508 -0.1544  1.2592
  846MPD2    N112491   1.567   2.380  13.666 -0.5965 -0.9483 -0.4069
  846MPD2    H712492   1.574   2.467  13.718  1.3902 -0.6001 -1.2871
  847MPD2     C12493   2.074   2.791  14.159  0.1932 -0.6383  0.2923
  847MPD2    C112494   2.151   2.888  14.224 -0.1133  0.3451  0.1960
  847MPD2    C212495   2.241   2.851  14.324 -0.0482 -0.0037 -0.1231
  847MPD2    C312496   2.261   2.723  14.363 -0.4149  0.3463 -0.0848
  847MPD2    C412497   2.201   2.625  14.286  0.4327 -0.1581  0.2864
  847MPD2    C512498   2.118   2.664  14.186  0.1886 -0.2636  0.2477
  847MPD2     H12499   2.268   2.925  14.398 -1.5338  0.9488 -0.5383
  847MPD2    H112500   2.215   2.521  14.314 -1.3721 -0.7375 -0.9441
  847MPD2    H212501   1.995   2.813  14.088  0.6318 -4.4519 -1.3540
  847MPD2    H312502   2.068   2.587  14.128  0.8154 -0.1111 -0.4922
  847MPD2     N12503   2.323   2.702  14.486  0.5270 -0.1346  0.0687
  847MPD2    H512504   2.363   2.779  14.539 -0.9711  1.1389 -0.6510
  847MPD2    N112505   2.122   3.022  14.202 -0.4926 -0.0729 -0.3717
  847MPD2    H712506   2.188   3.090  14.240  0.0166 -0.5830 -0.3411
  848MPD2     C12507   4.361   1.125  16.557 -0.2784 -0.0466 -0.7479
  848MPD2    C112508   4.428   1.196  16.659  0.3549 -0.1869  0.0729
  848MPD2    C212509   4.461   1.324  16.635  0.0050 -0.1682 -0.4743
  848MPD2    C312510   4.432   1.380  16.516  0.0101  0.0843  0.4802
  848MPD2    C412511   4.362   1.312  16.416  0.0362 -0.2832 -0.3582
  848MPD2    C512512   4.328   1.182  16.438  0.6189  0.2386 -0.1903
  848MPD2     H12513   4.504   1.382  16.716 -2.5012 -0.6666  1.2225
  848MPD2    H112514   4.331   1.362  16.325  3.5274  0.0043 -1.3862
  848MPD2    H212515   4.326   1.023  16.568  1.7218 -0.5346  1.0454
  848MPD2    H312516   4.282   1.129  16.356  0.9181  0.7416 -0.6852
  848MPD2     N12517   4.442   1.519  16.490 -0.1930 -0.1673  0.2821
  848MPD2    H512518   4.411   1.550  16.399 -1.5033 -3.2492 -0.2979
  848MPD2    N112519   4.457   1.137  16.783 -0.7150  0.0333 -0.3925
  848MPD2    H712520   4.524   1.180  16.846 -0.7896 -3.0458  1.7941
  849MPD2     C12521   3.396   0.709  13.982  0.3508  0.5330  0.3271
  849MPD2    C112522   3.470   0.812  13.924  0.0548  0.5403  0.8083
  849MPD2    C212523   3.599   0.840  13.970 -1.0989  0.1540 -0.3537
  849MPD2    C312524   3.657   0.770  14.071 -0.1286  0.5724  0.6647
  849MPD2    C412525   3.585   0.673  14.136 -0.4032 -0.3693 -0.9309
  849MPD2    C512526   3.456   0.642  14.089 -0.0155 -0.6584  0.4067
  849MPD2     H12527   3.659   0.912  13.917  0.3762 -1.7123 -1.2391
  849MPD2    H112528   3.625   0.632  14.228 -2.8094  2.6293  1.4615
  849MPD2    H212529   3.294   0.686  13.954 -0.2647  1.9379  1.4306
  849MPD2    H312530   3.398   0.564  14.137  0.6758 -1.5816 -0.2589
  849MPD2     N12531   3.793   0.807  14.098  0.3315 -0.1912 -0.0090
  849MPD2    H512532   3.830   0.880  14.037 -1.1359 -1.6943 -2.6851
  849MPD2    N112533   3.421   0.876  13.808  1.0170  0.1085 -0.1845
  849MPD2    H712534   3.330   0.854  13.768  0.9548 -1.1113  0.6508
  850MPD2     C12535   1.523   3.851  14.442  0.2414 -0.2350 -0.6964
  850MPD2    C112536   1.538   3.938  14.545  0.1969 -0.1366  0.7290
  850MPD2    C212537   1.668   3.958  14.596  0.4773 -0.2385  0.6574
  850MPD2    C312538   1.779   3.890  14.545 -0.0318  0.3727 -0.0282
  850MPD2    C412539   1.760   3.806  14.436 -0.1815 -0.6314 -0.7449
  850MPD2    C512540   1.637   3.799  14.380  0.2839 -0.7504  0.2231
  850MPD2     H12541   1.686   4.021  14.682  1.4080  1.8933 -1.0968
  850MPD2    H112542   1.845   3.749  14.400  0.3072 -0.5965  0.3764
  850MPD2    H212543   1.424   3.836  14.401 -0.3953 -2.2123  1.5344
  850MPD2    H312544   1.625   3.733  14.295  2.5176  2.3749 -2.5040
  850MPD2     N12545   1.913   3.893  14.602  0.7067 -0.6076  0.0732
  850MPD2    H512546   1.980   3.837  14.550  0.9320 -1.0241  0.8068
  850MPD2    N112547   1.425   3.992  14.596  0.7986 -0.8068 -0.3334
  850MPD2    H712548   1.341   3.970  14.545  0.7039  0.2258 -0.6308
  851MPD2     C12549   1.966   3.804  15.258 -0.4615 -0.2651  0.0184
  851MPD2    C112550   1.888   3.783  15.149 -0.1660  0.0905 -0.6295
  851MPD2    C212551   1.888   3.661  15.086  0.5830  0.1058 -0.0076
  851MPD2    C312552   1.979   3.563  15.119  0.8600 -0.0434  0.3949
  851MPD2    C412553   2.066   3.581  15.220  0.7351 -0.2291 -0.1605
  851MPD2    C512554   2.050   3.706  15.287  0.8647  0.0264 -0.1069
  851MPD2     H12555   1.832   3.646  14.995  0.8557  0.0974 -0.1763
  851MPD2    H112556   2.135   3.505  15.254 -0.1704 -0.7418  0.5258
  851MPD2    H212557   1.957   3.893  15.318  0.8598  0.2367 -0.5340
  851MPD2    H312558   2.118   3.732  15.367  0.7821 -1.4585  0.4549
  851MPD2     N12559   1.982   3.442  15.037 -0.1478  0.7219 -0.3188
  851MPD2    H512560   1.906   3.429  14.971  0.4144 -3.1014 -0.1705
  851MPD2    N112561   1.807   3.890  15.108  0.1568 -0.6897  0.4889
  851MPD2    H712562   1.799   3.971  15.168  2.9164 -0.4864  0.5940
  852MPD2     C12563   2.462   2.270   9.604  0.7462  0.1403  0.2917
  852MPD2    C112564   2.440   2.333   9.725  0.1916  0.0799 -0.1223
  852MPD2    C212565   2.539   2.415   9.767  0.0305  0.0039  0.1429
  852MPD2    C312566   2.653   2.439   9.688 -0.0120  0.7667 -0.0277
  852MPD2    C412567   2.674   2.370   9.566 -0.7858  0.5047 -0.2023
  852MPD2    C512568   2.574   2.282   9.534 -0.4658  0.3181  0.3992
  852MPD2     H12569   2.520   2.485   9.848  0.7933  0.6904 -0.2787
  852MPD2    H112570   2.759   2.380   9.499 -0.8523 -1.3860 -0.5512
  852MPD2    H212571   2.393   2.194   9.569 -0.1097  1.2270 -0.3815
  852MPD2    H312572   2.582   2.229   9.440  1.3644 -0.2252  0.8622
  852MPD2     N12573   2.744   2.544   9.726  0.6278 -0.1531 -0.5327
  852MPD2    H512574   2.739   2.580   9.821 -0.6374 -0.3422 -0.5375
  852MPD2    N112575   2.323   2.316   9.793 -0.6479 -0.0938 -0.2974
  852MPD2    H712576   2.310   2.362   9.883 -0.4107  1.0258 -0.8301
  853MPD2     C12577   3.014   1.384  12.201  0.3844  0.2775  0.4769
  853MPD2    C112578   3.028   1.521  12.190 -0.8392  0.2988  0.1741
  853MPD2    C212579   3.100   1.575  12.084 -0.6605 -1.1981 -0.3788
  853MPD2    C312580   3.155   1.488  11.988  0.0111  0.7523  0.5904
  853MPD2    C412581   3.155   1.354  12.013 -0.5232 -0.8445 -0.1679
  853MPD2    C512582   3.078   1.301  12.109 -0.1363  0.3275  0.2302
  853MPD2     H12583   3.102   1.682  12.068  0.2695 -1.2133 -0.3376
  853MPD2    H112584   3.192   1.287  11.937 -0.4414 -2.7343  1.5240
  853MPD2    H212585   2.962   1.350  12.290  0.2663 -2.7369 -0.7187
  853MPD2    H312586   3.075   1.195  12.127  0.2121  0.1028 -1.0177
  853MPD2     N12587   3.206   1.542  11.869  0.1114 -0.0648 -0.1766
  853MPD2    H512588   3.242   1.472  11.805 -0.1047 -0.0398 -0.3279
  853MPD2    N112589   2.965   1.599  12.288 -0.0065 -0.1716  0.3238
  853MPD2    H712590   2.941   1.555  12.376 -1.3052 -0.1844 -0.0376
  854MPD2     C12591   0.331   2.198  12.911  0.0658 -0.2266  0.7555
  854MPD2    C112592   0.227   2.116  12.868  0.3322 -0.3070  0.4182
  854MPD2    C212593   0.237   1.977  12.889  0.8839  0.9161 -0.3106
  854MPD2    C312594   0.341   1.919  12.962  0.3696 -0.1730  0.5669
  854MPD2    C412595   0.428   2.011  13.017  0.6961 -0.3550 -0.0371
  854MPD2    C512596   0.418   2.142  12.991  0.3512  0.4442 -0.0080
  854MPD2     H12597   0.167   1.910  12.842  1.5634 -0.2346  0.3214
  854MPD2    H112598   0.506   1.973  13.082 -0.6419  0.4038  1.9952
  854MPD2    H212599   0.341   2.305  12.901  0.8147 -0.3479  0.2246
  854MPD2    H312600   0.487   2.214  13.036  0.0096  0.4264  0.5467
  854MPD2     N12601   0.358   1.778  12.977  0.2340 -0.0699 -0.1486
  854MPD2    H512602   0.427   1.747  13.045 -0.8629  3.1019  2.4576
  854MPD2    N112603   0.118   2.182  12.800  0.2995  0.4542 -0.0465
  854MPD2    H712604   0.127   2.278  12.766  1.0177  0.0512 -0.9693
  855MPD2     C12605   0.953   1.351  13.524  0.0401  0.2167 -0.5924
  855MPD2    C112606   0.824   1.372  13.553 -0.3113 -0.0532  0.2548
  855MPD2    C212607   0.728   1.372  13.453 -0.2423  0.5760 -0.7757
  855MPD2    C312608   0.761   1.366  13.315  0.4290  0.4895 -0.1839
  855MPD2    C412609   0.893   1.349  13.283 -0.0828  0.4831 -0.1516
  855MPD2    C512610   0.985   1.340  13.391  0.7660 -0.1645  0.0774
  855MPD2     H12611   0.625   1.388  13.482  0.2177  1.9743  0.1286
  855MPD2    H112612   0.917   1.331  13.179 -0.0650 -0.3496 -0.0035
  855MPD2    H212613   1.025   1.329  13.603 -3.0424 -2.8411  1.3869
  855MPD2    H312614   1.090   1.320  13.371  1.2080  0.6638  1.5613
  855MPD2     N12615   0.661   1.374  13.211  0.2034  0.4601  0.6232
  855MPD2    H512616   0.697   1.362  13.117  1.8380  0.1499  1.2906
  855MPD2    N112617   0.782   1.372  13.686  0.2279  0.3673  0.2130
  855MPD2    H712618   0.681   1.377  13.694  0.1008 -0.1054 -1.0382
  856MPD2     C12619   2.390   2.310  13.922 -0.0743 -0.2129  0.0722
  856MPD2    C112620   2.483   2.390  13.989  0.2762  0.7605  0.1829
  856MPD2    C212621   2.454   2.524  14.012  0.0187  0.8964 -0.4442
  856MPD2    C312622   2.352   2.583  13.933 -0.6183 -0.5021  0.4845
  856MPD2    C412623   2.264   2.511  13.856  0.0856 -0.0349 -0.5784
  856MPD2    C512624   2.281   2.373  13.864  0.3986 -0.2751  1.0124
  856MPD2     H12625   2.515   2.584  14.077  0.4255  0.4637 -0.4286
  856MPD2    H112626   2.186   2.554  13.794 -0.1792 -1.5744 -1.3149
  856MPD2    H212627   2.401   2.203  13.907  0.3921 -0.1856  0.2224
  856MPD2    H312628   2.218   2.314  13.798  1.8796 -1.8985  1.0487
  856MPD2     N12629   2.343   2.721  13.906  0.5504  0.3254  0.2221
  856MPD2    H512630   2.280   2.761  13.838 -1.3896 -3.7700 -0.3719
  856MPD2    N112631   2.602   2.340  14.046  0.3072  0.1284  0.4190
  856MPD2    H712632   2.654   2.408  14.100  0.8440  0.8711 -1.0389
  857MPD2     C12633   3.974   4.735  12.972 -0.2857 -1.1462  0.0610
  857MPD2    C112634   4.047   4.739  12.856  0.5200 -0.1472 -0.3361
  857MPD2    C212635   4.052   0.109  12.776 -0.0635  0.0229  0.2452
  857MPD2    C312636   3.969   0.217  12.806 -0.8427 -0.9273 -0.5166
  857MPD2    C412637   3.883   0.210  12.917  1.2269  0.5910 -0.8061
  857MPD2    C512638   3.900   0.105  13.007 -0.2265  0.2196  0.3764
  857MPD2     H12639   4.129   0.119  12.700 -0.5825 -0.2532 -0.3270
  857MPD2    H112640   3.816   0.288  12.952  1.7789 -0.0549  1.6808
  857MPD2    H212641   3.960   4.653  13.041 -0.3078 -2.7040 -1.7743
  857MPD2    H312642   3.855   0.111  13.106  0.3608 -1.7750  0.7659
  857MPD2     N12643   3.987   0.333  12.726 -0.1975  0.4479  0.1379
  857MPD2    H512644   4.061   0.326  12.658  0.5286 -0.5806  1.0272
  857MPD2    N112645   4.112   4.617  12.813 -0.5175  0.1581  0.5897
  857MPD2    H712646   4.068   4.536  12.856 -0.4298 -1.1708 -1.7790
  858MPD2     C12647   0.084   3.757  16.474 -0.0389  0.0013  0.7623
  858MPD2    C112648   0.191   3.679  16.525 -0.3526  0.8757  0.4432
  858MPD2    C212649   0.245   3.719  16.644  0.2243 -0.0605  0.1478
  858MPD2    C312650   0.189   3.825  16.724 -0.0353  0.7430  0.8159
  858MPD2    C412651   0.078   3.884  16.667  0.6578 -0.2104 -0.1781
  858MPD2    C512652   0.019   3.845  16.551 -0.0765 -0.4032 -0.6147
  858MPD2     H12653   0.341   3.672  16.666  1.4396  0.9062 -3.0370
  858MPD2    H112654   0.038   3.968  16.724 -2.7790 -1.2380 -1.0898
  858MPD2    H212655   0.037   3.742  16.378  0.9817  1.1123  0.0964
  858MPD2    H312656   4.677   3.899  16.506 -0.6400 -0.7821 -0.0528
  858MPD2     N12657   0.238   3.873  16.846  0.4538  0.4024 -0.0889
  858MPD2    H512658   0.181   3.940  16.895 -0.3032  0.1044 -0.5585
  858MPD2    N112659   0.243   3.570  16.464 -0.2552 -0.1358  0.0021
  858MPD2    H712660   0.328   3.528  16.500 -0.4528 -0.5152  0.0243
  859MPD2     C12661   3.524   0.692  15.735  0.6128  0.3279 -0.1940
  859MPD2    C112662   3.552   0.665  15.605  0.1099  0.2003  0.1187
  859MPD2    C212663   3.554   0.536  15.555  0.4924  0.2607  0.5695
  859MPD2    C312664   3.542   0.424  15.641  0.0026  0.0910  0.0354
  859MPD2    C412665   3.507   0.452  15.770 -0.1724 -0.2629 -0.0867
  859MPD2    C512666   3.491   0.581  15.819 -0.1264 -0.5218  0.4398
  859MPD2     H12667   3.594   0.516  15.456 -1.2823  1.5217 -0.3952
  859MPD2    H112668   3.504   0.368  15.839 -0.2449  0.0142  0.2447
  859MPD2    H212669   3.543   0.789  15.778  0.8794 -0.8332  2.2671
  859MPD2    H312670   3.462   0.587  15.923  0.3160 -0.4846  0.5637
  859MPD2     N12671   3.549   0.292  15.602  0.2655  0.0973  0.3949
  859MPD2    H512672   3.545   0.222  15.675 -1.5684  0.7451  0.8954
  859MPD2    N112673   3.598   0.779  15.535 -0.0355  0.6267  0.2941
  859MPD2    H712674   3.604   0.866  15.586 -0.5346  1.8711 -1.7628
  860MPD2     C12675   1.372   2.066  11.676 -0.4938 -0.2147  0.0385
  860MPD2    C112676   1.337   2.109  11.803  0.5364 -0.4779 -0.6104
  860MPD2    C212677   1.221   2.058  11.865 -0.1881 -0.0723  0.2480
  860MPD2    C312678   1.148   1.961  11.804  0.0728  0.0744 -0.0994
  860MPD2    C412679   1.186   1.914  11.680 -0.1527 -0.1904  1.2978
  860MPD2    C512680   1.289   1.977  11.617  0.4000  0.1289 -0.6657
  860MPD2     H12681   1.188   2.075  11.967  2.1334  0.2261  0.9405
  860MPD2    H112682   1.141   1.839  11.616  2.1898 -2.1370  1.9396
  860MPD2    H212683   1.457   2.101  11.618  0.8933 -3.8387 -0.1189
  860MPD2    H312684   1.335   1.935  11.528 -2.5676 -0.1489 -2.0775
  860MPD2     N12685   1.034   1.902  11.872  0.4076  0.3611  0.4247
  860MPD2    H512686   1.010   1.941  11.962  2.2447 -1.4945  1.7044
  860MPD2    N112687   1.411   2.201  11.878  0.1128  0.0240 -0.2490
  860MPD2    H712688   1.368   2.235  11.964 -0.0951 -0.6031 -0.1062
  861MPD2     C12689   4.251   4.380  11.197 -0.9407 -0.6189 -0.2381
  861MPD2    C112690   4.346   4.472  11.231  0.6304  0.6604  0.5117
  861MPD2    C212691   4.386   4.558  11.134 -0.9276  0.0552 -0.1161
  861MPD2    C312692   4.328   4.561  11.006 -1.1569  0.4052  0.9973
  861MPD2    C412693   4.233   4.469  10.978 -0.7439 -0.1978 -0.0616
  861MPD2    C512694   4.206   4.370  11.065 -0.2141 -0.0746 -0.0776
  861MPD2     H12695   4.455   4.635  11.166  0.9609 -1.2419 -1.1261
  861MPD2    H112696   4.187   4.473  10.880 -0.0683  2.5057 -0.2802
  861MPD2    H212697   4.231   4.296  11.262  0.5259 -0.9230 -0.1737
  861MPD2    H312698   4.130   4.299  11.037 -1.1565  0.5193  1.0125
  861MPD2     N12699   4.368   4.657  10.908 -0.4022 -0.0485 -1.3437
  861MPD2    H512700   4.326   4.658  10.816  1.1552  1.5319 -2.0153
  861MPD2    N112701   4.403   4.493  11.367 -0.2176 -0.0034 -0.2620
  861MPD2    H712702   4.468   4.569  11.382 -0.4262 -0.4408  2.9398
  862MPD2     C12703   4.383   4.611  10.214 -0.4397  0.7236 -1.1191
  862MPD2    C112704   4.400   4.587  10.347  0.4255  0.5793 -0.1221
  862MPD2    C212705   4.396   4.453  10.391 -0.2488  0.1000  0.3594
  862MPD2    C312706   4.382   4.353  10.300 -0.6195  0.1644  0.8598
  862MPD2    C412707   4.375   4.376  10.163 -0.0581 -0.1753 -0.7681
  862MPD2    C512708   4.373   4.509  10.118  0.1148 -0.1994  0.0921
  862MPD2     H12709   4.403   4.444  10.499 -0.9318 -0.1687  0.3816
  862MPD2    H112710   4.380   4.294  10.094 -2.4204 -1.9674  1.1772
  862MPD2    H212711   4.380   4.715  10.184 -1.1260  0.8893 -0.4686
  862MPD2    H312712   4.354   4.527  10.013 -0.9968 -0.1439  0.3005
  862MPD2     N12713   4.361   4.221  10.339 -0.3686  0.0368 -1.0871
  862MPD2    H512714   4.336   4.150  10.270 -0.9058 -1.4786  0.6847
  862MPD2    N112715   4.385   4.681  10.451 -0.6435  0.3974  0.5570
  862MPD2    H712716   4.371   4.651  10.547  3.0348 -0.0648  0.9601
  863MPD2     C12717   3.434   2.179  16.445 -0.1898  0.1101 -0.3418
  863MPD2    C112718   3.344   2.244  16.522  0.4842 -0.5159 -0.5658
  863MPD2    C212719   3.386   2.306  16.640  0.8262  0.2827 -0.4175
  863MPD2    C312720   3.523   2.299  16.678 -0.3412 -0.7880 -0.4699
  863MPD2    C412721   3.607   2.230  16.600  0.5688  0.0483 -0.5487
  863MPD2    C512722   3.568   2.172  16.488 -0.3194 -0.9528 -0.5627
  863MPD2     H12723   3.319   2.355  16.709 -0.5670 -1.8257 -0.2853
  863MPD2    H112724   3.712   2.225  16.625  0.3736  1.3930  0.5065
  863MPD2    H212725   3.411   2.127  16.353  0.2668  2.4791 -1.8082
  863MPD2    H312726   3.638   2.113  16.430 -0.0471 -0.9915 -0.2003
  863MPD2     N12727   3.581   2.346  16.797  0.8041  0.2690  0.0897
  863MPD2    H512728   3.682   2.343  16.813  0.9433  1.0850 -0.6252
  863MPD2    N112729   3.211   2.257  16.475  0.1679 -0.3174 -0.3430
  863MPD2    H712730   3.182   2.196  16.400 -1.7889 -0.8413  0.8344
  864MPD2     C12731   3.601   4.084  16.647  0.4941 -0.0708 -0.6363
  864MPD2    C112732   3.570   3.991  16.554 -0.2809  0.3061 -0.2976
  864MPD2    C212733   3.563   4.023  16.419 -0.5380  0.0877 -0.8694
  864MPD2    C312734   3.589   4.155  16.377  0.0813  0.5913 -0.4235
  864MPD2    C412735   3.622   4.249  16.476 -0.5045  0.4257  0.1623
  864MPD2    C512736   3.619   4.215  16.607  1.0494  0.4558 -0.3842
  864MPD2     H12737   3.542   3.947  16.345 -1.9852 -1.3529  1.0189
  864MPD2    H112738   3.643   4.351  16.445 -1.0355  0.2229 -0.8751
  864MPD2    H212739   3.609   4.055  16.751 -0.5798  0.9117 -0.2793
  864MPD2    H312740   3.615   4.291  16.684 -1.1708 -1.5556  1.4410
  864MPD2     N12741   3.595   4.201  16.244 -0.1429 -0.0714  0.1299
  864MPD2    H512742   3.638   4.292  16.235  0.6599 -0.7079 -2.8117
  864MPD2    N112743   3.554   3.864  16.603 -0.2713  0.1282  0.3883
  864MPD2    H712744   3.565   3.855  16.703 -3.8510  2.3967  0.9745
  865MPD2     C12745   3.508   3.557  15.558  0.5135 -0.0072 -0.1546
  865MPD2    C112746   3.627   3.589  15.622 -0.0877  0.5370  0.6459
  865MPD2    C212747   3.652   3.726  15.647 -0.2241  0.2560 -0.6631
  865MPD2    C312748   3.563   3.828  15.618 -0.1730 -0.0474  0.4299
  865MPD2    C412749   3.442   3.788  15.555 -0.1967 -0.5056  0.2569
  865MPD2    C512750   3.419   3.654  15.526  0.6701  0.7276  0.2540
  865MPD2     H12751   3.737   3.751  15.709 -0.6662  0.4552 -0.1316
  865MPD2    H112752   3.366   3.860  15.528 -0.7185 -0.6699  1.2763
  865MPD2    H212753   3.487   3.452  15.542 -1.2591  0.4542 -0.8738
  865MPD2    H312754   3.323   3.625  15.485 -0.3907  0.6379  2.7801
  865MPD2     N12755   3.586   3.961  15.661  0.0827  0.3794 -0.5958
  865MPD2    H512756   3.507   4.024  15.657  1.6145  2.2615 -0.7739
  865MPD2    N112757   3.722   3.499  15.669 -0.0562 -0.1203  0.6935
  865MPD2    H712758   3.815   3.528  15.695  0.2255  1.0663 -1.6132
  866MPD2     C12759   0.551   4.443  11.374  0.1761 -0.6586  0.9124
  866MPD2    C112760   0.599   4.563  11.314 -0.1789 -0.4998  0.2818
  866MPD2    C212761   0.511   4.671  11.296 -0.1201  0.2014 -0.0749
  866MPD2    C312762   0.373   4.660  11.327 -0.4109 -0.2796  0.0202
  866MPD2    C412763   0.332   4.540  11.377  0.4190  0.1985 -0.4383
  866MPD2    C512764   0.416   4.431  11.395 -0.0749 -0.0428 -0.8300
  866MPD2     H12765   0.537   0.023  11.243 -0.3846  1.4931  2.0520
  866MPD2    H112766   0.225   4.520  11.382  0.3190  0.7557 -0.2485
  866MPD2    H212767   0.603   4.350  11.359  0.1317 -0.8481  1.9109
  866MPD2    H312768   0.382   4.331  11.419 -0.4235  0.7652  1.9981
  866MPD2     N12769   0.276   0.021  11.304  0.7548  0.6756  0.3501
  866MPD2    H512770   0.177   0.004  11.317  0.5643  3.0557  2.0149
  866MPD2    N112771   0.728   4.564  11.277 -0.1988  0.1943  0.1684
  866MPD2    H712772   0.788   4.485  11.299 -0.1355 -0.1365 -1.2238
  867MPD2     C12773   2.492   3.488  16.305  0.1956  0.4426 -0.1734
  867MPD2    C112774   2.573   3.460  16.410 -1.3571  1.1615  0.5894
  867MPD2    C212775   2.608   3.566  16.494  0.3557  0.9937  0.0681
  867MPD2    C312776   2.553   3.691  16.479  0.7891  0.1723 -0.9277
  867MPD2    C412777   2.454   3.717  16.381 -0.0251 -0.0249 -0.1271
  867MPD2    C512778   2.435   3.612  16.291 -0.5586 -0.2428 -0.2149
  867MPD2     H12779   2.698   3.555  16.553 -0.0149 -0.5191  0.3698
  867MPD2    H112780   2.405   3.812  16.364  2.1971  0.8590 -1.5960
  867MPD2    H212781   2.467   3.411  16.233 -1.6237 -0.2480  1.1919
  867MPD2    H312782   2.357   3.622  16.216 -0.6851  3.3542  0.4205
  867MPD2     N12783   2.598   3.800  16.561  0.1146  0.1111 -0.9218
  867MPD2    H512784   2.577   3.890  16.518 -1.9877  0.9797  1.9246
  867MPD2    N112785   2.637   3.336  16.417 -0.1733  0.7703  0.5904
  867MPD2    H712786   2.627   3.280  16.332  0.6613  1.0251  0.3258
  868MPD2     C12787   4.467   3.456  13.640 -0.1783 -0.4365 -0.6298
  868MPD2    C112788   4.480   3.333  13.684 -0.3385 -0.0208 -0.1824
  868MPD2    C212789   4.413   3.292  13.802  0.0916  0.2002 -0.3199
  868MPD2    C312790   4.339   3.386  13.874  0.0171 -0.2954 -0.4528
  868MPD2    C412791   4.335   3.513  13.831 -0.6832 -0.1046  0.0711
  868MPD2    C512792   4.385   3.539  13.704  0.1676  0.1295 -0.0748
  868MPD2     H12793   4.432   3.193  13.843  0.1497  0.5255  0.4445
  868MPD2    H112794   4.282   3.592  13.883 -1.2943 -0.0360 -0.6589
  868MPD2    H212795   4.511   3.489  13.546 -0.9914  2.8364  0.1407
  868MPD2    H312796   4.358   3.631  13.655  1.3960 -0.2752 -1.4991
  868MPD2     N12797   4.300   3.371  14.005 -0.4031  0.0504 -0.6144
  868MPD2    H512798   4.280   3.448  14.069 -1.2600 -0.2330 -0.5381
  868MPD2    N112799   4.558   3.243  13.600  0.7128  0.5766 -0.5149
  868MPD2    H712800   4.592   3.283  13.513 -0.8643 -0.2938 -1.5445
  869MPD2     C12801   1.099   1.170   0.867  0.1865  0.1049  0.2379
  869MPD2    C112802   1.111   1.212   0.739  0.5276 -0.1325  0.0365
  869MPD2    C212803   1.231   1.201   0.671  0.5636  0.3663  0.2728
  869MPD2    C312804   1.345   1.179   0.742 -0.1703 -1.4330 -0.0037
  869MPD2    C412805   1.335   1.141   0.870  0.3913 -0.3068  0.0921
  869MPD2    C512806   1.214   1.140   0.935 -0.7016 -0.0964  0.3201
  869MPD2     H12807   1.251   1.242   0.573 -2.4112 -2.7992 -1.6759
  869MPD2    H112808   1.421   1.119   0.933 -1.9925 -0.4478  3.3257
  869MPD2    H212809   1.000   1.172   0.912 -0.2185  0.0914 -0.6616
  869MPD2    H312810   1.198   1.105   1.036 -1.0145 -2.0829 -0.4129
  869MPD2     N12811   1.484   1.189   0.694 -0.0414 -0.2270  0.6082
  869MPD2    H512812   1.555   1.178   0.766 -1.0527  1.4490  1.8947
  869MPD2    N112813   0.984   1.261   0.686  0.3325  0.2132  0.0295
  869MPD2    H712814   0.900   1.241   0.739 -0.8827  0.2649 -1.8924
  870MPD2     C12815   1.874   0.034   0.940 -0.0447  0.5334 -0.0548
  870MPD2    C112816   1.774   4.707   0.875  0.4280 -0.4532 -0.0464
  870MPD2    C212817   1.641   4.724   0.919  0.3902  0.3812 -0.7194
  870MPD2    C312818   1.620   0.062   1.030  0.6917  0.0864 -0.0080
  870MPD2    C412819   1.724   0.130   1.095  0.3175  0.6233 -0.1234
  870MPD2    C512820   1.854   0.116   1.052  0.3506  0.2016 -1.0195
  870MPD2     H12821   1.565   4.658   0.877  1.1923 -0.4062 -0.9478
  870MPD2    H112822   1.715   0.196   1.181 -0.0139 -1.5604  1.5182
  870MPD2    H212823   1.980   0.022   0.919 -0.3396 -0.6779 -0.8312
  870MPD2    H312824   1.929   0.182   1.094  1.3789  0.2537 -2.9530
  870MPD2     N12825   1.491   0.062   1.079 -0.8507 -0.1784  0.3949
  870MPD2    H512826   1.421   0.004   1.034  0.4461  1.5845 -3.8871
  870MPD2    N112827   1.810   4.631   0.760  0.0105 -0.7800 -0.4101
  870MPD2    H712828   1.910   4.631   0.742  0.2439 -1.4402  0.8876
  871MPD2     C12829   1.727   4.081  16.251  0.7232 -0.7008  0.7430
  871MPD2    C112830   1.683   4.013  16.361 -0.0263  0.2330  0.1379
  871MPD2    C212831   1.635   3.881  16.354 -0.2548 -0.2088 -0.1718
  871MPD2    C312832   1.634   3.820  16.228 -0.3936  0.1441  0.0647
  871MPD2    C412833   1.674   3.890  16.117 -0.1125 -0.4329 -0.1849
  871MPD2    C512834   1.719   4.016  16.131  0.2166  0.9105 -0.3627
  871MPD2     H12835   1.587   3.828  16.435  1.4218 -0.9394  0.3515
  871MPD2    H112836   1.676   3.851  16.016  1.1166 -0.4244 -0.1640
  871MPD2    H212837   1.756   4.185  16.254 -1.0172 -0.2238  0.9632
  871MPD2    H312838   1.738   4.072  16.040  0.7169  0.2342 -0.6736
  871MPD2     N12839   1.588   3.683  16.217 -0.0893  0.3461  0.4118
  871MPD2    H512840   1.560   3.639  16.304 -2.9002 -0.5467 -0.9447
  871MPD2    N112841   1.663   4.092  16.477  0.3407  0.0400 -0.0925
  871MPD2    H712842   1.681   4.192  16.472  2.0548 -0.0842  3.2392
  872MPD2     C12843   2.407   1.555  13.575  0.7700 -0.5546 -0.7794
  872MPD2    C112844   2.458   1.650  13.663 -0.0218 -0.9477 -0.7967
  872MPD2    C212845   2.404   1.679  13.782  0.2268  0.0990  0.5469
  872MPD2    C312846   2.298   1.594  13.815  0.5721  0.2986 -0.4154
  872MPD2    C412847   2.254   1.494  13.740 -0.5910  0.2515  0.0345
  872MPD2    C512848   2.317   1.466  13.619 -0.2888 -1.0828  0.2387
  872MPD2     H12849   2.444   1.757  13.846  0.1395  0.5060  0.1090
  872MPD2    H112850   2.165   1.436  13.763 -0.1913  0.3237  1.7237
  872MPD2    H212851   2.446   1.551  13.473  0.1804  1.9705 -1.1110
  872MPD2    H312852   2.271   1.390  13.557 -0.2023 -1.5729  0.7775
  872MPD2     N12853   2.225   1.615  13.936  0.1402 -0.5535 -0.9909
  872MPD2    H512854   2.145   1.553  13.949  0.3435 -0.9186 -1.5169
  872MPD2    N112855   2.570   1.731  13.629 -0.5902  0.2299 -0.4137
  872MPD2    H712856   2.588   1.799  13.702  2.9300  1.4015 -2.3636
  873MPD2     C12857   0.626   1.794   0.688  0.9156  0.4467 -0.0464
  873MPD2    C112858   0.504   1.817   0.752  0.6537 -0.1818 -0.1416
  873MPD2    C212859   0.439   1.709   0.810  0.4892 -0.1094  0.1437
  873MPD2    C312860   0.501   1.584   0.825  0.5862  0.3172  0.6552
  873MPD2    C412861   0.635   1.574   0.796  0.4878  0.1315  0.2919
  873MPD2    C512862   0.686   1.674   0.717 -0.3273 -0.0837  0.0313
  873MPD2     H12863   0.333   1.718   0.829  0.4832  0.1718 -0.0261
  873MPD2    H112864   0.705   1.492   0.804  0.0290 -0.2475  0.4430
  873MPD2    H212865   0.688   1.866   0.636  1.6914  0.1284  0.4424
  873MPD2    H312866   0.792   1.670   0.698 -0.4680 -0.1010 -0.7384
  873MPD2     N12867   0.441   1.461   0.866 -0.2920  0.6816  0.3418
  873MPD2    H512868   0.499   1.380   0.886 -4.1978 -2.3376 -0.5692
  873MPD2    N112869   0.465   1.951   0.766  0.5522  0.0665  0.9085
  873MPD2    H712870   0.528   2.026   0.739 -3.0297  2.2162 -1.5164
  874MPD2     C12871   3.733   1.540  16.234  0.0821 -0.2809  0.1663
  874MPD2    C112872   3.806   1.511  16.350 -0.4680 -0.2327 -0.1294
  874MPD2    C212873   3.916   1.595  16.387  0.2720  0.1922 -0.2530
  874MPD2    C312874   3.953   1.702  16.306  0.1487  0.7234 -0.1410
  874MPD2    C412875   3.875   1.738  16.191 -0.4125  0.1220 -0.1784
  874MPD2    C512876   3.761   1.653  16.155  0.2939  0.0275  0.3631
  874MPD2     H12877   3.984   1.576  16.470  0.1834  1.0110  0.0190
  874MPD2    H112878   3.887   1.830  16.136  2.2037  0.2805  0.6247
  874MPD2    H212879   3.659   1.467  16.202  0.1296  0.1874 -1.0240
  874MPD2    H312880   3.723   1.659  16.053 -1.6231 -0.8305  1.0266
  874MPD2     N12881   4.077   1.755  16.340  0.9080 -0.3918 -0.3937
  874MPD2    H512882   4.118   1.729  16.429 -2.2729 -0.9197  0.9366
  874MPD2    N112883   3.766   1.401  16.435 -0.1163 -0.3982  0.3516
  874MPD2    H712884   3.693   1.338  16.405  1.0066 -1.8061  0.5691
  875MPD2     C12885   0.172   4.453  14.753  0.5856 -0.2040  0.3269
  875MPD2    C112886   0.160   4.591  14.732 -0.0683 -0.0698  0.1363
  875MPD2    C212887   0.209   4.687  14.827 -0.1067 -0.1882  0.5907
  875MPD2    C312888   0.257   4.637  14.943 -0.1278  0.5472  0.5671
  875MPD2    C412889   0.258   4.497  14.969 -0.3899 -0.5977 -0.2140
  875MPD2    C512890   0.238   4.415  14.867  0.5840  0.5908 -1.0317
  875MPD2     H12891   0.203   0.054  14.811  1.6160 -0.1118  0.4943
  875MPD2    H112892   0.318   4.454  15.048  1.2884  0.3870 -0.9444
  875MPD2    H212893   0.144   4.373  14.686  1.0387 -0.8399  0.8929
  875MPD2    H312894   0.246   4.308  14.884 -0.9933  0.6388 -0.0382
  875MPD2     N12895   0.275   4.727  15.051  0.5102  0.0498 -0.3624
  875MPD2    H512896   0.253   4.687  15.142  0.1396 -0.9911 -0.9048
  875MPD2    N112897   0.099   4.635  14.604  0.3645  0.6198  0.6102
  875MPD2    H712898   0.100   4.736  14.593 -1.2637  0.4398 -1.1870
  876MPD2     C12899   4.029   1.189  16.310 -0.9619 -0.1097  0.0251
  876MPD2    C112900   3.977   1.134  16.195 -0.1406 -1.0139  0.2957
  876MPD2    C212901   3.917   1.011  16.196  0.4564 -0.1959 -1.3103
  876MPD2    C312902   3.930   0.929  16.308 -0.5226  0.0670  0.4893
  876MPD2    C412903   3.976   0.982  16.427 -0.2039  0.2067 -0.2522
  876MPD2    C512904   4.014   1.112  16.428  0.2273  0.1139 -0.5894
  876MPD2     H12905   3.890   0.961  16.104  0.2752 -0.8674 -0.8893
  876MPD2    H112906   3.995   0.924  16.517  1.1588  0.5697 -0.3168
  876MPD2    H212907   4.089   1.278  16.327 -0.6267 -0.5862  1.3565
  876MPD2    H312908   4.031   1.170  16.518 -3.0258  0.8890 -0.4645
  876MPD2     N12909   3.904   0.791  16.291 -0.0780  0.0240  0.4825
  876MPD2    H512910   3.870   0.760  16.201 -0.9890 -0.8603  1.1354
  876MPD2    N112911   4.008   1.203  16.075  0.1045 -0.2762 -0.0759
  876MPD2    H712912   4.057   1.289  16.098  0.7141 -0.2825 -1.3582
  877MPD2     C12913   3.716   1.524  15.302  0.1897 -0.3168 -0.2545
  877MPD2    C112914   3.852   1.517  15.313  0.4552 -0.1324  0.5070
  877MPD2    C212915   3.937   1.557  15.214 -0.0232  0.2179  1.3963
  877MPD2    C312916   3.877   1.595  15.094 -0.6232  0.8236  0.2059
  877MPD2    C412917   3.736   1.597  15.074 -0.3328 -0.0492  0.3577
  877MPD2    C512918   3.658   1.551  15.182 -0.4791  0.3964 -0.2092
  877MPD2     H12919   4.042   1.561  15.239 -0.1189  1.1843  1.6477
  877MPD2    H112920   3.687   1.652  14.994  1.1056  0.2528 -0.3034
  877MPD2    H212921   3.651   1.514  15.388  2.2691  2.6629  1.6390
  877MPD2    H312922   3.550   1.565  15.184 -0.5043  0.4089 -1.5722
  877MPD2     N12923   3.962   1.631  14.987  0.1133  0.4158  0.3447
  877MPD2    H512924   3.917   1.632  14.896 -1.5833 -1.6295  1.1698
  877MPD2    N112925   3.915   1.470  15.436 -0.0802  0.4442  0.2138
  877MPD2    H712926   4.015   1.457  15.439  0.3967  3.8330 -1.3772
  878MPD2     C12927   3.471   0.730  12.851  0.0743  0.0215  0.0465
  878MPD2    C112928   3.497   0.867  12.846 -0.3832 -0.7461 -0.2278
  878MPD2    C212929   3.493   0.939  12.959 -0.3274  0.6622 -0.9800
  878MPD2    C312930   3.463   0.879  13.084 -0.2884  0.2652 -0.4966
  878MPD2    C412931   3.437   0.743  13.090  0.2081  0.1057  0.2855
  878MPD2    C512932   3.441   0.676  12.970  0.0131 -0.5461 -0.6622
  878MPD2     H12933   3.504   1.046  12.966  1.7577  0.3375  0.8440
  878MPD2    H112934   3.393   0.693  13.175  0.0288  0.1614  0.2263
  878MPD2    H212935   3.464   0.663  12.765 -1.4162  2.4794 -1.7361
  878MPD2    H312936   3.410   0.572  12.967 -1.7087 -0.0657  0.6505
  878MPD2     N12937   3.435   0.956  13.198  0.4982 -0.0485 -0.6294
  878MPD2    H512938   3.471   1.051  13.207  2.0068 -0.8624  1.8368
  878MPD2    N112939   3.499   0.920  12.714 -0.8702  0.3663  0.0535
  878MPD2    H712940   3.491   0.859  12.633  1.5709  1.3545 -0.9293
  879MPD2     C12941   3.934   2.802  16.900 -0.8784 -0.0481  0.6513
  879MPD2    C112942   4.024   2.719  16.951 -0.8459 -0.8290 -0.9401
  879MPD2    C212943   4.038   2.585  16.911 -0.8399 -0.5595 -0.0982
  879MPD2    C312944   3.956   2.539  16.807 -0.0945  0.6150 -0.6113
  879MPD2    C412945   3.863   2.626  16.749  0.6340  0.0306  0.5219
  879MPD2    C512946   3.855   2.754  16.799 -0.4552 -0.0134 -0.2267
  879MPD2     H12947   4.111   2.518  16.953  0.2725  2.1358  2.2282
  879MPD2    H112948   3.786   2.588  16.683 -0.3862  1.5741  0.8286
  879MPD2    H212949   3.919   2.902  16.941 -0.0061  0.7629 -1.0250
  879MPD2    H312950   3.778   2.817  16.755 -2.6763 -3.4919 -1.3209
  879MPD2     N12951   3.966   2.413  16.746  0.0873  0.3207 -0.6822
  879MPD2    H512952   3.920   2.398  16.657 -1.0962  1.6657 -0.2952
  879MPD2    N112953   4.118   2.774  17.042 -0.3818  0.2577  0.2855
  879MPD2    H712954   4.124   2.876  17.044  0.3851  0.2622 -1.8627
  880MPD2     C12955   0.836   3.878   0.238  0.8921  0.7868  0.3647
  880MPD2    C112956   0.913   3.974   0.296  0.0007 -0.2353  0.7129
  880MPD2    C212957   1.047   3.985   0.269 -0.1280 -0.0717 -0.4907
  880MPD2    C312958   1.108   3.895   0.185  0.2018  0.0584  0.4967
  880MPD2    C412959   1.033   3.796   0.130  0.1528 -0.0018  0.1627
  880MPD2    C512960   0.896   3.786   0.159 -0.2367 -0.2697 -0.5539
  880MPD2     H12961   1.104   4.064   0.315  0.9196 -0.5345 -0.9770
  880MPD2    H112962   1.077   3.738   0.050 -1.1171  1.5531 -1.6785
  880MPD2    H212963   0.733   3.871   0.271  1.2893  2.2803  1.9512
  880MPD2    H312964   0.832   3.712   0.112 -2.4731  1.8649 -0.8799
  880MPD2     N12965   1.235   3.927   0.137 -0.1762  0.0762 -0.5842
  880MPD2    H512966   1.266   4.020   0.163  2.2247 -0.2265 -2.3119
  880MPD2    N112967   0.839   4.064   0.371  0.5610  0.0094  0.0887
  880MPD2    H712968   0.738   4.057   0.363  0.6707 -1.3043 -0.3081
  881MPD2     C12969   1.002   0.155  17.644  0.1635  0.3225 -0.2135
  881MPD2    C112970   0.951   0.032  17.611 -0.3414 -0.4039 -0.8463
  881MPD2    C212971   0.886   4.711  17.715 -0.0126 -0.0512  0.9036
  881MPD2    C312972   0.912   4.733   0.092  0.7096 -0.0615  0.8478
  881MPD2    C412973   0.979   0.107   0.121  0.2923 -0.1633 -0.1105
  881MPD2    C512974   1.023   0.189   0.018 -0.0877  0.4461  0.5377
  881MPD2     H12975   0.830   4.623  17.687  2.2057 -1.4246  0.7154
  881MPD2    H112976   1.003   0.145   0.220  0.6765  0.2042 -0.3473
  881MPD2    H212977   1.056   0.224  17.580 -1.6933  0.1407 -1.9770
  881MPD2    H312978   1.072   0.282   0.045 -0.5864  1.4795 -2.0914
  881MPD2     N12979   0.849   4.654   0.195 -0.1338 -0.3945  0.6301
  881MPD2    H512980   0.851   4.695   0.288  1.8735 -0.5301  0.6354
  881MPD2    N112981   0.939   4.737  17.471 -0.0789 -0.1292  0.3743
  881MPD2    H712982   0.991   0.054  17.405  0.9886 -1.6066 -0.0886
  882MPD2     C12983   4.082   1.536  14.281 -0.0793  0.4219 -0.3195
  882MPD2    C112984   4.014   1.610  14.377 -0.7692  0.2976  0.1760
  882MPD2    C212985   3.880   1.587  14.405  0.0933 -0.0288  1.0597
  882MPD2    C312986   3.822   1.474  14.348  0.0616 -0.4771  0.2644
  882MPD2    C412987   3.887   1.410  14.245  0.4441  0.1668  0.6703
  882MPD2    C512988   4.016   1.446  14.206 -0.5386  0.0616  0.0711
  882MPD2     H12989   3.827   1.659  14.466 -1.1649  1.1825 -1.4721
  882MPD2    H112990   3.838   1.328  14.193  3.4372 -0.0811 -1.7657
  882MPD2    H212991   4.189   1.554  14.271  0.4836 -2.1915  1.1387
  882MPD2    H312992   4.066   1.387  14.130  1.6153  0.5617  1.0894
  882MPD2     N12993   3.689   1.441  14.375  0.0931  0.5500 -0.3920
  882MPD2    H512994   3.655   1.365  14.316  0.9785  0.1712 -0.4148
  882MPD2    N112995   4.087   1.708  14.452  0.0676  0.0132 -0.2029
  882MPD2    H712996   4.187   1.704  14.436  0.4833  3.1405  1.5791
  883MPD2     C12997   1.087   1.008  16.143  0.2637  0.7257 -0.2818
  883MPD2    C112998   1.167   1.124  16.132  0.3157 -0.4503  0.4675
  883MPD2    C212999   1.283   1.123  16.219  0.7725 -0.4658 -0.6065
  883MPD2    C313000   1.316   1.013  16.301  0.3004 -0.2037 -0.1605
  883MPD2    C413001   1.234   0.902  16.301  0.0142 -0.3634  0.0101
  883MPD2    C513002   1.128   0.903  16.223 -0.2027 -0.1994  0.4384
  883MPD2     H13003   1.347   1.210  16.231  0.1256 -0.2631  1.3865
  883MPD2    H113004   1.260   0.813  16.358  0.4908 -1.1272 -1.4074
  883MPD2    H213005   0.994   0.998  16.088  1.3134 -1.4658 -1.6425
  883MPD2    H313006   1.068   0.814  16.230  2.2224 -1.7409  1.5985
  883MPD2     N13007   1.433   1.020  16.383 -0.5347  0.2955 -0.5404
  883MPD2    H513008   1.478   1.110  16.369  2.6170 -1.5838 -2.4761
  883MPD2    N113009   1.135   1.242  16.058 -0.2040  0.2931  0.6899
  883MPD2    H713010   1.199   1.319  16.073  0.3696  0.2048 -1.2834
  884MPD2     C13011   3.158   2.411  15.330 -0.1100 -0.2568  0.2892
  884MPD2    C113012   3.099   2.499  15.237  0.5931  0.2220  0.0896
  884MPD2    C213013   2.969   2.540  15.253 -0.3191  0.0501 -0.0730
  884MPD2    C313014   2.888   2.484  15.344  0.0003 -0.4104  0.2346
  884MPD2    C413015   2.943   2.390  15.432 -0.5670  0.5218 -0.0589
  884MPD2    C513016   3.077   2.360  15.430  0.1263  0.0479 -0.2417
  884MPD2     H13017   2.941   2.627  15.195 -1.5782 -0.0968  0.3085
  884MPD2    H113018   2.897   2.366  15.528  0.7425 -0.0504  0.4247
  884MPD2    H213019   3.262   2.382  15.333 -0.6976 -2.5532 -2.0453
  884MPD2    H313020   3.117   2.300  15.510 -1.0299 -2.1144 -1.2814
  884MPD2     N13021   2.756   2.529  15.359 -0.5834 -0.1786  0.0214
  884MPD2    H513022   2.728   2.611  15.306 -0.0242  0.5631  0.8849
  884MPD2    N113023   3.166   2.565  15.130 -0.4621 -0.2905 -0.7691
  884MPD2    H713024   3.121   2.648  15.093 -0.4965 -0.9144 -2.1289
  885MPD2     C13025   1.596   1.980  17.341  0.1469 -0.2431 -0.3458
  885MPD2    C113026   1.653   2.099  17.385 -0.0786 -0.2807  0.2183
  885MPD2    C213027   1.625   2.226  17.325 -0.1214  0.1998  0.3513
  885MPD2    C313028   1.526   2.239  17.235  0.5950 -0.1855 -0.6054
  885MPD2    C413029   1.467   2.121  17.196  0.6513  0.2202 -0.6531
  885MPD2    C513030   1.508   1.995  17.234  0.5871 -0.1200 -0.3981
  885MPD2     H13031   1.675   2.313  17.364 -1.1495  2.0135 -2.3536
  885MPD2    H113032   1.380   2.123  17.131  0.4686 -1.7599 -0.4780
  885MPD2    H213033   1.630   1.885  17.380  1.5950  1.6270  3.0046
  885MPD2    H313034   1.460   1.902  17.206 -0.9047  0.0698  1.5381
  885MPD2     N13035   1.480   2.367  17.205 -0.3830  0.4251  0.3898
  885MPD2    H513036   1.522   2.449  17.248 -1.4941  0.0603  2.1541
  885MPD2    N113037   1.750   2.084  17.484  0.3243  0.1798  0.2555
  885MPD2    H713038   1.755   1.994  17.531  0.4430  1.1912  2.1831
  886MPD2     C13039   2.582   1.048  15.585  0.7186  0.3554  0.1893
  886MPD2    C113040   2.680   0.990  15.511  0.5658  0.2024  0.7254
  886MPD2    C213041   2.692   1.023  15.375  0.5149  1.0639 -0.4990
  886MPD2    C313042   2.607   1.114  15.315 -0.0782  0.1151  0.2711
  886MPD2    C413043   2.511   1.171  15.392  0.9451 -1.0323 -0.4575
  886MPD2    C513044   2.493   1.128  15.525 -0.4156 -0.0025  0.5174
  886MPD2     H13045   2.773   0.984  15.314 -2.6114 -4.5648 -1.0548
  886MPD2    H113046   2.446   1.248  15.353  1.6257 -1.2490 -2.0011
  886MPD2    H213047   2.568   1.014  15.688  1.4049 -1.4564 -0.3244
  886MPD2    H313048   2.407   1.162  15.582  0.0943 -0.4643  1.5780
  886MPD2     N13049   2.644   1.163  15.189  0.7246 -0.8600 -0.4359
  886MPD2    H513050   2.699   1.104  15.127  3.0709  1.4210 -0.5531
  886MPD2    N113051   2.770   0.892  15.550  0.3518  0.1870 -0.2344
  886MPD2    H713052   2.832   0.858  15.477  1.8040 -0.2125  1.1773
  887MPD2     C13053   3.230   0.949  16.186 -0.3776  0.4430 -0.8893
  887MPD2    C113054   3.169   0.994  16.072 -0.7413 -0.2159 -0.1573
  887MPD2    C213055   3.116   1.120  16.085 -0.4398 -0.4102  0.0627
  887MPD2    C313056   3.143   1.203  16.196 -0.9811  0.0599  0.3316
  887MPD2    C413057   3.215   1.155  16.302 -0.1688  0.8571 -0.0670
  887MPD2    C513058   3.250   1.021  16.296 -0.3761  0.2760 -0.4264
  887MPD2     H13059   3.054   1.159  16.005  0.6493  0.7115 -0.2316
  887MPD2    H113060   3.240   1.204  16.395  1.1314  0.9627 -0.4621
  887MPD2    H213061   3.260   0.846  16.201 -1.9194  0.1057 -0.2234
  887MPD2    H313062   3.298   0.982  16.385  0.5365  0.7217 -0.7190
  887MPD2     N13063   3.094   1.335  16.190 -0.4596 -0.3599 -0.8152
  887MPD2    H513064   3.040   1.370  16.112  0.0522  2.1607 -0.0338
  887MPD2    N113065   3.138   0.911  15.963  0.5335  0.0074  0.3435
  887MPD2    H713066   3.088   0.947  15.883 -1.4167  2.8879  2.8386
  888MPD2     C13067   0.271   1.122  14.824  0.1887 -0.0924  0.0437
  888MPD2    C113068   0.266   1.154  14.955  0.3611  0.1841  0.4011
  888MPD2    C213069   0.330   1.268  15.005  0.1760 -0.4774  0.2256
  888MPD2    C313070   0.409   1.338  14.922 -0.2954  0.1198 -0.3008
  888MPD2    C413071   0.427   1.292  14.790  0.0372 -0.3618  0.2655
  888MPD2    C513072   0.359   1.187  14.741 -0.2926 -0.0312  0.3436
  888MPD2     H13073   0.307   1.295  15.108  1.8048  0.9790  0.2097
  888MPD2    H113074   0.485   1.337  14.711 -0.4163  2.2361  1.4030
  888MPD2    H213075   0.235   1.025  14.791 -0.9816 -0.1118  1.3658
  888MPD2    H313076   0.374   1.151  14.640 -1.6456 -1.8677  0.7728
  888MPD2     N13077   0.481   1.446  14.980  0.3125 -1.0383 -0.0063
  888MPD2    H513078   0.447   1.481  15.070  1.3884 -1.5058  0.5815
  888MPD2    N113079   0.186   1.068  15.035 -1.3245 -0.4501  0.0773
  888MPD2    H713080   0.126   1.000  14.989 -2.7261  0.5560  0.4188
  889MPD2     C13081   3.885   1.236  12.435 -0.4086 -0.7021  0.2286
  889MPD2    C113082   3.899   1.162  12.552  0.1550  0.2170 -0.3814
  889MPD2    C213083   3.864   1.213  12.672  0.7176  0.2684  0.0481
  889MPD2    C313084   3.817   1.340  12.682 -0.0074 -0.4061  0.4378
  889MPD2    C413085   3.795   1.413  12.567  0.1041  0.0147  0.2398
  889MPD2    C513086   3.845   1.370  12.447 -0.0597 -0.6787  0.1303
  889MPD2     H13087   3.893   1.166  12.765 -2.1751  1.6208  1.6194
  889MPD2    H113088   3.755   1.514  12.572  2.1606  0.8174  0.1631
  889MPD2    H213089   3.895   1.192  12.337  3.0391  2.5497 -0.8771
  889MPD2    H313090   3.828   1.427  12.357 -0.3268  0.9244  1.1977
  889MPD2     N13091   3.790   1.386  12.811  0.1722  0.6880 -0.0430
  889MPD2    H513092   3.805   1.318  12.885 -0.0279  0.6192 -0.0659
  889MPD2    N113093   3.921   1.021  12.530 -0.4393  0.2769  0.0609
  889MPD2    H713094   3.924   0.982  12.436  0.1227 -1.2403  0.7069
  890MPD2     C13095   3.680   2.294  14.648 -0.3313  0.6447  0.0907
  890MPD2    C113096   3.795   2.295  14.718 -0.3854 -0.6083 -0.2920
  890MPD2    C213097   3.794   2.218  14.839 -0.7443  0.5367  0.0279
  890MPD2    C313098   3.684   2.136  14.880  0.5764  0.2678 -0.1685
  890MPD2    C413099   3.568   2.142  14.804  0.6522  0.0808 -0.0430
  890MPD2    C513100   3.567   2.223  14.696 -0.3378  0.3808 -0.2014
  890MPD2     H13101   3.885   2.209  14.897 -0.1675 -1.4235 -1.1708
  890MPD2    H113102   3.480   2.088  14.837  0.2168  1.4120  0.9838
  890MPD2    H213103   3.681   2.354  14.558 -0.6840  0.2906 -0.1486
  890MPD2    H313104   3.472   2.224  14.643  0.6796 -0.2576 -2.0364
  890MPD2     N13105   3.677   2.073  14.998  0.4932  0.6209  0.2261
  890MPD2    H513106   3.587   2.083  15.044  0.7759 -0.1500  0.9582
  890MPD2    N113107   3.902   2.381  14.684 -0.1766  0.2218 -0.4885
  890MPD2    H713108   3.897   2.450  14.610 -0.6915 -0.0255 -0.6885
  891MPD2     C13109   1.932   0.269  16.394  0.3101 -0.5757 -0.6700
  891MPD2    C113110   1.942   0.405  16.416  0.0124 -0.3307 -0.1267
  891MPD2    C213111   2.055   0.458  16.481  0.0561  0.1677 -0.1173
  891MPD2    C313112   2.165   0.382  16.517  0.2164 -0.1597  0.1142
  891MPD2    C413113   2.145   0.242  16.493  0.0463 -0.3921  0.0778
  891MPD2    C513114   2.039   0.192  16.438  0.3960 -0.6094 -0.7929
  891MPD2     H13115   2.056   0.563  16.508 -0.8935  0.7187 -2.1561
  891MPD2    H113116   2.219   0.171  16.527 -0.8046 -0.6253  1.4179
  891MPD2    H213117   1.841   0.226  16.353  1.5142 -2.3890 -1.4299
  891MPD2    H313118   2.027   0.086  16.416  1.9294 -0.7673 -0.8211
  891MPD2     N13119   2.280   0.441  16.579 -0.3949  0.4746  0.8342
  891MPD2    H513120   2.272   0.540  16.596  2.0803  0.8463 -0.1626
  891MPD2    N113121   1.824   0.475  16.377 -0.1295 -0.0801 -0.1332
  891MPD2    H713122   1.757   0.417  16.328  0.3677 -1.0830  0.3562
  892MPD2     C13123   3.019   1.685  15.117 -0.3243  0.1900 -0.1798
  892MPD2    C113124   2.969   1.728  14.993 -0.2984  0.4489  0.7503
  892MPD2    C213125   3.047   1.709  14.885 -0.0003  0.0587  0.4651
  892MPD2    C313126   3.162   1.637  14.880 -0.4568  0.7296 -0.2708
  892MPD2    C413127   3.217   1.598  14.998  0.3664  0.1179 -0.0883
  892MPD2    C513128   3.150   1.624  15.114  0.3993 -0.0463 -0.2947
  892MPD2     H13129   3.023   1.748  14.786 -3.3675 -1.2505  0.7509
  892MPD2    H113130   3.303   1.535  15.011  0.0689  0.0429  1.5351
  892MPD2    H213131   2.970   1.689  15.214 -0.8245 -2.0490 -0.3294
  892MPD2    H313132   3.188   1.588  15.209 -0.2959  0.0939  0.0339
  892MPD2     N13133   3.224   1.585  14.763 -0.8020  0.6390 -0.1236
  892MPD2    H513134   3.315   1.544  14.784 -0.2624  0.6293 -2.5044
  892MPD2    N113135   2.853   1.804  14.982  0.1400 -0.3673  0.6212
  892MPD2    H713136   2.825   1.855  14.898 -0.9019  0.6942  1.6097
  893MPD2     C13137   4.735   0.302   0.978  0.2817  0.3520 -0.5933
  893MPD2    C113138   0.078   0.288   1.086  0.2437 -0.3486 -0.0950
  893MPD2    C213139   0.021   0.234   1.203  0.1358  0.0808 -0.0797
  893MPD2    C313140   4.631   0.197   1.213  0.3637 -0.2701  0.2552
  893MPD2    C413141   4.548   0.217   1.102  0.0207  0.6399  0.0372
  893MPD2    C513142   4.603   0.265   0.981 -0.0563 -0.6511 -0.7012
  893MPD2     H13143   0.082   0.239   1.292 -0.0653 -1.0843  0.1213
  893MPD2    H113144   4.444   0.186   1.105  0.4432 -0.6908  1.3497
  893MPD2    H213145   0.033   0.345   0.886 -0.4650  1.0021 -0.5930
  893MPD2    H313146   4.553   0.283   0.886 -2.3137 -1.6846  0.2763
  893MPD2     N13147   4.571   0.147   1.334  0.4630 -0.1462 -0.4167
  893MPD2    H513148   4.473   0.119   1.333  0.8443 -1.5577  1.1875
  893MPD2    N113149   0.201   0.344   1.071  0.8561 -0.0441 -0.7515
  893MPD2    H713150   0.227   0.388   0.983  0.3504 -2.5391 -2.1770
  894MPD2     C13151   3.561   2.940   0.988  0.3452  0.1468  0.3213
  894MPD2    C113152   3.498   3.062   0.988  0.3757  0.0702  0.3775
  894MPD2    C213153   3.554   3.171   0.929  0.1330 -0.2481  0.4634
  894MPD2    C313154   3.682   3.168   0.870 -0.3334  0.8563 -0.4153
  894MPD2    C413155   3.736   3.040   0.858  0.0199  0.2400 -0.6444
  894MPD2    C513156   3.673   2.929   0.918 -0.5968  0.1577 -0.1535
  894MPD2     H13157   3.494   3.261   0.929 -1.7212 -1.4817  1.6065
  894MPD2    H113158   3.833   3.022   0.812 -0.0468 -0.5480 -0.4737
  894MPD2    H213159   3.527   2.857   1.048  0.3949 -0.1051  0.0002
  894MPD2    H313160   3.732   2.838   0.913 -0.5571  0.0778  2.0609
  894MPD2     N13161   3.742   3.286   0.821 -0.3052  0.2794  0.3015
  894MPD2    H513162   3.689   3.372   0.830 -0.4498  0.3755 -1.5576
  894MPD2    N113163   3.373   3.082   1.049  0.6897  0.4169 -0.0057
  894MPD2    H713164   3.339   3.177   1.041  1.1606  0.4901 -1.1003
  895MPD2     C13165   2.016   0.833  13.289 -0.3647 -0.2183 -1.1459
  895MPD2    C113166   1.923   0.906  13.226 -0.1896 -0.2317 -0.0179
  895MPD2    C213167   1.855   0.847  13.123 -0.1793 -0.6770  0.1094
  895MPD2    C313168   1.893   0.723  13.071  0.3513 -0.5718  0.4059
  895MPD2    C413169   1.987   0.650  13.136 -0.5055 -0.0576  0.2282
  895MPD2    C513170   2.056   0.709  13.240 -0.0249  0.1405 -0.6915
  895MPD2     H13171   1.798   0.914  13.060  1.2510  0.2773 -0.1580
  895MPD2    H113172   2.015   0.547  13.120  1.9924  0.7029 -0.3134
  895MPD2    H213173   2.071   0.875  13.373 -1.0936  0.3803 -0.9653
  895MPD2    H313174   2.134   0.655  13.293 -0.5643 -0.0419 -0.0867
  895MPD2     N13175   1.842   0.671  12.944  0.1487  0.3736  0.7382
  895MPD2    H513176   1.905   0.600  12.908  0.9393  1.6012 -0.3250
  895MPD2    N113177   1.871   1.030  13.268 -0.6021  0.1518 -0.0538
  895MPD2    H713178   1.778   1.055  13.234 -0.8160 -0.8607 -0.2117
  896MPD2     C13179   0.917   4.105   0.864 -0.5924  0.1511 -0.4819
  896MPD2    C113180   0.874   3.981   0.823 -0.2399  0.2235  0.1332
  896MPD2    C213181   0.752   3.930   0.864 -0.0600 -0.3518  0.3681
  896MPD2    C313182   0.659   4.004   0.942 -0.1729 -0.0621  0.5922
  896MPD2    C413183   0.696   4.137   0.978  0.1349 -0.4673  0.5165
  896MPD2    C513184   0.823   4.178   0.940  0.0942  0.0230 -0.5323
  896MPD2     H13185   0.716   3.832   0.833  2.3340 -0.7730 -1.1523
  896MPD2    H113186   0.644   4.208   1.042  0.7426  2.2162 -2.0119
  896MPD2    H213187   1.011   4.154   0.840 -0.6581  0.2013 -0.6408
  896MPD2    H313188   0.847   4.276   0.978 -0.3781 -0.6355  1.4846
  896MPD2     N13189   0.539   3.940   0.975  0.1007 -0.2646 -0.0809
  896MPD2    H513190   0.526   3.850   0.930  2.2722  0.5780 -2.4327
  896MPD2    N113191   0.962   3.921   0.731 -0.5671  0.2873  0.3425
  896MPD2    H713192   1.035   3.978   0.689 -0.9578  0.3385 -0.2664
  897MPD2     C13193   0.957   0.849  10.688  0.5131 -0.0042  1.0268
  897MPD2    C113194   0.877   0.949  10.635  0.1332  0.1487 -0.0048
  897MPD2    C213195   0.747   0.959  10.678  0.3417 -0.4246  0.1341
  897MPD2    C313196   0.696   0.890  10.784  0.1243  0.8708 -0.2152
  897MPD2    C413197   0.781   0.794  10.840  0.4406  0.4350  0.1695
  897MPD2    C513198   0.907   0.785  10.795 -0.1069 -0.1761 -0.1771
  897MPD2     H13199   0.689   1.040  10.637 -0.2137 -0.3034  1.1619
  897MPD2    H113200   0.750   0.739  10.928 -0.5040 -0.3139 -0.6235
  897MPD2    H213201   1.054   0.827  10.645 -0.6478  1.1366 -2.2353
  897MPD2    H313202   0.976   0.715  10.840 -1.6655  0.7642  3.7045
  897MPD2     N13203   0.562   0.908  10.823  0.4044 -0.2891  0.5213
  897MPD2    H513204   0.505   0.977  10.773  0.0512 -1.0007 -0.0568
  897MPD2    N113205   0.930   1.010  10.518  0.4788  0.0861 -0.5013
  897MPD2    H713206   1.028   0.991  10.497  0.4424  1.6484 -2.0900
  898MPD2     C13207   3.653   2.245   0.463  0.0764 -0.3239  0.6028
  898MPD2    C113208   3.566   2.145   0.416 -0.4920  0.0560  0.4589
  898MPD2    C213209   3.472   2.177   0.316 -0.6901 -0.2034  0.5676
  898MPD2    C313210   3.463   2.312   0.275  0.0167 -0.4081 -0.1825
  898MPD2    C413211   3.541   2.405   0.343 -0.3084  0.5015  0.9640
  898MPD2    C513212   3.644   2.373   0.424  0.5776  0.4607  0.3610
  898MPD2     H13213   3.401   2.104   0.278 -0.1311 -0.4481 -0.0073
  898MPD2    H113214   3.529   2.509   0.318 -0.7505 -0.1917 -1.7220
  898MPD2    H213215   3.743   2.222   0.520 -1.4749 -0.4985  2.9681
  898MPD2    H313216   3.710   2.445   0.470  1.0778 -0.3470  0.9159
  898MPD2     N13217   3.370   2.337   0.176  0.6204  0.2189 -0.3277
  898MPD2    H513218   3.311   2.260   0.148  3.1603 -1.0883 -2.0996
  898MPD2    N113219   3.581   2.008   0.436 -0.5832  0.0183 -0.1712
  898MPD2    H713220   3.532   1.948   0.370  0.1946 -1.2423  0.4052
  899MPD2     C13221   4.152   2.055  17.219  0.1207 -0.1441 -0.0028
  899MPD2    C113222   4.031   2.109  17.249  0.1500  0.2519  0.1696
  899MPD2    C213223   3.991   2.088  17.376  0.0320 -0.3021 -0.3153
  899MPD2    C313224   4.070   2.028  17.479 -0.0599 -0.7695  0.3962
  899MPD2    C413225   4.197   1.986  17.438 -0.3324  0.4096 -0.1455
  899MPD2    C513226   4.238   1.995  17.308  0.0733 -0.5727 -0.2278
  899MPD2     H13227   3.891   2.118  17.407  0.3589  1.3279 -0.8088
  899MPD2    H113228   4.266   1.939  17.508  1.0237 -0.1975 -1.8769
  899MPD2    H213229   4.194   2.081  17.123 -0.6137  1.4385  0.0945
  899MPD2    H313230   4.337   1.969  17.273 -0.5308 -3.5841  0.2785
  899MPD2     N13231   4.006   2.010  17.600 -0.7122 -0.1644  0.4148
  899MPD2    H513232   3.906   2.025  17.609 -0.5694  1.5722 -0.8797
  899MPD2    N113233   3.954   2.189  17.161  0.9924  0.3461 -0.2747
  899MPD2    H713234   3.996   2.210  17.072 -2.0462 -0.7732 -1.9760
  900MPD2     C13235   2.978   3.786  12.694  0.3533  0.5942  0.3074
  900MPD2    C113236   2.909   3.674  12.663  0.1134 -0.7316 -0.1872
  900MPD2    C213237   2.807   3.685  12.571  0.1555  0.0001  0.1368
  900MPD2    C313238   2.778   3.807  12.508 -0.3354 -0.2013  0.1333
  900MPD2    C413239   2.844   3.917  12.559  0.6041  0.4607 -0.6443
  900MPD2    C513240   2.941   3.910  12.650  0.2362  0.4528  0.0273
  900MPD2     H13241   2.754   3.599  12.531  1.0738 -0.1298 -0.8029
  900MPD2    H113242   2.816   4.016  12.523  1.9841  0.9609 -0.3362
  900MPD2    H213243   3.048   3.794  12.777  0.9530 -0.0177 -0.1404
  900MPD2    H313244   2.991   4.005  12.666 -0.4517  0.7779  0.2764
  900MPD2     N13245   2.669   3.811  12.415 -0.6714  0.1666  0.2713
  900MPD2    H513246   2.614   3.727  12.401 -2.9539  1.7965 -0.5724
  900MPD2    N113247   2.943   3.548  12.712 -0.5111 -0.1041  0.0055
  900MPD2    H713248   2.903   3.473  12.658 -0.9038 -0.1319  0.3345
  901MPD2     C13249   2.753   2.579  12.727 -0.8529  0.0019  0.4103
  901MPD2    C113250   2.866   2.602  12.647  0.0433  0.0593  0.3815
  901MPD2    C213251   2.926   2.728  12.656 -0.0946 -0.1351 -0.6234
  901MPD2    C313252   2.854   2.830  12.717 -0.2452 -0.2621 -0.1553
  901MPD2    C413253   2.732   2.808  12.772  0.6054 -0.4041  0.2022
  901MPD2    C513254   2.686   2.679  12.784  0.4538  0.2094  0.3058
  901MPD2     H13255   3.025   2.755  12.623  0.3034  2.0425  2.3136
  901MPD2    H113256   2.680   2.891  12.819  1.3967 -0.8816  1.9251
  901MPD2    H213257   2.718   2.477  12.731 -0.2386 -0.1510  1.7662
  901MPD2    H313258   2.594   2.660  12.837 -0.0971  3.3722  0.4598
  901MPD2     N13259   2.923   2.954  12.734  0.1458 -0.3615 -0.4101
  901MPD2    H513260   3.022   2.958  12.712  0.4843  0.2469  1.2210
  901MPD2    N113261   2.944   2.494  12.599  0.3102 -0.3063 -0.1994
  901MPD2    H713262   2.910   2.399  12.603  2.2680 -0.9737  0.2226
  902MPD2     C13263   2.106   1.595  12.827  0.5822  0.0290  0.0700
  902MPD2    C113264   2.194   1.697  12.832  0.0860  0.3234 -0.3501
  902MPD2    C213265   2.303   1.693  12.748 -0.4176 -0.2568  0.2554
  902MPD2    C313266   2.324   1.585  12.664  0.7848 -0.1807 -0.1892
  902MPD2    C413267   2.239   1.475  12.665  0.2086  0.8592  0.0500
  902MPD2    C513268   2.123   1.486  12.747 -0.3956 -0.1396 -0.0852
  902MPD2     H13269   2.373   1.774  12.734 -0.4058 -0.2887  0.1214
  902MPD2    H113270   2.259   1.385  12.607 -4.0046 -0.7911  1.1109
  902MPD2    H213271   2.015   1.595  12.885 -0.6186  1.2093 -1.8457
  902MPD2    H313272   2.044   1.412  12.751 -1.9520  1.5173  0.0367
  902MPD2     N13273   2.426   1.580  12.559 -0.2048  0.3368 -0.0209
  902MPD2    H513274   2.425   1.499  12.499  3.4725 -1.3649  2.2317
  902MPD2    N113275   2.154   1.807  12.911  0.5525  0.4532  0.0868
  902MPD2    H713276   2.078   1.793  12.977  0.6364 -3.4903 -0.6335
  903MPD2     C13277   2.455   2.123  11.959 -0.5045 -0.3633  0.5335
  903MPD2    C113278   2.378   2.044  12.035 -0.2765 -0.6422  0.3929
  903MPD2    C213279   2.240   2.078  12.042 -0.5753  0.5857 -0.2639
  903MPD2    C313280   2.181   2.176  11.969 -0.3299 -0.3745  0.4298
  903MPD2    C413281   2.256   2.241  11.880 -0.4916 -0.1832  0.0263
  903MPD2    C513282   2.393   2.223  11.881  0.5966  0.1573 -0.1104
  903MPD2     H13283   2.171   2.026  12.108  2.4521 -2.6665  0.3464
  903MPD2    H113284   2.219   2.310  11.805  0.9099  2.0018  1.3260
  903MPD2    H213285   2.563   2.116  11.969 -0.3310  0.3788 -0.7895
  903MPD2    H313286   2.446   2.300  11.827 -0.1664  1.8242  1.5572
  903MPD2     N13287   2.053   2.214  12.006  0.0034 -0.7836  0.1571
  903MPD2    H513288   2.012   2.166  12.085  1.8288 -1.1022  0.9168
  903MPD2    N113289   2.429   1.927  12.106 -0.4153  0.5079  0.5796
  903MPD2    H713290   2.359   1.873  12.156 -2.4753  1.1574 -1.5656
  904MPD2     C13291   2.147   0.227  13.630  0.2145 -0.8712  0.3168
  904MPD2    C113292   2.190   0.361  13.628 -0.1236  0.7991 -0.3278
  904MPD2    C213293   2.322   0.393  13.663  0.0123 -0.4880  0.7118
  904MPD2    C313294   2.405   0.293  13.710  0.4776 -0.4349  0.3563
  904MPD2    C413295   2.363   0.164  13.702  0.0052  0.1393 -0.1309
  904MPD2    C513296   2.237   0.127  13.662  0.3824 -0.0069  0.6212
  904MPD2     H13297   2.367   0.491  13.651  0.0128 -0.4688  0.8714
  904MPD2    H113298   2.429   0.081  13.726  0.8404  1.7290  3.1609
  904MPD2    H213299   2.045   0.195  13.616  0.4411 -1.0515 -0.8964
  904MPD2    H313300   2.202   0.026  13.679 -0.9109  0.3571  0.1352
  904MPD2     N13301   2.534   0.325  13.756  0.3678  0.1415  0.1743
  904MPD2    H513302   2.554   0.421  13.730  0.7720 -0.5122 -1.9156
  904MPD2    N113303   2.107   0.468  13.600 -0.1236  0.2425 -0.5356
  904MPD2    H713304   2.150   0.560  13.609 -0.9143  0.6391 -0.7753
  905MPD2     C13305   1.391   1.044  13.559 -0.1069 -0.6028 -0.4238
  905MPD2    C113306   1.486   0.980  13.479 -0.2712  0.3833  0.2874
  905MPD2    C213307   1.480   0.978  13.343  0.5480 -0.1383 -0.0276
  905MPD2    C313308   1.382   1.047  13.279 -0.1939  0.5295 -0.2546
  905MPD2    C413309   1.281   1.102  13.355  0.0967 -0.6563 -0.2692
  905MPD2    C513310   1.290   1.111  13.489 -0.4699  0.4676 -0.2865
  905MPD2     H13311   1.555   0.932  13.279 -0.0588 -0.7080 -0.3329
  905MPD2    H113312   1.196   1.139  13.300 -1.1590 -0.7069  1.6225
  905MPD2    H213313   1.389   1.034  13.667  0.0453 -0.9225 -0.4466
  905MPD2    H313314   1.205   1.159  13.536 -0.8496  1.6111 -2.1729
  905MPD2     N13315   1.376   1.040  13.139 -0.2846  0.3142 -0.0963
  905MPD2    H513316   1.286   1.047  13.092 -0.8903  0.5006  1.0877
  905MPD2    N113317   1.582   0.901  13.547 -0.1224  0.2194 -0.0956
  905MPD2    H713318   1.590   0.918  13.647  0.2873 -1.8765  0.2159
  906MPD2     C13319   3.937   1.171  11.366  0.2808 -0.1177 -0.2142
  906MPD2    C113320   3.956   1.057  11.286 -0.1626  0.2622  0.0757
  906MPD2    C213321   3.907   0.941  11.339 -0.4047  0.4018 -0.4442
  906MPD2    C313322   3.847   0.932  11.458  0.0327  0.1662  0.3929
  906MPD2    C413323   3.843   1.044  11.544  0.3282  0.3575 -0.6127
  906MPD2    C513324   3.888   1.161  11.495  0.5285  0.6145 -0.3379
  906MPD2     H13325   3.892   0.856  11.274 -1.5794  0.1886  0.1162
  906MPD2    H113326   3.796   1.044  11.641  0.8570 -1.0674 -0.3554
  906MPD2    H213327   3.959   1.270  11.328  0.4859 -0.3240 -0.6366
  906MPD2    H313328   3.865   1.253  11.547 -0.6382 -0.7937  1.5998
  906MPD2     N13329   3.807   0.805  11.497  0.1635  0.4337  0.2174
  906MPD2    H513330   3.826   0.730  11.431  1.8935  1.3006 -0.2905
  906MPD2    N113331   3.999   1.062  11.152  0.0562 -0.4426 -0.6820
  906MPD2    H713332   3.984   0.976  11.099 -1.3565 -2.3965  2.8741
  907MPD2     C13333   3.012   4.498  15.513  0.2324  0.3537 -0.2584
  907MPD2    C113334   3.028   4.366  15.510 -0.3114 -0.1327  0.1675
  907MPD2    C213335   3.056   4.292  15.621 -0.6054 -0.0185  0.1059
  907MPD2    C313336   3.060   4.351  15.744  0.3702 -0.2764  0.0747
  907MPD2    C413337   3.025   4.483  15.752  0.0231  0.0682 -0.0915
  907MPD2    C513338   3.017   4.557  15.639 -0.2262 -0.0077 -0.1555
  907MPD2     H13339   3.070   4.184  15.614 -2.6287 -0.2194 -1.1090
  907MPD2    H113340   3.009   4.536  15.845 -1.5325  1.8449 -1.4012
  907MPD2    H213341   2.991   4.559  15.426  0.7285 -1.1878 -1.4537
  907MPD2    H313342   2.982   4.659  15.647  2.3858  0.7085  1.9313
  907MPD2     N13343   3.072   4.271  15.863  0.1021 -0.2870  0.3645
  907MPD2    H513344   3.085   4.172  15.849  1.7722  0.2151 -1.5057
  907MPD2    N113345   3.033   4.296  15.395 -0.1664 -0.1823  0.2870
  907MPD2    H713346   3.058   4.199  15.413 -0.4032  0.0441  1.7990
  908MPD2     C13347   1.450   0.709   9.868  0.3129 -0.6466  0.6069
  908MPD2    C113348   1.335   0.660   9.922 -0.2809  0.9778 -0.5361
  908MPD2    C213349   1.246   0.740   9.989  0.7273  0.3470  0.9595
  908MPD2    C313350   1.269   0.881  10.001 -0.3477  0.1150 -0.2035
  908MPD2    C413351   1.381   0.930   9.935  0.3695 -0.5984  0.6419
  908MPD2    C513352   1.468   0.851   9.861 -0.3626 -0.5044 -0.1708
  908MPD2     H13353   1.153   0.710  10.036  1.6215 -2.4388  0.8918
  908MPD2    H113354   1.412   1.033   9.947  1.9950 -0.6806 -2.9051
  908MPD2    H213355   1.505   0.644   9.803  1.9415  1.4326 -0.0848
  908MPD2    H313356   1.533   0.903   9.792  1.4920 -4.1856 -1.1562
  908MPD2     N13357   1.180   0.956  10.076  0.3273  0.1430  0.1726
  908MPD2    H513358   1.097   0.905  10.103  0.0397  0.2776 -0.4564
  908MPD2    N113359   1.314   0.519   9.902 -0.6149  0.0132  0.1748
  908MPD2    H713360   1.371   0.470   9.834 -1.0734  0.7888 -0.7719
  909MPD2     C13361   1.023   3.279  11.723  0.4989  0.1676  0.8944
  909MPD2    C113362   0.989   3.389  11.648  0.6983  0.1097 -0.4616
  909MPD2    C213363   0.929   3.489  11.717  0.5170 -0.1472 -0.9399
  909MPD2    C313364   0.902   3.490  11.855 -0.0159 -0.0111  0.2065
  909MPD2    C413365   0.944   3.382  11.932  0.3784  0.2450 -0.3764
  909MPD2    C513366   0.996   3.274  11.860  0.6928  0.3806  0.2884
  909MPD2     H13367   0.914   3.576  11.654 -1.1196 -0.9075 -1.5855
  909MPD2    H113368   0.933   3.383  12.040  0.3613 -0.4877 -0.3698
  909MPD2    H213369   1.088   3.207  11.675 -0.3897 -0.4531  0.6334
  909MPD2    H313370   1.017   3.186  11.919 -0.2798  0.7656  1.2016
  909MPD2     N13371   0.834   3.600  11.908 -0.1196 -0.6320 -0.5125
  909MPD2    H513372   0.785   3.652  11.836  0.0874  1.1463  0.6286
  909MPD2    N113373   1.028   3.406  11.512  0.1493  0.6721 -0.1179
  909MPD2    H713374   1.039   3.499  11.471 -0.5859  1.2392  0.9819
  910MPD2     C13375   2.498   0.351  16.246  0.5266  0.6378  0.4317
  910MPD2    C113376   2.535   0.264  16.139 -0.0400 -0.5300 -0.9011
  910MPD2    C213377   2.480   0.280  16.012  0.1256 -0.6474 -0.3601
  910MPD2    C313378   2.403   0.393  15.981  0.1571 -0.3206  0.3810
  910MPD2    C413379   2.367   0.477  16.080 -0.1732 -1.0202 -0.0185
  910MPD2    C513380   2.410   0.456  16.214  0.0335 -0.3214 -0.1665
  910MPD2     H13381   2.512   0.214  15.933 -0.2849 -0.1799 -0.9226
  910MPD2    H113382   2.315   0.569  16.056  1.4665 -0.4506 -1.4085
  910MPD2    H213383   2.530   0.337  16.349  2.1652 -1.8133 -0.4180
  910MPD2    H313384   2.393   0.522  16.298 -1.0668 -0.4809 -0.2668
  910MPD2     N13385   2.351   0.425  15.856 -0.1237 -0.4155  0.0023
  910MPD2    H513386   2.302   0.514  15.858  2.5532  1.0416  0.4921
  910MPD2    N113387   2.619   0.152  16.152 -0.4357 -0.3434 -0.3323
  910MPD2    H713388   2.610   0.084  16.077  0.8178 -2.2586  1.2440
  911MPD2     C13389   0.286   0.821  15.964 -0.9900 -0.0653  0.4708
  911MPD2    C113390   0.357   0.823  16.076 -0.4253 -0.1310 -0.7228
  911MPD2    C213391   0.374   0.946  16.135 -0.5047  0.5478 -0.4581
  911MPD2    C313392   0.306   1.060  16.092  0.3933  0.0647  0.0680
  911MPD2    C413393   0.234   1.048  15.975 -0.3067 -0.0454 -0.2678
  911MPD2    C513394   0.227   0.933  15.915 -0.1185 -0.5096  0.2465
  911MPD2     H13395   0.442   0.963  16.218  0.1255  1.2735 -1.1241
  911MPD2    H113396   0.179   1.126  15.923  1.8287  0.1432 -2.2435
  911MPD2    H213397   0.267   0.729  15.909 -1.2099  0.8435 -0.9802
  911MPD2    H313398   0.178   0.930  15.819 -2.3743 -1.1053  1.4098
  911MPD2     N13399   0.311   1.185  16.148 -0.3814 -0.4622 -0.0986
  911MPD2    H513400   0.257   1.260  16.107 -2.3774 -2.3188 -0.8837
  911MPD2    N113401   0.421   0.702  16.112 -0.1428  0.0389  0.5119
  911MPD2    H713402   0.402   0.627  16.047  0.9842 -0.0509  0.2830
  912MPD2     C13403   4.578   1.194  15.978 -0.4020 -0.6403 -0.4390
  912MPD2    C113404   4.606   1.173  16.116  0.3790  0.3947 -0.1888
  912MPD2    C213405   4.539   1.063  16.176  0.4168  0.8459 -0.5151
  912MPD2    C313406   4.443   0.984  16.114  0.2148 -0.0067  0.5062
  912MPD2    C413407   4.421   1.020  15.983  0.3831 -0.1220 -0.7471
  912MPD2    C513408   4.481   1.126  15.918  0.1747 -0.1969 -0.0359
  912MPD2     H13409   4.561   1.043  16.280 -1.6510  3.8759  0.4931
  912MPD2    H113410   4.341   0.961  15.939 -1.3021  0.1033  2.0119
  912MPD2    H213411   4.621   1.275  15.921  0.0446 -1.2896 -1.0252
  912MPD2    H313412   4.463   1.139  15.811  2.6107 -0.6737 -0.5150
  912MPD2     N13413   4.361   0.881  16.172  0.3624 -0.0725 -0.0171
  912MPD2    H513414   4.281   0.848  16.119  0.6958 -1.9434  0.6388
  912MPD2    N113415   4.690   1.267  16.190 -0.3672 -0.0552 -0.1204
  912MPD2    H713416   4.739   1.340  16.139  1.6091  0.1633  2.1186
  913MPD2     C13417   0.233   2.598  10.054 -0.1744 -0.1229  0.6184
  913MPD2    C113418   0.309   2.688  10.126  0.0508 -0.1230 -0.0048
  913MPD2    C213419   0.381   2.781  10.057  0.3657  0.1168  0.1186
  913MPD2    C313420   0.382   2.781   9.916  0.3022  0.8303  0.9417
  913MPD2    C413421   0.306   2.691   9.846 -0.1762  0.1001  0.6704
  913MPD2    C513422   0.227   2.599   9.912  0.0234  0.0548 -0.3045
  913MPD2     H13423   0.424   2.864  10.112  0.1873 -0.1268  0.6255
  913MPD2    H113424   0.298   2.703   9.739 -0.1225  1.1227  0.7757
  913MPD2    H213425   0.176   2.520  10.104 -1.0019 -0.3743 -0.7011
  913MPD2    H313426   0.162   2.530   9.860  1.4350  0.2838 -2.3758
  913MPD2     N13427   0.442   2.880   9.839 -0.0280  0.4332 -0.7093
  913MPD2    H513428   0.439   2.869   9.738 -1.0112 -1.1357 -0.5164
  913MPD2    N113429   0.305   2.667  10.263 -0.3795 -0.0308  0.1630
  913MPD2    H713430   0.242   2.597  10.301 -1.0803 -0.5588 -1.9495
  914MPD2     C13431   3.679   2.733  12.166  0.7498  0.1678 -0.4022
  914MPD2    C113432   3.623   2.758  12.286 -0.4596 -0.4642  0.6736
  914MPD2    C213433   3.555   2.653  12.352  0.3859 -0.2192  0.2743
  914MPD2    C313434   3.518   2.537  12.287 -0.3659 -0.8404  0.1761
  914MPD2    C413435   3.557   2.523  12.152  0.8425  0.3950  0.1696
  914MPD2    C513436   3.642   2.617  12.099  0.1041 -0.4779 -0.1663
  914MPD2     H13437   3.515   2.666  12.452  0.1721  2.0271 -0.1050
  914MPD2    H113438   3.531   2.435  12.095 -0.3109  3.0526 -3.4500
  914MPD2    H213439   3.731   2.811  12.111  2.8571  0.2905  1.7664
  914MPD2    H313440   3.666   2.597  11.996  0.4543  0.9408 -0.3569
  914MPD2     N13441   3.433   2.442  12.351  0.1620  0.0002 -0.4808
  914MPD2    H513442   3.401   2.474  12.442  0.1524 -0.3701 -0.3573
  914MPD2    N113443   3.646   2.885  12.337 -0.1796 -0.6175  0.2551
  914MPD2    H713444   3.697   2.958  12.288 -0.9387  1.2630  2.2821
  915MPD2     C13445   1.515   2.336  15.540  0.3183 -0.3003  0.3201
  915MPD2    C113446   1.381   2.303  15.582  0.0698 -0.6652  0.4130
  915MPD2    C213447   1.335   2.356  15.699 -0.3732  0.0692  0.0412
  915MPD2    C313448   1.417   2.418  15.789  0.2861 -0.2654  0.5510
  915MPD2    C413449   1.548   2.448  15.748  0.0595 -0.9737 -0.3884
  915MPD2    C513450   1.596   2.403  15.628  0.1411 -0.0699  0.0759
  915MPD2     H13451   1.231   2.346  15.725 -0.7610 -0.3524 -1.6484
  915MPD2    H113452   1.614   2.505  15.812  0.2017 -0.1065 -1.3195
  915MPD2    H213453   1.543   2.305  15.440  0.8150 -1.5065  0.8280
  915MPD2    H313454   1.694   2.436  15.595  0.6929 -1.5725  0.2062
  915MPD2     N13455   1.359   2.453  15.915  0.3721 -0.3573  0.3132
  915MPD2    H513456   1.263   2.424  15.931  0.7443 -0.8495  1.6255
  915MPD2    N113457   1.308   2.227  15.493 -0.3865  0.2936  0.1282
  915MPD2    H713458   1.359   2.211  15.407 -0.9343  0.1629 -0.1683
  916MPD2     C13459   3.928   0.609  15.713  0.2742 -0.0477  0.4275
  916MPD2    C113460   3.952   0.496  15.785 -0.6129 -0.4570  0.4423
  916MPD2    C213461   4.020   0.394  15.718 -0.5717 -0.5880 -0.7469
  916MPD2    C313462   4.056   0.413  15.588  0.7342  0.2154  0.6216
  916MPD2    C413463   4.030   0.527  15.521  0.8751  0.5875 -0.1995
  916MPD2    C513464   3.967   0.627  15.587  0.2466  1.0849  0.0805
  916MPD2     H13465   4.042   0.302  15.771 -0.4115 -0.0303  0.1707
  916MPD2    H113466   4.064   0.530  15.418  0.2158  3.2645 -0.3328
  916MPD2    H213467   3.865   0.684  15.761 -0.4441  1.8652 -3.4906
  916MPD2    H313468   3.929   0.714  15.534 -0.9490 -0.2207 -1.2264
  916MPD2     N13469   4.127   0.299  15.543 -0.0214  0.2050 -0.0515
  916MPD2    H513470   4.122   0.221  15.608  0.4828 -2.2887 -2.9579
  916MPD2    N113471   3.912   0.491  15.921  0.7452 -0.1789 -0.1177
  916MPD2    H713472   3.896   0.585  15.955  1.9197  0.3803 -1.1078
  917MPD2     C13473   4.140   2.935  11.397  0.2025 -0.1828  0.0847
  917MPD2    C113474   4.193   2.988  11.515  0.0318  0.9235  0.3101
  917MPD2    C213475   4.287   3.087  11.506 -0.7876  0.2159  0.0383
  917MPD2    C313476   4.333   3.131  11.381 -0.4996 -0.5739 -0.7909
  917MPD2    C413477   4.265   3.087  11.272 -0.2322  0.7021  0.1500
  917MPD2    C513478   4.174   2.986  11.276 -0.4825  0.2517  0.1255
  917MPD2     H13479   4.324   3.130  11.598 -1.0004 -2.3226  1.3017
  917MPD2    H113480   4.307   3.112  11.175  0.1671 -0.3777  0.0509
  917MPD2    H213481   4.080   2.845  11.395 -1.8126  1.1982 -1.3458
  917MPD2    H313482   4.145   2.948  11.179  3.4925 -0.0353 -0.9606
  917MPD2     N13483   4.452   3.209  11.367  0.4135 -0.0416 -0.0811
  917MPD2    H513484   4.472   3.249  11.276  1.2117 -2.1475 -0.8481
  917MPD2    N113485   4.151   2.926  11.639  0.2548  0.0550 -0.0918
  917MPD2    H713486   4.076   2.857  11.633  2.2076 -2.1120  0.1405
  918MPD2     C13487   4.247   3.282  12.582 -0.4322 -0.0369  0.5433
  918MPD2    C113488   4.347   3.251  12.492 -0.2316  0.4198  0.3932
  918MPD2    C213489   4.327   3.170  12.382 -0.0994 -0.1856 -0.2387
  918MPD2    C313490   4.205   3.115  12.366 -0.4824  0.0046  0.2350
  918MPD2    C413491   4.103   3.137  12.459  0.1339  0.5253  0.9779
  918MPD2    C513492   4.124   3.220  12.563 -0.1006 -0.2420 -0.1565
  918MPD2     H13493   4.401   3.151  12.305  1.2943 -1.4213  1.4216
  918MPD2    H113494   4.011   3.080  12.454 -0.6687  2.1086 -2.1137
  918MPD2    H213495   4.251   3.342  12.672 -1.5487  0.9455 -0.0662
  918MPD2    H313496   4.047   3.248  12.634 -0.1913  1.9654 -1.1108
  918MPD2     N13497   4.190   3.042  12.244 -0.2779  0.3676 -0.1628
  918MPD2    H513498   4.264   3.049  12.175  0.7062  1.2458  0.9712
  918MPD2    N113499   4.471   3.321  12.491  0.5612  0.4719 -0.1765
  918MPD2    H713500   4.542   3.304  12.420 -0.4498 -2.6141 -0.4298
  919MPD2     C13501   0.361   2.531  11.345  0.3458  0.3063 -0.2674
  919MPD2    C113502   0.255   2.444  11.338  0.4794  0.4138  0.0680
  919MPD2    C213503   0.146   2.477  11.260 -0.3209  0.5760 -0.5710
  919MPD2    C313504   0.150   2.597  11.189 -0.0463 -0.1381  0.0410
  919MPD2    C413505   0.255   2.682  11.192  0.5828  0.0056 -0.9765
  919MPD2    C513506   0.351   2.659  11.285  0.2630 -0.3098 -0.4339
  919MPD2     H13507   0.062   2.408  11.264  1.2849 -1.3912 -0.8647
  919MPD2    H113508   0.266   2.774  11.137  1.6772  1.0936  1.0597
  919MPD2    H213509   0.449   2.518  11.406  1.0169  0.1668 -1.2640
  919MPD2    H313510   0.429   2.735  11.285 -0.6276  0.6071 -1.4064
  919MPD2     N13511   0.053   2.639  11.093 -0.2736  0.3407  0.0262
  919MPD2    H513512   0.075   2.723  11.040  1.2470 -0.6022 -0.8207
  919MPD2    N113513   0.265   2.323  11.412 -0.3655  0.2143 -0.1997
  919MPD2    H713514   0.177   2.274  11.420 -0.7116  1.0504  1.1432
  920MPD2     C13515   4.651   2.794  10.129  0.2013 -0.5469 -0.2836
  920MPD2    C113516   4.553   2.707  10.168  0.0372  0.0699  0.0177
  920MPD2    C213517   4.533   2.679  10.303  0.7981 -0.7932 -0.5085
  920MPD2    C313518   4.616   2.734  10.401  0.0118 -0.3549  0.0616
  920MPD2    C413519   4.726   2.808  10.358  0.5788  0.6048 -0.2252
  920MPD2    C513520   4.738   2.839  10.225 -0.3215 -0.2878 -1.1122
  920MPD2     H13521   4.454   2.610  10.331 -0.2556  1.7522  2.7644
  920MPD2    H113522   0.058   2.851  10.427 -0.8485 -0.6418  2.0484
  920MPD2    H213523   4.663   2.814  10.023 -0.9567  0.5295 -0.2158
  920MPD2    H313524   0.082   2.903  10.199 -1.2618  1.2190 -0.3806
  920MPD2     N13525   4.573   2.734  10.535 -0.3597  0.1604  0.7658
  920MPD2    H513526   4.481   2.694  10.553 -0.7215  0.1448 -1.0515
  920MPD2    N113527   4.456   2.661  10.077  0.0019 -1.0966 -0.5015
  920MPD2    H713528   4.381   2.607  10.118 -2.6141 -0.0483 -3.9069
  921MPD2     C13529   1.191   0.657  16.597  0.5828 -0.1371  0.0368
  921MPD2    C113530   1.184   0.574  16.490 -0.0303 -0.1328 -0.2132
  921MPD2    C213531   1.066   0.504  16.460  0.3282  0.3008  0.5449
  921MPD2    C313532   0.951   0.538  16.531  0.7250  0.0743  0.8764
  921MPD2    C413533   0.956   0.628  16.635 -0.1209  0.1137  0.2912
  921MPD2    C513534   1.075   0.684  16.671  0.3799  0.1213  0.7965
  921MPD2     H13535   1.071   0.421  16.391 -1.3635  1.6581 -1.2322
  921MPD2    H113536   0.867   0.655  16.690 -0.2636 -0.3526  0.2879
  921MPD2    H213537   1.280   0.714  16.621 -0.4494  0.9455  1.3193
  921MPD2    H313538   1.069   0.760  16.747  0.4188  2.1751 -1.2468
  921MPD2     N13539   0.824   0.483  16.491  0.3949 -0.0286  0.5122
  921MPD2    H513540   0.743   0.538  16.519  1.9804  2.5257  0.0246
  921MPD2    N113541   1.310   0.561  16.431  0.4847 -0.3262 -0.4825
  921MPD2    H713542   1.385   0.618  16.467 -2.6577  2.5757  1.5066
  922MPD2     C13543   1.841   3.865  17.105 -0.6099 -0.2379 -0.1303
  922MPD2    C113544   1.893   3.800  17.215  0.5101 -0.3057  0.2582
  922MPD2    C213545   1.856   3.669  17.245  0.8327 -0.3653  0.0529
  922MPD2    C313546   1.785   3.592  17.159 -0.0142 -0.9653 -0.5601
  922MPD2    C413547   1.737   3.656  17.045  0.0585  0.3867 -0.3895
  922MPD2    C513548   1.754   3.793  17.023  0.5447 -0.1349 -0.0211
  922MPD2     H13549   1.899   3.630  17.336  0.1703 -2.2236 -0.4215
  922MPD2    H113550   1.666   3.599  16.987 -1.1891  1.3698  0.1912
  922MPD2    H213551   1.851   3.971  17.087  1.9840 -0.4143  0.2794
  922MPD2    H313552   1.703   3.842  16.940 -0.0646 -1.1913 -0.2692
  922MPD2     N13553   1.743   3.466  17.209 -0.0943  1.3321  0.4401
  922MPD2    H513554   1.771   3.434  17.301  0.9375  0.5845 -0.1233
  922MPD2    N113555   1.990   3.873  17.300 -0.7935  0.1516 -0.2612
  922MPD2    H713556   1.997   3.971  17.274  1.1254 -0.2232 -1.1080
  923MPD2     C13557   3.632   1.494   9.233  0.0936 -0.1958  0.7653
  923MPD2    C113558   3.564   1.514   9.352  0.1405 -0.0421  0.6030
  923MPD2    C213559   3.568   1.419   9.449 -1.3456 -0.1002 -0.6911
  923MPD2    C313560   3.634   1.299   9.429 -0.1832  0.2839  0.9542
  923MPD2    C413561   3.695   1.282   9.304  1.1903  0.6187 -0.4424
  923MPD2    C513562   3.685   1.371   9.208  0.5082  0.3651  0.2018
  923MPD2     H13563   3.527   1.437   9.548 -0.5858 -1.4978 -0.1306
  923MPD2    H113564   3.723   1.181   9.276 -1.4171 -0.6545  1.6046
  923MPD2    H213565   3.635   1.568   9.154  1.7193  0.4579  1.4474
  923MPD2    H313566   3.721   1.355   9.108  1.0874  3.1191 -0.0364
  923MPD2     N13567   3.642   1.194   9.520 -0.4951  0.4805  0.6689
  923MPD2    H513568   3.688   1.110   9.486 -0.6109  1.2959 -1.4808
  923MPD2    N113569   3.485   1.623   9.370  0.2557  0.6288 -0.0102
  923MPD2    H713570   3.482   1.695   9.298  0.4283 -0.8380 -1.4976
  924MPD2     C13571   3.073   3.452  15.764  0.1571 -0.0916 -0.0761
  924MPD2    C113572   3.050   3.468  15.900 -0.6574 -0.1164  0.2092
  924MPD2    C213573   3.082   3.595  15.953  0.4914 -0.5067  0.3229
  924MPD2    C313574   3.142   3.693  15.877 -0.1228 -0.4942  0.2940
  924MPD2    C413575   3.157   3.679  15.745  0.6245 -0.4042  0.0378
  924MPD2    C513576   3.119   3.561  15.683 -0.0453  1.0082  1.0551
  924MPD2     H13577   3.068   3.603  16.060  1.1416  1.9834  0.2160
  924MPD2    H113578   3.194   3.760  15.684  0.5977 -0.1375  0.3743
  924MPD2    H213579   3.062   3.354  15.718 -0.0976 -0.2410  0.3048
  924MPD2    H313580   3.138   3.546  15.577 -2.7870 -0.9194  0.8323
  924MPD2     N13581   3.157   3.823  15.933  0.3949  0.6101 -0.1683
  924MPD2    H513582   3.176   3.900  15.870  2.7555 -0.6633 -1.0041
  924MPD2    N113583   3.008   3.349  15.972  0.1665 -0.6819  0.3278
  924MPD2    H713584   3.000   3.262  15.921  1.0931 -0.7158  0.2333
  925MPD2     C13585   2.256   1.742  14.770  0.0268  0.2814  0.1757
  925MPD2    C113586   2.129   1.777  14.737 -0.2693  0.2474  0.4674
  925MPD2    C213587   2.039   1.816  14.831 -0.3627  0.2816 -0.0044
  925MPD2    C313588   2.070   1.799  14.966 -0.4666  0.2866 -0.1805
  925MPD2    C413589   2.198   1.757  15.000  0.3595 -0.4005  0.3063
  925MPD2    C513590   2.288   1.726  14.900 -0.3876  0.4431 -0.1240
  925MPD2     H13591   1.937   1.826  14.796 -0.6511 -0.9778  0.4922
  925MPD2    H113592   2.219   1.740  15.105 -0.5917  2.4362  0.9592
  925MPD2    H213593   2.330   1.716  14.695  2.4971  0.2681  2.6285
  925MPD2    H313594   2.386   1.686  14.920 -0.6293  0.1568  0.5219
  925MPD2     N13595   1.979   1.802  15.075 -0.3257  0.2417  0.1007
  925MPD2    H513596   1.997   1.743  15.155  2.2590 -1.3235 -1.6559
  925MPD2    N113597   2.091   1.783  14.599  0.2394 -0.1405 -0.0319
  925MPD2    H713598   1.994   1.804  14.580  0.5206  2.6207  1.6573
  926MPD2     C13599   0.652   0.415  13.153  0.4979  0.2965 -0.5547
  926MPD2    C113600   0.572   0.526  13.172 -0.4585  0.3680  0.3068
  926MPD2    C213601   0.591   0.643  13.093 -0.9608 -0.0088  0.3546
  926MPD2    C313602   0.698   0.652  13.003 -0.3526 -0.7059 -0.0098
  926MPD2    C413603   0.773   0.532  12.982 -0.6628 -0.2062  0.3734
  926MPD2    C513604   0.754   0.423  13.059  0.3279  0.2827  0.2033
  926MPD2     H13605   0.522   0.726  13.107 -0.0244  0.4427  2.2910
  926MPD2    H113606   0.846   0.529  12.902 -1.2485 -0.2354 -0.1593
  926MPD2    H213607   0.646   0.325  13.213  2.6143  0.6934  0.2673
  926MPD2    H313608   0.807   0.331  13.035 -2.0498 -0.7369 -1.1526
  926MPD2     N13609   0.732   0.765  12.927  0.0175 -0.1698  0.7405
  926MPD2    H513610   0.815   0.749  12.870  0.7210  0.3551  1.6284
  926MPD2    N113611   0.457   0.522  13.256  0.0794  1.2308  0.4766
  926MPD2    H713612   0.397   0.603  13.269 -3.8300 -1.7289  0.8769
  927MPD2     C13613   0.773   1.592  17.344  0.3320 -0.1799  0.2164
  927MPD2    C113614   0.767   1.724  17.353  0.1706 -0.7539  0.0330
  927MPD2    C213615   0.824   1.807  17.253  0.4515  0.1218  0.0216
  927MPD2    C313616   0.876   1.752  17.140  0.1762  0.0914  0.4856
  927MPD2    C413617   0.876   1.615  17.125 -0.3969  0.6362  0.0160
  927MPD2    C513618   0.828   1.533  17.225 -0.0240 -0.2113 -0.3963
  927MPD2     H13619   0.821   1.914  17.268 -1.2330  0.2211 -1.0005
  927MPD2    H113620   0.902   1.575  17.027 -0.5710  0.3125  0.1024
  927MPD2    H213621   0.730   1.535  17.426  0.4379  0.4500  0.7148
  927MPD2    H313622   0.814   1.428  17.203  2.0730 -0.2571 -1.4584
  927MPD2     N13623   0.912   1.852  17.048  0.1189  0.3079 -0.0263
  927MPD2    H513624   0.882   1.945  17.076 -1.1395  0.1599 -0.8567
  927MPD2    N113625   0.704   1.782  17.468  0.1591 -0.7056 -0.4220
  927MPD2    H713626   0.692   1.724  17.550 -1.3743 -2.0695 -1.6112
  928MPD2     C13627   3.884   0.903   1.496 -0.6323 -0.2324 -0.0818
  928MPD2    C113628   4.003   0.957   1.453  0.4276  0.1191 -0.6327
  928MPD2    C213629   4.019   1.003   1.322 -0.1073  0.0090 -0.0532
  928MPD2    C313630   3.915   0.979   1.233  0.4760  0.4121  0.1193
  928MPD2    C413631   3.784   0.944   1.288 -0.4275 -0.7797  0.0502
  928MPD2    C513632   3.777   0.887   1.414  0.2156  0.3229  0.7516
  928MPD2     H13633   4.109   1.051   1.284  0.2220  1.3357  2.3740
  928MPD2    H113634   3.700   0.956   1.219 -2.2542 -1.0494  2.2418
  928MPD2    H213635   3.868   0.867   1.597 -0.4320 -0.6929 -0.2136
  928MPD2    H313636   3.682   0.852   1.452 -0.2774 -0.3241 -1.0521
  928MPD2     N13637   3.921   1.010   1.090 -0.7278  0.3628 -0.3573
  928MPD2    H513638   3.831   1.020   1.045 -1.4566  0.9849  1.2180
  928MPD2    N113639   4.107   0.977   1.549  0.5537  0.0291 -0.1408
  928MPD2    H713640   4.085   0.930   1.637  0.7264 -0.3815 -0.3191
  929MPD2     C13641   2.839   0.951   9.543 -0.1519 -0.8138 -0.2581
  929MPD2    C113642   2.848   0.865   9.651 -0.4342  0.1856  0.5005
  929MPD2    C213643   2.868   0.918   9.780  0.0251  0.0661 -0.5245
  929MPD2    C313644   2.873   1.054   9.808 -0.3231  0.5620 -0.9534
  929MPD2    C413645   2.871   1.138   9.701 -0.8141  0.0221  0.7772
  929MPD2    C513646   2.857   1.086   9.576 -0.1410 -0.1258 -0.1116
  929MPD2     H13647   2.850   0.843   9.857  3.9134 -0.1855  0.1108
  929MPD2    H113648   2.879   1.245   9.718 -0.1554 -0.1504  1.5260
  929MPD2    H213649   2.835   0.914   9.442  0.1759  0.4811 -0.7407
  929MPD2    H313650   2.851   1.156   9.494  0.5436  1.8602  1.5397
  929MPD2     N13651   2.874   1.109   9.936  0.4080 -0.4121 -1.0742
  929MPD2    H513652   2.870   1.209   9.951  1.0222 -0.8288  1.8050
  929MPD2    N113653   2.837   0.724   9.622  0.1761  0.3295  0.3212
  929MPD2    H713654   2.826   0.695   9.525  0.3536 -0.8045  0.6425
  930MPD2     C13655   0.551   2.670  14.313  0.1642  0.3756  0.1323
  930MPD2    C113656   0.593   2.773  14.234 -0.3181  0.4797  0.4467
  930MPD2    C213657   0.616   2.747  14.106  0.1412  0.8580  0.2087
  930MPD2    C313658   0.601   2.619  14.053 -0.3053 -0.1867  0.4650
  930MPD2    C413659   0.559   2.522  14.133 -0.4492 -0.2822 -0.0705
  930MPD2    C513660   0.538   2.540  14.266 -0.5795  0.7150  0.0946
  930MPD2     H13661   0.621   2.830  14.038  1.1155 -0.1509 -0.9542
  930MPD2    H113662   0.542   2.421  14.099  2.0135  0.1804 -2.6419
  930MPD2    H213663   0.536   2.701  14.415 -1.9709  1.7579 -0.5980
  930MPD2    H313664   0.515   2.457  14.332 -1.6113 -0.0165 -1.1817
  930MPD2     N13665   0.618   2.598  13.914 -0.3103  0.2849  0.2277
  930MPD2    H513666   0.579   2.510  13.882 -3.2197  1.1497  1.3952
  930MPD2    N113667   0.593   2.905  14.276  0.5919  0.5786  0.2943
  930MPD2    H713668   0.594   2.973  14.201  0.7511  0.1905 -0.0557
  931MPD2     C13669   1.107   1.800   0.132  0.2743  0.8967  0.2008
  931MPD2    C113670   1.047   1.921   0.164 -0.0507  0.3892  0.1181
  931MPD2    C213671   1.110   2.020   0.233  0.6807  0.0321 -0.4373
  931MPD2    C313672   1.236   1.991   0.283  0.1444 -0.1284  0.3870
  931MPD2    C413673   1.296   1.872   0.254  0.2426 -0.3493 -0.1307
  931MPD2    C513674   1.235   1.773   0.179 -0.1208  0.3327  0.6110
  931MPD2     H13675   1.056   2.109   0.263  0.5818 -0.2331  0.1658
  931MPD2    H113676   1.398   1.852   0.286 -0.3140 -1.4596  0.9579
  931MPD2    H213677   1.058   1.720   0.077  1.5643  0.1701  0.1005
  931MPD2    H313678   1.291   1.681   0.169 -0.4824  0.1399  0.3948
  931MPD2     N13679   1.307   2.077   0.370  0.0377  0.8578  0.4022
  931MPD2    H513680   1.404   2.054   0.392 -0.1321  0.3157  0.5910
  931MPD2    N113681   0.922   1.936   0.118  0.4695 -0.0202 -0.1092
  931MPD2    H713682   0.886   1.859   0.062  1.5155  0.2442 -1.1359
  932MPD2     C13683   1.858   2.007  11.433  0.4143  0.5427  0.1817
  932MPD2    C113684   1.973   2.076  11.409 -0.1413  0.2713  0.1628
  932MPD2    C213685   2.091   2.008  11.367 -0.9845 -0.1325  0.1948
  932MPD2    C313686   2.095   1.866  11.360  0.6153 -0.1183 -0.7758
  932MPD2    C413687   1.983   1.802  11.403 -0.4270  0.3534  0.5267
  932MPD2    C513688   1.866   1.871  11.438  0.3062 -0.5346  0.4666
  932MPD2     H13689   2.182   2.060  11.339 -0.3131 -1.6510 -0.4532
  932MPD2    H113690   1.979   1.693  11.400 -2.7254  0.3968  2.0872
  932MPD2    H213691   1.766   2.059  11.457  0.7463  0.6239  1.3021
  932MPD2    H313692   1.777   1.815  11.464 -0.6005  0.4388 -0.5808
  932MPD2     N13693   2.204   1.784  11.341 -0.0735 -0.5532  0.6378
  932MPD2    H513694   2.191   1.683  11.349  0.5495 -0.8122 -1.7322
  932MPD2    N113695   1.982   2.218  11.420  0.5427  0.0282 -0.6602
  932MPD2    H713696   2.078   2.253  11.424  0.6728 -0.4836  0.7570
  933MPD2     C13697   0.179   1.089   1.901  0.4803 -0.0166  0.5982
  933MPD2    C113698   0.106   1.178   1.822  0.1980  0.1935 -0.5073
  933MPD2    C213699   0.172   1.289   1.778  0.6925  0.2149 -0.3800
  933MPD2    C313700   0.303   1.317   1.820  0.5655  0.2784 -1.0378
  933MPD2    C413701   0.373   1.227   1.891  0.6455 -0.2348  0.1093
  933MPD2    C513702   0.306   1.118   1.941 -0.3055 -0.3080 -0.4584
  933MPD2     H13703   0.132   1.376   1.729 -0.3693  0.4342  0.8883
  933MPD2    H113704   0.479   1.233   1.913  0.2892  1.4798  1.4758
  933MPD2    H213705   0.135   1.000   1.945  0.0666  0.2286  0.6754
  933MPD2    H313706   0.364   1.042   1.991  0.5972 -0.0647 -1.1263
  933MPD2     N13707   0.357   1.436   1.772 -0.2602  0.2849  0.1996
  933MPD2    H513708   0.298   1.499   1.718 -0.2101 -1.8996 -2.4046
  933MPD2    N113709   4.711   1.152   1.780  0.3548  0.3756 -0.4185
  933MPD2    H713710   4.680   1.056   1.790  1.1458  0.0718 -0.8883
  934MPD2     C13711   0.597   3.733   1.334 -0.4136  0.3125 -0.0786
  934MPD2    C113712   0.635   3.665   1.220  0.4460 -0.1760  0.2903
  934MPD2    C213713   0.551   3.577   1.167  0.2103 -0.6160  0.2265
  934MPD2    C313714   0.429   3.540   1.233 -0.4038 -0.5791 -0.5021
  934MPD2    C413715   0.396   3.604   1.346  0.2079  0.4098  0.2867
  934MPD2    C513716   0.474   3.708   1.391 -0.1071  0.3119  0.0687
  934MPD2     H13717   0.588   3.534   1.075  2.0574 -2.5585  1.8939
  934MPD2    H113718   0.303   3.576   1.395 -1.3548  1.1191 -2.2812
  934MPD2    H213719   0.655   3.811   1.381 -0.6889  0.2145  0.4258
  934MPD2    H313720   0.436   3.758   1.479 -2.7030 -1.2237 -0.1757
  934MPD2     N13721   0.343   3.445   1.184 -0.7207  0.0765 -0.0956
  934MPD2    H513722   0.249   3.437   1.223 -1.4679 -0.6399 -2.0355
  934MPD2    N113723   0.760   3.693   1.156  0.0372 -0.1786  0.3664
  934MPD2    H713724   0.790   3.639   1.075 -0.1369  0.1387  0.0913
  935MPD2     C13725   0.506   2.568   0.723 -0.4137  0.3917 -0.1007
  935MPD2    C113726   0.375   2.588   0.685 -0.3382 -0.3620 -0.6730
  935MPD2    C213727   0.311   2.701   0.730  1.1601 -0.3873  0.3088
  935MPD2    C313728   0.375   2.781   0.830 -0.6526  0.3948  0.0538
  935MPD2    C413729   0.497   2.748   0.876 -0.3501 -0.2393 -0.5320
  935MPD2    C513730   0.564   2.639   0.819 -0.6394  0.4539  0.0644
  935MPD2     H13731   0.209   2.725   0.703  1.3345 -1.3377 -1.1563
  935MPD2    H113732   0.559   2.809   0.940 -0.7193  1.1359 -1.4846
  935MPD2    H213733   0.569   2.489   0.685 -1.7043  0.1015 -1.6653
  935MPD2    H313734   0.660   2.614   0.862 -0.6914 -2.0502 -1.3078
  935MPD2     N13735   0.327   2.900   0.887 -0.2278  0.2955  0.4434
  935MPD2    H513736   0.376   2.924   0.972  0.2299 -0.8029  0.4890
  935MPD2    N113737   0.314   2.493   0.598  0.2216  0.2236  0.2607
  935MPD2    H713738   0.227   2.520   0.554  0.9972  1.7699 -0.3341
  936MPD2     C13739   2.325   4.637  12.219 -0.3914  0.4184 -0.1290
  936MPD2    C113740   2.399   4.624  12.335  0.4523 -0.2709  0.5642
  936MPD2    C213741   2.537   4.653  12.338  0.7832  0.4449  0.1631
  936MPD2    C313742   2.600   4.690  12.221 -0.5557  0.1580  0.0164
  936MPD2    C413743   2.529   4.697  12.105  0.2084  0.2791  0.0512
  936MPD2    C513744   2.391   4.676  12.102  0.8362 -0.6206  0.5845
  936MPD2     H13745   2.586   4.646  12.434  0.8452 -0.0302  0.0984
  936MPD2    H113746   2.574   4.721  12.010  0.5688 -0.2656  0.0867
  936MPD2    H213747   2.221   4.609  12.207  0.0096 -0.7269 -0.9085
  936MPD2    H313748   2.341   4.691  12.007 -0.4663  0.2514  1.4108
  936MPD2     N13749   2.741   4.700  12.224 -0.1222  0.2938 -0.4697
  936MPD2    H513750   2.784   4.677  12.313  1.1803 -0.8387 -1.3990
  936MPD2    N113751   2.348   4.566  12.444  0.2292 -0.3846 -0.2289
  936MPD2    H713752   2.408   4.560  12.526  0.4766 -0.2669 -0.3992
  937MPD2     C13753   0.752   1.697  11.546 -0.2350 -0.6424 -0.7736
  937MPD2    C113754   0.788   1.830  11.570 -0.2040 -0.2823  0.4925
  937MPD2    C213755   0.877   1.883  11.480 -0.1925 -0.6332  0.0094
  937MPD2    C313756   0.950   1.813  11.379 -0.0374  0.3904  0.2156
  937MPD2    C413757   0.929   1.680  11.379  0.1510  0.4820  0.4029
  937MPD2    C513758   0.831   1.628  11.461 -0.1814 -0.3420 -0.0697
  937MPD2     H13759   0.881   1.991  11.479 -2.6501 -0.5012  2.1258
  937MPD2    H113760   0.984   1.614  11.312  1.2835  0.6768  1.1409
  937MPD2    H213761   0.664   1.656  11.595  0.9059 -1.3690  0.6679
  937MPD2    H313762   0.810   1.523  11.445  3.2515 -1.3179  1.8019
  937MPD2     N13763   1.028   1.888  11.290 -0.2395 -1.1553  0.0607
  937MPD2    H513764   1.020   1.990  11.290 -0.9460 -1.2132  1.0947
  937MPD2    N113765   0.697   1.915  11.634  0.3612  0.7987  0.4456
  937MPD2    H713766   0.713   2.013  11.616  0.8501  0.8431  1.1069
  938MPD2     C13767   3.993   2.840   0.584  0.2955 -0.2398 -0.2581
  938MPD2    C113768   4.080   2.928   0.644 -0.0664  0.3964  0.0101
  938MPD2    C213769   4.154   2.894   0.753  0.1481  0.2764 -0.4912
  938MPD2    C313770   4.125   2.774   0.811 -0.0422  0.0676 -0.0425
  938MPD2    C413771   4.040   2.681   0.749 -0.0479 -0.4456 -0.3232
  938MPD2    C513772   3.978   2.712   0.632  0.0738 -0.2162  0.1305
  938MPD2     H13773   4.224   2.965   0.798 -0.0366  0.8823 -1.1469
  938MPD2    H113774   4.030   2.582   0.792 -0.3560 -1.8743 -3.7113
  938MPD2    H213775   3.943   2.874   0.494  1.4130 -0.2111 -0.8631
  938MPD2    H313776   3.911   2.651   0.572 -0.7006 -0.8121  1.5993
  938MPD2     N13777   4.177   2.739   0.936 -0.4732  0.1421 -0.1202
  938MPD2    H513778   4.154   2.645   0.966  0.8000  0.6858  2.5308
  938MPD2    N113779   4.104   3.061   0.591  0.5886  0.0695  0.2272
  938MPD2    H713780   4.191   3.104   0.618  0.5708  0.2285  0.0257
  939MPD2     C13781   4.655   4.164   0.697 -0.1668  0.1046  0.0119
  939MPD2    C113782   0.044   4.184   0.746 -0.5791 -0.3194  0.4918
  939MPD2    C213783   0.146   4.094   0.702  0.3801  0.0990  0.0338
  939MPD2    C313784   0.112   4.002   0.609 -0.3614  0.4149 -0.0995
  939MPD2    C413785   4.725   4.002   0.546  0.0254 -0.1868  0.0113
  939MPD2    C513786   4.629   4.077   0.604 -0.0191 -0.7125  0.0625
  939MPD2     H13787   0.243   4.078   0.747  0.1161  1.7907  1.1945
  939MPD2    H113788   4.693   3.935   0.466  2.4601 -0.4556 -0.7559
  939MPD2    H213789   4.570   4.223   0.730 -0.3729 -1.1018  1.6193
  939MPD2    H313790   4.527   4.073   0.567  0.0144  1.7672 -0.2982
  939MPD2     N13791   0.210   3.904   0.581 -0.3134  0.7927  0.6849
  939MPD2    H513792   0.301   3.914   0.625  0.9788 -1.3418 -1.5250
  939MPD2    N113793   0.064   4.274   0.856  0.1603  0.0039  0.3756
  939MPD2    H713794   4.717   4.321   0.878 -0.1943 -0.2112 -0.5677
  940MPD2     C13795   3.736   4.639  12.669  0.4060 -1.2375  0.1742
  940MPD2    C113796   3.601   4.675  12.671 -0.3930 -0.0944  0.1789
  940MPD2    C213797   3.541   4.688  12.551 -0.2830  0.3984  0.2860
  940MPD2    C313798   3.602   4.657  12.434  0.1902  0.8463 -0.1927
  940MPD2    C413799   3.734   4.635  12.438 -0.2341  0.2606 -0.2864
  940MPD2    C513800   3.803   4.627  12.554 -0.1789 -0.5525  0.5964
  940MPD2     H13801   3.441   4.730  12.552  0.4102  2.0473 -0.0573
  940MPD2    H113802   3.783   4.607  12.345 -0.1889  0.0445 -0.1972
  940MPD2    H213803   3.793   4.653  12.760  2.2944  0.8705 -1.3262
  940MPD2    H313804   3.911   4.621  12.559 -0.1246 -1.4316 -1.5408
  940MPD2     N13805   3.539   4.647  12.307 -1.0412 -0.2019 -1.0199
  940MPD2    H513806   3.592   4.636  12.221  3.1021 -0.3056  1.5417
  940MPD2    N113807   3.532   4.702  12.789 -0.5339 -0.2214  0.0184
  940MPD2    H713808   3.436   4.737  12.794  0.0315  1.6230 -1.9951
  941MPD2     C13809   2.841   4.009   9.534 -0.0320  0.6057  0.2430
  941MPD2    C113810   2.929   3.987   9.639 -0.1972  0.0831 -0.5600
  941MPD2    C213811   2.910   3.888   9.740 -0.6511  0.1086 -0.4168
  941MPD2    C313812   2.788   3.821   9.743  0.2977  0.8144  1.2701
  941MPD2    C413813   2.703   3.846   9.638  0.2814  0.6008 -0.2920
  941MPD2    C513814   2.720   3.947   9.537 -0.9841  0.2002  0.0861
  941MPD2     H13815   2.986   3.864   9.814  0.0564 -0.5543 -1.3708
  941MPD2    H113816   2.606   3.797   9.632  0.7299 -0.1296 -1.6991
  941MPD2    H213817   2.866   4.078   9.454  2.0156  1.5406  1.6950
  941MPD2    H313818   2.643   3.958   9.461  0.4346  0.1801 -1.3445
  941MPD2     N13819   2.743   3.729   9.840  0.7869  0.4538  0.5057
  941MPD2    H513820   2.645   3.702   9.832  0.4023  1.2210  2.6843
  941MPD2    N113821   3.047   4.060   9.648  0.2511  0.8787 -0.0571
  941MPD2    H713822   3.118   4.025   9.712 -3.0119 -0.3842  2.8819
  942MPD2     C13823   2.873   2.088   9.286 -0.1518 -0.0769 -0.0116
  942MPD2    C113824   2.989   2.038   9.240  0.1873  0.5870 -0.1264
  942MPD2    C213825   3.018   1.905   9.259 -0.5243 -0.2128  0.0108
  942MPD2    C313826   2.933   1.823   9.332  0.4881  0.5613 -0.2975
  942MPD2    C413827   2.828   1.887   9.398 -0.2119 -1.1077  0.3639
  942MPD2    C513828   2.798   2.019   9.371  0.2513 -0.2032 -0.0899
  942MPD2     H13829   3.116   1.873   9.227 -1.8907 -2.0288 -2.4023
  942MPD2    H113830   2.770   1.836   9.473  1.2470  0.0823  2.3097
  942MPD2    H213831   2.838   2.190   9.277 -0.4825 -0.1894  0.0045
  942MPD2    H313832   2.705   2.065   9.405 -0.5099 -1.3750 -0.5910
  942MPD2     N13833   2.959   1.685   9.353  0.4780 -0.0448  0.4641
  942MPD2    H513834   2.891   1.635   9.409  0.4829 -2.3489 -1.5946
  942MPD2    N113835   3.085   2.124   9.182  0.3811 -0.2394 -0.2323
  942MPD2    H713836   3.159   2.068   9.143 -0.4933  0.0722 -2.3433
  943MPD2     C13837   1.235   4.290  10.537 -1.0437  0.1264  0.6562
  943MPD2    C113838   1.173   4.173  10.495  0.0640 -0.2747  0.2867
  943MPD2    C213839   1.095   4.104  10.580 -0.2759 -0.7868  0.0007
  943MPD2    C313840   1.086   4.140  10.714 -0.3140  0.4249 -0.0786
  943MPD2    C413841   1.136   4.260  10.753 -0.0479  0.2948 -0.2789
  943MPD2    C513842   1.212   4.330  10.661  1.1706  0.1353  0.1324
  943MPD2     H13843   1.061   4.006  10.547  0.8049 -0.6308 -1.6189
  943MPD2    H113844   1.117   4.299  10.853 -0.4984  0.2183 -0.3355
  943MPD2    H213845   1.293   4.358  10.476  0.0498 -1.8678 -0.5599
  943MPD2    H313846   1.253   4.425  10.695  1.5946  0.3296 -0.9202
  943MPD2     N13847   1.010   4.071  10.811  0.4187 -0.5814  0.0775
  943MPD2    H513848   0.991   4.126  10.894 -1.0108 -1.5012  0.3566
  943MPD2    N113849   1.191   4.150  10.355  0.1084 -0.1779 -0.2330
  943MPD2    H713850   1.260   4.209  10.311  0.4917  1.1857  2.2189
  944MPD2     C13851   0.929   3.612  11.046 -0.0323 -0.1560  1.0343
  944MPD2    C113852   0.858   3.499  11.020  0.2677  0.4042  0.0383
  944MPD2    C213853   0.782   3.445  11.120  0.4735  0.0001 -0.4181
  944MPD2    C313854   0.776   3.493  11.247  0.1762  0.4444  0.3663
  944MPD2    C413855   0.851   3.603  11.275 -0.1952 -0.5153 -0.1460
  944MPD2    C513856   0.930   3.653  11.178 -0.7586 -0.7544  0.0609
  944MPD2     H13857   0.726   3.355  11.099 -0.8620  0.3549  1.6033
  944MPD2    H113858   0.873   3.636  11.376  2.1442 -0.0267 -0.8100
  944MPD2    H213859   0.991   3.661  10.972  0.0701  0.2882  1.4106
  944MPD2    H313860   0.995   3.737  11.199  0.2198 -1.8788  1.4548
  944MPD2     N13861   0.701   3.422  11.343 -0.9838  0.7896 -0.6471
  944MPD2    H513862   0.661   3.331  11.319 -1.3129  0.2178  2.0212
  944MPD2    N113863   0.867   3.448  10.888  0.3229 -0.6711  0.1144
  944MPD2    H713864   0.911   3.506  10.818 -1.6422  1.4912  0.6714
    1TMC1    C113865   4.365   4.025  14.007  0.3682  1.5009  0.1232
    1TMC1    C213866   4.431   4.093  14.097 -0.0037  0.7084 -1.0712
    1TMC1    C313867   4.471   4.023  14.211  0.8570  0.1314 -0.1580
    1TMC1    C413868   4.328   3.891  14.028 -0.5512 -0.4252 -0.0980
    1TMC1    C513869   4.355   3.827  14.146 -0.2905 -0.3680  0.0010
    1TMC1    C613870   4.441   3.883  14.233  0.1478 -0.1756  0.1499
    1TMC1     C13871   4.286   4.093  13.899  0.3738 -0.4821 -0.0179
    1TMC1     O13872   4.223   4.018  13.823 -0.2564  0.1172 -0.2541
    1TMC1     H13873   4.461   4.196  14.080 -0.1140  0.5784 -2.0692
    1TMC1    H113874   4.265   3.840  13.956 -0.8009  0.8400 -0.7826
    1TMC1    H213875   4.456   3.834  14.329  1.9406  1.3741  0.6495
    1TMC1    C713876   4.349   3.681  14.143  0.2594  0.5555  1.0618
    1TMC1    C813877   4.577   4.085  14.289  0.9674  0.7007  0.2373
    1TMC1    O113878   4.441   3.609  14.174  0.4370  0.3029  0.1361
    1TMC1    O213879   4.645   4.180  14.248  0.1402 -1.0497 -0.0153
    1TMC1    O313880   4.230   3.644  14.106  0.4422 -0.3987 -0.3590
    1TMC1    H313881   4.170   3.721  14.095  2.3482  1.2313  0.6331
    1TMC1    O513882   4.569   4.033  14.416 -0.3090  0.2663 -0.4368
    1TMC1    H513883   4.484   3.985  14.425 -0.1941 -0.2030 -1.7533
    2MPD2     C13884   4.010   4.462  13.704 -1.0489  0.0645 -0.5568
    2MPD2    C113885   4.004   4.480  13.840 -0.4541 -0.8340 -0.1184
    2MPD2    C213886   4.081   4.393  13.919  0.5136  0.5847  0.2464
    2MPD2    C313887   4.158   4.296  13.857 -0.3262 -0.3669  0.3308
    2MPD2    C413888   4.149   4.271  13.719 -0.2192  0.2948  1.0403
    2MPD2    C513889   4.071   4.359  13.646 -0.1394 -0.1293 -0.2820
    2MPD2     H13890   4.090   4.418  14.025 -0.9444 -0.3156  0.5846
    2MPD2    H113891   4.209   4.195  13.671 -0.1043  2.9880 -3.0114
    2MPD2    H213892   3.954   4.530  13.639  0.9602 -0.7561 -3.1359
    2MPD2    H313893   4.072   4.358  13.537 -0.0550 -1.4524 -0.2688
    2MPD2     N13894   4.244   4.219  13.936  0.3445  0.1698 -0.2186
    2MPD2    H513895   4.271   4.250  14.029  0.3197  2.1492 -0.8675
    2MPD2    N113896   3.947   4.601  13.884 -0.0809  0.4622  0.1942
    2MPD2    H713897   3.907   4.661  13.813 -0.3965 -1.8897 -1.6045
    3TMC2    C113898   3.881   0.044  14.033 -0.5069  0.1810  0.2166
    3TMC2    C213899   3.836   0.080  14.153 -0.5672  0.0636 -0.0313
    3TMC2    C313900   3.752   0.190  14.164 -0.4135  0.1658  0.3594
    3TMC2    C413901   3.868   0.125  13.921 -0.3225  0.0953  0.5432
    3TMC2    C513902   3.793   0.243  13.938  0.4593 -0.2454  0.1966
    3TMC2    C613903   3.733   0.277  14.058  0.2557  0.2872  0.0563
    3TMC2     C13904   3.939   4.645  14.020 -0.0023  0.4020  0.8164
    3TMC2     O13905   3.964   4.589  14.125 -0.0943 -0.1523  0.5947
    3TMC2     H13906   3.840   0.007  14.233 -0.2164  1.0945  0.8934
    3TMC2    H113907   3.916   0.107  13.826 -1.8316 -1.1006  0.0023
    3TMC2    H213908   3.666   0.362  14.068  0.9959  1.0513 -1.4491
    3TMC2    C713909   3.769   0.324  13.828 -0.5424 -0.2667 -0.3869
    3TMC2    C813910   3.682   0.211  14.290 -0.3103 -0.3246 -0.4342
    3TMC2    O113911   3.858   0.327  13.743 -0.0593 -0.2632  0.2009
    3TMC2    O213912   3.591   0.292  14.296 -0.8962 -0.0976 -0.6698
    3TMC2    O513913   3.784   0.197  14.374 -0.1523  0.1442 -0.2251
    3TMC2    H513914   3.871   0.189  14.331 -0.7463  1.4021 -1.6661
    4TMC2    C113915   2.877   0.566  13.417 -0.2121  0.3084 -0.3413
    4TMC2    C213916   2.870   0.701  13.393  0.7081  0.4160 -0.0916
    4TMC2    C313917   2.975   0.784  13.412 -0.3053 -0.2489 -0.1904
    4TMC2    C413918   2.983   0.514  13.490  0.0328 -0.4861  0.3374
    4TMC2    C513919   3.082   0.601  13.525 -0.2278  0.3602  0.1428
    4TMC2    C613920   3.072   0.740  13.496 -0.0258 -0.0582  0.2673
    4TMC2     C13921   2.755   0.480  13.388  0.2531 -0.7870  0.6725
    4TMC2     O13922   2.743   0.370  13.439  0.3105 -0.3841 -0.4987
    4TMC2     H13923   2.789   0.735  13.330 -0.4654  1.3088  1.9100
    4TMC2    H113924   2.999   0.407  13.494  0.0606 -0.4622  0.8750
    4TMC2    H213925   3.151   0.810  13.519  0.4407 -0.6004  0.3287
    4TMC2    C713926   3.206   0.549  13.592  0.7895 -0.8413 -0.0055
    4TMC2    C813927   2.974   0.925  13.370  0.0183  0.2055  0.4706
    4TMC2    O113928   3.202   0.441  13.652  0.2267  0.0053 -0.0527
    4TMC2    O213929   3.021   1.013  13.435 -0.6322  0.0538  0.2966
    4TMC2    O513930   2.926   0.930  13.249 -0.2625  0.0867  0.1897
    4TMC2    H513931   2.915   0.841  13.209 -2.1533  0.6480 -0.4954
    5MPD2     C13932   2.295   0.451  13.156 -0.0751 -0.1482 -1.1088
    5MPD2    C113933   2.383   0.520  13.079 -0.1567 -0.9805 -0.2827
    5MPD2    C213934   2.503   0.546  13.132 -0.7923 -0.9715 -0.6693
    5MPD2    C313935   2.545   0.493  13.252  0.1322 -0.0436 -0.3970
    5MPD2    C413936   2.455   0.428  13.329 -0.3496 -0.6797 -0.2434
    5MPD2    C513937   2.328   0.407  13.280 -0.2286 -1.0851 -0.4753
    5MPD2     H13938   2.566   0.619  13.083 -3.1659  1.6743  0.2517
    5MPD2    H113939   2.485   0.384  13.423  0.2744 -0.2685 -0.2557
    5MPD2    H213940   2.197   0.437  13.112  0.0470  0.1914 -1.4899
    5MPD2    H313941   2.270   0.350  13.352  1.3961 -0.7130  1.1377
    5MPD2     N13942   2.675   0.534  13.286  0.3369 -0.1200 -0.5472
    5MPD2    H513943   2.708   0.608  13.225 -2.4921  0.8983 -0.8492
    5MPD2    N113944   2.334   0.574  12.957 -0.8586  1.0208  0.7311
    5MPD2    H713945   2.240   0.557  12.924 -0.3405 -0.4517 -0.0222
    6MPD1     C13946   1.970   2.381  13.335 -0.4932 -0.0570  0.5945
    6MPD1    C113947   2.073   2.338  13.417  0.1093  0.5452  0.5687
    6MPD1    C213948   2.127   2.214  13.418  0.5745  0.3368  0.2686
    6MPD1    C313949   2.061   2.114  13.343 -0.3007 -0.0427  0.1604
    6MPD1    C413950   1.940   2.151  13.276  0.0247 -0.0239 -0.1072
    6MPD1    C513951   1.898   2.287  13.273 -0.2742 -0.1304 -0.8255
    6MPD1     H13952   2.223   2.201  13.464  1.0119 -1.4739 -1.1536
    6MPD1    H113953   1.880   2.090  13.210  0.3575 -1.2125  0.6843
    6MPD1    H213954   1.930   2.481  13.346 -0.6137 -0.1349  0.8656
    6MPD1    H313955   1.802   2.316  13.233 -0.7654 -1.6025 -0.7387
    6MPD1     N13956   2.115   1.985  13.316 -0.0378  0.4484  0.1867
    6MPD1    H513957   2.058   1.921  13.262 -0.6643  2.1153 -1.1406
    6MPD1    N113958   2.145   2.445  13.475  0.4097  0.1284 -0.0723
    6MPD1    H613959   2.092   2.529  13.494  0.1906  0.4102 -1.9332
    6MPD1    H713960   2.212   2.413  13.544 -0.9437  1.1459  1.7159
    7MPD2     C13961   1.859   1.425  13.023 -0.4380  0.0872  0.0374
    7MPD2    C113962   1.964   1.354  13.089 -0.4765 -0.1488  0.2688
    7MPD2    C213963   2.005   1.238  13.026  0.1390  0.4030  0.3198
    7MPD2    C313964   1.943   1.186  12.919 -0.0256  0.4885  0.1166
    7MPD2    C413965   1.843   1.256  12.861  0.0307 -0.1411  0.3048
    7MPD2    C513966   1.802   1.380  12.906 -0.3904 -0.0132 -0.2911
    7MPD2     H13967   2.087   1.185  13.072 -1.4452 -1.3770  1.1106
    7MPD2    H113968   1.795   1.211  12.775  1.2039  0.0021 -0.4229
    7MPD2    H213969   1.829   1.522  13.061  0.5935  0.1123  0.7637
    7MPD2    H313970   1.724   1.438  12.858  0.8699  1.5136 -0.4925
    7MPD2     N13971   1.980   1.060  12.860 -0.3218  0.8403  0.0348
    7MPD2    H513972   1.934   1.043  12.771  0.3052  0.8737 -0.2986
    7MPD2    N113973   2.050   1.406  13.198  0.3345 -0.5431  0.0618
    7MPD2    H713974   2.126   1.342  13.218  1.6920  0.9301 -0.3841
    8TMC3    C113975   2.130   0.885  12.808  0.2882  0.2277  0.3799
    8TMC3    C213976   2.189   0.772  12.853 -0.1815 -1.0100  0.9610
    8TMC3    C313977   2.306   0.736  12.799 -0.2074  0.0332 -0.2032
    8TMC3    C413978   2.183   0.950  12.697  0.2604 -0.2920 -0.2777
    8TMC3    C513979   2.308   0.923  12.643 -0.0406 -0.3161  0.1856
    8TMC3    C613980   2.363   0.810  12.691 -0.3125  0.1595  0.2464
    8TMC3     C13981   2.081   0.977  12.909 -0.0345  0.0194  0.4868
    8TMC3     O13982   2.147   0.988  13.007  0.1470  0.4136 -0.1349
    8TMC3     H13983   2.161   0.741  12.954 -2.1052  0.6815  0.9535
    8TMC3    H113984   2.115   1.024  12.656  1.7665  1.6112  0.6383
    8TMC3    H213985   2.454   0.770  12.650 -0.5506 -0.6584  0.5251
    8TMC3    C713986   2.390   1.040  12.625  0.2048 -0.1938 -0.1070
    8TMC3    C813987   2.403   0.659  12.870  0.3331 -0.1931 -0.0314
    8TMC3    O113988   2.462   1.041  12.525 -0.1386  0.2399  0.1571
    8TMC3    O213989   2.522   0.676  12.863  0.1433 -0.1962 -0.0164
    9TMC3    C113990   2.243   1.803  13.295 -0.0959 -0.9289  0.2026
    9TMC3    C213991   2.360   1.760  13.231  0.1360  0.1641  0.0048
    9TMC3    C313992   2.376   1.629  13.198  0.7339 -0.3301 -0.5143
    9TMC3    C413993   2.142   1.717  13.331 -0.5382  0.4605  0.5561
    9TMC3    C513994   2.162   1.586  13.300 -0.2144  0.9801  0.0260
    9TMC3    C613995   2.282   1.540  13.236 -0.3479  0.1811 -0.0103
    9TMC3     C13996   2.238   1.937  13.347  0.2215  0.3700 -0.3305
    9TMC3     O13997   2.337   1.998  13.375 -0.2372 -0.0058 -0.1897
    9TMC3     H13998   2.439   1.824  13.192 -0.2222  2.6699  3.3732
    9TMC3    H113999   2.058   1.742  13.394  0.2664 -0.1823  1.8856
    9TMC3    H214000   2.292   1.433  13.220  1.5516  0.3428  0.1032
    9TMC3    C714001   2.040   1.533  13.256  0.4241  0.1259 -0.0267
    9TMC3    C814002   2.470   1.599  13.089  0.0899  0.0577  0.1605
    9TMC3    O114003   1.946   1.604  13.246 -0.1342 -0.2026 -0.4064
    9TMC3    O214004   2.562   1.675  13.067  0.5690  0.0752 -0.2983
   10MPD2     C14005   2.548   1.286  12.698  0.6749  0.0071 -0.3433
   10MPD2    C114006   2.449   1.232  12.772 -0.2929  0.2749  0.2136
   10MPD2    C214007   2.413   1.298  12.886 -0.0871 -0.5770  0.1911
   10MPD2    C314008   2.481   1.411  12.925  0.6547  0.5482  0.4718
   10MPD2    C414009   2.590   1.461  12.852  0.6256  0.1892  0.9078
   10MPD2    C514010   2.623   1.392  12.743 -0.3207  0.7923  0.3763
   10MPD2     H14011   2.324   1.274  12.944  1.5872 -0.0192  2.9972
   10MPD2    H114012   2.637   1.553  12.883  0.2631  0.3694  0.9236
   10MPD2    H214013   2.583   1.228  12.613  0.6805  0.3245 -0.5546
   10MPD2    H314014   2.707   1.427  12.683 -0.9126 -0.6603 -1.2976
   10MPD2     N14015   2.433   1.479  13.034 -0.0941 -0.2088 -0.1022
   10MPD2    H514016   2.348   1.438  13.072 -1.3728  1.1786 -1.5367
   10MPD2    N114017   2.375   1.118  12.735  0.0938 -0.0030  0.3060
   10MPD2    H714018   2.307   1.089  12.805 -1.3983 -0.3609 -1.2742
   11MPD2     C14019   3.724   0.553  13.661  0.1196  0.3330  0.1810
   11MPD2    C114020   3.622   0.486  13.722 -0.8384  0.7761  0.3752
   11MPD2    C214021   3.488   0.507  13.691 -0.1837  0.7614  0.1743
   11MPD2    C314022   3.452   0.594  13.585  0.1795  0.1436  0.2540
   11MPD2    C414023   3.553   0.668  13.531  0.8150  0.1754  0.0783
   11MPD2    C514024   3.683   0.639  13.566 -0.6277  0.3230  0.8353
   11MPD2     H14025   3.420   0.452  13.755  0.9389 -0.6204  0.1782
   11MPD2    H114026   3.555   0.745  13.455 -1.6077  1.1378  0.9873
   11MPD2    H214027   3.826   0.538  13.696  0.3486 -0.7516 -0.9697
   11MPD2    H314028   3.761   0.697  13.518  1.7640 -3.0554  0.5975
   11MPD2     N14029   3.318   0.616  13.543 -0.8534  0.1674 -0.2251
   11MPD2    H514030   3.310   0.686  13.469  0.0996  1.1968  0.6309
   11MPD2    N114031   3.644   0.385  13.819 -0.3732  0.0489 -0.1433
   11MPD2    H714032   3.572   0.348  13.880 -0.9849  1.6219  0.0902
    1MPD1     C14033   1.310   1.178  16.861  0.3405 -0.0915  0.5148
    1MPD1    C114034   1.366   1.050  16.856  0.1158  0.1023 -0.5288
    1MPD1    C214035   1.474   1.026  16.943  0.1749 -0.5426 -0.0194
    1MPD1    C314036   1.523   1.129  17.021 -0.2753 -0.0375 -0.3070
    1MPD1    C414037   1.471   1.254  17.014 -0.4838 -0.0911 -0.5824
    1MPD1    C514038   1.365   1.274  16.932 -0.4820 -0.2992 -0.4381
    1MPD1     H14039   1.523   0.929  16.943  1.1784 -0.0378 -0.2012
    1MPD1    H114040   1.504   1.336  17.077  1.9915 -1.5420  0.0178
    1MPD1    H214041   1.221   1.201  16.804  0.5886  0.3092  0.2838
    1MPD1    H314042   1.319   1.372  16.930 -0.8795 -0.4682  0.3297
    1MPD1     N14043   1.636   1.114  17.102  0.8930  0.1559 -0.9446
    1MPD1    H514044   1.684   1.190  17.148 -1.7520 -0.1030  2.2539
    1MPD1    N114045   1.297   0.948  16.781 -0.3063  0.4182  1.3260
    1MPD1    H614046   1.245   0.978  16.700 -0.7864  0.8998  1.8152
    1MPD1    H714047   1.360   0.869  16.766 -1.2772 -0.2031  0.5264
    2MPD1     C14048   1.566   0.999   0.175  0.0864  0.5492 -0.7268
    2MPD1    C114049   1.562   1.119   0.110 -0.2903 -0.2177 -0.6792
    2MPD1    C214050   1.619   1.134  17.741 -0.0995 -0.4630 -0.3670
    2MPD1    C314051   1.693   1.031  17.688  0.5935  0.5600  0.2201
    2MPD1    C414052   1.696   0.912   0.000 -0.0468  0.1505 -0.2744
    2MPD1    C514053   1.634   0.894   0.122 -0.0027  0.3639 -0.5209
    2MPD1     H14054   1.621   1.230  17.691  2.2510 -0.3119 -0.0045
    2MPD1    H114055   1.756   0.830  17.719 -1.7141 -1.8860  1.4748
    2MPD1    H214056   1.517   0.987   0.271  2.9777  1.1972  0.8139
    2MPD1    H314057   1.648   0.806   0.184 -3.3049 -0.4881 -0.9652
    2MPD1     N14058   1.764   1.056  17.567  0.6590 -0.6243 -0.3206
    2MPD1    H514059   1.739   1.144  17.524  2.4730 -0.1073 -0.3232
    2MPD1    N114060   1.479   1.217   0.159  0.0119 -0.0444  0.2124
    2MPD1    H614061   1.459   1.200   0.257  0.5494  3.4290  0.9179
    2MPD1    H714062   1.528   1.306   0.150  0.3053 -0.3577 -1.3332
    3TMC3    C114063   1.902   1.046  17.393  0.5403 -0.0685 -0.1115
    3TMC3    C214064   2.031   1.024  17.355  0.7222 -0.0328  0.1172
    3TMC3    C314065   2.049   1.004  17.217 -0.1470 -0.3050 -0.3165
    3TMC3    C414066   1.796   1.041  17.308 -0.3609 -0.3981  0.5460
    3TMC3    C514067   1.829   1.020  17.177 -0.5014  0.8582 -0.0797
    3TMC3    C614068   1.951   0.993  17.127  0.4583 -0.3291 -0.2514
    3TMC3     C14069   1.860   0.979  17.517 -0.3821  0.1420 -0.3213
    3TMC3     O14070   1.895   0.862  17.530 -0.5519  0.0691 -0.4887
    3TMC3     H14071   2.107   1.009  17.432  1.0146 -0.6845 -0.2947
    3TMC3    H114072   1.690   1.054  17.330 -0.4345 -0.2874  0.1143
    3TMC3    H214073   1.960   0.967  17.022  0.4064 -2.1057  0.1821
    3TMC3    C714074   1.728   1.013  17.082 -0.5467 -0.2623  0.4477
    3TMC3    C814075   2.187   1.017  17.169 -0.1088 -0.1577 -0.4287
    3TMC3    O114076   1.743   0.920  17.006  0.3262 -0.0647 -0.2379
    3TMC3    O214077   2.267   1.046  17.257 -0.1530  0.3345  0.0195
    4MPD1     C14078   2.530   0.997  16.805  0.4408  0.0352  0.5567
    4MPD1    C114079   2.414   1.043  16.749  0.6112 -0.2623 -0.2197
    4MPD1    C214080   2.309   1.071  16.836 -0.0971  0.3807  0.0198
    4MPD1    C314081   2.316   1.042  16.968  0.6594 -0.2187  0.8071
    4MPD1    C414082   2.429   0.986  17.021 -0.0587 -0.1654  0.5374
    4MPD1    C514083   2.535   0.966  16.940  0.2190 -0.3543  0.6208
    4MPD1     H14084   2.215   1.109  16.799 -1.3159  0.4848  3.2128
    4MPD1    H114085   2.441   0.958  17.125  0.0916  1.0677  0.8472
    4MPD1    H214086   2.618   0.972  16.747 -0.4363  0.8767 -1.1301
    4MPD1    H314087   2.626   0.926  16.983  0.3766  0.7123  1.2767
    4MPD1     N14088   2.197   1.038  17.038 -0.3175 -0.9929 -0.4545
    4MPD1    H514089   2.107   1.060  16.996  0.1594  1.5418 -0.1677
    4MPD1    N114090   2.405   1.083  16.616 -0.0788 -0.7829 -0.7260
    4MPD1    H614091   2.472   1.037  16.555 -0.9539 -0.8266 -1.6402
    4MPD1    H714092   2.314   1.090  16.571 -0.4520  2.7473  0.5530
    1TCq1    O114093   1.744   0.993  10.975  0.1504 -0.0922 -0.2239
    1TCq1    C114094   1.662   0.950  11.082 -0.1663  0.0339  0.5375
    1TCq1    O214095   1.633   0.834  11.091 -0.3175 -0.1449 -0.2336
    1TCq1    C214096   1.611   1.061  11.150  0.1619 -0.0981  0.7314
    1TCq1    C314097   1.698   1.163  11.163  0.1518 -0.9734  0.1077
    1TCq1    C414098   1.653   1.277  11.224 -0.1342  0.4813 -0.1341
    1TCq1    C514099   1.519   1.304  11.229  0.0573 -0.9684  0.3696
    1TCq1    C614100   1.434   1.205  11.189  0.1106  0.2243  0.5444
    1TCq1    C714101   1.478   1.082  11.150 -0.4245  0.4033 -0.3574
    1TCq1    C814102   1.296   1.242  11.170 -0.2102  0.7351  0.9491
    1TCq1    O414103   1.281   1.350  11.116 -0.2528  0.8841  0.6002
    1TCq1    C914104   1.737   1.393  11.223 -0.4938  0.2437 -0.5229
    1TCq1    O514105   1.671   1.498  11.247 -0.7388 -0.0883 -0.0910
    1TCq1    O614106   1.861   1.370  11.244  0.0315  0.2716 -0.7122
    1TCq1    H114107   1.733   1.089  10.956  2.6162  0.5445  1.5569
    1TCq1    H214108   1.805   1.144  11.163 -0.1021 -2.3932 -0.0618
    1TCq1    H314109   1.479   1.396  11.269  0.7420 -0.6834  0.3870
    1TCq1    H414110   1.409   1.000  11.131  1.6182 -1.7025  1.3388
    2MPD1     C14111   0.806   1.107  11.101  0.5481 -0.4512  0.6129
    2MPD1    C114112   0.877   0.995  11.139 -0.3269 -0.7418 -0.4699
    2MPD1    C214113   1.011   1.008  11.150  0.0435  0.1298  0.1981
    2MPD1    C314114   1.079   1.128  11.138 -0.8104  0.2454 -0.1564
    2MPD1    C414115   1.011   1.244  11.105 -0.5569 -0.1880  1.1813
    2MPD1    C514116   0.878   1.224  11.066  0.2082  0.0811 -0.1924
    2MPD1     H14117   1.077   0.925  11.173 -1.8591 -1.1350  1.0571
    2MPD1    H114118   1.046   1.347  11.099 -3.1958  0.4349 -3.4584
    2MPD1    H214119   0.701   1.102  11.074  0.6910  1.2091 -0.2702
    2MPD1    H314120   0.822   1.310  11.031 -0.6279 -1.6109 -3.0457
    2MPD1     N14121   1.215   1.135  11.172  0.1568  0.0588 -0.1275
    2MPD1    H514122   1.257   1.052  11.213 -1.4371 -0.1706  1.0455
    2MPD1    N114123   0.813   0.874  11.176  0.1030  0.4164  0.1776
    2MPD1    H614124   0.886   0.804  11.161 -2.2721 -2.0289 -0.0598
    2MPD1    H714125   0.736   0.839  11.120  0.9599 -0.3346 -0.5449
    1TMC1    C114126   2.054   2.389   0.374 -0.3204 -0.9894 -0.7694
    1TMC1    C214127   1.982   2.348   0.264 -0.0710  0.4400 -0.3186
    1TMC1    C314128   1.848   2.338   0.262  0.0517  0.2697  0.1023
    1TMC1    C414129   1.982   2.417   0.489  0.1607  0.4518 -0.2968
    1TMC1    C514130   1.847   2.390   0.486 -0.2026  0.4518  0.5735
    1TMC1    C614131   1.769   2.363   0.374 -0.2067 -0.2792  0.8463
    1TMC1     C14132   2.188   2.334   0.364 -0.0328  0.4468  0.1941
    1TMC1     O14133   2.203   2.232   0.296 -0.0010  0.3439  0.7280
    1TMC1     H14134   2.044   2.323   0.179  1.4005  1.3378  0.4833
    1TMC1    H114135   2.034   2.458   0.575  1.1519  1.9032 -1.5766
    1TMC1    H214136   1.660   2.360   0.368 -0.1939 -1.3258  1.1854
    1TMC1    C714137   1.764   2.440   0.602  0.3248 -0.5425  0.3201
    1TMC1    C814138   1.780   2.342   0.136 -0.2149 -0.0506 -0.1646
    1TMC1    O114139   1.643   2.455   0.581  0.3162 -0.2051  0.6423
    1TMC1    O214140   1.833   2.402   0.045  0.0636 -0.2477 -0.3027
    1TMC1    O314141   1.817   2.384   0.714 -0.1094  0.0162  0.4983
    1TMC1    H314142   1.905   2.344   0.694  0.2117  1.2678 -0.5870
    1TMC1    O514143   1.734   2.220   0.124  0.1182 -0.3195  0.3004
    1TMC1    H514144   1.725   2.170   0.208 -1.4590 -2.1007 -0.9281
    2MPD1     C14145   2.673   2.398   0.440  0.3320  0.2542 -0.3339
    2MPD1    C114146   2.612   2.313   0.350  0.2496  0.3623 -0.2325
    2MPD1    C214147   2.474   2.305   0.358 -0.1204 -0.0691 -0.4820
    2MPD1    C314148   2.409   2.404   0.435  0.2561 -0.2666 -0.5478
    2MPD1    C414149   2.475   2.497   0.508  0.0648  0.6322  0.4611
    2MPD1    C514150   2.611   2.485   0.521  0.0575 -0.2020  0.3008
    2MPD1     H14151   2.418   2.232   0.301  0.6678 -0.5453 -0.6317
    2MPD1    H114152   2.420   2.570   0.567 -1.2347  0.5705 -0.6465
    2MPD1    H214153   2.781   2.402   0.451  0.1818  1.5302  0.7717
    2MPD1    H314154   2.667   2.555   0.583 -3.1076  0.9290  1.8890
    2MPD1     N14155   2.269   2.409   0.439 -0.5290 -0.8114  0.0743
    2MPD1    H514156   2.219   2.486   0.483  1.8798  1.0143 -0.3886
    2MPD1    N114157   2.688   2.237   0.262  0.3029  0.4057  0.7943
    2MPD1    H614158   2.651   2.237   0.168  2.7865  1.0217 -0.1943
    2MPD1    H714159   2.787   2.263   0.259  0.2798  0.2798 -0.8947
    1MPD1     C14160   0.155   0.720  11.845 -0.5774  0.0943  0.3066
    1MPD1    C114161   0.063   0.745  11.941 -0.0639 -0.2764 -0.0159
    1MPD1    C214162   0.034   0.869  11.985 -0.0801 -0.1561  0.0026
    1MPD1    C314163   0.113   0.973  11.941 -0.0479 -0.2414 -0.1371
    1MPD1    C414164   0.219   0.946  11.858  0.7515  0.2897  0.1732
    1MPD1    C514165   0.242   0.817  11.808 -0.0439 -0.5191 -0.1717
    1MPD1     H14166   4.693   0.888  12.054  2.1981  0.2219  2.5666
    1MPD1    H114167   0.287   1.023  11.825 -1.1188  1.9616  0.2324
    1MPD1    H214168   0.176   0.620  11.810  2.4130  0.4744  0.9804
    1MPD1    H314169   0.319   0.787  11.738  0.2251 -0.2143 -0.0080
    1MPD1     N14170   0.087   1.100  11.994 -0.7821  0.4616  0.1293
    1MPD1    H514171   0.003   1.111  12.049  0.1171  3.2645  0.9025
    1MPD1    N114172   4.715   0.644  11.977  0.3369 -0.1823 -0.6168
    1MPD1    H614173   4.668   0.672  12.063 -1.0396 -0.1683 -1.3784
    1MPD1    H714174   0.030   0.558  11.988 -0.5183 -0.8776 -1.8181
    2MPD1     C14175   3.282   0.626  11.702 -0.2630 -0.4077  0.4834
    2MPD1    C114176   3.263   0.601  11.570 -0.1011 -1.2845 -0.1350
    2MPD1    C214177   3.318   0.687  11.473 -0.0650  0.3496  0.2070
    2MPD1    C314178   3.385   0.795  11.515  0.2421  0.3761 -0.1230
    2MPD1    C414179   3.389   0.831  11.651  0.1602  0.6525 -0.3330
    2MPD1    C514180   3.341   0.739  11.742  0.3470  0.0088  0.1898
    2MPD1     H14181   3.308   0.651  11.371  2.0612  0.1163  0.0725
    2MPD1    H114182   3.451   0.913  11.685 -1.8505  1.6248  0.9680
    2MPD1    H214183   3.230   0.567  11.777  2.9231 -1.7728  1.6073
    2MPD1    H314184   3.364   0.756  11.847 -0.6178  0.9264  0.2461
    2MPD1     N14185   3.454   0.892  11.432  0.0628  0.0090 -0.4859
    2MPD1    H514186   3.480   0.970  11.492  0.1027 -2.1916  2.3750
    2MPD1    N114187   3.176   0.500  11.523 -0.1627 -0.6394  0.2737
    2MPD1    H614188   3.192   0.411  11.570  0.5794 -0.7817 -0.2394
    2MPD1    H714189   3.197   0.479  11.426  1.7976 -0.5617  0.6639
    3MPD1     C14190   3.556   1.072  10.419  0.1035  0.3160 -0.0466
    3MPD1    C114191   3.501   0.962  10.493  0.2821  0.8440  0.3532
    3MPD1    C214192   3.499   0.973  10.633 -0.5488 -1.1407  0.2692
    3MPD1    C314193   3.561   1.075  10.702 -0.4613 -0.7448 -0.4802
    3MPD1    C414194   3.622   1.178  10.627  0.3796 -0.0058  0.2916
    3MPD1    C514195   3.610   1.178  10.488  0.0161 -0.4172 -1.0668
    3MPD1     H14196   3.445   0.891  10.678 -1.7460  1.2242  3.1080
    3MPD1    H114197   3.696   1.246  10.668  1.9403 -1.5841  0.1359
    3MPD1    H214198   3.553   1.081  10.311  2.3330 -0.7574 -0.1920
    3MPD1    H314199   3.666   1.250  10.430  0.8048  0.0988  0.3092
    3MPD1     N14200   3.559   1.077  10.849 -0.1338  0.3546 -0.8481
    3MPD1    H514201   3.511   0.998  10.890 -1.7218  1.0354 -1.4190
    3MPD1    N114202   3.427   0.860  10.431  0.2281  0.1910 -0.5251
    3MPD1    H614203   3.466   0.840  10.339  1.5017  0.0937  0.0442
    3MPD1    H714204   3.407   0.772  10.479 -0.3966 -0.1664 -1.4456
    4MPD2     C14205   4.325   1.473  12.288 -0.7892  0.2498  0.5395
    4MPD2    C114206   4.397   1.554  12.203  0.4506  0.3028 -0.3818
    4MPD2    C214207   4.316   1.645  12.129 -0.6000 -0.6484 -0.3328
    4MPD2    C314208   4.182   1.652  12.137  0.6400  0.1054  0.2001
    4MPD2    C414209   4.117   1.568  12.219 -0.1645  0.3280  0.8215
    4MPD2    C514210   4.188   1.484  12.301  0.4647 -0.0785 -0.3548
    4MPD2     H14211   4.371   1.712  12.064 -0.1638  0.4628  1.1696
    4MPD2    H114212   4.010   1.557  12.228 -0.1725  1.1433  1.7456
    4MPD2    H214213   4.372   1.407  12.360 -0.6969 -0.5294 -0.2356
    4MPD2    H314214   4.133   1.410  12.359  1.4056 -0.2980  0.2513
    4MPD2     N14215   4.108   1.750  12.069  0.0560  0.1415 -0.0348
    4MPD2    H514216   4.009   1.755  12.094  0.0645 -0.0912  0.0524
    4MPD2    N114217   4.537   1.549  12.193  0.4842  0.2441  0.5884
    4MPD2    H714218   4.581   1.612  12.126 -0.2866  2.7320  2.4448
    5TMC3    C114219   0.001   1.458  12.174 -0.2787 -0.5089  0.0695
    5TMC3    C214220   0.021   1.341  12.112  0.2576 -0.1043  0.9547
    5TMC3    C314221   0.076   1.341  11.980  0.5908 -0.1123 -0.0636
    5TMC3    C414222   0.030   1.571  12.120  0.0967 -0.0066 -0.3814
    5TMC3    C514223   0.071   1.581  11.986 -0.4506 -0.3594  1.4420
    5TMC3    C614224   0.099   1.461  11.920  0.0881 -0.1836 -0.7763
    5TMC3     C14225   4.615   1.453  12.246  0.7494 -0.1823 -0.0098
    5TMC3     O14226   4.592   1.351  12.308 -0.4516  0.2931 -0.3486
    5TMC3     H14227   4.732   1.249  12.162 -1.4711  0.0503  0.2507
    5TMC3    H114228   0.003   1.655  12.183 -0.6816  0.5979 -1.5037
    5TMC3    H214229   0.129   1.465  11.815  2.2600 -0.9589 -0.1965
    5TMC3    C714230   4.735   1.678  11.918  0.6414 -0.1021 -0.1629
    5TMC3    C814231   0.123   1.214  11.921 -0.0203  0.0304  0.1482
    5TMC3    O114232   4.653   1.737  11.987 -0.4443 -0.2369  0.7416
    5TMC3    O214233   0.182   1.222  11.814 -0.4523 -0.4171 -0.3827
    6TMC3    C114234   3.554   1.004  11.252  0.3991  0.0967  0.7077
    6TMC3    C214235   3.574   1.024  11.118  0.2036 -0.6869  0.4571
    6TMC3    C314236   3.629   1.145  11.072 -0.2660 -0.1630 -0.3163
    6TMC3    C414237   3.581   1.113  11.335 -0.1619 -0.0272  0.7482
    6TMC3    C514238   3.616   1.234  11.287 -0.1506 -0.3546 -0.2244
    6TMC3    C614239   3.639   1.257  11.150  0.2887 -1.2372 -0.6990
    6TMC3     C14240   3.474   0.889  11.295  0.1685 -0.0840  0.2406
    6TMC3     O14241   3.440   0.795  11.225 -0.0522  0.2052  0.0749
    6TMC3     H14242   3.572   0.934  11.058 -0.1683 -1.4098  1.5630
    6TMC3    H114243   3.583   1.099  11.443 -0.6509 -0.3846  0.7118
    6TMC3    H214244   3.681   1.351  11.114  1.1584 -1.6112 -0.6672
    6TMC3    C714245   3.624   1.353  11.374 -0.1655  0.5051  1.0494
    6TMC3    C814246   3.623   1.173  10.925  0.1246  0.3359  0.9459
    6TMC3    O114247   3.697   1.445  11.331  0.5849 -0.1487  0.2141
    6TMC3    O214248   3.662   1.285  10.890  0.0195  0.6395  0.1111
    7MPD2     C14249   4.542   1.948  11.525 -0.2456  0.1052  0.7149
    7MPD2    C114250   4.490   1.910  11.644  0.6855 -0.4362  0.6711
    7MPD2    C214251   4.565   1.836  11.732 -0.0103 -0.2932 -0.9051
    7MPD2    C314252   4.691   1.791  11.700 -0.1213  0.0689 -0.2342
    7MPD2    C414253   4.735   1.816  11.572 -1.0772 -0.0346 -0.4456
    7MPD2    C514254   4.659   1.887  11.481 -0.2426 -0.4721  0.2527
    7MPD2     H14255   4.512   1.817  11.824  2.3930 -0.4405  0.4653
    7MPD2    H114256   0.086   1.776  11.528 -1.3595 -0.0969 -0.9667
    7MPD2    H214257   4.493   2.021  11.462 -0.5905 -0.3205  0.4906
    7MPD2    H314258   4.709   1.897  11.386 -1.1599  0.9869 -0.0790
    7MPD2     N14259   0.034   1.710  11.791 -0.1346  0.2800  0.2114
    7MPD2    H514260   0.115   1.667  11.749 -0.2900 -1.8114  2.0860
    7MPD2    N114261   4.360   1.949  11.694 -0.2615  0.1135 -0.0028
    7MPD2    H714262   4.343   1.923  11.791  1.2739 -0.1676  0.1866
    8TMC3    C114263   4.130   1.994  11.698 -0.1026  0.1708 -0.3082
    8TMC3    C214264   4.036   1.917  11.640 -0.5553  0.5371 -0.3207
    8TMC3    C314265   3.955   1.834  11.721  0.2794  0.5374  0.4329
    8TMC3    C414266   4.145   2.009  11.829 -0.5230  0.3615 -0.5184
    8TMC3    C514267   4.064   1.926  11.911  0.1772  0.3312 -0.3399
    8TMC3    C614268   3.970   1.844  11.863 -0.2982  1.0268  0.2896
    8TMC3     C14269   4.252   1.983  11.620 -0.3584  0.3642  0.1255
    8TMC3     O14270   4.237   2.009  11.500 -0.2724 -0.1311  0.7076
    8TMC3     H14271   4.023   1.913  11.532  1.4315 -0.1228 -0.5384
    8TMC3    H114272   4.220   2.077  11.867  0.9894 -2.2112  1.1130
    8TMC3    H214273   3.911   1.790  11.936  0.2192  0.4244  0.2632
    8TMC3    C714274   4.160   1.850  11.989  0.0040  0.2691  0.3260
    8TMC3    C814275   3.865   1.749  11.652 -0.1900 -0.4483 -0.0953
    8TMC3    O114276   4.273   1.864  11.943 -0.3668 -0.9948  0.1268
    8TMC3    O214277   3.895   1.724  11.534 -0.7115 -0.3752  0.0631
    9MPD2     C14278   3.611   1.562  11.834 -0.5999  0.0634 -0.3561
    9MPD2    C114279   3.691   1.586  11.728  0.0484 -0.1580 -0.2465
    9MPD2    C214280   3.678   1.515  11.613  0.0997 -0.0741  0.6607
    9MPD2    C314281   3.586   1.407  11.610 -0.6041 -0.4817 -0.4863
    9MPD2    C414282   3.523   1.376  11.729  0.0580  0.2954 -0.0166
    9MPD2    C514283   3.522   1.456  11.843 -0.8281 -0.0649 -0.4369
    9MPD2     H14284   3.740   1.538  11.527 -1.7414 -1.7505 -1.1430
    9MPD2    H114285   3.461   1.288  11.741 -0.0760  0.2081 -1.3836
    9MPD2    H214286   3.617   1.632  11.917 -1.4155 -1.9609  1.4207
    9MPD2    H314287   3.473   1.425  11.934 -0.9825  1.3674 -0.0361
    9MPD2     N14288   3.566   1.333  11.497  0.0547  0.2025  0.4990
    9MPD2    H514289   3.513   1.247  11.511  0.5537 -0.1542  0.1527
    9MPD2    N114290   3.782   1.692  11.744  0.1751  0.5768  0.0743
    9MPD2    H714291   3.782   1.734  11.836  0.3421 -1.2121  0.8812
    1MPD1     C14292   0.667   0.421  16.822 -0.0666 -0.3273  0.0161
    1MPD1    C114293   0.534   0.427  16.796 -0.4748 -0.1851 -0.5701
    1MPD1    C214294   0.453   0.340  16.877 -0.4529 -0.6572 -0.0854
    1MPD1    C314295   0.506   0.281  16.991  0.4151  0.4554  0.8202
    1MPD1    C414296   0.635   0.283  17.021 -0.1174 -1.1065 -1.0890
    1MPD1    C514297   0.717   0.352  16.931  0.4973 -0.9224  0.1775
    1MPD1     H14298   0.347   0.333  16.856 -0.7262  0.0576  1.0454
    1MPD1    H114299   0.669   0.250  17.118  0.1754 -1.0218 -1.1609
    1MPD1    H214300   0.744   0.479  16.771 -0.0290 -1.5042 -1.2748
    1MPD1    H314301   0.823   0.366  16.950 -0.0977  1.1006  1.9774
    1MPD1     N14302   0.422   0.206  17.083  0.1245  0.7795 -0.0980
    1MPD1    H514303   0.455   0.193  17.177 -0.3027 -3.5770 -0.5485
    1MPD1    N114304   0.483   0.489  16.680  0.1133 -0.4222  0.2195
    1MPD1    H614305   0.384   0.514  16.677 -0.0967 -1.4324 -1.4415
    1MPD1    H714306   0.530   0.577  16.661 -2.0429  0.6744 -0.0596
    2TMC2    C114307   4.723   0.191  17.238  0.4798  0.0382  0.6655
    2TMC2    C214308   0.023   0.236  17.355  0.1497 -0.1470  0.1340
    2TMC2    C314309   0.163   0.239  17.380  1.1934  0.4921 -0.1778
    2TMC2    C414310   0.072   0.156  17.143 -0.7806  0.0250  0.3528
    2TMC2    C514311   0.208   0.149  17.171 -0.0423 -0.4780 -0.2467
    2TMC2    C614312   0.252   0.195  17.292 -0.6156 -0.3460  0.3337
    2TMC2     C14313   4.581   0.198  17.215  0.1454 -1.0325 -0.1433
    2TMC2     O14314   4.503   0.231  17.303  0.2544  0.0198 -0.6200
    2TMC2     H14315   4.692   0.263  17.432 -1.1302 -0.1852 -1.0258
    2TMC2    H114316   0.036   0.102  17.056 -0.6712 -1.5550  1.2868
    2TMC2    H214317   0.355   0.215  17.321 -0.8525 -0.9578  1.5878
    2TMC2    C714318   0.294   0.166  17.048 -0.5099  0.1853 -0.0309
    2TMC2    C814319   0.218   0.324  17.490 -0.5367 -0.4801 -0.1355
    2TMC2    O114320   0.248   0.142  16.937  0.9878 -0.5933  0.1062
    2TMC2    O214321   0.334   0.312  17.525 -0.0877  0.0419 -0.2815
    2TMC2    O514322   0.115   0.358  17.571  0.1542  0.1650 -0.0619
    2TMC2    H514323   0.022   0.354  17.540  0.4587 -5.6445 -0.2622
    3MPD1     C14324   4.179   0.179  16.879  0.1558  0.1875  0.0809
    3MPD1    C114325   4.298   0.124  16.826 -0.5992 -0.4607  0.2073
    3MPD1    C214326   4.413   0.126  16.893  0.2150  0.3197  0.7108
    3MPD1    C314327   4.418   0.160  17.023 -0.0809 -0.0925  0.2986
    3MPD1    C414328   4.306   0.197  17.081 -0.0934 -0.1468 -1.2281
    3MPD1    C514329   4.187   0.208  17.014  0.5637 -0.2584  0.4518
    3MPD1     H14330   4.511   0.105  16.850 -0.8385 -0.5757 -1.2252
    3MPD1    H114331   4.303   0.231  17.184 -1.6717  0.8333 -1.5912
    3MPD1    H214332   4.084   0.178  16.827  0.5704 -0.7666 -0.6558
    3MPD1    H314333   4.103   0.243  17.073  1.1505  3.0364 -0.6454
    3MPD1     N14334   4.543   0.166  17.088 -0.0573  0.2311 -0.0955
    3MPD1    H514335   4.624   0.157  17.026 -1.2773  1.6687 -1.8863
    3MPD1    N114336   4.302   0.095  16.690  0.0225 -0.2014 -0.2244
    3MPD1    H614337   4.219   0.047  16.656  0.8516 -0.5601 -1.7290
    3MPD1    H714338   4.380   0.039  16.657 -0.6474 -1.4384  0.2816
    1TMC1    C114339   1.776   4.132  12.956  1.1590  0.3741  0.0379
    1TMC1    C214340   1.714   4.176  13.077  0.2260  0.4821  0.0605
    1TMC1    C314341   1.592   4.114  13.107  0.7360 -0.2643  0.0303
    1TMC1    C414342   1.722   4.042  12.867 -0.1380 -0.5727  0.1365
    1TMC1    C514343   1.603   3.990  12.906 -0.6742  0.2882  0.4142
    1TMC1    C614344   1.537   4.019  13.024 -0.4556 -0.2274 -0.2205
    1TMC1     C14345   1.917   4.153  12.942  0.2761 -0.3630 -0.1719
    1TMC1     O14346   1.955   4.145  12.825 -0.1643  0.4856 -0.3616
    1TMC1     H14347   1.749   4.263  13.131 -0.4670  0.7406  0.0923
    1TMC1    H114348   1.775   4.008  12.779 -0.4506  0.1609 -0.3278
    1TMC1    H214349   1.442   3.969  13.042 -0.9563  0.8435  0.0777
    1TMC1    C714350   1.533   3.913  12.807 -0.4658 -0.4405 -0.4644
    1TMC1    C814351   1.521   4.145  13.229  0.2902  0.2808  0.5552
    1TMC1    O114352   1.412   3.887  12.812  0.3475 -0.3573 -0.5726
    1TMC1    O214353   1.414   4.092  13.260 -0.0894  0.2836  0.2630
    1TMC1    O314354   1.628   3.831  12.753  0.3974  0.1263 -0.0635
    1TMC1    H314355   1.716   3.855  12.787  0.5754  1.1122 -1.1912
    1TMC1    O514356   1.621   4.165  13.324 -0.2846  0.2304  0.2895
    1TMC1    H514357   1.701   4.210  13.290  0.2959  0.7388  2.3404
    2MPD2     C14358   2.208   4.161  12.962  0.3927  0.3226 -0.1415
    2MPD2    C114359   2.127   4.172  13.073  0.4041  0.0834 -1.0103
    2MPD2    C214360   2.188   4.198  13.195  0.6712 -0.4435 -0.2918
    2MPD2    C314361   2.324   4.210  13.201 -0.2668 -0.3236 -0.6937
    2MPD2    C414362   2.398   4.191  13.091 -0.4536  0.1160 -0.6135
    2MPD2    C514363   2.342   4.174  12.970 -0.3585  0.7041  0.7917
    2MPD2     H14364   2.125   4.206  13.282 -0.1355 -0.2106 -0.8977
    2MPD2    H114365   2.506   4.184  13.089 -0.4225 -0.3795  1.9361
    2MPD2    H214366   2.174   4.154  12.859  2.0998  1.1664 -0.7626
    2MPD2    H314367   2.410   4.137  12.894 -0.7483 -0.0686  0.8201
    2MPD2     N14368   2.377   4.232  13.327 -0.0897  0.5376 -0.6144
    2MPD2    H514369   2.318   4.218  13.408 -0.4497  0.9792 -0.8002
    2MPD2    N114370   1.987   4.155  13.067 -0.1302  0.0423 -0.3790
    2MPD2    H714371   1.935   4.156  13.154  0.6512 -1.5941  0.1073
    3TCq1    O114372   2.949   4.230  13.688  0.2278 -0.4232  0.0261
    3TCq1    C114373   2.855   4.321  13.674  0.5486  0.1602 -0.2548
    3TCq1    O214374   2.845   4.421  13.745  0.0181  0.3202  0.0467
    3TCq1    C214375   2.732   4.248  13.632 -1.3098  0.2054  0.0185
    3TCq1    C314376   2.700   4.138  13.700  0.9795  0.2804 -0.1882
    3TCq1    C414377   2.587   4.083  13.650 -0.4671 -0.0235 -0.6428
    3TCq1    C514378   2.509   4.131  13.544 -0.4850  0.5785  0.2726
    3TCq1    C614379   2.556   4.240  13.474 -0.0900  0.1907 -0.5228
    3TCq1    C714380   2.670   4.299  13.526  0.0247 -0.3363  0.5518
    3TCq1    C814381   2.505   4.269  13.344  0.0563 -0.1427  0.3190
    3TCq1    O414382   2.571   4.328  13.260 -0.2088  0.7080  0.3474
    3TCq1    C914383   2.537   3.967  13.721  0.1429 -0.3296 -0.1442
    3TCq1    O514384   2.422   3.919  13.702  0.4516 -0.2160  0.4009
    3TCq1    O614385   2.597   3.934  13.826 -0.5266 -0.6936 -0.1137
    3TCq1    H114386   2.940   4.149  13.634  0.0243 -0.1976 -0.2771
    3TCq1    H214387   2.746   4.094  13.788  1.9864  1.7390  0.0072
    3TCq1    H314388   2.420   4.079  13.512 -0.8269  1.6267 -0.5147
    3TCq1    H414389   2.710   4.385  13.474  0.6168 -1.3125 -0.6074
    1MPD2     C14390   2.249   0.162  14.857  0.3859 -0.0162  0.6344
    1MPD2    C114391   2.125   0.107  14.863 -0.3163  0.2858 -0.5472
    1MPD2    C214392   2.105   4.714  14.822  0.0637 -0.6207 -0.1970
    1MPD2    C314393   2.215   4.635  14.779 -0.4211 -0.7538  0.5977
    1MPD2    C414394   2.345   4.690  14.787  0.0963  0.0502  0.6233
    1MPD2    C514395   2.355   0.084  14.828 -0.3001 -0.3387  0.1201
    1MPD2     H14396   2.006   4.671  14.816  0.3121 -0.8380 -2.4507
    1MPD2    H114397   2.434   4.637  14.756 -0.8889 -1.0792 -0.2636
    1MPD2    H214398   2.271   0.268  14.861 -1.3897  0.4018 -0.4557
    1MPD2    H314399   2.451   0.134  14.817 -0.2237 -0.1433  1.6768
    1MPD2     N14400   2.188   4.499  14.735  0.1690  0.3144 -0.6701
    1MPD2    H514401   2.091   4.469  14.735  0.2571 -0.0114  1.2615
    1MPD2    N114402   2.012   0.192  14.890 -0.0400 -0.0158  0.0017
    1MPD2    H714403   2.030   0.288  14.918  2.3944 -0.2394 -0.8255
    2TMC3    C114404   1.778   0.238  14.922  0.2721  0.0666  0.1185
    2TMC3    C214405   1.665   0.164  14.947  0.0949 -0.3721  0.2893
    2TMC3    C314406   1.544   0.197  14.899  0.7220 -0.0094  0.2606
    2TMC3    C414407   1.767   0.359  14.851 -0.3165 -0.0230 -0.2122
    2TMC3    C514408   1.634   0.392  14.816  0.6295  0.0101 -0.5947
    2TMC3    C614409   1.522   0.315  14.834  0.1903  0.3467  0.7273
    2TMC3     C14410   1.882   0.151  14.870  0.3654  0.5318  0.0740
    2TMC3     O14411   1.824   0.048  14.824 -0.0232  0.6377  0.1892
    2TMC3     H14412   1.683   0.074  15.005 -1.6486 -1.8709 -1.5228
    2TMC3    H114413   1.851   0.419  14.818  1.6330 -2.0524  1.0441
    2TMC3    H214414   1.423   0.346  14.801  0.2024  0.6514  0.9804
    2TMC3    C714415   1.606   0.505  14.728 -0.3424  0.6869 -0.3552
    2TMC3    C814416   1.464   0.077  14.849 -0.2211 -0.0182  0.1578
    2TMC3    O114417   1.491   0.521  14.703 -0.0291 -0.4958 -0.6197
    2TMC3    O214418   1.349   0.087  14.801 -0.2198 -0.3602 -0.0649
    3TCq1    O114419   2.088   1.375  14.062 -0.0787  0.5701 -0.0970
    3TCq1    C114420   2.201   1.340  14.132  1.0634 -0.4467  0.6965
    3TCq1    O214421   2.300   1.407  14.141 -0.2779 -0.6147 -0.0898
    3TCq1    C214422   2.180   1.228  14.218  0.4678  0.5059  0.6176
    3TCq1    C314423   2.258   1.229  14.327 -0.1206 -0.5430  0.3616
    3TCq1    C414424   2.248   1.117  14.401  0.5814 -0.1401  0.4712
    3TCq1    C514425   2.160   1.017  14.377 -0.0249 -0.0182  0.0563
    3TCq1    C614426   2.078   1.027  14.269 -0.3214 -0.0420  0.1722
    3TCq1    C714427   2.095   1.129  14.178 -0.1277 -0.7464  0.5197
    3TCq1    C814428   1.948   0.953  14.266  0.2870  0.6260 -0.5240
    3TCq1    O414429   1.863   0.985  14.179  0.1504 -0.2382  0.3453
    3TCq1    C914430   2.344   1.118  14.507  0.9948 -0.3351  0.1434
    3TCq1    O514431   2.330   1.037  14.595 -0.1321  0.3388  0.0213
    3TCq1    O614432   2.458   1.184  14.497 -0.3824  0.6230  0.4545
    3TCq1    H114433   2.014   1.315  14.085 -0.6177  0.8384 -1.1628
    3TCq1    H214434   2.328   1.310  14.344  2.5241 -2.7984  0.1170
    3TCq1    H314435   2.160   0.946  14.459  2.4642  1.1474  1.0411
    3TCq1    H414436   2.056   1.131  14.077  0.0727  0.8420  0.4719
    4MPD2     C14437   1.698   0.814  14.343  0.3329  0.1727 -0.6080
    4MPD2    C114438   1.818   0.800  14.405  0.4254  0.1966 -0.2352
    4MPD2    C214439   1.826   0.706  14.509  0.1716  0.3438 -0.0405
    4MPD2    C314440   1.714   0.641  14.551  0.1423 -0.5336 -0.3751
    4MPD2    C414441   1.597   0.651  14.480 -0.1850  0.4721  1.0240
    4MPD2    C514442   1.587   0.739  14.376 -0.4746 -0.3971 -0.4000
    4MPD2     H14443   1.918   0.699  14.567 -1.1542  1.0665  2.1440
    4MPD2    H114444   1.514   0.582  14.492  0.4902 -0.5214 -0.0570
    4MPD2    H214445   1.675   0.878  14.258 -1.2213 -0.8565 -0.9685
    4MPD2    H314446   1.496   0.761  14.320  0.0272  1.0146 -0.6389
    4MPD2     N14447   1.718   0.556  14.665 -0.5280 -0.2919  0.3803
    4MPD2    H514448   1.807   0.545  14.712  0.7105  4.3490 -0.8993
    4MPD2    N114449   1.935   0.873  14.374 -0.1910 -0.3295 -0.1816
    4MPD2    H714450   2.020   0.860  14.427 -0.4609 -2.6849 -0.3279
    5TMC2    C114451   1.973   4.266  14.608  0.3385 -0.7460 -0.3834
    5TMC2    C214452   1.993   4.245  14.479  0.1641  0.6067 -0.1563
    5TMC2    C314453   2.121   4.242  14.429 -0.6880  0.1070  0.5357
    5TMC2    C414454   2.079   4.287  14.695  0.2637  0.1567  0.1162
    5TMC2    C514455   2.211   4.292  14.650  0.1850  0.2447  1.1809
    5TMC2    C614456   2.233   4.268  14.513  0.3933  0.3823  0.2315
    5TMC2     C14457   1.862   4.353  14.650 -0.3848  0.3959 -1.1693
    5TMC2     O14458   1.869   4.401  14.762 -0.1683 -0.1976  0.1191
    5TMC2     H14459   1.916   4.234  14.403 -0.2330  0.9091  0.2018
    5TMC2    H114460   2.063   4.298  14.802  0.5478  1.0192  0.0710
    5TMC2    H214461   2.334   4.268  14.474  0.3128 -0.0501  0.0239
    5TMC2    C714462   2.282   4.408  14.691 -0.1351 -0.1447  0.0206
    5TMC2    C814463   2.129   4.210  14.296  0.1139 -0.3407  0.0092
    5TMC2    O114464   2.396   4.424  14.650  0.4407  0.4115  0.3678
    5TMC2    O214465   2.114   4.091  14.273 -0.5418 -0.6733  0.2774
    5TMC2    O514466   2.222   4.297  14.239 -0.4353 -0.0853  0.3262
    5TMC2    H514467   2.224   4.384  14.282 -0.7889 -0.7523  1.6860
    6MPD2     C14468   1.411   4.579  14.659 -0.4453 -0.3817  0.4426
    6MPD2    C114469   1.530   4.615  14.712 -0.4076 -0.7865 -0.1133
    6MPD2    C214470   1.640   4.546  14.675 -0.0033  0.8295 -0.2994
    6MPD2    C314471   1.636   4.438  14.590 -0.2236  0.4529  0.5563
    6MPD2    C414472   1.518   4.402  14.536 -0.4706  0.0488  0.3872
    6MPD2    C514473   1.404   4.471  14.566 -0.1644  0.3296 -0.2972
    6MPD2     H14474   1.738   4.579  14.709  0.5398 -0.8031 -0.2389
    6MPD2    H114475   1.503   4.322  14.464 -1.6449  0.9453 -0.3678
    6MPD2    H214476   1.318   4.629  14.683 -0.3374 -0.0785  0.2253
    6MPD2    H314477   1.312   4.430  14.526 -0.9858  0.7148  1.1661
    6MPD2     N14478   1.753   4.362  14.563 -0.0402  0.2079  0.4260
    6MPD2    H514479   1.737   4.305  14.481  1.3944 -0.7179  0.8040
    6MPD2    N114480   1.553   4.720  14.807  0.4083  0.4801  0.0506
    6MPD2    H714481   1.651   0.003  14.824  0.5750 -1.3572  1.4516
  945NH3     N114482   3.045   4.451   2.848  0.7249 -0.5839  0.5222
  945NH3     H214483   3.031   4.351   2.839 -1.1660 -0.1208 -1.7131
  945NH3     H314484   3.021   4.487   2.940  0.7154  0.9192 -0.0614
  945NH3     H414485   2.964   4.480   2.793 -0.2081 -0.3525  1.9952
  946SOD     NA14486   2.676   3.664  14.817  0.3226  0.1948  0.6072
  947SOD     NA14487   4.585   0.142  13.517  0.2051 -0.2578  0.3320
  948SOD     NA14488   2.102   4.135  11.311 -0.1460  0.1856 -0.1841
  949SOD     NA14489   4.084   2.817  10.612  0.1907  0.2756 -0.2975
  950SOD     NA14490   1.451   2.333   9.783  0.1916  1.1297  0.1930
  951SOD     NA14491   1.628   2.976  16.786 -0.1741  0.3098  0.4456
  952SOD     NA14492   4.364   0.851   5.672 -0.7814 -0.5300 -0.9222
  953SOD     NA14493   3.205   2.589  16.763 -0.3624 -0.2561  0.2196
  954SOL     OW14494   0.059   0.573  14.573 -0.2030  0.0834  0.5435
  954SOL    HW114495   0.103   0.645  14.616 -1.8053  0.1924  1.9836
  954SOL    HW214496   4.705   0.587  14.586 -0.6516 -2.6577  0.3913
  955SOL     OW14497   1.139   1.966   6.329 -0.0995  0.2057  0.3755
  955SOL    HW114498   1.117   1.916   6.408 -1.8759  1.0918  0.4341
  955SOL    HW214499   1.229   1.996   6.346 -0.4176  0.9489  0.7578
  956SOL     OW14500   3.776   2.482   8.847 -0.3174 -0.2584 -0.0645
  956SOL    HW114501   3.748   2.416   8.910 -0.9103 -0.5050 -0.5851
  956SOL    HW214502   3.770   2.435   8.764  0.7615 -1.2232  0.4052
  957SOL     OW14503   2.375   1.555   4.004  0.0829  0.2654  0.1986
  957SOL    HW114504   2.410   1.491   3.941  0.3590 -0.7016  1.3226
  957SOL    HW214505   2.375   1.627   3.941 -1.6366  0.0170 -0.0887
  958SOL     OW14506   0.251   4.012   9.727  0.1178 -0.4528 -0.7304
  958SOL    HW114507   0.235   4.076   9.658 -1.9886  1.2895  1.3515
  958SOL    HW214508   0.195   3.944   9.689 -2.9227  1.1489  0.8792
  959SOL     OW14509   2.907   3.874   8.598  0.0599  0.0773  0.4810
  959SOL    HW114510   2.871   3.843   8.682 -0.0320 -1.6666 -0.2027
  959SOL    HW214511   2.847   3.833   8.537  2.0244 -1.8088 -0.1826
  960SOL     OW14512   2.237   2.481   6.493  0.1749  0.1891  0.7453
  960SOL    HW114513   2.332   2.487   6.501  0.1105 -0.1479  1.7379
  960SOL    HW214514   2.225   2.409   6.554  0.2788 -0.2247  0.2813
  961SOL     OW14515   0.745   0.313   7.494  0.8476  0.2958  0.1377
  961SOL    HW114516   0.740   0.360   7.411  1.0688  0.2728  0.1138
  961SOL    HW214517   0.681   0.368   7.540 -1.1067 -1.3005 -0.6309
  962SOL     OW14518   1.823   0.346  12.295 -0.2428  0.3949  0.2038
  962SOL    HW114519   1.748   0.288  12.284  1.7402 -2.3401  0.8820
  962SOL    HW214520   1.782   0.427  12.266  2.2815  1.5518 -0.0930
  963SOL     OW14521   1.470   2.879   4.832 -0.2059  0.1208 -0.1519
  963SOL    HW114522   1.462   2.809   4.897 -0.3960  0.2887  0.0072
  963SOL    HW214523   1.562   2.902   4.822  0.5162 -2.8867 -0.1178
  964SOL     OW14524   1.047   2.153   2.509  0.5771 -0.3265 -0.0012
  964SOL    HW114525   1.044   2.222   2.443  2.0062 -0.1730  0.1052
  964SOL    HW214526   1.135   2.116   2.500  0.5473 -0.9685  2.2331
  965SOL     OW14527   1.807   0.674   9.859  0.1895 -0.0734 -0.2031
  965SOL    HW114528   1.902   0.676   9.871  0.5497 -3.8913 -2.4331
  965SOL    HW214529   1.773   0.748   9.908  1.9254  1.0844 -0.7440
  966SOL     OW14530   0.536   1.528   5.223 -0.0498  0.1834  0.5271
  966SOL    HW114531   0.610   1.551   5.279  0.2242  0.2040  0.1563
  966SOL    HW214532   0.455   1.535   5.274  1.0189  2.8584  1.8497
  967SOL     OW14533   2.451   4.167   2.451 -0.0034 -0.0918  0.7285
  967SOL    HW114534   2.514   4.096   2.437  0.1959  0.2672 -0.1458
  967SOL    HW214535   2.470   4.214   2.370  2.5601  0.2119  1.5132
  968SOL     OW14536   1.445   0.015  12.091 -0.4846  0.4359 -0.6676
  968SOL    HW114537   1.427   4.667  12.125 -0.3318 -0.0300 -1.7660
  968SOL    HW214538   1.484   0.006  12.004 -1.1970  2.2045 -1.1719
  969SOL     OW14539   1.135   0.417   8.328 -0.4191 -0.5368 -0.6712
  969SOL    HW114540   1.210   0.453   8.280 -1.5164 -0.1839 -2.1196
  969SOL    HW214541   1.125   0.332   8.284 -1.0370 -0.9019  0.1784
  970SOL     OW14542   3.263   4.691   5.792 -0.2682 -0.0720 -0.2698
  970SOL    HW114543   3.194   4.698   5.857  1.4944  2.2708  1.3406
  970SOL    HW214544   3.217   4.630   5.734  0.2597 -1.2212  0.5180
  971SOL     OW14545   2.005   0.972   8.577  0.4041 -0.3421  0.8047
  971SOL    HW114546   1.936   1.007   8.634 -1.1105  0.9077 -1.7482
  971SOL    HW214547   2.062   0.931   8.641 -1.9201 -2.2576  1.6566
  972SOL     OW14548   1.250   4.533  15.588 -0.1169 -0.1468 -0.3473
  972SOL    HW114549   1.297   4.604  15.545  1.8068 -1.1107  0.1786
  972SOL    HW214550   1.169   4.532  15.537 -1.4947 -1.6607  1.8650
  973SOL     OW14551   3.156   1.019   4.406  0.2294  0.3888 -0.4180
  973SOL    HW114552   3.080   1.065   4.443  0.1823  0.5538 -0.7144
  973SOL    HW214553   3.118   0.931   4.400  2.3945 -0.7029  2.2489
  974SOL     OW14554   2.078   0.211  12.146 -0.1854  0.5871  0.3566
  974SOL    HW114555   1.992   0.230  12.183 -0.9340 -0.1035 -1.0075
  974SOL    HW214556   2.137   0.263  12.200 -0.4575  2.9348 -1.5850
  975SOL     OW14557   3.455   0.189   4.728  0.0229  0.4076  0.1520
  975SOL    HW114558   3.546   0.201   4.702 -0.2422  2.3163  0.1085
  975SOL    HW214559   3.410   0.251   4.671 -0.6166 -0.0728  0.1235
  976SOL     OW14560   2.408   4.729  10.752 -0.6081  0.0092  0.8123
  976SOL    HW114561   2.402   4.717  10.657 -1.6102  1.6959  0.6743
  976SOL    HW214562   2.315   4.730  10.777 -1.1140  0.6250 -1.0692
  977SOL     OW14563   3.919   1.191   8.133  0.0512  0.7414  0.2212
  977SOL    HW114564   3.975   1.265   8.110 -1.2134  0.8481 -2.5701
  977SOL    HW214565   3.989   1.128   8.146  0.2671  1.0790  0.6931
  978SOL     OW14566   1.102   3.005  12.420 -0.7344  0.1447  0.5981
  978SOL    HW114567   1.074   3.074  12.361  1.6140 -0.8439 -1.6508
  978SOL    HW214568   1.134   3.062  12.490 -0.7898  2.7097 -1.4560
  979SOL     OW14569   4.302   3.791   8.836  0.2678 -0.1393 -0.1096
  979SOL    HW114570   4.212   3.819   8.851  0.2333 -0.1171 -0.3443
  979SOL    HW214571   4.299   3.766   8.743 -0.0666 -1.7178  0.3318
  980SOL     OW14572   1.143   2.799   4.902 -0.3935 -0.1600 -0.2245
  980SOL    HW114573   1.184   2.728   4.853 -1.5797 -1.2670  0.3692
  980SOL    HW214574   1.056   2.768   4.926 -0.4504  0.4059  0.2975
  981SOL     OW14575   1.323   1.936  16.174  0.3167  0.1190 -0.1124
  981SOL    HW114576   1.361   1.867  16.227 -1.6846 -0.9575 -0.0756
  981SOL    HW214577   1.270   1.887  16.111  0.1623  0.1736 -0.0275
  982SOL     OW14578   3.752   4.157   6.336 -0.6904  0.1793 -0.0049
  982SOL    HW114579   3.846   4.157   6.319 -0.3172 -0.5460  2.0081
  982SOL    HW214580   3.738   4.236   6.388 -0.7592 -0.2948  0.7032
  983SOL     OW14581   3.062   2.473   5.600  0.4350 -0.5434  0.3174
  983SOL    HW114582   3.040   2.566   5.601  1.9990 -0.2009  3.1313
  983SOL    HW214583   3.094   2.479   5.510 -1.5464  1.2961 -0.2743
  984SOL     OW14584   0.208   2.642   3.110  0.4770  0.5184  0.6254
  984SOL    HW114585   0.219   2.588   3.188 -0.9698  0.5571  0.8503
  984SOL    HW214586   0.300   2.663   3.091  0.4973 -1.1360 -1.0902
  985SOL     OW14587   1.554   0.916  14.652 -0.4968 -0.1799  0.1480
  985SOL    HW114588   1.618   0.857  14.612 -1.7858 -1.8363  0.5511
  985SOL    HW214589   1.594   0.997  14.621 -2.0000 -0.4280 -2.4358
  986SOL     OW14590   4.277   4.574  17.108 -0.2852 -0.1669 -0.2192
  986SOL    HW114591   4.210   4.642  17.108 -2.2138 -2.0737  0.7696
  986SOL    HW214592   4.328   4.604  17.183  1.5023 -1.3117 -0.9688
  987SOL     OW14593   4.474   3.994  16.400 -0.4971  0.4532 -0.3167
  987SOL    HW114594   4.411   4.014  16.331 -1.8133 -1.9309  0.2031
  987SOL    HW214595   4.471   4.068  16.461 -1.3589 -0.0847  0.2887
  988SOL     OW14596   3.754   2.201   2.977  0.2732  0.5049 -0.3399
  988SOL    HW114597   3.670   2.158   2.996  0.5468  1.3147  2.6373
  988SOL    HW214598   3.723   2.272   2.921  1.3647  0.6787 -0.7187
  989SOL     OW14599   4.134   4.111   3.399  0.7035  0.4907 -0.5871
  989SOL    HW114600   4.133   4.085   3.491  1.0673  1.2655 -0.3663
  989SOL    HW214601   4.204   4.056   3.366 -1.9786 -2.7805 -0.7693
  990SOL     OW14602   2.411   0.973   0.488 -0.1539  0.6097  0.2243
  990SOL    HW114603   2.405   1.057   0.442 -0.5839 -0.1426 -1.0791
  990SOL    HW214604   2.348   0.928   0.432 -1.2581  0.5940  1.4841
  991SOL     OW14605   3.872   4.116   5.504 -0.2021 -0.3307  0.6416
  991SOL    HW114606   3.837   4.044   5.555 -0.0085  0.4396  1.8475
  991SOL    HW214607   3.941   4.159   5.554 -1.4474  1.0298  1.2031
  992SOL     OW14608   2.132   4.195   0.573 -0.1527 -0.0555  0.2470
  992SOL    HW114609   2.180   4.266   0.530  2.3319 -1.6271  0.4263
  992SOL    HW214610   2.101   4.150   0.495  1.0426 -2.4771  1.1690
  993SOL     OW14611   4.703   1.566   3.498  0.0759 -0.0700  0.2884
  993SOL    HW114612   4.712   1.471   3.502 -1.8165 -0.2420  0.0532
  993SOL    HW214613   0.022   1.595   3.428  0.3347  1.6971  1.2326
  994SOL     OW14614   1.107   4.471   5.016 -0.2007 -0.5061 -0.3284
  994SOL    HW114615   1.106   4.437   4.927  0.0428 -1.0685 -0.1208
  994SOL    HW214616   1.014   4.490   5.032 -0.0763  0.2396 -0.5029
  995SOL     OW14617   2.768   3.790   4.611 -0.6908  0.5751 -0.7416
  995SOL    HW114618   2.842   3.759   4.663 -1.5565  0.9259  0.7101
  995SOL    HW214619   2.768   3.885   4.624 -1.5959  0.5998 -0.9425
  996SOL     OW14620   4.079   0.661  13.666 -0.0672  0.0832 -1.1258
  996SOL    HW114621   4.080   0.622  13.579  1.0557 -1.7140 -0.3053
  996SOL    HW214622   4.062   0.750  13.636  0.9177  1.0589  1.1938
  997SOL     OW14623   0.537   1.678   2.859  0.0503 -0.3253 -0.2435
  997SOL    HW114624   0.452   1.636   2.861  0.2287 -0.6809 -0.1652
  997SOL    HW214625   0.551   1.657   2.767  0.2949  3.4162 -1.0910
  998SOL     OW14626   0.211   4.675  13.613 -0.5268 -0.6099  1.0480
  998SOL    HW114627   0.269   4.664  13.537 -1.6765  1.1176 -0.0766
  998SOL    HW214628   0.242   0.022  13.641 -0.6814 -0.6252  1.2651
  999SOL     OW14629   4.055   4.247  10.025 -0.0191  0.1581 -0.5377
  999SOL    HW114630   3.988   4.235   9.958 -0.0876  0.7265 -0.5649
  999SOL    HW214631   4.111   4.306   9.974 -2.1499  0.3780 -2.5807
 1000SOL     OW14632   3.975   0.163   6.721 -0.0655 -0.2831  0.2335
 1000SOL    HW114633   3.947   0.139   6.809  2.3245  1.6434  1.5152
 1000SOL    HW214634   4.046   0.222   6.746 -0.0717 -0.4013  0.5337
 1001SOL     OW14635   4.477   0.784  11.875 -0.2925  0.0562 -1.1164
 1001SOL    HW114636   4.557   0.735  11.891 -0.3005  1.4867  3.3605
 1001SOL    HW214637   4.513   0.846  11.812  2.5476  1.3025  1.7075
 1002SOL     OW14638   1.299   3.669   4.906  0.1459 -0.3677  0.0330
 1002SOL    HW114639   1.357   3.715   4.966 -0.5867  1.5667 -0.7142
 1002SOL    HW214640   1.326   3.581   4.931 -2.6830 -1.8335 -2.0536
 1003SOL     OW14641   4.356   0.159   8.524  0.1678  0.0450  0.3706
 1003SOL    HW114642   4.279   0.214   8.542  1.1656  2.2346 -1.9939
 1003SOL    HW214643   4.393   0.192   8.442 -1.1494  1.1577  0.2214
 1004SOL     OW14644   0.454   3.305  10.072  0.3182 -0.4677  0.1251
 1004SOL    HW114645   0.409   3.223  10.088 -0.6562  0.1474  0.5071
 1004SOL    HW214646   0.548   3.289  10.082  0.8678  1.7104 -1.3826
 1005SOL     OW14647   3.750   2.653   7.867  0.7355 -0.2341 -0.3499
 1005SOL    HW114648   3.751   2.748   7.853 -0.9116 -0.2018 -0.2785
 1005SOL    HW214649   3.807   2.607   7.806 -1.7588 -2.1711 -1.1850
 1006SOL     OW14650   4.153   3.349  17.415  0.0944  0.4635  0.7429
 1006SOL    HW114651   4.245   3.338  17.437 -0.2840  0.2847  2.2085
 1006SOL    HW214652   4.134   3.425  17.470  0.5367  0.2608  1.1834
 1007SOL     OW14653   1.804   1.724   7.529  0.0028 -0.0040 -0.2708
 1007SOL    HW114654   1.894   1.736   7.561 -0.9196  0.8693  1.9708
 1007SOL    HW214655   1.751   1.752   7.603 -0.7181  2.2189 -1.6353
 1008SOL     OW14656   2.851   3.153   3.338  0.1144  0.0125  0.2474
 1008SOL    HW114657   2.940   3.187   3.337  0.6947 -1.5045 -0.2357
 1008SOL    HW214658   2.847   3.124   3.429 -0.6246 -0.7009 -0.0017
 1009SOL     OW14659   0.340   4.364   7.253  0.4691 -0.6332  0.5034
 1009SOL    HW114660   0.373   4.336   7.168 -1.3304 -0.4057 -0.2559
 1009SOL    HW214661   0.264   4.309   7.267 -1.5920  2.1663  0.3586
 1010SOL     OW14662   2.473   3.661   3.841 -0.4193 -0.0006  0.2763
 1010SOL    HW114663   2.547   3.609   3.809 -1.0844  0.0349 -1.3333
 1010SOL    HW214664   2.508   3.743   3.877 -1.7783  0.5463  0.3369
 1011SOL     OW14665   1.853   3.506  15.836 -0.0619  0.1423  0.1151
 1011SOL    HW114666   1.859   3.567  15.763 -0.7357 -0.8717 -0.7914
 1011SOL    HW214667   1.780   3.546  15.883 -0.1954  0.1862 -0.1316
 1012SOL     OW14668   0.232   2.362   6.310 -0.1548 -0.0109  0.1142
 1012SOL    HW114669   0.238   2.421   6.235 -3.0080  0.6909  0.4480
 1012SOL    HW214670   0.310   2.307   6.300 -0.8103 -1.1780  1.4038
 1013SOL     OW14671   2.979   0.557   1.650  0.0081  0.2332  0.0671
 1013SOL    HW114672   2.993   0.480   1.705  0.0554  1.2484  1.4532
 1013SOL    HW214673   2.902   0.528   1.600  0.3614 -1.2387  0.3806
 1014SOL     OW14674   0.778   1.685   4.006  0.1229 -0.8343  0.2906
 1014SOL    HW114675   0.769   1.778   4.026 -0.4695 -1.3736  2.5523
 1014SOL    HW214676   0.686   1.658   3.995  0.1518 -0.9992  0.4626
 1015SOL     OW14677   0.721   1.789   3.706  0.1096 -0.3703  0.0982
 1015SOL    HW114678   0.804   1.770   3.748  0.9797  1.4376 -0.8212
 1015SOL    HW214679   0.728   1.717   3.643  0.3980  0.1841 -0.5052
 1016SOL     OW14680   4.161   4.706   3.148  0.2975 -0.0560  0.9071
 1016SOL    HW114681   4.182   4.616   3.175 -0.8198  0.1705  2.5532
 1016SOL    HW214682   4.243   0.012   3.165  1.7758 -2.9105  1.5881
 1017SOL     OW14683   1.739   3.275   2.889  0.1619  0.0516  0.1559
 1017SOL    HW114684   1.792   3.312   2.818 -0.0306  0.3847  0.1816
 1017SOL    HW214685   1.743   3.348   2.951 -0.4545 -1.0497  1.4659
 1018SOL     OW14686   0.262   1.951   2.811 -0.0443  0.2741 -0.2411
 1018SOL    HW114687   0.229   1.883   2.752 -1.1550  0.7157 -0.1231
 1018SOL    HW214688   0.309   2.010   2.752  0.5631 -0.0447 -0.0894
 1019SOL     OW14689   3.749   0.502  13.112  0.0771  0.7197  0.0892
 1019SOL    HW114690   3.784   0.498  13.023 -0.0462  2.5480 -0.0464
 1019SOL    HW214691   3.767   0.592  13.141  1.3143  0.5534 -0.1658
 1020SOL     OW14692   1.944   3.525   3.950 -0.6717  0.1158  0.1017
 1020SOL    HW114693   1.951   3.617   3.922 -2.7779  0.3189  0.2818
 1020SOL    HW214694   1.978   3.533   4.039  1.8371 -2.2884 -0.6630
 1021SOL     OW14695   0.654   0.327   6.467 -0.1997  0.3089  0.2715
 1021SOL    HW114696   0.575   0.273   6.462 -0.4050  0.5996  0.3922
 1021SOL    HW214697   0.625   0.377   6.543  2.8213  3.1486 -0.4189
 1022SOL     OW14698   2.815   0.743   0.739  0.5083 -0.2672 -0.3394
 1022SOL    HW114699   2.761   0.673   0.777  1.2866  0.3033  1.8054
 1022SOL    HW214700   2.841   0.782   0.822  0.8610 -0.3859 -0.3963
 1023SOL     OW14701   0.856   2.047   9.725  0.4266 -0.4193  0.0750
 1023SOL    HW114702   0.942   2.053   9.766  0.0543  1.7407  0.5295
 1023SOL    HW214703   0.826   2.138   9.734 -4.0570 -1.6536 -2.4809
 1024SOL     OW14704   0.246   3.453  17.545  0.1029 -0.5325  0.1754
 1024SOL    HW114705   0.170   3.470  17.600 -1.5997 -2.3603 -1.6390
 1024SOL    HW214706   0.257   3.546  17.525  1.0186 -0.5260  0.6927
 1025SOL     OW14707   0.050   3.860   7.755  0.1494 -0.4954 -0.2102
 1025SOL    HW114708   0.054   3.931   7.818 -0.1977 -0.4077 -0.2866
 1025SOL    HW214709   4.732   3.900   7.690 -0.0578 -1.4093 -0.5927
 1026SOL     OW14710   2.195   3.985   1.224 -0.2575  0.0990  0.2290
 1026SOL    HW114711   2.207   3.966   1.131 -1.5881 -2.1443  0.5132
 1026SOL    HW214712   2.155   4.071   1.213  2.6034  1.3631 -0.2824
 1027SOL     OW14713   1.858   1.644  16.048  0.6376 -0.3368  0.0261
 1027SOL    HW114714   1.941   1.681  16.015  0.7922  0.1105  0.9121
 1027SOL    HW214715   1.897   1.599  16.123  0.0866  1.6652  1.5137
 1028SOL     OW14716   2.347   0.055  15.881 -0.4528 -0.4662 -0.1613
 1028SOL    HW114717   2.371   4.725  15.820  1.9345  0.6187 -0.5057
 1028SOL    HW214718   2.372   0.122  15.817  0.4666 -1.5218 -0.9173
 1029SOL     OW14719   0.768   4.053   2.506 -0.1951  0.2877  0.0492
 1029SOL    HW114720   0.733   4.139   2.532 -0.5671 -0.5132  2.1776
 1029SOL    HW214721   0.800   4.023   2.591 -0.6215  0.6328  0.3331
 1030SOL     OW14722   4.611   1.454  12.623 -0.7239  0.4445 -0.2426
 1030SOL    HW114723   4.658   1.536  12.635  1.8847 -1.0705 -0.1504
 1030SOL    HW214724   4.684   1.398  12.596  0.3441  2.8837 -2.3900
 1031SOL     OW14725   3.542   1.656   5.425  1.3498  0.0633  0.3042
 1031SOL    HW114726   3.597   1.585   5.459  0.5271 -0.5588  0.3362
 1031SOL    HW214727   3.532   1.618   5.338  0.8966  0.7367  0.0684
 1032SOL     OW14728   2.512   0.890   9.201 -0.4123 -0.1845 -0.0280
 1032SOL    HW114729   2.606   0.888   9.182 -0.4080  0.3651 -0.0652
 1032SOL    HW214730   2.505   0.970   9.255  1.2264 -2.1544  3.1379
 1033SOL     OW14731   4.063   0.912   2.044 -0.0723  0.0195  0.6895
 1033SOL    HW114732   4.023   0.832   2.079  0.4740 -0.8936 -0.7727
 1033SOL    HW214733   4.149   0.903   2.086  0.2709 -1.3499 -0.3149
 1034SOL     OW14734   2.304   2.082   5.238 -0.1241  0.3235 -0.1613
 1034SOL    HW114735   2.306   2.113   5.329  1.8260 -0.1894 -0.0133
 1034SOL    HW214736   2.276   2.153   5.182  3.0943  1.6731 -0.0256
 1035SOL     OW14737   2.635   2.923   0.302  0.2105  0.5594 -0.2726
 1035SOL    HW114738   2.550   2.879   0.302 -0.0058  0.9900  0.6780
 1035SOL    HW214739   2.658   2.927   0.394  0.7398 -1.9567 -0.2905
 1036SOL     OW14740   1.903   3.727   2.536  0.6442 -0.1618 -0.0889
 1036SOL    HW114741   1.940   3.657   2.482  1.8938  0.9224 -0.6232
 1036SOL    HW214742   1.810   3.733   2.512  0.7100 -1.0773 -0.5580
 1037SOL     OW14743   0.919   0.044  16.225  0.5773 -0.0918  0.2653
 1037SOL    HW114744   0.980   0.062  16.154 -0.4476 -0.3724 -0.6717
 1037SOL    HW214745   0.917   0.119  16.285  0.5657  0.1899 -0.0873
 1038SOL     OW14746   4.578   3.761   5.281 -0.1807  0.1167  0.6815
 1038SOL    HW114747   4.489   3.726   5.285  0.4044 -1.4800 -0.0812
 1038SOL    HW214748   4.612   3.704   5.212 -0.4827  0.3717  0.3249
 1039SOL     OW14749   4.522   4.420  10.710 -0.0959  0.3617 -0.0049
 1039SOL    HW114750   4.537   4.341  10.657  0.0088 -1.6351  2.9843
 1039SOL    HW214751   4.578   4.404  10.786 -0.1015  0.1769 -0.0378
 1040SOL     OW14752   3.542   2.181   2.466 -0.6330 -0.3912  0.2504
 1040SOL    HW114753   3.593   2.260   2.483 -1.2082 -0.0114  0.2123
 1040SOL    HW214754   3.614   2.117   2.470  2.0019  2.4795 -0.7655
 1041SOL     OW14755   3.891   0.402   7.119 -0.1520 -0.0369 -0.6915
 1041SOL    HW114756   3.827   0.365   7.179 -1.3364  1.6857 -0.9235
 1041SOL    HW214757   3.963   0.383   7.180  0.2249  0.4236 -0.9998
 1042SOL     OW14758   2.108   2.587  17.501 -0.1961  0.1457  0.6722
 1042SOL    HW114759   2.056   2.635  17.565 -0.9393 -0.9489  0.8677
 1042SOL    HW214760   2.171   2.657  17.483 -2.1627  1.5503 -0.7400
 1043SOL     OW14761   4.710   1.480   4.672 -0.4737 -0.0161  0.7954
 1043SOL    HW114762   4.661   1.533   4.735 -0.6693 -0.6645  1.1870
 1043SOL    HW214763   4.739   1.548   4.611  1.0718 -0.6739  0.8007
 1044SOL     OW14764   1.317   1.851  14.709  0.2660 -0.3028 -0.6560
 1044SOL    HW114765   1.312   1.768  14.661 -1.4945 -0.5908  0.0180
 1044SOL    HW214766   1.300   1.834  14.801  1.3298  2.2434 -0.0061
 1045SOL     OW14767   3.963   2.445   8.398  0.2144 -0.1230  0.5536
 1045SOL    HW114768   3.938   2.536   8.410  0.0380  0.1872 -2.3869
 1045SOL    HW214769   4.023   2.420   8.469 -1.8438  0.5297  2.5028
 1046SOL     OW14770   4.542   2.306   1.864  0.7044  0.3560  0.4363
 1046SOL    HW114771   4.467   2.364   1.850  1.3140  1.4322  1.6454
 1046SOL    HW214772   4.594   2.321   1.785  0.6301  1.8110  0.6726
 1047SOL     OW14773   3.311   0.919   5.575 -0.2325  0.1957 -0.0442
 1047SOL    HW114774   3.247   0.849   5.585 -0.7060  0.7264  0.6895
 1047SOL    HW214775   3.348   0.913   5.663 -0.5250  2.2626  0.2195
 1048SOL     OW14776   1.434   3.070   8.051 -0.4093  0.2129  0.2064
 1048SOL    HW114777   1.491   3.075   8.127  0.8873  1.3813 -0.8475
 1048SOL    HW214778   1.410   3.163   8.048  1.3344  0.6195 -0.8364
 1049SOL     OW14779   3.111   2.568   1.855 -0.7959  0.2475  0.1561
 1049SOL    HW114780   3.085   2.603   1.940 -2.2742 -3.1795  1.1339
 1049SOL    HW214781   3.203   2.549   1.874 -0.9484 -0.4348  0.2224
 1050SOL     OW14782   0.187   0.718  12.588  0.0714 -0.1035 -0.6342
 1050SOL    HW114783   0.118   0.705  12.653 -1.4708  0.8201 -2.0958
 1050SOL    HW214784   0.245   0.784  12.627  0.7253 -0.6481 -0.6675
 1051SOL     OW14785   4.449   3.287   0.313  0.2550  0.2675  0.9685
 1051SOL    HW114786   4.416   3.198   0.322 -2.2398  1.2196  1.2733
 1051SOL    HW214787   4.531   3.280   0.264 -0.8970  0.8293 -1.0264
 1052SOL     OW14788   1.172   4.315   9.176 -0.1170  0.0583 -0.1141
 1052SOL    HW114789   1.215   4.301   9.092  0.8343 -0.3792  0.4466
 1052SOL    HW214790   1.103   4.378   9.155 -1.6568 -1.2203  1.0627
 1053SOL     OW14791   4.538   4.480   6.918  0.1531  0.2187  0.2968
 1053SOL    HW114792   4.627   4.446   6.907 -0.2435 -1.3397  2.0296
 1053SOL    HW214793   4.494   4.436   6.845 -0.2404  1.8508 -0.4508
 1054SOL     OW14794   0.937   4.167   4.053  0.1275 -0.4567  0.2457
 1054SOL    HW114795   1.010   4.170   4.114  0.0227 -1.4783  0.4204
 1054SOL    HW214796   0.925   4.260   4.037  0.6261  0.0138  2.5704
 1055SOL     OW14797   1.103   0.047   4.624  0.0769  0.1142  0.3106
 1055SOL    HW114798   1.057   0.127   4.650 -0.7108 -0.2953  0.1614
 1055SOL    HW214799   1.033   4.722   4.629  0.4081 -0.4086 -1.6509
 1056SOL     OW14800   1.381   1.852   2.701  0.1722  0.0409 -0.1203
 1056SOL    HW114801   1.400   1.800   2.779 -0.1961  0.0424 -0.0260
 1056SOL    HW214802   1.461   1.839   2.651 -0.5053  1.1821 -1.4972
 1057SOL     OW14803   3.691   3.880   2.349  0.0308  0.2111 -0.0973
 1057SOL    HW114804   3.711   3.811   2.413  0.0342 -1.2651 -1.7073
 1057SOL    HW214805   3.598   3.863   2.332  0.4017 -0.7381 -1.1202
 1058SOL     OW14806   2.946   1.394  12.542 -0.5008  0.2934  0.1576
 1058SOL    HW114807   2.969   1.444  12.620  0.1455 -0.9904  0.7974
 1058SOL    HW214808   2.992   1.310  12.549 -1.4878 -0.3305 -0.8912
 1059SOL     OW14809   2.392   0.867   4.394  0.3249 -0.4714  0.3803
 1059SOL    HW114810   2.453   0.939   4.375 -0.3756 -0.2911 -1.2488
 1059SOL    HW214811   2.310   0.905   4.427  1.0347  0.6058  0.9022
 1060SOL     OW14812   0.429   3.992   6.189  0.6358 -0.4021  0.2480
 1060SOL    HW114813   0.455   4.083   6.197 -0.4395  0.2139 -3.0333
 1060SOL    HW214814   0.514   3.955   6.165 -0.1738 -0.8984 -1.8673
 1061SOL     OW14815   2.010   4.689   2.714  0.0466 -0.9572  0.0294
 1061SOL    HW114816   2.024   4.594   2.717  0.4839 -0.9182 -0.6906
 1061SOL    HW214817   1.984   4.705   2.623  2.1962 -1.0840 -0.6164
 1062SOL     OW14818   4.601   3.783   7.077  0.7992 -0.5573 -0.2992
 1062SOL    HW114819   4.665   3.735   7.026  0.8624  1.0186 -1.7007
 1062SOL    HW214820   4.524   3.731   7.054 -1.0201  1.0366  2.0751
 1063SOL     OW14821   3.332   4.415   7.455 -0.0193  0.4010 -0.1379
 1063SOL    HW114822   3.308   4.446   7.368 -0.2802 -1.2924 -0.6720
 1063SOL    HW214823   3.254   4.365   7.480  0.0724  0.3813  0.1084
 1064SOL     OW14824   1.454   0.826   9.469  0.8681 -0.1949  0.4444
 1064SOL    HW114825   1.531   0.780   9.501  0.6801 -0.2175  0.8652
 1064SOL    HW214826   1.402   0.810   9.548 -1.6988  0.2313 -1.1281
 1065SOL     OW14827   3.452   3.405   7.288  0.4099 -0.2964  0.4003
 1065SOL    HW114828   3.534   3.388   7.241  0.1648  1.7579 -0.7292
 1065SOL    HW214829   3.468   3.404   7.383  1.1435 -0.1930  0.2750
 1066SOL     OW14830   3.586   2.294   5.365 -0.0308  0.3377  0.2009
 1066SOL    HW114831   3.673   2.325   5.337  0.7642 -0.1373  2.1158
 1066SOL    HW214832   3.611   2.224   5.426  0.0992 -1.2413 -1.6545
 1067SOL     OW14833   0.235   3.621   3.514 -0.7738 -1.1243 -0.1124
 1067SOL    HW114834   0.220   3.548   3.575  1.0725 -1.0756  0.3898
 1067SOL    HW214835   0.231   3.572   3.432  0.9736  0.3154 -1.0469
 1068SOL     OW14836   3.315   4.199   5.872 -0.3035  0.2803  0.3670
 1068SOL    HW114837   3.354   4.112   5.879 -0.4491  0.3028  1.3694
 1068SOL    HW214838   3.357   4.241   5.947  1.9249 -1.4788  0.1251
 1069SOL     OW14839   1.118   0.006   5.279  0.1220 -0.3407  0.0647
 1069SOL    HW114840   1.160   0.030   5.362 -0.8411  1.9948 -0.1062
 1069SOL    HW214841   1.185   4.693   5.237 -0.7857 -0.8549 -0.7461
 1070SOL     OW14842   3.718   1.542   2.575  0.4510  0.1712  0.2921
 1070SOL    HW114843   3.702   1.632   2.605 -4.1671  0.6125 -3.5189
 1070SOL    HW214844   3.651   1.491   2.619  1.2132 -2.2346 -1.3265
 1071SOL     OW14845   1.989   3.436   7.234 -0.3301 -0.0660  0.2279
 1071SOL    HW114846   1.936   3.484   7.169 -1.2482 -0.0787  0.9608
 1071SOL    HW214847   1.942   3.457   7.315 -0.8382 -2.3368  0.5120
 1072SOL     OW14848   0.200   3.862   9.032 -0.0421  0.3140 -0.3731
 1072SOL    HW114849   0.145   3.815   9.094 -0.2313  1.4811  0.3511
 1072SOL    HW214850   0.136   3.881   8.963 -2.7457 -1.8164  1.5495
 1073SOL     OW14851   4.138   3.056   7.070 -0.2452  0.3284  0.5475
 1073SOL    HW114852   4.172   3.128   7.017  1.3207 -1.5702 -1.0496
 1073SOL    HW214853   4.100   3.000   7.003 -3.5052  0.1439  2.5355
 1074SOL     OW14854   3.285   2.169  16.133 -0.4764  0.0006  0.2479
 1074SOL    HW114855   3.297   2.110  16.059  0.6966  0.5335  0.0138
 1074SOL    HW214856   3.199   2.138  16.163 -0.8309  0.5320 -0.2148
 1075SOL     OW14857   0.473   3.566   8.228  0.3306 -0.1528  0.3027
 1075SOL    HW114858   0.399   3.540   8.283 -0.0825 -0.4474 -0.3801
 1075SOL    HW214859   0.514   3.480   8.225  2.5804  0.9152  0.9225
 1076SOL     OW14860   4.609   4.233   7.239  0.6466  0.4779  0.1695
 1076SOL    HW114861   4.560   4.259   7.316 -0.3579 -0.6277 -0.1087
 1076SOL    HW214862   4.545   4.192   7.181  0.8017 -1.1700  1.1784
 1077SOL     OW14863   4.407   3.644  17.583  0.3035 -0.6574  0.0795
 1077SOL    HW114864   4.313   3.631  17.594  0.3384  1.0562  2.5773
 1077SOL    HW214865   4.438   3.556  17.605 -1.5697 -1.1137  0.8574
 1078SOL     OW14866   1.528   0.478   1.875 -0.2553  0.0130 -0.8900
 1078SOL    HW114867   1.433   0.467   1.878  0.1691 -3.7804 -0.7044
 1078SOL    HW214868   1.543   0.572   1.866 -1.2220  0.3377  1.0799
 1079SOL     OW14869   2.967   3.013   5.169 -0.0693 -0.5407 -0.5708
 1079SOL    HW114870   2.954   2.971   5.084 -0.7361 -0.4614 -0.5104
 1079SOL    HW214871   2.979   3.107   5.153 -0.4761 -0.2644  0.6835
 1080SOL     OW14872   4.369   4.345   5.041 -0.3193 -0.6446  0.4523
 1080SOL    HW114873   4.308   4.360   5.113 -2.1301 -1.9349 -0.8027
 1080SOL    HW214874   4.456   4.355   5.081 -0.8343 -0.0874  1.4371
 1081SOL     OW14875   1.095   4.654   1.841  0.7847  0.4777 -0.3230
 1081SOL    HW114876   1.033   4.664   1.769 -0.0433  2.4335  0.6571
 1081SOL    HW214877   1.048   4.604   1.907 -0.0072  2.7358  0.8230
 1082SOL     OW14878   3.229   4.326   4.431 -0.2671  0.4704 -0.2067
 1082SOL    HW114879   3.305   4.298   4.379 -1.2277 -1.1893 -0.7030
 1082SOL    HW214880   3.229   4.420   4.416  0.3092  0.3479 -0.9952
 1083SOL     OW14881   3.143   0.780   7.593 -0.3552 -0.2336  0.9821
 1083SOL    HW114882   3.167   0.759   7.684 -1.4514 -1.5831  0.9796
 1083SOL    HW214883   3.183   0.709   7.544  1.1274  0.9013  0.5780
 1084SOL     OW14884   0.038   1.916   3.242 -0.1783 -0.2780 -0.4448
 1084SOL    HW114885   0.057   2.008   3.222  1.0011  0.2396  3.0531
 1084SOL    HW214886   4.684   1.931   3.254 -0.3879  0.7203 -3.4445
 1085SOL     OW14887   3.020   1.419   2.679  0.4854 -0.3688  0.0571
 1085SOL    HW114888   3.064   1.503   2.694 -0.9272  0.5169 -0.7816
 1085SOL    HW214889   2.937   1.449   2.643  1.2717  2.3597  0.5245
 1086SOL     OW14890   0.702   2.177   8.628 -0.5980 -0.5809  0.0185
 1086SOL    HW114891   0.691   2.092   8.670  0.4221 -2.5228 -3.5902
 1086SOL    HW214892   0.730   2.227   8.705  0.7329 -1.8491  0.3524
 1087SOL     OW14893   0.848   2.958  14.052  0.4856  0.2957 -0.1243
 1087SOL    HW114894   0.889   3.007  13.981 -0.9467  2.4646  0.5162
 1087SOL    HW214895   0.793   2.893  14.008 -0.1605 -0.1957  1.3949
 1088SOL     OW14896   2.681   1.443   4.959 -0.2867  0.0774  0.2777
 1088SOL    HW114897   2.607   1.503   4.950 -1.2872 -1.4064 -1.4146
 1088SOL    HW214898   2.756   1.500   4.943 -0.3491 -0.6731 -2.5670
 1089SOL     OW14899   1.621   1.247  12.600  0.2330  0.4327  0.3131
 1089SOL    HW114900   1.552   1.181  12.602  1.1653 -0.4881  1.6357
 1089SOL    HW214901   1.585   1.323  12.554 -2.4695 -0.2295  1.3412
 1090SOL     OW14902   1.079   3.545   6.815 -0.2041  0.2695  0.5760
 1090SOL    HW114903   1.173   3.542   6.831 -0.1119 -1.1150 -0.2565
 1090SOL    HW214904   1.078   3.571   6.722  0.6070 -0.7199  0.2905
 1091SOL     OW14905   1.135   1.872   2.284  0.2649  0.1255  0.2692
 1091SOL    HW114906   1.103   1.956   2.252  0.1033 -0.5225 -1.2922
 1091SOL    HW214907   1.169   1.897   2.370  1.1192 -0.7591  0.1916
 1092SOL     OW14908   4.550   2.390   7.167  0.0767 -0.2920  0.9221
 1092SOL    HW114909   4.604   2.353   7.097 -2.1443 -0.9367 -0.4384
 1092SOL    HW214910   4.547   2.311   7.221 -2.3228 -1.9190 -1.6077
 1093SOL     OW14911   3.074   1.931   5.735 -0.1963  0.0394  0.4294
 1093SOL    HW114912   3.058   2.005   5.794 -0.5689 -0.8709  1.4926
 1093SOL    HW214913   3.166   1.907   5.744 -0.4636 -1.4706 -0.9480
 1094SOL     OW14914   4.366   1.802   5.271  0.0113  0.8262  0.1015
 1094SOL    HW114915   4.368   1.712   5.303  0.0394  0.7688 -0.0615
 1094SOL    HW214916   4.348   1.849   5.352 -0.2119  1.4838 -0.3309
 1095SOL     OW14917   3.791   0.317  16.801  0.2975  0.5463  0.5605
 1095SOL    HW114918   3.852   0.389  16.811 -0.7466  1.4352  0.4944
 1095SOL    HW214919   3.812   0.288  16.712 -0.7371  0.2206  0.4226
 1096SOL     OW14920   1.557   3.625  12.581 -0.6715 -0.3315 -0.1413
 1096SOL    HW114921   1.505   3.697  12.546  1.0975  0.6254 -0.8195
 1096SOL    HW214922   1.587   3.678  12.655 -1.6297 -0.4697  0.3384
 1097SOL     OW14923   0.642   2.699   8.072 -0.2507  0.5960  0.1079
 1097SOL    HW114924   0.689   2.660   7.999  0.5459  0.3751  0.7442
 1097SOL    HW214925   0.650   2.629   8.137  2.7326 -0.3058 -1.2287
 1098SOL     OW14926   0.549   3.488   2.258  0.0958 -0.0628  0.4048
 1098SOL    HW114927   0.482   3.421   2.271 -0.1601  0.2762  0.8241
 1098SOL    HW214928   0.521   3.534   2.180 -2.0492 -1.7264  0.1705
 1099SOL     OW14929   4.717   0.696  12.770  0.0640  0.1867  0.8080
 1099SOL    HW114930   4.732   0.714  12.863 -0.1127 -1.2191  1.1073
 1099SOL    HW214931   4.670   0.776  12.749  0.3972  0.8399  2.5575
 1100SOL     OW14932   1.726   1.642  10.058 -0.1916 -0.3293  0.0975
 1100SOL    HW114933   1.734   1.651  10.153  0.6291 -2.4467  0.2387
 1100SOL    HW214934   1.812   1.674  10.030  0.1045 -1.0295  0.2053
 1101SOL     OW14935   4.125   1.556  16.954  0.7871 -0.0182 -0.0510
 1101SOL    HW114936   4.055   1.522  17.010 -0.6458  2.5383 -0.3130
 1101SOL    HW214937   4.206   1.545  17.004  0.8635  0.5318 -0.0537
 1102SOL     OW14938   3.919   3.416   7.601 -0.2872 -0.2365 -0.0952
 1102SOL    HW114939   3.926   3.458   7.515  1.1448 -0.6619 -0.2001
 1102SOL    HW214940   3.873   3.489   7.643  2.2664  1.5402 -0.3434
 1103SOL     OW14941   0.093   1.679   5.903  0.4892 -0.3420 -0.1116
 1103SOL    HW114942   0.155   1.605   5.905  0.4759 -0.2990  2.5533
 1103SOL    HW214943   0.049   1.663   5.820 -0.9503 -1.0114  0.7724
 1104SOL     OW14944   0.999   1.266   7.219 -0.0920  0.3607  0.5191
 1104SOL    HW114945   1.088   1.285   7.188 -0.3131  0.4840 -0.0443
 1104SOL    HW214946   0.949   1.336   7.179  0.3168  1.1285  1.3628
 1105SOL     OW14947   4.707   2.057   5.761  0.0047  0.0124 -0.0435
 1105SOL    HW114948   4.715   2.152   5.762 -0.0131 -0.0344  2.5788
 1105SOL    HW214949   4.615   2.047   5.788  0.8546  1.6037  3.3294
 1106SOL     OW14950   3.227   0.664  10.302  0.0767 -0.1973 -0.3209
 1106SOL    HW114951   3.148   0.678  10.250 -1.5325  1.2418  2.5562
 1106SOL    HW214952   3.216   0.720  10.379  0.2735  0.5100 -0.8057
 1107SOL     OW14953   2.120   2.740   6.027 -0.4387 -0.3291  0.3729
 1107SOL    HW114954   2.182   2.812   6.032 -2.0249  1.0451  0.2445
 1107SOL    HW214955   2.187   2.673   6.012  0.8774  1.5280 -2.0087
 1108SOL     OW14956   2.669   3.776  14.162  0.4507  0.2535  0.1696
 1108SOL    HW114957   2.590   3.814  14.124  1.1248  0.5668 -0.9156
 1108SOL    HW214958   2.635   3.690  14.185  0.1598  0.7963  1.7772
 1109SOL     OW14959   2.560   0.980   1.698 -0.0480  0.1439  0.3421
 1109SOL    HW114960   2.624   1.047   1.725  0.0035  0.2349 -0.0112
 1109SOL    HW214961   2.614   0.902   1.692  1.3259  1.0879  0.3901
 1110SOL     OW14962   3.092   2.098   3.208 -0.1392 -0.2899 -0.1036
 1110SOL    HW114963   3.123   2.170   3.264 -1.1484  2.6570 -3.3372
 1110SOL    HW214964   3.131   2.025   3.257  1.4936  0.1411 -0.7555
 1111SOL     OW14965   1.986   3.978   2.544  0.4189 -0.4291 -0.1433
 1111SOL    HW114966   2.050   3.982   2.615  2.2940 -0.1247 -1.8585
 1111SOL    HW214967   1.940   3.894   2.550 -1.5440  0.7823  1.8130
 1112SOL     OW14968   0.907   1.798   0.428  0.3432  0.2989 -0.1313
 1112SOL    HW114969   0.949   1.794   0.513 -1.8267  0.1275  0.9423
 1112SOL    HW214970   0.923   1.892   0.415  0.3160  0.6801  2.6255
 1113SOL     OW14971   1.781   0.313   0.244  0.0194 -0.3013  0.2685
 1113SOL    HW114972   1.857   0.274   0.286 -0.7051 -2.3710 -0.3240
 1113SOL    HW214973   1.750   0.376   0.309 -0.8587 -0.5375  0.0903
 1114SOL     OW14974   3.673   1.491   6.062  0.9525  0.1762  0.1620
 1114SOL    HW114975   3.702   1.498   6.153  3.8581  1.1092 -0.8496
 1114SOL    HW214976   3.757   1.492   6.015 -1.1309  1.4140 -3.5143
 1115SOL     OW14977   3.205   1.286  17.720 -0.1831  0.0755  0.5523
 1115SOL    HW114978   3.144   1.291  17.646  1.3741 -3.5440 -0.9882
 1115SOL    HW214979   3.282   1.256  17.671  0.1275  2.0175 -0.1599
 1116SOL     OW14980   4.007   0.787  11.024 -0.1032  0.4227 -0.2109
 1116SOL    HW114981   4.097   0.778  10.993 -0.4830  2.8378 -2.0230
 1116SOL    HW214982   3.966   0.701  11.023 -0.9432  0.8342 -1.6857
 1117SOL     OW14983   1.156   0.504   4.911  0.0097  0.3519 -0.3013
 1117SOL    HW114984   1.179   0.578   4.855  2.4399  0.0002  0.2200
 1117SOL    HW214985   1.067   0.527   4.936 -0.4713 -1.4066 -0.4533
 1118SOL     OW14986   3.297   1.136   5.223  0.1037 -0.1707 -0.3552
 1118SOL    HW114987   3.245   1.216   5.212  3.2297  2.1633  1.8226
 1118SOL    HW214988   3.332   1.116   5.137  1.6773  0.0021  0.2518
 1119SOL     OW14989   4.091   0.968   3.089  0.2327 -0.1456 -0.0498
 1119SOL    HW114990   4.013   0.997   3.041  0.3715 -0.4558 -0.4672
 1119SOL    HW214991   4.071   0.875   3.100  2.0013 -0.6517 -1.0864
 1120SOL     OW14992   1.094   4.279  15.280  0.1337  0.6993 -0.0437
 1120SOL    HW114993   1.181   4.247  15.255 -0.2844  0.1406 -0.8028
 1120SOL    HW214994   1.072   4.224  15.355 -0.3749 -0.7278 -1.2390
 1121SOL     OW14995   3.656   4.404  12.101  0.1972  0.2429 -0.1958
 1121SOL    HW114996   3.716   4.361  12.162 -0.3361 -0.9753 -0.5445
 1121SOL    HW214997   3.572   4.358  12.110 -0.2724  1.4095  1.5751
 1122SOL     OW14998   0.045   0.567  10.232 -0.1505  0.3836 -0.1613
 1122SOL    HW114999   4.700   0.551  10.191 -0.3038 -0.6404  0.5378
 1122SOL    HW215000   0.035   0.520  10.315 -2.2255 -0.0580 -0.6595
 1123SOL     OW15001   4.553   0.061   2.609  0.2228  0.0873  0.3883
 1123SOL    HW115002   4.481   0.029   2.556 -0.0019  1.7995 -0.3566
 1123SOL    HW215003   4.593   0.136   2.565  0.0916  0.0486  0.2062
 1124SOL     OW15004   3.794   2.807   3.235 -0.5485  0.0874 -0.0051
 1124SOL    HW115005   3.854   2.732   3.229  1.0766  1.2289  1.6262
 1124SOL    HW215006   3.736   2.786   3.308  0.1028  0.1474  0.5342
 1125SOL     OW15007   3.445   3.622   7.081  0.3781  0.2927 -0.3044
 1125SOL    HW115008   3.409   3.545   7.126  0.1929  0.1303 -0.7263
 1125SOL    HW215009   3.524   3.589   7.038  0.1969 -1.3005  0.5905
 1126SOL     OW15010   3.404   3.846   5.642 -0.1796  0.1417  0.2209
 1126SOL    HW115011   3.484   3.868   5.689 -0.0877  1.3412 -0.4978
 1126SOL    HW215012   3.401   3.905   5.566  0.8915  1.6356  1.3255
 1127SOL     OW15013   3.081   0.506  11.191  0.2497  0.7512 -0.3817
 1127SOL    HW115014   3.135   0.432  11.163  1.6142  1.0734  1.4212
 1127SOL    HW215015   2.999   0.466  11.220 -0.5529  1.1925 -1.9917
 1128SOL     OW15016   4.429   2.418   8.529 -0.3572  0.0949  0.3098
 1128SOL    HW115017   4.459   2.503   8.563  1.1838 -1.2170  2.2080
 1128SOL    HW215018   4.372   2.402   8.605 -0.5338 -1.4736 -0.1607
 1129SOL     OW15019   0.825   4.624   5.550 -0.4937 -0.7549  0.0814
 1129SOL    HW115020   0.808   4.713   5.518  1.2298 -0.9571 -1.3779
 1129SOL    HW215021   0.892   4.649   5.613 -1.2068  0.3528  0.3917
 1130SOL     OW15022   2.523   1.686   1.818  0.1057  0.1028  0.5728
 1130SOL    HW115023   2.504   1.775   1.789 -1.2918  0.0395  1.3057
 1130SOL    HW215024   2.540   1.698   1.911  0.7318  0.0474  0.4656
 1131SOL     OW15025   2.789   2.214  15.210  0.6156  0.3231 -0.4710
 1131SOL    HW115026   2.743   2.258  15.138  0.9007 -0.3330 -1.0597
 1131SOL    HW215027   2.799   2.284  15.274 -1.2768 -0.8653  1.1555
 1132SOL     OW15028   1.206   3.337   7.290  0.1202  0.7013  0.2638
 1132SOL    HW115029   1.262   3.301   7.359 -0.2579 -1.6244 -0.6525
 1132SOL    HW215030   1.163   3.403   7.345  0.1286  0.8654  0.0721
 1133SOL     OW15031   4.364   2.180   5.608  0.1952 -0.3442  0.5544
 1133SOL    HW115032   4.270   2.180   5.591  0.1708 -1.5794  0.6966
 1133SOL    HW215033   4.362   2.174   5.704  0.8742  0.3315  0.6095
 1134SOL     OW15034   1.561   1.907   6.470 -0.2132  0.7756  0.3856
 1134SOL    HW115035   1.579   1.977   6.532  0.7363 -0.0954  1.1066
 1134SOL    HW215036   1.468   1.901   6.492  0.2733 -0.4359  2.1163
 1135SOL     OW15037   4.313   2.164  16.891  0.2075 -0.8677 -0.3837
 1135SOL    HW115038   4.357   2.228  16.835 -0.7239 -0.5605 -0.7673
 1135SOL    HW215039   4.235   2.210  16.921  0.8294  0.0994 -0.2483
 1136SOL     OW15040   0.073   2.497   2.418  0.4019 -0.5908 -0.4848
 1136SOL    HW115041   0.123   2.571   2.452 -0.5704 -0.9332  1.6862
 1136SOL    HW215042   4.721   2.519   2.432  0.3200 -1.0708 -0.2488
 1137SOL     OW15043   2.927   4.208   1.548  0.5467  0.6965 -0.6541
 1137SOL    HW115044   2.920   4.286   1.493  1.5302  1.8721  0.8987
 1137SOL    HW215045   2.844   4.164   1.527  0.9008 -0.1511 -0.3077
 1138SOL     OW15046   3.665   2.338   6.117 -0.4712 -0.3816 -0.5119
 1138SOL    HW115047   3.755   2.355   6.142 -0.6796  1.3551 -0.9022
 1138SOL    HW215048   3.609   2.405   6.158 -0.1283 -0.0589 -0.5731
 1139SOL     OW15049   4.134   4.566  15.971  0.1789 -0.2027 -0.0788
 1139SOL    HW115050   4.147   4.474  15.992  1.2783  0.4252  1.9923
 1139SOL    HW215051   4.180   4.580  15.888  1.0302  1.0479  0.6113
 1140SOL     OW15052   3.682   2.249  13.435  0.4168 -0.4148  0.7173
 1140SOL    HW115053   3.665   2.164  13.476 -0.3605 -1.4878 -1.8836
 1140SOL    HW215054   3.773   2.251  13.464  1.1819  0.0286 -1.7448
 1141SOL     OW15055   4.426   0.566   9.182 -0.2563 -0.4353  0.4343
 1141SOL    HW115056   4.345   0.585   9.135  0.8749  1.0034 -0.9349
 1141SOL    HW215057   4.382   0.514   9.249 -0.5868 -0.2563  0.3594
 1142SOL     OW15058   2.790   2.018  10.752 -0.2103 -0.8871  0.2556
 1142SOL    HW115059   2.867   1.979  10.710 -0.8197 -1.1994 -0.5692
 1142SOL    HW215060   2.795   2.112  10.737 -1.3365 -0.5326  2.0443
 1143SOL     OW15061   1.413   3.256   3.807  0.4586 -0.0230 -0.3953
 1143SOL    HW115062   1.432   3.314   3.880  1.4553  2.2204 -2.4171
 1143SOL    HW215063   1.369   3.323   3.755 -0.1847  0.0886  0.2969
 1144SOL     OW15064   1.592   2.740   0.988  0.1531 -0.2481 -0.0620
 1144SOL    HW115065   1.574   2.814   0.931  0.0234  0.0348  0.3508
 1144SOL    HW215066   1.571   2.668   0.929  0.3164  1.0616 -1.7011
 1145SOL     OW15067   4.132   3.885  10.095  0.3446  0.0350 -0.4129
 1145SOL    HW115068   4.133   3.800  10.140  0.5471  0.2158 -0.0728
 1145SOL    HW215069   4.046   3.925  10.105 -0.6590 -1.7024 -2.1932
 1146SOL     OW15070   2.303   4.336   3.595  0.1923 -1.2544  0.3668
 1146SOL    HW115071   2.369   4.392   3.635 -0.0415 -1.3913  0.9465
 1146SOL    HW215072   2.225   4.345   3.650  1.9210  0.1658  2.6057
 1147SOL     OW15073   2.008   1.775  12.064 -0.0338  0.3838  0.3755
 1147SOL    HW115074   1.978   1.685  12.076 -1.4956  0.8714  0.3896
 1147SOL    HW215075   1.961   1.788  11.982  0.1568  0.5576  0.2944
 1148SOL     OW15076   4.064   3.931   4.701 -0.2198  0.0243  0.2912
 1148SOL    HW115077   4.118   3.992   4.752 -1.9687  1.9811 -0.2210
 1148SOL    HW215078   4.087   3.947   4.609  1.2441  0.1683  0.6725
 1149SOL     OW15079   1.029   0.240   2.918  0.0579  0.2217  0.3501
 1149SOL    HW115080   1.027   0.257   2.823  0.0941  0.0001  0.3104
 1149SOL    HW215081   0.946   0.273   2.951  0.2982  0.4528  0.7178
 1150SOL     OW15082   2.584   2.046   9.130  0.2450 -0.2751  0.4149
 1150SOL    HW115083   2.589   1.952   9.110  1.2948 -0.5152  1.7981
 1150SOL    HW215084   2.659   2.075   9.079  0.4724  2.2205  2.2108
 1151SOL     OW15085   2.318   2.651   4.419  0.0030  0.0924  0.3276
 1151SOL    HW115086   2.224   2.635   4.427 -0.1645  0.8213 -0.1894
 1151SOL    HW215087   2.344   2.560   4.405 -3.8000 -1.2062  1.6749
 1152SOL     OW15088   4.189   1.043   9.880 -0.2429  0.3386 -0.2261
 1152SOL    HW115089   4.170   0.995   9.961 -1.0008 -0.2659 -0.7505
 1152SOL    HW215090   4.117   1.105   9.875  0.8635  1.5970 -0.3558
 1153SOL     OW15091   4.694   4.568   2.579 -0.0586 -0.6032 -0.4045
 1153SOL    HW115092   0.021   4.535   2.639 -0.6499 -2.2833 -0.6868
 1153SOL    HW215093   4.681   4.658   2.609  0.9232 -0.2003 -1.1695
 1154SOL     OW15094   0.366   3.357   1.693  0.5554  0.0329 -0.7031
 1154SOL    HW115095   0.280   3.357   1.735  0.6047 -3.3481 -0.6009
 1154SOL    HW215096   0.390   3.450   1.691 -1.2302  0.5350  0.8540
 1155SOL     OW15097   1.615   1.736   8.929 -0.4373 -0.6559 -0.1442
 1155SOL    HW115098   1.600   1.659   8.985  1.3836 -2.4475 -2.1043
 1155SOL    HW215099   1.707   1.751   8.951 -0.0919 -1.3632 -1.1018
 1156SOL     OW15100   0.561   3.734   3.454  0.3295  0.3063  0.5777
 1156SOL    HW115101   0.609   3.813   3.479  1.1175  0.5414 -1.7524
 1156SOL    HW215102   0.520   3.756   3.371  0.0130  2.4903  1.3016
 1157SOL     OW15103   0.402   3.598  15.186  0.1453  0.1022  0.3962
 1157SOL    HW115104   0.398   3.657  15.111  0.0834  0.8419  0.9787
 1157SOL    HW215105   0.478   3.545  15.163 -0.2826  0.3145 -1.5565
 1158SOL     OW15106   3.137   4.183   2.378 -0.0032  0.3388  0.3388
 1158SOL    HW115107   3.075   4.214   2.313 -1.4851 -2.8897  0.2109
 1158SOL    HW215108   3.184   4.262   2.406 -0.6716  1.1872 -0.9364
 1159SOL     OW15109   3.691   0.154   2.953  0.1102 -0.5722  0.5585
 1159SOL    HW115110   3.616   0.177   2.899  1.5328  0.8920 -0.7968
 1159SOL    HW215111   3.747   0.223   2.917 -1.0941 -0.3878 -0.9756
 1160SOL     OW15112   1.418   1.425  17.310 -0.2271  0.6588 -0.1031
 1160SOL    HW115113   1.418   1.502  17.253 -1.7410  2.5654  2.4828
 1160SOL    HW215114   1.404   1.478  17.389  2.6866  1.1016  0.1129
 1161SOL     OW15115   0.432   2.238  16.997 -0.0860  0.4493  0.9336
 1161SOL    HW115116   0.431   2.333  16.984 -0.0606  0.2340 -0.6322
 1161SOL    HW215117   0.460   2.232  17.088 -0.0285 -1.7832  0.7619
 1162SOL     OW15118   3.953   1.865   2.999  0.1578 -0.1965 -0.2280
 1162SOL    HW115119   3.938   1.932   2.932 -1.5863 -0.9019 -0.5340
 1162SOL    HW215120   3.943   1.784   2.949 -0.0985  1.3982 -2.7764
 1163SOL     OW15121   0.781   0.402   6.211 -0.2286  0.1550 -0.1788
 1163SOL    HW115122   0.754   0.376   6.299 -0.3453 -1.5537 -0.7107
 1163SOL    HW215123   0.784   0.315   6.171 -0.7977 -1.7796  3.9628
 1164SOL     OW15124   2.987   3.141   6.041 -0.6026  0.5045  0.4480
 1164SOL    HW115125   2.925   3.210   6.017 -0.3777 -0.7221 -3.5814
 1164SOL    HW215126   3.049   3.178   6.104  1.3001 -1.1683 -0.4615
 1165SOL     OW15127   3.309   2.168   7.449  0.5129 -0.2411 -0.2142
 1165SOL    HW115128   3.264   2.119   7.517 -3.8159  1.0969 -2.0953
 1165SOL    HW215129   3.321   2.251   7.495 -1.6520 -1.5803  2.7286
 1166SOL     OW15130   2.753   2.218   8.971  0.2715  0.2105 -0.0604
 1166SOL    HW115131   2.815   2.155   8.934  0.4829  0.0012  0.6523
 1166SOL    HW215132   2.726   2.273   8.898  0.4097 -2.1768 -1.9023
 1167SOL     OW15133   3.321   3.653   9.094 -0.4468  0.1033 -0.0257
 1167SOL    HW115134   3.245   3.595   9.097  1.8306 -2.8220  2.2352
 1167SOL    HW215135   3.327   3.680   9.186 -2.4032 -0.5673  0.3086
 1168SOL     OW15136   1.856   2.796   8.064 -0.7561  0.3558 -0.0223
 1168SOL    HW115137   1.828   2.763   7.979 -2.3449  0.4041  0.4943
 1168SOL    HW215138   1.817   2.883   8.075 -1.1452  0.1110  0.4798
 1169SOL     OW15139   1.667   3.669  16.696  0.0128 -0.4652  0.2556
 1169SOL    HW115140   1.586   3.697  16.738  0.2888  0.2189  0.3242
 1169SOL    HW215141   1.700   3.754  16.669 -0.2015  0.1255  1.8140
 1170SOL     OW15142   2.289   0.778   7.336 -0.5372  0.0311  0.4852
 1170SOL    HW115143   2.312   0.785   7.244  0.0340  0.8502  0.6958
 1170SOL    HW215144   2.372   0.791   7.382 -0.8452 -0.2052  1.1136
 1171SOL     OW15145   4.573   0.309   7.349  0.6143 -0.0169 -0.1107
 1171SOL    HW115146   4.530   0.361   7.281 -0.3745 -0.1925  0.3757
 1171SOL    HW215147   4.514   0.234   7.362  1.9452 -1.3077 -1.5041
 1172SOL     OW15148   2.246   3.707   9.596  0.0903  0.3413  0.6619
 1172SOL    HW115149   2.196   3.627   9.614  1.6153 -0.4971  1.2063
 1172SOL    HW215150   2.181   3.760   9.549  0.7784 -0.2739 -0.9920
 1173SOL     OW15151   4.141   1.409  11.349 -0.2387  0.6081 -0.3489
 1173SOL    HW115152   4.117   1.376  11.262  1.5111 -0.2720 -0.4790
 1173SOL    HW215153   4.088   1.488  11.361 -2.3810 -0.2896 -3.6587
 1174SOL     OW15154   2.614   4.013   4.990 -0.0251 -0.4817 -0.7526
 1174SOL    HW115155   2.692   4.068   4.984 -0.8494  0.9188  1.2575
 1174SOL    HW215156   2.643   3.926   4.965  1.3706 -0.8106  2.0161
 1175SOL     OW15157   0.300   1.753   3.577  0.2158  0.2453  0.1950
 1175SOL    HW115158   0.340   1.728   3.494  0.2250 -0.2949  0.3674
 1175SOL    HW215159   0.346   1.837   3.585  0.2097  0.1613  1.0861
 1176SOL     OW15160   3.683   0.298   8.540 -0.2438 -0.3361 -0.3394
 1176SOL    HW115161   3.637   0.243   8.476 -0.9590 -0.6370  0.4338
 1176SOL    HW215162   3.604   0.333   8.582  0.9986  2.0142  0.0117
 1177SOL     OW15163   0.152   4.374  15.808 -0.1252  0.1878  0.4921
 1177SOL    HW115164   0.065   4.407  15.786  0.1172 -0.0024 -0.7530
 1177SOL    HW215165   0.138   4.329  15.892 -0.4536 -2.1548 -0.8159
 1178SOL     OW15166   0.844   3.340   3.537  0.0118  0.2305  0.1848
 1178SOL    HW115167   0.810   3.254   3.564 -0.8510  0.3846 -0.4118
 1178SOL    HW215168   0.815   3.399   3.607 -1.4072 -1.6266  1.1747
 1179SOL     OW15169   3.463   4.148   7.648 -0.2618 -0.3849  0.1970
 1179SOL    HW115170   3.374   4.182   7.661  0.4743  2.4092 -2.0151
 1179SOL    HW215171   3.459   4.058   7.679  0.2467 -0.7107 -0.6828
 1180SOL     OW15172   4.508   0.036   5.217 -0.3248 -0.3405  0.0460
 1180SOL    HW115173   4.483   0.115   5.169 -0.4658  0.4126  1.3634
 1180SOL    HW215174   4.443   4.712   5.188  0.5980 -1.8673  1.3830
 1181SOL     OW15175   2.661   2.412   6.304 -0.4533  0.0445  0.2403
 1181SOL    HW115176   2.682   2.328   6.264 -1.0054 -0.5990  1.2941
 1181SOL    HW215177   2.705   2.479   6.253 -1.3252  0.5500  0.1449
 1182SOL     OW15178   0.059   2.236   3.796 -0.2429  0.4436 -0.0442
 1182SOL    HW115179   4.722   2.285   3.766 -0.9613 -0.5102  0.2228
 1182SOL    HW215180   0.029   2.145   3.796  0.1418  0.3162  0.2936
 1183SOL     OW15181   0.951   2.645   7.225 -0.1247  0.5154 -0.3133
 1183SOL    HW115182   0.865   2.683   7.241 -1.2661 -3.0331  2.1041
 1183SOL    HW215183   0.960   2.654   7.130  2.3011 -0.9708 -0.2270
 1184SOL     OW15184   4.583   4.360   1.910 -0.4271 -0.2508 -0.0168
 1184SOL    HW115185   4.549   4.445   1.937  3.1156  1.2333 -0.2376
 1184SOL    HW215186   4.552   4.295   1.974 -2.2203 -0.9443 -1.5973
 1185SOL     OW15187   2.889   0.495   1.236 -0.1413  0.2338 -0.5171
 1185SOL    HW115188   2.932   0.410   1.231 -0.5814 -0.0938  1.5701
 1185SOL    HW215189   2.941   0.549   1.176 -3.2392  1.2370 -2.2810
 1186SOL     OW15190   1.379   1.379   1.104 -0.1824  0.4516  0.2797
 1186SOL    HW115191   1.366   1.296   1.151 -1.5822 -0.4400 -1.7026
 1186SOL    HW215192   1.414   1.435   1.174 -3.0833  1.0633  1.2574
 1187SOL     OW15193   1.157   3.587  12.215  0.5141  0.3644 -0.5717
 1187SOL    HW115194   1.119   3.604  12.301  1.5711  0.1804 -0.0697
 1187SOL    HW215195   1.078   3.585  12.160 -0.1247  1.1114  0.3257
 1188SOL     OW15196   0.813   0.389   9.480  0.5194  0.1858 -0.0401
 1188SOL    HW115197   0.834   0.323   9.414 -1.2860 -0.6176  0.1961
 1188SOL    HW215198   0.727   0.419   9.450  0.9809  0.9842 -0.5535
 1189SOL     OW15199   0.072   4.500   1.718 -0.4312  0.0942 -0.3022
 1189SOL    HW115200   4.733   4.489   1.771 -0.7014  3.1534 -0.0448
 1189SOL    HW215201   0.126   4.458   1.784 -0.3325 -0.9058 -1.0140
 1190SOL     OW15202   2.554   4.252   1.133  0.9526  0.5042  0.6144
 1190SOL    HW115203   2.490   4.250   1.062  0.3918 -0.6109  1.1468
 1190SOL    HW215204   2.617   4.318   1.105 -0.8971  2.8552  2.0309
 1191SOL     OW15205   2.484   1.967   0.171  0.1484  0.0275  0.0105
 1191SOL    HW115206   2.553   1.925   0.120 -1.0551 -1.5461 -0.3069
 1191SOL    HW215207   2.447   2.028   0.108 -3.4381 -0.8797  1.2524
 1192SOL     OW15208   2.103   4.104   9.466 -0.4301  0.4570 -0.3794
 1192SOL    HW115209   2.028   4.131   9.519 -0.3063 -0.8186  0.4441
 1192SOL    HW215210   2.174   4.164   9.490  1.0489 -1.3719 -0.1951
 1193SOL     OW15211   2.218   1.398   4.894 -0.0616  0.3850 -0.5867
 1193SOL    HW115212   2.258   1.474   4.852  1.5387  0.7129  1.5450
 1193SOL    HW215213   2.168   1.440   4.964  0.2142 -0.3723  0.0660
 1194SOL     OW15214   1.350   0.621  11.568  0.2374 -0.3986 -0.3246
 1194SOL    HW115215   1.300   0.541  11.582 -0.8983  0.1906 -1.0275
 1194SOL    HW215216   1.391   0.635  11.653  0.4716 -0.4748 -0.4248
 1195SOL     OW15217   2.852   1.221   3.100 -0.1193 -0.1957 -0.0421
 1195SOL    HW115218   2.931   1.212   3.046  2.5257 -1.4831  4.0089
 1195SOL    HW215219   2.891   1.278   3.166 -0.5223  0.6820 -0.5764
 1196SOL     OW15220   0.440   3.626  11.270  0.4785  0.3901  0.1601
 1196SOL    HW115221   0.517   3.658  11.317 -0.2986 -1.1726  2.5210
 1196SOL    HW215222   0.381   3.669  11.331  0.8354  1.8571 -0.5453
 1197SOL     OW15223   1.178   2.754  12.344 -0.4779 -0.8904 -0.2178
 1197SOL    HW115224   1.157   2.838  12.385  0.4676 -1.2253  0.9770
 1197SOL    HW215225   1.267   2.764  12.311 -0.7459  2.4591  0.0943
 1198SOL     OW15226   3.366   2.550   4.142 -0.0528  0.4160  0.3780
 1198SOL    HW115227   3.275   2.563   4.167 -0.4082 -0.9701 -0.2112
 1198SOL    HW215228   3.361   2.545   4.047  2.6917 -0.7203  0.2844
 1199SOL     OW15229   1.904   2.948   5.200 -0.9733  0.3291 -0.0183
 1199SOL    HW115230   1.907   2.921   5.292  0.6418  0.7299  0.0497
 1199SOL    HW215231   1.828   2.894   5.180 -0.9654 -0.1611  1.2516
 1200SOL     OW15232   4.660   3.167   5.135  0.1547  0.8024  0.3724
 1200SOL    HW115233   4.597   3.230   5.099  0.9765  0.9025 -0.8806
 1200SOL    HW215234   4.601   3.122   5.196 -3.7858  4.4425 -0.7039
 1201SOL     OW15235   3.317   3.497   2.310 -0.3217 -0.0125 -0.4240
 1201SOL    HW115236   3.283   3.419   2.266 -2.9296  0.0494  1.4410
 1201SOL    HW215237   3.336   3.549   2.233 -0.0045 -1.6077 -1.4245
 1202SOL     OW15238   0.874   2.115   0.464 -0.5291  0.2641 -0.1900
 1202SOL    HW115239   0.845   2.121   0.373 -1.3197  2.1087  0.1710
 1202SOL    HW215240   0.953   2.169   0.468 -1.0171  0.8921  0.8994
 1203SOL     OW15241   0.527   4.070   8.459  0.9714  0.3097 -0.2177
 1203SOL    HW115242   0.472   4.082   8.536 -1.3740  2.6121 -2.2656
 1203SOL    HW215243   0.615   4.076   8.496  0.8067  1.5155 -0.0449
 1204SOL     OW15244   3.436   1.206   7.257 -0.0707  0.2943  0.2613
 1204SOL    HW115245   3.455   1.218   7.164 -0.4352 -0.4020  0.0975
 1204SOL    HW215246   3.478   1.122   7.278  0.2690  0.1944 -0.8403
 1205SOL     OW15247   4.310   1.188   2.983  0.2036  0.0019  0.2019
 1205SOL    HW115248   4.262   1.114   3.020  1.7607 -0.5898  1.0552
 1205SOL    HW215249   4.234   1.246   2.970 -0.0164 -0.8408 -2.1614
 1206SOL     OW15250   4.118   0.634  10.524  0.7989 -0.3294  0.3883
 1206SOL    HW115251   4.204   0.600  10.550 -0.3161 -3.7634 -0.3817
 1206SOL    HW215252   4.063   0.610  10.599 -0.8231 -0.6545 -0.9301
 1207SOL     OW15253   0.505   1.052   6.780  0.6829  0.3744  0.4642
 1207SOL    HW115254   0.478   1.113   6.711 -1.3154 -0.2772  0.6745
 1207SOL    HW215255   0.563   0.991   6.735  0.0869  0.6527 -0.6868
 1208SOL     OW15256   3.905   3.342   2.538 -0.5008  0.1472 -0.2507
 1208SOL    HW115257   3.934   3.422   2.492 -0.6605  0.9030  0.9659
 1208SOL    HW215258   3.900   3.372   2.628 -0.2023 -1.9015  0.4469
 1209SOL     OW15259   1.374   1.883   4.889  0.2016  0.2750  0.6561
 1209SOL    HW115260   1.316   1.819   4.848  2.0799  0.7007 -2.7650
 1209SOL    HW215261   1.342   1.971   4.866 -0.1643 -0.2488 -0.8633
 1210SOL     OW15262   0.359   1.598  14.618 -0.4152  0.1204  0.3723
 1210SOL    HW115263   0.331   1.579  14.528  4.0836 -0.8351 -0.7914
 1210SOL    HW215264   0.383   1.512  14.653 -0.7020  0.1090  0.5432
 1211SOL     OW15265   3.644   2.720   5.148  0.2341  0.4472 -0.0509
 1211SOL    HW115266   3.619   2.812   5.151 -1.3457  0.0539 -1.0273
 1211SOL    HW215267   3.696   2.698   5.225  0.6193  1.9879  0.1243
 1212SOL     OW15268   0.691   3.059   1.458  0.8244 -0.3934  0.0008
 1212SOL    HW115269   0.652   2.972   1.466 -1.2393  0.6231  1.2040
 1212SOL    HW215270   0.618   3.121   1.462 -0.6125 -2.0477 -0.8243
 1213SOL     OW15271   2.757   3.298   8.735 -0.2106 -0.2433  0.0542
 1213SOL    HW115272   2.735   3.304   8.828  1.2147  1.0367  0.3130
 1213SOL    HW215273   2.812   3.220   8.725  0.5505  0.4199 -0.9956
 1214SOL     OW15274   1.562   0.510   5.283  0.4044 -0.2728 -0.4244
 1214SOL    HW115275   1.611   0.428   5.282 -0.2545 -0.6897  1.9910
 1214SOL    HW215276   1.486   0.478   5.234 -0.3864  0.5882  0.2346
 1215SOL     OW15277   4.376   1.612  17.118 -0.1580  0.7702 -0.0854
 1215SOL    HW115278   4.389   1.696  17.163  0.6213  0.2295  0.6911
 1215SOL    HW215279   4.454   1.614  17.063  0.0976 -1.6361  0.2082
 1216SOL     OW15280   0.951   1.069   5.139 -0.5718 -0.0513 -0.1781
 1216SOL    HW115281   1.028   1.116   5.105 -1.9302  2.3364  0.1253
 1216SOL    HW215282   0.910   1.132   5.197  0.3594 -0.3874  0.8520
 1217SOL     OW15283   1.218   1.792  15.074  0.3777  0.6458  0.3770
 1217SOL    HW115284   1.184   1.735  15.005 -0.1565 -1.1673  2.1156
 1217SOL    HW215285   1.293   1.742  15.107 -0.2419 -1.7462 -1.9106
 1218SOL     OW15286   2.602   3.750  17.368  0.2816 -0.5252  0.1622
 1218SOL    HW115287   2.514   3.787  17.365  0.7483  0.4700 -1.0835
 1218SOL    HW215288   2.593   3.655  17.365 -3.5230 -0.1780  0.5791
 1219SOL     OW15289   4.738   0.359   8.084 -0.6142  0.5730  0.0718
 1219SOL    HW115290   4.643   0.366   8.087 -0.6341  0.9145 -1.3273
 1219SOL    HW215291   0.023   0.417   8.012 -0.4758  1.6429  0.9752
 1220SOL     OW15292   0.384   2.100   5.784  0.3286 -0.5393 -0.6089
 1220SOL    HW115293   0.390   2.094   5.879 -1.4677  2.4619 -0.3321
 1220SOL    HW215294   0.473   2.072   5.759  0.5374 -0.6307  0.2145
 1221SOL     OW15295   0.635   0.031  12.767  0.4296 -0.8472  0.0667
 1221SOL    HW115296   0.619   0.123  12.745  4.1341 -0.3181 -0.3546
 1221SOL    HW215297   0.725   0.031  12.798  0.5334 -1.1998 -0.2485
 1222SOL     OW15298   4.117   4.056  11.258 -0.1737  0.2626  0.1656
 1222SOL    HW115299   4.030   4.080  11.226 -1.1919 -0.5288  2.3326
 1222SOL    HW215300   4.168   4.030  11.181 -0.3141 -4.4885  1.6245
 1223SOL     OW15301   1.673   0.128   1.611 -0.0855 -0.4906  0.2240
 1223SOL    HW115302   1.754   0.128   1.559 -0.5654 -0.2274 -0.5136
 1223SOL    HW215303   1.650   0.040   1.579  1.4081 -0.6419 -0.4346
 1224SOL     OW15304   0.318   4.093   1.464  0.6247 -0.6504  0.3534
 1224SOL    HW115305   0.354   4.023   1.412 -0.3909 -1.3973  0.6535
 1224SOL    HW215306   0.364   4.167   1.425 -2.4782  0.2637 -1.6235
 1225SOL     OW15307   2.757   1.653  13.956  0.1258  0.3574  0.0797
 1225SOL    HW115308   2.705   1.579  13.988  0.1121  1.1808  2.0060
 1225SOL    HW215309   2.814   1.676  14.030 -0.9400 -0.7191  1.2454
 1226SOL     OW15310   1.441   3.344   8.692 -0.1126  0.7461  0.1464
 1226SOL    HW115311   1.473   3.401   8.622  1.4438 -0.2319  0.0868
 1226SOL    HW215312   1.398   3.269   8.651  0.7464  0.3151  0.0503
 1227SOL     OW15313   0.397   1.264   7.207  0.3641 -0.0544  0.2370
 1227SOL    HW115314   0.444   1.258   7.124  0.0953  0.8368  0.0176
 1227SOL    HW215315   0.311   1.269   7.165  1.6082  0.7676 -2.2208
 1228SOL     OW15316   1.385   4.000   4.142 -0.2010  0.4377  0.1017
 1228SOL    HW115317   1.379   3.925   4.202  1.8064 -0.2316 -0.5211
 1228SOL    HW215318   1.321   3.976   4.075 -1.8013 -0.7800  2.0521
 1229SOL     OW15319   3.372   2.867   4.037  0.3828 -0.2823 -0.0509
 1229SOL    HW115320   3.294   2.904   3.995  1.0650  1.2599  0.0411
 1229SOL    HW215321   3.386   2.779   4.001  0.4472  0.0267 -0.7822
 1230SOL     OW15322   2.822   0.657  17.717  0.1526 -0.3779 -0.0293
 1230SOL    HW115323   2.799   0.639  17.626 -1.8261 -0.0132  0.3825
 1230SOL    HW215324   2.911   0.623  17.718 -0.0610 -0.9173  1.2962
 1231SOL     OW15325   3.104   4.563   3.636  0.1843 -0.4713  0.7970
 1231SOL    HW115326   3.117   4.548   3.542  2.1108 -2.0515  1.3195
 1231SOL    HW215327   3.189   4.600   3.658 -0.1160  1.0774 -0.6934
 1232SOL     OW15328   1.775   0.830  14.007  0.4379  0.6448  0.1668
 1232SOL    HW115329   1.799   0.895  14.074 -1.0370 -0.9057  2.2093
 1232SOL    HW215330   1.838   0.762  14.028  0.7827  1.5484  2.0595
 1233SOL     OW15331   4.513   2.866   7.303 -0.6092 -0.3616  0.0030
 1233SOL    HW115332   4.563   2.822   7.371  1.0949 -1.2277 -1.8342
 1233SOL    HW215333   4.431   2.820   7.323 -0.6155  0.6229  2.1775
 1234SOL     OW15334   1.822   4.068   8.662 -0.1746  0.5702  0.0031
 1234SOL    HW115335   1.735   4.047   8.629  0.2788  1.5759 -1.8300
 1234SOL    HW215336   1.875   4.040   8.588 -0.9980  0.3557 -0.5081
 1235SOL     OW15337   4.316   0.718   8.895  0.1302 -0.2996  0.2796
 1235SOL    HW115338   4.294   0.663   8.819  0.2420  3.6823 -2.6281
 1235SOL    HW215339   4.248   0.708   8.962 -2.1093 -1.6065 -2.1327
 1236SOL     OW15340   3.429   1.305   5.433 -0.3959 -0.2662  0.1357
 1236SOL    HW115341   3.477   1.360   5.372 -1.7994 -0.2041 -0.9077
 1236SOL    HW215342   3.355   1.271   5.381  0.5765  1.3863 -2.3309
 1237SOL     OW15343   1.754   1.832   7.002  0.1500  0.0767 -0.1227
 1237SOL    HW115344   1.675   1.818   7.053  1.0621 -0.9379  1.0114
 1237SOL    HW215345   1.823   1.824   7.068 -1.9441  3.1920  2.4374
 1238SOL     OW15346   0.862   4.136   6.321  0.1249 -0.1864 -0.4101
 1238SOL    HW115347   0.928   4.190   6.277 -0.4441  0.1344 -0.8663
 1238SOL    HW215348   0.867   4.175   6.409  0.5004 -1.7252  0.2387
 1239SOL     OW15349   4.155   0.006   7.245 -0.3649  0.1814  0.8295
 1239SOL    HW115350   4.126   0.057   7.169  2.4816  0.8401  0.2049
 1239SOL    HW215351   4.090   4.676   7.252  1.5532 -1.6169  0.3679
 1240SOL     OW15352   4.074   0.857   3.359  0.7223  0.0783 -0.8511
 1240SOL    HW115353   4.160   0.890   3.330  1.1412  1.9156  2.5314
 1240SOL    HW215354   4.099   0.804   3.434 -1.6810 -0.1646 -0.2500
 1241SOL     OW15355   0.617   0.408  12.217  0.5137  0.9952  0.3748
 1241SOL    HW115356   0.641   0.422  12.309  2.1752 -0.3821  0.1575
 1241SOL    HW215357   0.525   0.436  12.215  0.1731  0.0298  1.9280
 1242SOL     OW15358   0.617   2.901   3.050 -0.2298 -0.5994  0.7168
 1242SOL    HW115359   0.641   2.959   3.123 -0.7854  1.5317 -0.7984
 1242SOL    HW215360   0.536   2.948   3.031 -0.0309  0.3965  2.3301
 1243SOL     OW15361   1.138   2.775   1.177 -0.1162  0.1673 -0.3391
 1243SOL    HW115362   1.097   2.765   1.264 -0.4300 -2.5909 -0.7906
 1243SOL    HW215363   1.051   2.762   1.139  0.5889 -0.0373 -1.8497
 1244SOL     OW15364   0.271   2.720  15.510  0.6046 -0.2054 -0.1092
 1244SOL    HW115365   0.318   2.690  15.432  2.9605 -2.0476  2.0444
 1244SOL    HW215366   0.279   2.640  15.561 -0.1581  0.0711  0.4450
 1245SOL     OW15367   2.663   3.477  14.725 -0.4868 -0.2015 -0.1126
 1245SOL    HW115368   2.740   3.436  14.684  1.4361  1.6548  1.6251
 1245SOL    HW215369   2.597   3.410  14.709 -0.8154 -0.0848  0.7480
 1246SOL     OW15370   0.235   4.688   8.795 -0.2814  0.5651  0.3465
 1246SOL    HW115371   0.142   4.680   8.817  0.0860 -1.0965  1.2948
 1246SOL    HW215372   0.274   4.662   8.878 -1.1195 -0.8991  0.2987
 1247SOL     OW15373   1.647   1.454   9.013 -0.1180 -0.1713  0.1240
 1247SOL    HW115374   1.571   1.406   9.046 -0.1331 -0.4899 -0.3695
 1247SOL    HW215375   1.682   1.386   8.956 -0.6003 -0.3251  0.0072
 1248SOL     OW15376   0.970   2.067   5.673 -0.4953  0.2196 -0.2003
 1248SOL    HW115377   0.938   2.023   5.752  1.4220  0.1288  0.5069
 1248SOL    HW215378   0.898   2.128   5.655 -0.8941 -0.5806 -1.3651
 1249SOL     OW15379   4.727   0.539   7.298  0.2066  0.1705 -0.0631
 1249SOL    HW115380   4.688   0.457   7.330  0.3080 -0.3344 -1.2184
 1249SOL    HW215381   4.710   0.605   7.365  0.1115 -0.2562  0.3416
 1250SOL     OW15382   3.165   0.881   2.764 -0.3460  0.2451  0.3296
 1250SOL    HW115383   3.244   0.833   2.740 -0.8735 -0.2037 -0.5138
 1250SOL    HW215384   3.162   0.943   2.691 -2.2720  0.0592  0.2695
 1251SOL     OW15385   2.515   3.487   3.421  0.1612 -0.0577 -0.2379
 1251SOL    HW115386   2.446   3.537   3.377 -0.2061 -0.1051  0.2740
 1251SOL    HW215387   2.478   3.406   3.458  0.4949  0.2961  0.8568
 1252SOL     OW15388   1.840   2.144   3.070 -0.2159 -0.2325  0.3838
 1252SOL    HW115389   1.775   2.100   3.125 -0.6950 -2.1690 -1.7128
 1252SOL    HW215390   1.901   2.070   3.065  2.1070  1.6503  1.4167
 1253SOL     OW15391   2.726   2.412   8.734  0.2552  0.1001  0.1735
 1253SOL    HW115392   2.679   2.349   8.679 -0.6230  1.3815 -0.5199
 1253SOL    HW215393   2.667   2.486   8.724  0.9131  0.9281  2.2971
 1254SOL     OW15394   0.338   0.037   5.130  0.1895  0.3091  0.0493
 1254SOL    HW115395   0.278   0.091   5.078 -0.6819  0.0944  0.8238
 1254SOL    HW215396   0.374   4.725   5.058  0.0829  0.5375 -0.1716
 1255SOL     OW15397   3.234   1.510   5.255 -0.2373 -0.3207 -0.2582
 1255SOL    HW115398   3.187   1.589   5.283  0.0287 -0.1951 -0.1629
 1255SOL    HW215399   3.185   1.434   5.284  0.6920 -0.9937 -0.4448
 1256SOL     OW15400   0.804   0.881   3.864  0.7558 -0.2545 -0.5935
 1256SOL    HW115401   0.833   0.947   3.926  0.9047 -0.5413 -0.3561
 1256SOL    HW215402   0.818   0.916   3.776 -0.5203 -0.0077 -0.6878
 1257SOL     OW15403   4.209   3.661   0.208 -0.0732 -0.2727  0.2327
 1257SOL    HW115404   4.304   3.661   0.220  0.1482 -2.4574 -1.5385
 1257SOL    HW215405   4.207   3.716   0.129  0.2651  0.5946  0.8243
 1258SOL     OW15406   3.354   3.548   5.819  0.4236  0.5025 -0.1508
 1258SOL    HW115407   3.448   3.531   5.830  0.7164  1.3885 -1.2167
 1258SOL    HW215408   3.351   3.639   5.849 -0.9714  0.7755 -1.1076
 1259SOL     OW15409   3.667   4.570   5.756  0.4824 -0.3837 -0.1871
 1259SOL    HW115410   3.630   4.509   5.820 -0.4416 -0.8079 -1.1333
 1259SOL    HW215411   3.749   4.521   5.744  0.1888 -0.9320  0.0701
 1260SOL     OW15412   0.439   3.254   0.173 -0.2165  0.1377 -0.3703
 1260SOL    HW115413   0.497   3.278   0.100 -0.1320  0.4045 -0.2173
 1260SOL    HW215414   0.490   3.290   0.246  1.4512 -0.2012 -1.3670
 1261SOL     OW15415   2.745   0.364   3.587 -0.0340  0.3335 -0.2372
 1261SOL    HW115416   2.759   0.411   3.669 -2.3055  0.1486  0.2505
 1261SOL    HW215417   2.725   0.276   3.618  2.5225 -0.3375 -0.4660
 1262SOL     OW15418   1.586   4.596   4.855 -0.5040 -0.4481  0.3717
 1262SOL    HW115419   1.624   4.673   4.814  0.7283 -0.6956  1.0350
 1262SOL    HW215420   1.609   4.624   4.944  0.4797  0.1451 -0.0702
 1263SOL     OW15421   1.803   2.154   7.777  1.1145  0.2995 -0.8100
 1263SOL    HW115422   1.765   2.075   7.739  0.6386  1.3016 -2.4235
 1263SOL    HW215423   1.846   2.110   7.850  2.5102 -0.9873 -2.4192
 1264SOL     OW15424   3.890   3.972  10.137 -0.3123  0.3856 -0.5070
 1264SOL    HW115425   3.927   4.022  10.210 -1.4198  0.9333 -0.3145
 1264SOL    HW215426   3.817   4.030  10.118 -0.1271  0.6564 -0.3871
 1265SOL     OW15427   2.264   1.478  16.020 -0.3342 -0.0861 -0.6638
 1265SOL    HW115428   2.324   1.432  15.962 -0.0043 -0.3025 -0.1473
 1265SOL    HW215429   2.186   1.428  15.995 -1.5161  1.2757  0.2961
 1266SOL     OW15430   4.259   0.738  12.923  0.7872 -0.4044  0.1682
 1266SOL    HW115431   4.257   0.798  12.849 -0.0098 -2.0984 -1.1610
 1266SOL    HW215432   4.274   0.656  12.878 -0.3398 -0.2192 -0.5409
 1267SOL     OW15433   3.937   4.491   6.241 -0.0058  0.3691  0.3840
 1267SOL    HW115434   3.926   4.578   6.279 -1.5499  0.5276 -0.4468
 1267SOL    HW215435   3.863   4.479   6.182 -1.2635  1.7712  1.6943
 1268SOL     OW15436   2.296   3.684   4.236  0.1867 -0.1975  0.3932
 1268SOL    HW115437   2.314   3.678   4.330 -1.0057 -1.7615  0.5168
 1268SOL    HW215438   2.371   3.635   4.204 -0.4276 -0.7425 -0.2090
 1269SOL     OW15439   1.021   3.926   1.487  0.3111 -0.2382  0.3732
 1269SOL    HW115440   0.964   3.914   1.562  0.6394 -0.0146  0.6563
 1269SOL    HW215441   0.965   3.896   1.415 -0.8195 -0.8117  1.4931
 1270SOL     OW15442   1.125   3.545   1.965  0.7119  0.2391  0.1318
 1270SOL    HW115443   1.078   3.501   1.895  0.8674  0.6412 -0.2220
 1270SOL    HW215444   1.116   3.637   1.942  0.5576 -0.5269 -2.8408
 1271SOL     OW15445   0.623   1.544  10.057 -0.0294 -0.5815 -0.2772
 1271SOL    HW115446   0.706   1.582  10.084 -0.1212  0.1507 -1.0212
 1271SOL    HW215447   0.598   1.607   9.989  0.1049 -0.3887 -0.1439
 1272SOL     OW15448   1.772   1.406  12.256 -0.4500 -0.1689 -0.2766
 1272SOL    HW115449   1.751   1.469  12.187  0.5606  1.7682  1.1473
 1272SOL    HW215450   1.760   1.326  12.206  0.1492 -0.7593  0.5251
 1273SOL     OW15451   4.389   0.596   4.097  0.0658  0.0786 -0.0789
 1273SOL    HW115452   4.298   0.597   4.068 -0.1041 -1.0326  0.4042
 1273SOL    HW215453   4.397   0.502   4.082  0.6204  0.0356  0.4682
 1274SOL     OW15454   4.591   2.912  16.279 -0.5885 -0.5049 -0.1694
 1274SOL    HW115455   4.667   2.945  16.229 -0.6105  1.7379  1.2730
 1274SOL    HW215456   4.628   2.835  16.322 -1.4644 -1.3869 -1.0061
 1275SOL     OW15457   2.572   1.116   5.729 -0.5039 -0.4870  0.1378
 1275SOL    HW115458   2.598   1.142   5.817 -1.5712 -0.1297  0.3445
 1275SOL    HW215459   2.592   1.023   5.729 -0.1831 -0.4185 -0.1124
 1276SOL     OW15460   3.610   1.398   3.469  0.8180 -0.2091 -0.3211
 1276SOL    HW115461   3.536   1.339   3.478  1.2489 -0.4998  1.3848
 1276SOL    HW215462   3.572   1.462   3.410 -0.5841  0.6031  1.4624
 1277SOL     OW15463   4.278   3.207   3.141  0.4597  0.3675 -0.3738
 1277SOL    HW115464   4.367   3.191   3.108  1.9890  1.8707  2.9933
 1277SOL    HW215465   4.222   3.187   3.066  0.3127  1.3834 -0.5410
 1278SOL     OW15466   4.162   1.661   1.891  0.4823 -0.2874  0.5089
 1278SOL    HW115467   4.246   1.626   1.862 -1.0041 -0.6392 -3.2939
 1278SOL    HW215468   4.159   1.752   1.865 -1.8216 -0.3735  0.4514
 1279SOL     OW15469   3.449   1.438   2.547 -0.4301 -0.0622 -0.7212
 1279SOL    HW115470   3.425   1.530   2.549 -0.5061 -0.1680  3.0870
 1279SOL    HW215471   3.367   1.392   2.569  0.6352 -1.0009  1.3039
 1280SOL     OW15472   1.662   1.560   6.310 -0.4600 -0.3232  0.3510
 1280SOL    HW115473   1.728   1.539   6.244 -0.2975  0.0917  0.3751
 1280SOL    HW215474   1.602   1.618   6.265  1.4535  1.2815 -0.1651
 1281SOL     OW15475   2.770   0.397   0.487 -0.1915  0.4599  0.2688
 1281SOL    HW115476   2.802   0.354   0.567 -0.5439  0.5763  0.4702
 1281SOL    HW215477   2.824   0.475   0.477  0.5139  0.0073  0.5437
 1282SOL     OW15478   3.546   2.075   5.614  0.5311  0.0528 -0.2445
 1282SOL    HW115479   3.602   2.042   5.543  0.7572 -0.4081  0.1452
 1282SOL    HW215480   3.608   2.111   5.677  0.6116  0.0041 -0.2967
 1283SOL     OW15481   2.247   2.031   6.492  0.4289 -0.3084  0.1710
 1283SOL    HW115482   2.304   2.067   6.424 -2.3519 -0.5435 -2.2717
 1283SOL    HW215483   2.308   1.971   6.536  0.7285 -1.4877 -1.8329
 1284SOL     OW15484   0.374   0.962   9.293 -0.2167 -0.2889 -0.4471
 1284SOL    HW115485   0.421   0.905   9.231  0.8950 -1.7849  1.7629
 1284SOL    HW215486   0.433   0.972   9.368  0.2917 -3.2314 -0.4620
 1285SOL     OW15487   0.071   0.096   3.793  0.5899 -0.2413 -0.3543
 1285SOL    HW115488   0.018   0.089   3.713 -1.0488  0.0670  0.6979
 1285SOL    HW215489   0.150   0.133   3.755  0.8167 -0.2322  0.1211
 1286SOL     OW15490   3.110   2.638   5.127  0.3117 -0.4351  0.3014
 1286SOL    HW115491   3.153   2.673   5.205 -0.7659  1.7412 -0.0763
 1286SOL    HW215492   3.187   2.611   5.078 -1.0677 -2.7848 -0.5802
 1287SOL     OW15493   0.694   1.486   9.281 -0.3101  0.1489  0.2329
 1287SOL    HW115494   0.724   1.453   9.366  1.2512  0.6418 -0.1215
 1287SOL    HW215495   0.654   1.563   9.322  1.7831  1.1691  0.4023
 1288SOL     OW15496   1.883   1.460   7.557  0.1301  0.2482  0.5077
 1288SOL    HW115497   1.833   1.540   7.540 -0.3028  0.2473  1.7790
 1288SOL    HW215498   1.889   1.419   7.471  0.0625 -0.0756  0.6551
 1289SOL     OW15499   4.596   0.462  12.790  0.2123 -0.0270  0.1271
 1289SOL    HW115500   4.637   0.405  12.724 -0.0470  0.4681 -0.4611
 1289SOL    HW215501   4.637   0.548  12.776  1.2012 -0.2513  1.6832
 1290SOL     OW15502   1.602   0.279   4.896 -0.2225  0.0687  0.5270
 1290SOL    HW115503   1.520   0.264   4.848 -2.8241  1.3873  4.5830
 1290SOL    HW215504   1.621   0.370   4.874  0.8999 -0.7707 -1.9259
 1291SOL     OW15505   3.912   4.432   8.011  0.0536 -0.6974 -0.7373
 1291SOL    HW115506   3.831   4.381   8.006 -0.4461 -0.1241  1.5405
 1291SOL    HW215507   3.983   4.385   7.968 -1.1050 -1.7837 -1.4808
 1292SOL     OW15508   3.396   0.434   5.546 -0.4185  0.4862 -0.6363
 1292SOL    HW115509   3.390   0.444   5.451  1.2769  3.1505 -0.4570
 1292SOL    HW215510   3.362   0.345   5.559 -1.5447  0.8824 -0.8751
 1293SOL     OW15511   2.791   3.140  14.644 -0.0081  0.1050 -0.6444
 1293SOL    HW115512   2.702   3.171  14.627  0.0382  0.0226 -1.0226
 1293SOL    HW215513   2.842   3.219  14.627  1.3596 -0.7315 -0.4822
 1294SOL     OW15514   3.278   0.424   3.776  0.3423  0.3442 -0.1609
 1294SOL    HW115515   3.360   0.402   3.821 -0.5717  1.1374  1.9390
 1294SOL    HW215516   3.277   0.358   3.707 -1.4174 -0.7197  0.8665
 1295SOL     OW15517   3.402   3.300   2.923  0.3475  0.1152 -0.2732
 1295SOL    HW115518   3.477   3.273   2.976 -0.9650 -1.4937  0.7131
 1295SOL    HW215519   3.431   3.277   2.834 -0.8891  0.0778 -0.6560
 1296SOL     OW15520   2.531   1.115   4.362 -0.1164 -0.2224 -0.0458
 1296SOL    HW115521   2.453   1.170   4.365 -0.4858 -0.6255 -1.9720
 1296SOL    HW215522   2.598   1.184   4.356 -0.8755  0.6893  2.1315
 1297SOL     OW15523   3.473   4.249  14.614 -0.1900 -0.3078  0.2184
 1297SOL    HW115524   3.415   4.323  14.628 -1.0438 -0.9059 -0.1347
 1297SOL    HW215525   3.444   4.235  14.523  0.5866 -1.5303  0.1526
 1298SOL     OW15526   2.502   0.575  10.197  0.1284 -0.2708 -0.3619
 1298SOL    HW115527   2.577   0.621  10.158  0.4090 -1.3570 -1.1283
 1298SOL    HW215528   2.456   0.644  10.243  1.6097 -0.1590  0.9627
 1299SOL     OW15529   3.776   2.165   5.765  0.2187 -0.0030  0.3424
 1299SOL    HW115530   3.732   2.250   5.764  0.9322  0.3664  0.2584
 1299SOL    HW215531   3.866   2.195   5.781  0.9293 -0.9240 -1.9135
 1300SOL     OW15532   1.803   3.781   0.879 -0.0958  0.4804 -0.6061
 1300SOL    HW115533   1.757   3.840   0.819 -1.2201 -0.9951 -1.1810
 1300SOL    HW215534   1.808   3.836   0.957 -2.6635 -2.8814  1.8932
 1301SOL     OW15535   3.965   0.622  11.933  0.2585 -0.1719 -0.2227
 1301SOL    HW115536   4.003   0.710  11.925 -0.6055  0.0256 -2.0288
 1301SOL    HW215537   4.019   0.578  11.998 -0.2646 -2.0230 -1.0451
 1302SOL     OW15538   4.263   4.577   7.615  0.0665  0.2529 -0.6035
 1302SOL    HW115539   4.354   4.548   7.608  0.1446  0.3506  0.0330
 1302SOL    HW215540   4.239   4.542   7.700  0.0597 -0.8817 -1.0721
 1303SOL     OW15541   2.204   3.355   7.546 -0.0892  0.3613 -0.0867
 1303SOL    HW115542   2.171   3.291   7.483 -0.5997  0.7194 -0.1771
 1303SOL    HW215543   2.274   3.397   7.497  0.4365 -1.5102 -0.9561
 1304SOL     OW15544   2.631   2.517   7.762 -0.0399 -0.3140 -0.5234
 1304SOL    HW115545   2.695   2.470   7.816 -2.0197 -2.7381 -0.3065
 1304SOL    HW215546   2.587   2.559   7.836  1.8456  2.2289 -0.8451
 1305SOL     OW15547   3.728   1.334   2.087 -0.1409 -0.4860  0.9099
 1305SOL    HW115548   3.731   1.375   2.174  1.8214 -0.7060  0.9489
 1305SOL    HW215549   3.812   1.290   2.075 -0.0673  0.1742 -0.8736
 1306SOL     OW15550   0.290   1.770   4.375  0.0993  0.4355 -0.0986
 1306SOL    HW115551   0.279   1.745   4.283 -1.9774  0.2943  0.1823
 1306SOL    HW215552   0.328   1.692   4.416  0.4367  0.4955 -0.2971
 1307SOL     OW15553   4.060   0.636   6.448 -0.0278  0.4846 -0.1713
 1307SOL    HW115554   4.009   0.567   6.490 -2.7167  1.8945 -1.1129
 1307SOL    HW215555   4.014   0.640   6.365  2.0108  1.2909 -1.2622
 1308SOL     OW15556   1.171   2.117   4.286  0.1241  0.3531 -0.3011
 1308SOL    HW115557   1.226   2.174   4.340  1.0127 -1.3276  0.5632
 1308SOL    HW215558   1.093   2.119   4.341  1.0166 -0.7313  0.9939
 1309SOL     OW15559   0.993   2.083   1.758 -0.1274 -0.2944  0.1786
 1309SOL    HW115560   1.033   1.999   1.736  0.0867 -0.6656  1.9926
 1309SOL    HW215561   0.977   2.125   1.673  0.4307  1.8169  1.1163
 1310SOL     OW15562   1.434   2.410   7.530  0.5479 -0.5912 -0.0230
 1310SOL    HW115563   1.412   2.317   7.532  1.0286 -0.7042  0.1999
 1310SOL    HW215564   1.429   2.434   7.623  0.4602  0.8847 -0.4111
 1311SOL     OW15565   1.488   0.370  16.619 -0.1293 -0.9460  0.0542
 1311SOL    HW115566   1.394   0.351  16.615  0.0870 -1.6709 -1.2994
 1311SOL    HW215567   1.514   0.374  16.711 -0.8648  0.4922  0.1856
 1312SOL     OW15568   2.202   3.962  13.800  0.4472  0.0850 -0.1367
 1312SOL    HW115569   2.156   3.898  13.745 -0.0436  1.3759 -1.2382
 1312SOL    HW215570   2.289   3.937  13.770 -0.3549 -0.1359 -2.2869
 1313SOL     OW15571   0.461   1.558   2.370  0.2545  0.5798  0.5145
 1313SOL    HW115572   0.529   1.508   2.324  0.9016  2.1958 -0.2970
 1313SOL    HW215573   0.496   1.648   2.375  0.1332  0.8013 -2.4169
 1314SOL     OW15574   1.684   1.580   3.063 -0.4759 -0.4772  0.4338
 1314SOL    HW115575   1.766   1.593   3.111  0.3281  1.8186 -1.6381
 1314SOL    HW215576   1.676   1.650   2.999 -1.9013 -1.4982 -0.5097
 1315SOL     OW15577   2.660   3.152   5.859  0.2697 -0.0099 -0.4006
 1315SOL    HW115578   2.685   3.061   5.874  0.0390  0.2994  1.9307
 1315SOL    HW215579   2.627   3.149   5.769 -1.5588 -1.1005  0.3074
 1316SOL     OW15580   0.792   1.600   3.532  0.1198 -0.4767 -0.3269
 1316SOL    HW115581   0.846   1.576   3.457  0.6034  0.1094 -0.1691
 1316SOL    HW215582   0.823   1.545   3.604  0.9206  0.3319 -0.0377
 1317SOL     OW15583   4.283   4.520  10.665  0.0606 -0.0489 -0.1854
 1317SOL    HW115584   4.216   4.456  10.690 -0.5603  1.0974  1.0762
 1317SOL    HW215585   4.363   4.469  10.679 -1.2432 -2.0124  0.1591
 1318SOL     OW15586   2.555   4.535   8.303 -0.1678 -0.2241 -0.2617
 1318SOL    HW115587   2.478   4.543   8.246  1.1259 -2.1167 -2.2399
 1318SOL    HW215588   2.588   4.451   8.272  0.3137 -0.8327  1.8509
 1319SOL     OW15589   1.856   0.715   7.326 -0.1676 -0.4071 -0.1552
 1319SOL    HW115590   1.906   0.639   7.355 -3.0021 -1.2370  2.5368
 1319SOL    HW215591   1.785   0.722   7.389  1.5522 -3.2521  2.1135
 1320SOL     OW15592   4.532   2.243  14.458  0.6826  0.2397 -0.2454
 1320SOL    HW115593   4.607   2.201  14.499 -0.0591 -2.3426 -1.5064
 1320SOL    HW215594   4.460   2.227  14.519  1.4356 -1.1309  0.2722
 1321SOL     OW15595   1.411   2.267   4.010  0.7271 -0.1438  0.5403
 1321SOL    HW115596   1.405   2.348   4.062 -0.0347 -0.4871  0.9874
 1321SOL    HW215597   1.485   2.222   4.050  0.8359 -0.0807  0.4120
 1322SOL     OW15598   3.208   1.038  10.357  0.7354  0.2658 -0.2079
 1322SOL    HW115599   3.237   1.112  10.411 -0.1080  1.0895 -0.8945
 1322SOL    HW215600   3.281   0.976  10.360  1.0535  0.7024  1.1522
 1323SOL     OW15601   0.348   3.331   2.332  0.4580  0.2513 -0.3275
 1323SOL    HW115602   0.317   3.300   2.247  0.5100  0.7064 -0.5117
 1323SOL    HW215603   0.273   3.317   2.390  1.7622 -0.5859  1.1666
 1324SOL     OW15604   1.770   0.293  12.873 -0.2590 -0.2874  0.2233
 1324SOL    HW115605   1.708   0.221  12.880  0.5180 -0.7954  1.8742
 1324SOL    HW215606   1.840   0.246  12.918 -0.2076  0.9361  1.4324
 1325SOL     OW15607   2.876   1.708   4.162 -0.0142 -0.5078  0.3418
 1325SOL    HW115608   2.930   1.634   4.133 -1.2783 -1.5408  0.5978
 1325SOL    HW215609   2.936   1.782   4.168  0.6485 -1.0141  0.0531
 1326SOL     OW15610   0.711   3.511   6.269  0.6388  0.3965  0.1974
 1326SOL    HW115611   0.708   3.600   6.304 -0.0417  0.9847 -1.3603
 1326SOL    HW215612   0.697   3.471   6.354  0.2696 -2.2872 -1.1114
 1327SOL     OW15613   2.076   3.419  15.983  0.0668  0.3337  0.2041
 1327SOL    HW115614   2.016   3.464  15.924 -0.3608  0.1241  0.4765
 1327SOL    HW215615   2.014   3.357  16.021 -1.3792  2.2713  1.0122
 1328SOL     OW15616   3.790   3.378   8.292 -0.0643 -0.0752 -0.2501
 1328SOL    HW115617   3.777   3.301   8.347  1.6691 -0.7044 -0.7420
 1328SOL    HW215618   3.726   3.437   8.333 -0.7852 -1.9886  1.3542
 1329SOL     OW15619   0.368   1.278   8.152 -0.1311  0.1848  0.2090
 1329SOL    HW115620   0.449   1.228   8.152 -2.2876 -3.2912 -0.5835
 1329SOL    HW215621   0.353   1.297   8.059 -0.6208  2.8349  0.8157
 1330SOL     OW15622   1.207   0.872   9.652  0.6970  0.1813 -0.2902
 1330SOL    HW115623   1.203   0.780   9.680  0.3477  0.5686  0.9604
 1330SOL    HW215624   1.145   0.922   9.705  0.8202 -0.9848  0.9692
 1331SOL     OW15625   2.364   2.341  12.728  0.4214 -0.3658 -0.5004
 1331SOL    HW115626   2.375   2.272  12.662  0.4201  0.6322 -1.5573
 1331SOL    HW215627   2.434   2.313  12.787  0.2135  1.5996  0.6772
 1332SOL     OW15628   4.096   1.661  15.999 -0.1553  0.1982 -0.5261
 1332SOL    HW115629   4.008   1.669  15.962  0.1557 -0.2540 -1.3493
 1332SOL    HW215630   4.099   1.737  16.057 -1.5879 -0.5566  0.5438
 1333SOL     OW15631   1.673   3.922   9.059  0.1477 -0.0598  0.1940
 1333SOL    HW115632   1.671   3.827   9.066  0.0627 -0.1939 -1.6362
 1333SOL    HW215633   1.764   3.936   9.034 -0.3702 -1.1042 -2.2165
 1334SOL     OW15634   4.642   3.053   8.293 -0.2101  0.7729 -0.2144
 1334SOL    HW115635   4.564   3.106   8.282 -0.2518  1.1191  1.6731
 1334SOL    HW215636   4.643   3.006   8.210  0.6058  0.1890  0.1158
 1335SOL     OW15637   3.333   2.880   2.858 -0.1784 -0.2135  0.6399
 1335SOL    HW115638   3.285   2.908   2.936 -0.5705 -1.6234  0.9002
 1335SOL    HW215639   3.405   2.838   2.904  0.3128 -0.3360 -0.2451
 1336SOL     OW15640   1.378   1.050   7.220 -0.1151 -0.1148 -0.0141
 1336SOL    HW115641   1.356   1.101   7.142  2.4730  0.7774 -0.1614
 1336SOL    HW215642   1.350   0.962   7.193  0.3600 -0.7668  1.6482
 1337SOL     OW15643   0.657   1.926   8.442 -0.5613  0.3441  0.1965
 1337SOL    HW115644   0.742   1.912   8.401 -0.7602  0.1855 -0.1674
 1337SOL    HW215645   0.677   1.923   8.535  0.3743  1.8895  0.0307
 1338SOL     OW15646   4.479   1.917   5.520  0.0992  0.2768 -0.3762
 1338SOL    HW115647   4.474   2.013   5.526 -1.6029  0.1415  0.1562
 1338SOL    HW215648   4.569   1.914   5.486  0.0693  3.3402 -0.7395
 1339SOL     OW15649   2.691   1.306   5.545  0.5248 -0.6319 -0.0854
 1339SOL    HW115650   2.728   1.375   5.599  1.3058 -0.3326 -1.0037
 1339SOL    HW215651   2.655   1.249   5.612  1.1163 -1.9960 -0.9219
 1340SOL     OW15652   1.009   1.031   8.407  0.0570  0.5805 -0.3217
 1340SOL    HW115653   0.950   1.081   8.463 -2.3889 -0.6738 -1.8041
 1340SOL    HW215654   1.083   1.091   8.418  1.1105 -0.7100 -0.3477
 1341SOL     OW15655   4.593   2.410   3.733  0.0678  0.7199  0.0777
 1341SOL    HW115656   4.588   2.473   3.804 -3.1126  0.6703 -0.1223
 1341SOL    HW215657   4.502   2.396   3.708  0.2523  0.1648 -0.2990
 1342SOL     OW15658   4.364   4.174  10.855 -0.0839  0.5148 -0.3985
 1342SOL    HW115659   4.355   4.099  10.797 -0.6787  1.5373 -1.6283
 1342SOL    HW215660   4.282   4.217  10.832  0.8417  2.6031  0.1427
 1343SOL     OW15661   1.353   2.861   7.927 -0.0153 -0.1561  0.2357
 1343SOL    HW115662   1.288   2.887   7.861  0.0543  0.5248  0.4326
 1343SOL    HW215663   1.395   2.943   7.953 -0.4685 -0.1902  1.0587
 1344SOL     OW15664   1.996   1.657   5.966  0.2889 -0.4453 -0.0395
 1344SOL    HW115665   2.038   1.722   6.021 -0.6829  1.4587 -1.5543
 1344SOL    HW215666   2.066   1.605   5.925 -0.5875 -1.8631  0.2360
 1345SOL     OW15667   0.591   3.777   8.368  0.1481 -0.4325  0.0646
 1345SOL    HW115668   0.569   3.692   8.331  2.0861 -0.7840 -0.2849
 1345SOL    HW215669   0.510   3.824   8.348  0.4971  0.2103  0.1568
 1346SOL     OW15670   4.057   3.177   7.662 -0.0770  0.1566  0.7715
 1346SOL    HW115671   4.072   3.271   7.666  1.0600  0.0656 -1.0602
 1346SOL    HW215672   4.126   3.159   7.598 -0.5921 -0.6966  0.4552
 1347SOL     OW15673   0.278   1.956   5.141 -0.0305 -0.0933  0.0172
 1347SOL    HW115674   0.258   2.036   5.189 -0.5234 -0.0051 -0.3466
 1347SOL    HW215675   0.195   1.909   5.136  0.6102 -1.5200  2.3704
 1348SOL     OW15676   4.424   1.055  12.206 -0.0915 -0.5317  0.0867
 1348SOL    HW115677   4.344   1.099  12.178  1.1594  1.8924  0.3168
 1348SOL    HW215678   4.463   1.034  12.121  2.1726  0.0319  0.9966
 1349SOL     OW15679   3.522   0.328   1.347  0.0178 -0.1359 -0.6049
 1349SOL    HW115680   3.461   0.308   1.418  1.1302 -0.8982  0.1407
 1349SOL    HW215681   3.539   0.240   1.313 -2.6740 -0.2018 -1.7319
 1350SOL     OW15682   2.386   3.050   9.184  0.2184  0.3542 -0.2302
 1350SOL    HW115683   2.436   3.042   9.103  0.7871 -0.8383  0.2300
 1350SOL    HW215684   2.446   3.053   9.258  0.2074 -0.8663 -0.1700
 1351SOL     OW15685   1.813   4.174  17.520  0.0209  1.1389 -0.0713
 1351SOL    HW115686   1.879   4.229  17.562 -2.4084  1.6145  3.1311
 1351SOL    HW215687   1.841   4.189  17.429 -0.3574  1.1620 -0.1826
 1352SOL     OW15688   1.728   3.366   0.353 -0.2388 -0.4429 -0.4918
 1352SOL    HW115689   1.691   3.291   0.398 -0.8379 -0.5159 -1.1131
 1352SOL    HW215690   1.809   3.337   0.309 -0.5463 -0.4057 -1.0778
 1353SOL     OW15691   2.684   1.910  13.123 -0.4017  0.1867  0.5768
 1353SOL    HW115692   2.681   1.935  13.031  1.6075  0.6799  0.6380
 1353SOL    HW215693   2.664   1.817  13.117 -0.3939  0.2976 -0.9883
 1354SOL     OW15694   3.200   4.569  11.176 -0.1024 -0.1932  0.2455
 1354SOL    HW115695   3.121   4.622  11.175  0.5902  0.8353 -0.1449
 1354SOL    HW215696   3.162   4.489  11.139  1.7306 -1.1620  0.4446
 1355SOL     OW15697   3.878   3.181   8.014  0.1636  0.0328 -0.2518
 1355SOL    HW115698   3.940   3.122   7.969  0.7298  1.0520 -0.7940
 1355SOL    HW215699   3.937   3.252   8.037 -0.9761  1.5788 -2.1698
 1356SOL     OW15700   4.175   4.024  16.372 -0.0758  0.1614  0.4551
 1356SOL    HW115701   4.103   3.969  16.339 -0.6118  1.3686 -0.3938
 1356SOL    HW215702   4.130   4.085  16.431  0.2852 -0.7309  1.6673
 1357SOL     OW15703   3.191   4.168  17.620  0.1332  0.0295 -0.3501
 1357SOL    HW115704   3.224   4.130  17.701  0.5080 -0.7326 -0.8528
 1357SOL    HW215705   3.239   4.118  17.554  1.4250  1.8149 -0.7495
 1358SOL     OW15706   3.529   0.371   3.925 -0.0829 -0.2631 -0.1775
 1358SOL    HW115707   3.603   0.360   3.866 -0.9526 -0.4585 -1.2212
 1358SOL    HW215708   3.568   0.441   3.978 -0.3296 -0.3142  0.0729
 1359SOL     OW15709   1.675   4.161  14.348 -0.5095 -0.1038 -0.3009
 1359SOL    HW115710   1.593   4.176  14.302 -0.2259  1.5775 -0.2891
 1359SOL    HW215711   1.672   4.069  14.371  2.3088 -0.5468 -1.7452
 1360SOL     OW15712   1.925   2.231   6.369 -0.3827  0.1231 -0.2199
 1360SOL    HW115713   1.932   2.156   6.428 -3.1962 -0.4251 -0.5884
 1360SOL    HW215714   1.946   2.193   6.284 -0.3451 -0.2174 -0.0584
 1361SOL     OW15715   3.420   2.251   1.513  0.2860 -0.0230  0.1393
 1361SOL    HW115716   3.423   2.157   1.496 -0.0275 -0.2284  1.2072
 1361SOL    HW215717   3.422   2.295   1.427 -1.7695 -0.9069 -0.3443
 1362SOL     OW15718   3.375   4.629   5.493  1.0374  0.3929 -0.2570
 1362SOL    HW115719   3.326   4.567   5.547  2.6502  0.3851  1.1881
 1362SOL    HW215720   3.452   4.577   5.470  1.4020  0.7441  0.1635
 1363SOL     OW15721   3.935   2.870   2.259 -0.1868 -0.0755 -0.6705
 1363SOL    HW115722   3.900   2.811   2.326 -2.2974 -2.1380 -3.5680
 1363SOL    HW215723   3.851   2.895   2.220 -0.2070  0.5625 -0.2115
 1364SOL     OW15724   2.412   4.113   8.980  0.2845 -0.0139  0.4455
 1364SOL    HW115725   2.412   4.017   8.978  0.6793 -0.0230  0.8727
 1364SOL    HW215726   2.442   4.143   8.895 -0.4445 -0.1335  0.1505
 1365SOL     OW15727   4.118   0.364   6.817  0.0821  0.0659  0.5293
 1365SOL    HW115728   4.180   0.390   6.749  1.7118  0.3599  2.1282
 1365SOL    HW215729   4.061   0.441   6.824 -1.2462 -0.7763 -1.0544
 1366SOL     OW15730   2.145   2.608   5.194  0.4209 -0.2354 -0.2661
 1366SOL    HW115731   2.170   2.697   5.169  1.7702 -0.4390  0.3602
 1366SOL    HW215732   2.083   2.586   5.123  0.3871 -1.1417  0.0369
 1367SOL     OW15733   2.911   0.769  14.850  0.2390 -0.2497  0.2302
 1367SOL    HW115734   2.865   0.851  14.834  0.5745 -0.5285 -2.1640
 1367SOL    HW215735   2.972   0.779  14.777 -0.8063 -1.8880 -0.8821
 1368SOL     OW15736   0.250   3.567   3.080 -0.0089 -0.3591 -0.2714
 1368SOL    HW115737   0.279   3.591   2.992 -1.8727 -2.2587 -1.4158
 1368SOL    HW215738   0.171   3.619   3.095 -0.2779 -0.8303 -0.0616
 1369SOL     OW15739   4.606   0.076   4.157  0.5285  0.2159 -0.3477
 1369SOL    HW115740   4.701   0.068   4.165  0.6926  2.9788  0.3543
 1369SOL    HW215741   4.574   4.734   4.196  2.7508  0.7701  2.6286
 1370SOL     OW15742   1.730   0.974   6.967 -0.5025  0.1841 -0.0919
 1370SOL    HW115743   1.651   0.969   6.913 -1.3859  1.2765  1.0904
 1370SOL    HW215744   1.716   0.893   7.015  0.9964  0.5337  0.9653
 1371SOL     OW15745   3.388   1.859   3.167  0.4026 -0.0798 -0.0106
 1371SOL    HW115746   3.464   1.910   3.195  0.7243 -0.3203 -0.4470
 1371SOL    HW215747   3.328   1.864   3.241  0.2021 -0.5812 -0.1352
 1372SOL     OW15748   2.683   1.964   3.516 -0.2146  0.1169 -0.0175
 1372SOL    HW115749   2.595   1.991   3.487 -0.6821  1.4567  2.6655
 1372SOL    HW215750   2.658   1.907   3.589  0.4699  1.1675  1.0192
 1373SOL     OW15751   0.391   0.538   1.863 -0.8340  0.4776 -0.4897
 1373SOL    HW115752   0.476   0.578   1.844 -0.8990  0.4604 -0.8249
 1373SOL    HW215753   0.415   0.499   1.947 -0.6359  1.5298 -0.0610
 1374SOL     OW15754   0.875   1.415   3.024 -0.0856 -0.1267 -0.0195
 1374SOL    HW115755   0.826   1.421   2.942  1.2814 -2.2073 -0.9988
 1374SOL    HW215756   0.851   1.328   3.056 -0.4596  1.2332  3.3726
 1375SOL     OW15757   1.689   1.669   2.341 -0.2709 -0.1394 -0.4153
 1375SOL    HW115758   1.784   1.669   2.350 -0.2505 -1.8991 -0.7923
 1375SOL    HW215759   1.696   1.691   2.248  1.8596 -0.0773 -0.2454
 1376SOL     OW15760   0.467   3.849   7.635  0.4981 -0.0070  0.2456
 1376SOL    HW115761   0.386   3.820   7.592  0.1590  0.6335  0.4530
 1376SOL    HW215762   0.436   3.851   7.725  2.6263 -3.4797  1.0708
 1377SOL     OW15763   3.204   0.682  12.645  1.0577  0.2158 -0.0835
 1377SOL    HW115764   3.258   0.617  12.691  0.7907  0.0296 -0.0319
 1377SOL    HW215765   3.178   0.741  12.716 -0.0110  0.5064 -0.7362
 1378SOL     OW15766   4.723   1.880   2.887  0.0654 -0.7278 -0.3047
 1378SOL    HW115767   0.078   1.894   2.880 -0.3481  2.4572  0.3489
 1378SOL    HW215768   4.703   1.974   2.887 -1.3430 -1.0282 -4.2583
 1379SOL     OW15769   3.838   1.193   5.391  0.6484 -0.6802 -0.0434
 1379SOL    HW115770   3.918   1.140   5.403 -0.2294 -1.7385  1.1644
 1379SOL    HW215771   3.773   1.125   5.376  0.2446 -0.1505 -0.6292
 1380SOL     OW15772   4.342   0.731  13.182 -0.2034 -0.6055  0.0280
 1380SOL    HW115773   4.328   0.740  13.088  0.3206 -0.6120 -0.0535
 1380SOL    HW215774   4.329   0.821  13.212  1.1370  0.1151 -1.5641
 1381SOL     OW15775   2.560   2.714   2.340 -0.0112 -0.3205  0.2902
 1381SOL    HW115776   2.487   2.772   2.318  0.4217 -0.0347 -0.4150
 1381SOL    HW215777   2.565   2.662   2.260 -2.0417 -0.0258 -0.0141
 1382SOL     OW15778   0.126   3.395   3.674  0.2906 -0.6477  0.1748
 1382SOL    HW115779   0.035   3.389   3.704  0.1221  1.2219  0.0252
 1382SOL    HW215780   0.177   3.418   3.752  0.7921 -1.3692  0.0585
 1383SOL     OW15781   3.799   2.589   1.548 -0.1733 -0.1996  0.0213
 1383SOL    HW115782   3.713   2.585   1.508 -1.1368  1.6779  1.8883
 1383SOL    HW215783   3.774   2.623   1.634  3.3365 -1.3218  1.5171
 1384SOL     OW15784   3.198   1.912   7.583 -0.3196  0.1047 -0.2980
 1384SOL    HW115785   3.266   1.871   7.530 -0.9283 -0.0065 -0.9916
 1384SOL    HW215786   3.145   1.832   7.591  0.7873 -0.3128  2.8783
 1385SOL     OW15787   3.120   2.884   3.693  0.0734 -0.2639  0.7209
 1385SOL    HW115788   3.098   2.805   3.646  0.1582  0.6169 -0.7981
 1385SOL    HW215789   3.143   2.937   3.617 -2.7355  0.6704  0.5139
 1386SOL     OW15790   3.382   0.044   4.238 -0.0632 -0.5922 -0.6333
 1386SOL    HW115791   3.337   0.095   4.172  0.0747 -2.0939 -1.8891
 1386SOL    HW215792   3.470   0.023   4.205 -1.0891 -3.0349 -1.7917
 1387SOL     OW15793   2.751   4.033  11.499 -0.4041 -0.2871  0.0570
 1387SOL    HW115794   2.684   4.080  11.451  2.0176  0.2845 -2.7375
 1387SOL    HW215795   2.767   4.090  11.575  0.5349  0.3351 -0.6138
 1388SOL     OW15796   0.709   1.838   7.257  0.0307 -0.1469  0.0815
 1388SOL    HW115797   0.692   1.800   7.343  0.3016  2.1587  1.1538
 1388SOL    HW215798   0.804   1.830   7.252  0.1395  1.2751 -0.1929
 1389SOL     OW15799   1.758   2.732   2.434  0.0073 -0.4260 -0.3410
 1389SOL    HW115800   1.779   2.650   2.478  0.4559 -0.8218 -1.2838
 1389SOL    HW215801   1.678   2.709   2.388 -0.2534 -0.3693  0.0861
 1390SOL     OW15802   1.540   1.249   7.659  0.3577 -0.4694  0.2037
 1390SOL    HW115803   1.512   1.176   7.603 -0.0770 -0.6313  0.6256
 1390SOL    HW215804   1.550   1.321   7.598  1.3521  0.1391  1.0927
 1391SOL     OW15805   1.907   4.106   6.093  0.5036 -0.3345 -0.8122
 1391SOL    HW115806   1.958   4.180   6.061  3.1303 -1.8156 -0.0629
 1391SOL    HW215807   1.884   4.144   6.177 -1.1287 -2.3723 -0.3389
 1392SOL     OW15808   1.928   4.296   5.501  0.7504 -0.1820  0.0607
 1392SOL    HW115809   1.845   4.343   5.490  0.8702  0.4307  1.8105
 1392SOL    HW215810   1.939   4.258   5.414 -0.1089 -0.5652  0.1156
 1393SOL     OW15811   1.327   3.386   4.602  0.2056 -0.2044  0.0524
 1393SOL    HW115812   1.286   3.337   4.673  0.2511 -0.1272  0.1314
 1393SOL    HW215813   1.405   3.421   4.645 -0.1150 -0.6198  0.9659
 1394SOL     OW15814   1.851   1.216  11.491  0.1157 -0.2255 -0.4030
 1394SOL    HW115815   1.855   1.276  11.416  0.6805  0.3375  0.0787
 1394SOL    HW215816   1.943   1.224  11.514  0.1118  2.8522 -1.4716
 1395SOL     OW15817   1.648   4.556   6.026  0.8307 -0.2987 -0.2702
 1395SOL    HW115818   1.714   4.609   5.981  0.8599 -1.6040 -1.7412
 1395SOL    HW215819   1.571   4.614   6.028 -0.3469 -1.8548 -0.5630
 1396SOL     OW15820   4.039   3.821  14.064 -0.3355  0.1944 -0.1070
 1396SOL    HW115821   3.975   3.786  14.003  1.6249 -4.3980  0.4704
 1396SOL    HW215822   4.014   3.910  14.088 -0.6539 -0.0066  0.3203
 1397SOL     OW15823   0.931   2.204   6.431  0.3590 -0.4057 -0.2433
 1397SOL    HW115824   0.958   2.228   6.343 -1.8386 -3.5225 -1.7635
 1397SOL    HW215825   0.894   2.285   6.467 -0.6578 -0.7520 -0.5215
 1398SOL     OW15826   3.904   0.516  14.405 -0.1843 -0.1709  0.2189
 1398SOL    HW115827   3.957   0.488  14.331 -0.5361  1.0230 -0.4746
 1398SOL    HW215828   3.862   0.596  14.373 -0.9376  0.2026  2.1234
 1399SOL     OW15829   2.578   3.625   8.290  0.3371  0.0206 -0.3606
 1399SOL    HW115830   2.520   3.633   8.214 -1.7909  3.0175  1.5566
 1399SOL    HW215831   2.552   3.540   8.326 -0.5595  1.5412  2.5930
 1400SOL     OW15832   2.856   2.452   4.571 -0.1893  0.5710 -0.4355
 1400SOL    HW115833   2.897   2.505   4.638  1.3003  1.4325 -2.0360
 1400SOL    HW215834   2.864   2.363   4.606  1.5892  0.6408 -0.6978
 1401SOL     OW15835   2.967   0.153   6.495  0.3871  0.2189  0.0486
 1401SOL    HW115836   3.039   0.184   6.441 -0.4547  2.2202  0.0955
 1401SOL    HW215837   3.015   0.077   6.527  0.1095  0.5595  1.3134
 1402SOL     OW15838   2.904   0.572  17.321 -1.1087  0.1859  0.3387
 1402SOL    HW115839   2.878   0.545  17.233  0.3987 -3.9516  1.1319
 1402SOL    HW215840   2.997   0.550  17.311 -2.0420 -2.9940 -1.3332
 1403SOL     OW15841   0.042   4.456   4.980 -0.0755  0.6481  0.1538
 1403SOL    HW115842   0.045   4.366   4.948  1.4977  0.6042  0.4359
 1403SOL    HW215843   0.126   4.489   4.949 -0.0756  1.4972  1.0600
 1404SOL     OW15844   4.511   2.142  10.272 -0.2255  0.4068 -0.0543
 1404SOL    HW115845   4.534   2.080  10.202 -0.8666 -0.6109  0.6438
 1404SOL    HW215846   4.474   2.092  10.344 -2.0722  0.0996 -1.1924
 1405SOL     OW15847   3.117   3.026   2.400 -0.1536  0.2076 -0.3697
 1405SOL    HW115848   3.181   3.035   2.329  2.0319 -1.1344  1.4375
 1405SOL    HW215849   3.161   2.956   2.448  1.4892  1.7001  0.3001
 1406SOL     OW15850   2.137   0.786   9.553  0.3468  0.1742  1.0063
 1406SOL    HW115851   2.207   0.748   9.499  1.5582  2.7144  0.7888
 1406SOL    HW215852   2.081   0.708   9.560 -0.9900  1.1139  0.8170
 1407SOL     OW15853   3.160   1.603   6.743  0.0628  0.0534 -0.4483
 1407SOL    HW115854   3.080   1.606   6.795  0.1066 -0.4142 -0.3580
 1407SOL    HW215855   3.138   1.541   6.673 -2.2308 -1.4102  1.5918
 1408SOL     OW15856   1.630   3.495   2.613 -0.1631 -0.2388  0.0769
 1408SOL    HW115857   1.581   3.526   2.537 -1.7842 -2.0471  0.3676
 1408SOL    HW215858   1.595   3.406   2.623 -0.3369 -0.3848 -1.8928
 1409SOL     OW15859   0.969   1.913   8.977 -0.5996  0.6183 -0.1503
 1409SOL    HW115860   0.965   2.009   8.974 -0.2939  0.6753  1.2848
 1409SOL    HW215861   0.963   1.906   9.072  2.1508 -3.9504 -0.2991
 1410SOL     OW15862   1.756   0.870   7.762 -0.2946  0.2557 -0.4478
 1410SOL    HW115863   1.731   0.809   7.692 -0.2989 -1.5497  1.1048
 1410SOL    HW215864   1.684   0.898   7.819 -0.1570  1.2985 -0.8024
 1411SOL     OW15865   4.012   4.282   8.610 -0.5564  0.0162  0.1093
 1411SOL    HW115866   3.980   4.206   8.561 -0.1517 -0.2274  0.2278
 1411SOL    HW215867   4.090   4.307   8.560  0.0038  1.5125  1.7431
 1412SOL     OW15868   0.900   1.372   8.287 -0.4906  0.8710 -0.2028
 1412SOL    HW115869   0.882   1.289   8.330  2.3785 -0.1910 -1.0423
 1412SOL    HW215870   0.854   1.368   8.203  1.2933  1.4716 -1.2262
 1413SOL     OW15871   1.343   1.780   3.496 -0.5648  0.6385  0.3607
 1413SOL    HW115872   1.316   1.833   3.572  0.0487  0.2587  0.8399
 1413SOL    HW215873   1.278   1.822   3.439  2.1094  3.7054 -0.4321
 1414SOL     OW15874   2.849   2.994   2.048 -0.0494 -0.1315 -0.3768
 1414SOL    HW115875   2.833   3.056   1.976 -0.6013 -0.1654 -0.2812
 1414SOL    HW215876   2.945   3.002   2.052 -0.0002 -1.1006  0.1845
 1415SOL     OW15877   0.379   2.948   7.012  0.0004 -0.8193 -0.3750
 1415SOL    HW115878   0.394   3.037   7.046 -0.6407 -0.5720 -0.7244
 1415SOL    HW215879   0.307   2.930   7.073  0.8330 -1.9830  0.2654
 1416SOL     OW15880   3.295   3.658  12.721 -0.3376  0.0793  0.2693
 1416SOL    HW115881   3.310   3.611  12.639  0.9405  0.6504  0.1767
 1416SOL    HW215882   3.386   3.671  12.745 -0.0815  1.4361 -1.4035
 1417SOL     OW15883   2.867   2.913   3.141  0.4429 -0.2439 -0.4933
 1417SOL    HW115884   2.834   2.994   3.181 -0.4254 -0.6486 -0.3931
 1417SOL    HW215885   2.806   2.851   3.179 -0.4077  1.0742  0.2805
 1418SOL     OW15886   3.998   0.855   7.731 -0.2508 -1.0090 -0.2628
 1418SOL    HW115887   3.970   0.913   7.661 -1.3419  1.5906  2.3214
 1418SOL    HW215888   4.081   0.899   7.750 -0.9878  1.2222 -2.2450
 1419SOL     OW15889   2.144   3.480   5.252 -0.0256  0.1284 -0.3505
 1419SOL    HW115890   2.207   3.511   5.186  0.2398 -1.6993 -0.9550
 1419SOL    HW215891   2.123   3.558   5.303 -1.9684  0.1528 -1.2034
 1420SOL     OW15892   1.600   2.525   3.340 -0.3038 -0.2308  0.1007
 1420SOL    HW115893   1.626   2.539   3.249 -1.0705 -1.5150 -0.3115
 1420SOL    HW215894   1.634   2.605   3.380 -0.3672 -0.4373  0.5754
 1421SOL     OW15895   1.365   4.727   3.389  0.1906  0.1077  0.4244
 1421SOL    HW115896   1.373   0.041   3.310  0.3303 -0.1585  0.2590
 1421SOL    HW215897   1.291   0.031   3.430  1.4061  1.3411  1.2949
 1422SOL     OW15898   0.829   2.630   3.012  0.0403  0.5282  0.3656
 1422SOL    HW115899   0.756   2.687   2.989 -2.2102 -2.4809 -0.0558
 1422SOL    HW215900   0.881   2.679   3.075  0.3579  0.5378  0.0930
 1423SOL     OW15901   2.148   3.788  10.850  0.2070 -0.3666 -0.0136
 1423SOL    HW115902   2.097   3.720  10.894  2.5736 -1.0292  1.7189
 1423SOL    HW215903   2.225   3.782  10.907  0.5366 -3.5587 -0.7693
 1424SOL     OW15904   0.120   4.511   7.168 -0.1898  0.0451 -0.1355
 1424SOL    HW115905   0.077   4.542   7.248  0.3896 -0.3610  0.3340
 1424SOL    HW215906   0.202   4.478   7.205 -1.1769 -2.7605 -0.4704
 1425SOL     OW15907   2.715   0.094   6.170 -0.5959 -0.1058 -0.4533
 1425SOL    HW115908   2.698   0.188   6.160 -0.5052 -0.1212 -0.7461
 1425SOL    HW215909   2.732   0.065   6.081 -2.9942 -0.6144 -0.7477
 1426SOL     OW15910   2.822   1.017   6.911 -0.4414 -0.4953 -0.3252
 1426SOL    HW115911   2.808   1.042   6.819  2.3771 -1.3114 -0.9839
 1426SOL    HW215912   2.882   1.085   6.943  0.7401 -2.0157  0.6626
 1427SOL     OW15913   3.293   3.058   8.504  0.2771 -0.0773  0.1012
 1427SOL    HW115914   3.227   3.055   8.574 -0.4912  0.0817 -0.6268
 1427SOL    HW215915   3.261   2.994   8.441  2.0566  0.0892 -0.9829
 1428SOL     OW15916   2.486   3.454  17.362  0.3284  0.5892 -0.5996
 1428SOL    HW115917   2.557   3.452  17.297 -0.0487 -0.7354 -0.9645
 1428SOL    HW215918   2.527   3.471  17.447 -1.1372 -0.2360  0.2602
 1429SOL     OW15919   2.664   0.536  12.462  0.6210 -0.5751 -0.0095
 1429SOL    HW115920   2.643   0.464  12.403 -1.5283 -0.5866  0.7781
 1429SOL    HW215921   2.603   0.606  12.438 -1.0667 -2.5412 -1.4250
 1430SOL     OW15922   2.972   2.370  17.187 -0.0981  0.3620  0.4396
 1430SOL    HW115923   3.043   2.310  17.166 -0.8599 -0.5865  0.5839
 1430SOL    HW215924   2.919   2.317  17.246  1.6993 -1.3411  0.5049
 1431SOL     OW15925   2.981   0.292  14.166 -0.3146 -0.5184 -0.3125
 1431SOL    HW115926   3.000   0.338  14.247 -0.3068  1.6466 -1.5379
 1431SOL    HW215927   2.886   0.284  14.175 -0.4069  1.8876  0.7756
 1432SOL     OW15928   1.318   4.505   2.535  0.2820 -0.2395 -0.3168
 1432SOL    HW115929   1.352   4.457   2.460  1.2226 -1.7445  1.0747
 1432SOL    HW215930   1.247   4.545   2.484  0.5088 -1.6677 -1.7501
 1433SOL     OW15931   3.589   4.148   4.618 -0.4073 -0.0369 -0.3379
 1433SOL    HW115932   3.574   4.055   4.604  1.6924 -0.5487  0.7709
 1433SOL    HW215933   3.555   4.162   4.707 -1.6126 -0.7441 -0.6943
 1434SOL     OW15934   2.518   3.602   6.924 -0.3624 -0.3978  0.4085
 1434SOL    HW115935   2.605   3.592   6.886 -1.2328 -1.3145 -1.3562
 1434SOL    HW215936   2.467   3.586   6.844 -0.5448  0.7020  0.3054
 1435SOL     OW15937   2.820   1.093  15.953  0.0163  0.5360 -0.0180
 1435SOL    HW115938   2.820   1.103  15.858 -0.2192 -0.3496 -0.1052
 1435SOL    HW215939   2.758   1.021  15.960  0.5998 -0.0968 -1.2613
 1436SOL     OW15940   2.260   2.182   8.549 -0.2237  0.1251  0.3157
 1436SOL    HW115941   2.176   2.222   8.571 -0.6776  0.1356 -1.4371
 1436SOL    HW215942   2.247   2.088   8.560  2.5200  0.0893  3.3212
 1437SOL     OW15943   2.637   3.091   3.691 -0.0064 -0.4822 -0.2529
 1437SOL    HW115944   2.724   3.092   3.650  0.3635 -0.5589  0.5431
 1437SOL    HW215945   2.667   3.062   3.777  1.2103 -1.0766 -0.8687
 1438SOL     OW15946   0.692   0.213   4.017  0.0785 -0.1096  0.1366
 1438SOL    HW115947   0.763   0.183   4.073  0.0910  0.8030  0.6099
 1438SOL    HW215948   0.661   0.285   4.073 -2.5386 -0.2403 -1.1181
 1439SOL     OW15949   3.050   1.440   0.113 -0.0757  0.0690  0.2799
 1439SOL    HW115950   3.120   1.388   0.074 -0.4830 -0.1644 -0.1456
 1439SOL    HW215951   3.076   1.528   0.085  1.1492 -0.2949  0.2933
 1440SOL     OW15952   4.336   1.941   6.844 -0.4240 -0.0965 -0.4850
 1440SOL    HW115953   4.388   1.936   6.764  4.3985 -0.7833  2.6719
 1440SOL    HW215954   4.373   2.012   6.898 -3.0425 -0.1320  1.3510
 1441SOL     OW15955   0.814   1.320   5.814  0.3059 -0.8523 -0.2540
 1441SOL    HW115956   0.860   1.276   5.743  1.1020  1.2049 -1.0189
 1441SOL    HW215957   0.725   1.289   5.826 -0.1091 -0.0089 -1.1801
 1442SOL     OW15958   2.159   0.060   4.784  0.2016 -0.3394  0.0027
 1442SOL    HW115959   2.169   0.155   4.779 -0.4706 -0.2374  0.7138
 1442SOL    HW215960   2.238   0.053   4.838  0.0264  0.6982  0.4012
 1443SOL     OW15961   0.475   3.356   4.846 -0.0335  0.4258  0.6401
 1443SOL    HW115962   0.398   3.299   4.851  0.3685 -0.0595  1.1871
 1443SOL    HW215963   0.534   3.312   4.785  0.1711 -1.0491  1.9065
 1444SOL     OW15964   0.075   1.286  17.105 -0.0204 -0.3402 -0.4174
 1444SOL    HW115965   0.077   1.191  17.094 -0.0589 -0.1250 -2.2111
 1444SOL    HW215966   0.169   1.303  17.112 -0.7164  2.9556  0.8826
 1445SOL     OW15967   2.782   1.148   0.830 -0.1233 -0.1075 -0.3293
 1445SOL    HW115968   2.840   1.148   0.753  0.4732 -0.6261  0.1240
 1445SOL    HW215969   2.833   1.095   0.891 -0.8340 -1.7201 -1.1441
 1446SOL     OW15970   1.849   1.411   1.717  0.3362 -0.0251 -0.0047
 1446SOL    HW115971   1.938   1.377   1.708  0.9663  1.3846  0.9355
 1446SOL    HW215972   1.810   1.381   1.635  0.6374 -0.6033  0.0632
 1447SOL     OW15973   0.250   2.267   7.819 -0.0423  0.1422 -0.0145
 1447SOL    HW115974   0.197   2.347   7.823  0.3955  0.3526  1.7611
 1447SOL    HW215975   0.228   2.245   7.729  1.4334  1.0131 -0.5907
 1448SOL     OW15976   1.465   1.733   9.997  0.1564 -0.1931  0.2524
 1448SOL    HW115977   1.556   1.717  10.020  0.1306 -1.0458 -0.2210
 1448SOL    HW215978   1.425   1.657  10.041 -3.6335  1.6427  0.0020
 1449SOL     OW15979   2.169   2.377   5.531 -0.4196  0.7016  0.2195
 1449SOL    HW115980   2.194   2.285   5.535 -1.2297  0.4810  0.2138
 1449SOL    HW215981   2.112   2.371   5.455  0.7720  0.8271 -0.6818
 1450SOL     OW15982   2.102   1.509   3.586 -0.0961 -0.0807 -0.9851
 1450SOL    HW115983   2.052   1.474   3.660  2.0185  2.0488  1.4511
 1450SOL    HW215984   2.097   1.604   3.600  1.1819 -0.2756  0.8003
 1451SOL     OW15985   4.626   3.870   9.573 -0.4784  0.3830 -0.1343
 1451SOL    HW115986   4.565   3.879   9.500 -1.9664 -0.5862  0.9976
 1451SOL    HW215987   4.568   3.819   9.629 -1.2259  1.2029 -0.1528
 1452SOL     OW15988   1.813   4.664   6.857  0.1235  0.0886  0.2339
 1452SOL    HW115989   1.883   4.703   6.910 -0.7286  2.1370 -0.1400
 1452SOL    HW215990   1.815   4.724   6.782 -0.3970 -1.9603 -1.4222
 1453SOL     OW15991   3.058   3.738  11.143  0.0475 -0.3459  0.2893
 1453SOL    HW115992   2.983   3.785  11.181 -0.4360 -0.7816 -0.1178
 1453SOL    HW215993   3.075   3.669  11.207  0.9464  1.9083  2.4576
 1454SOL     OW15994   0.885   2.491   9.576 -0.3123  0.4472 -0.7879
 1454SOL    HW115995   0.797   2.519   9.599 -0.9264 -1.1536 -1.1273
 1454SOL    HW215996   0.929   2.572   9.553 -1.4691  1.2928  0.0227
 1455SOL     OW15997   1.962   1.842  13.143 -0.0066  0.4126  0.1644
 1455SOL    HW115998   1.903   1.839  13.068  0.2370  0.1632 -0.0182
 1455SOL    HW215999   1.935   1.763  13.190 -0.5450 -0.6428 -1.9172
 1456SOL     OW16000   0.602   0.874   2.521 -0.5896  0.2320  0.6278
 1456SOL    HW116001   0.529   0.922   2.561  0.1924  3.0068 -1.2409
 1456SOL    HW216002   0.566   0.853   2.435  0.8867 -0.7093  0.2380
 1457SOL     OW16003   2.936   1.870  10.530 -0.7431 -0.1712 -0.0135
 1457SOL    HW116004   3.017   1.854  10.482 -0.4658 -0.6682  0.6118
 1457SOL    HW216005   2.916   1.782  10.565  2.9085 -0.9179  0.2195
 1458SOL     OW16006   0.452   3.374  16.667 -0.3118 -0.1683  0.1507
 1458SOL    HW116007   0.425   3.283  16.659  2.2901 -0.9403  0.1315
 1458SOL    HW216008   0.548   3.369  16.664 -0.3565 -0.1815 -1.8026
 1459SOL     OW16009   2.839   1.499   5.716  0.4291 -0.2342  0.0601
 1459SOL    HW116010   2.899   1.569   5.689  1.0777 -0.6605  0.3865
 1459SOL    HW216011   2.881   1.452   5.788  1.1147  2.0255  1.1517
 1460SOL     OW16012   3.294   3.756   9.341  0.6023 -0.8885  0.1337
 1460SOL    HW116013   3.202   3.743   9.320  1.2259 -1.4588 -2.2819
 1460SOL    HW216014   3.289   3.753   9.436 -0.6823 -3.6435 -0.0162
 1461SOL     OW16015   3.072   1.471   6.336  0.2916 -0.2264  0.0798
 1461SOL    HW116016   3.017   1.517   6.400 -1.0810 -1.9723  0.1778
 1461SOL    HW216017   3.064   1.524   6.257 -1.7171 -2.8209 -1.4380
 1462SOL     OW16018   2.512   4.180   6.074 -0.1748 -0.2331 -0.5978
 1462SOL    HW116019   2.488   4.238   6.002  0.0213  0.6510  0.0556
 1462SOL    HW216020   2.599   4.206   6.106  0.0513 -0.7079 -0.8199
 1463SOL     OW16021   0.686   1.696  11.136  0.2982 -0.0577 -0.5689
 1463SOL    HW116022   0.609   1.744  11.165  0.4963  0.3653 -0.7523
 1463SOL    HW216023   0.757   1.750  11.171 -0.3435  0.1474  0.3950
 1464SOL     OW16024   1.807   3.129   2.535  0.0182 -0.3219 -1.0774
 1464SOL    HW116025   1.806   3.172   2.449  1.8078  0.6769 -0.6121
 1464SOL    HW216026   1.716   3.140   2.560  0.7934 -0.4157  1.7770
 1465SOL     OW16027   2.101   3.757   5.337  0.0882 -0.5506  0.1826
 1465SOL    HW116028   2.015   3.728   5.368  0.5433 -0.3448  1.6399
 1465SOL    HW216029   2.107   3.828   5.400 -1.0317 -0.0452 -0.2690
 1466SOL     OW16030   2.416   3.064   2.344  0.0344  0.1364 -0.0416
 1466SOL    HW116031   2.510   3.057   2.324  0.2940  1.3398  0.7365
 1466SOL    HW216032   2.423   3.097   2.433  0.2807 -1.5023  0.5589
 1467SOL     OW16033   2.919   1.831  11.877  0.1024  0.0340 -0.0453
 1467SOL    HW116034   2.882   1.889  11.943 -0.1491  0.9227 -0.9505
 1467SOL    HW216035   2.993   1.788  11.918 -0.9100  0.8718  2.6452
 1468SOL     OW16036   4.309   2.557   6.383 -0.0572  0.3057  0.0511
 1468SOL    HW116037   4.352   2.517   6.459  1.0331  0.7133 -0.3556
 1468SOL    HW216038   4.230   2.503   6.383  0.9618 -1.1825 -1.2794
 1469SOL     OW16039   2.145   4.574   1.714 -0.3008  0.5372 -0.6907
 1469SOL    HW116040   2.143   4.664   1.683  0.0218  0.8060  0.0657
 1469SOL    HW216041   2.110   4.582   1.803  0.7101 -1.6308 -0.0986
 1470SOL     OW16042   2.146   1.599   5.096 -0.8177  0.6012  0.7169
 1470SOL    HW116043   2.202   1.672   5.069  0.9993 -1.4165 -0.9573
 1470SOL    HW216044   2.207   1.566   5.161 -4.3250 -1.6231  2.8586
 1471SOL     OW16045   2.233   1.898   1.329 -0.4061  0.5645  0.3214
 1471SOL    HW116046   2.277   1.980   1.307 -0.5840  0.3499 -0.8301
 1471SOL    HW216047   2.297   1.854   1.385  0.3126  0.7450 -0.3644
 1472SOL     OW16048   0.502   4.364  12.489  0.2324 -0.8469 -0.0334
 1472SOL    HW116049   0.523   4.453  12.518  0.6780  0.0168 -2.9037
 1472SOL    HW216050   0.593   4.341  12.469  0.0018 -0.9302 -1.0119
 1473SOL     OW16051   1.719   2.376   3.561  0.0836 -0.2965  0.2726
 1473SOL    HW116052   1.710   2.430   3.482 -0.2033 -1.2085 -0.3143
 1473SOL    HW216053   1.649   2.316   3.536  0.1272 -1.0625  1.9719
 1474SOL     OW16054   2.515   3.049   4.534 -0.1183  0.2242 -0.2909
 1474SOL    HW116055   2.576   3.070   4.605 -1.3700  0.1666  0.7892
 1474SOL    HW216056   2.511   2.954   4.546  2.2694  0.1291 -0.1904
 1475SOL     OW16057   3.019   1.187   6.280  0.1967 -0.4049 -0.1040
 1475SOL    HW116058   3.006   1.142   6.363 -1.3049 -0.2768 -0.2817
 1475SOL    HW216059   3.062   1.263   6.318  1.0290 -0.5291 -0.7745
 1476SOL     OW16060   2.500   4.274   1.383  0.5432  0.0470  0.1853
 1476SOL    HW116061   2.410   4.298   1.361  0.2436 -0.1447  1.2297
 1476SOL    HW216062   2.534   4.248   1.297 -0.1358  1.1452 -0.4042
 1477SOL     OW16063   2.958   0.189  15.110  0.3650 -0.6095  0.1277
 1477SOL    HW116064   3.003   0.263  15.152 -0.3017 -0.7807  1.1531
 1477SOL    HW216065   2.893   0.171  15.179  0.2653 -0.6658  0.0190
 1478SOL     OW16066   3.726   2.997   2.137  0.2981 -0.6859  0.5687
 1478SOL    HW116067   3.748   3.090   2.138 -1.8396 -0.1293 -2.5948
 1478SOL    HW216068   3.674   2.990   2.217  2.7547 -2.1593  2.0578
 1479SOL     OW16069   2.553   1.430   9.710  0.0929 -0.8514 -0.2230
 1479SOL    HW116070   2.562   1.421   9.805 -1.3361  1.0187  0.1027
 1479SOL    HW216071   2.520   1.520   9.707 -0.2827 -1.0328 -1.5757
 1480SOL     OW16072   3.706   0.508   9.423 -0.3760  0.7772  0.0983
 1480SOL    HW116073   3.667   0.574   9.480  0.4159 -0.0529  1.5986
 1480SOL    HW216074   3.755   0.455   9.486 -1.0295 -1.9751 -1.7123
 1481SOL     OW16075   3.221   1.063   6.949  0.5305  0.5061 -0.1776
 1481SOL    HW116076   3.139   1.105   6.974  0.6261 -0.2360  1.3750
 1481SOL    HW216077   3.286   1.134   6.959  1.4887 -0.2265 -1.1751
 1482SOL     OW16078   3.199   4.279   4.129 -0.9408  0.2801 -0.0523
 1482SOL    HW116079   3.112   4.275   4.089 -0.7893  1.0456 -0.4711
 1482SOL    HW216080   3.192   4.370   4.156 -1.0052  0.1290  0.4328
 1483SOL     OW16081   4.092   1.530   7.371 -0.8071  0.0932 -0.0367
 1483SOL    HW116082   4.153   1.462   7.345 -0.6134 -0.3816  1.6359
 1483SOL    HW216083   4.005   1.499   7.344  0.4131 -1.8411 -1.7363
 1484SOL     OW16084   1.779   3.453  14.533  0.7362  0.4777 -0.6159
 1484SOL    HW116085   1.756   3.512  14.605  0.3060 -1.6597  1.0212
 1484SOL    HW216086   1.860   3.488  14.496  1.4240  0.4531  0.8457
 1485SOL     OW16087   3.196   4.458   0.474  0.4030  0.0182  0.0464
 1485SOL    HW116088   3.285   4.423   0.486  0.8405  1.6079  1.4206
 1485SOL    HW216089   3.168   4.480   0.563  0.5519 -0.2822  0.1661
 1486SOL     OW16090   1.466   0.686   1.441  0.0957 -0.2202 -0.1835
 1486SOL    HW116091   1.477   0.700   1.347 -0.2291 -1.5954 -0.4221
 1486SOL    HW216092   1.511   0.603   1.452  0.9417  0.3681  0.7917
 1487SOL     OW16093   1.108   2.698   8.508  0.2776  0.0895  0.2975
 1487SOL    HW116094   1.079   2.625   8.562 -0.9852 -0.5862 -1.2904
 1487SOL    HW216095   1.193   2.725   8.543 -0.2785  0.3211  1.4965
 1488SOL     OW16096   4.146   1.598   4.921 -0.0041  0.2499 -0.1101
 1488SOL    HW116097   4.221   1.571   4.867 -1.1081 -0.4759 -1.3108
 1488SOL    HW216098   4.073   1.557   4.873 -1.1261  3.1920 -0.9222
 1489SOL     OW16099   2.718   1.160   1.258 -0.7147  0.3032 -0.0961
 1489SOL    HW116100   2.752   1.166   1.347 -1.4437  1.5577  0.1048
 1489SOL    HW216101   2.626   1.181   1.275 -0.6895 -0.3877  0.8618
 1490SOL     OW16102   2.053   0.004   6.964  0.1255 -0.1668  0.5451
 1490SOL    HW116103   2.046   0.068   7.036  1.5889 -0.3850  0.8938
 1490SOL    HW216104   2.147   4.723   6.965 -0.1510 -1.4640 -1.4710
 1491SOL     OW16105   0.507   4.578   4.982 -0.3908 -0.0260 -0.1999
 1491SOL    HW116106   0.569   4.549   5.050 -1.1525  2.2377  1.4569
 1491SOL    HW216107   0.558   4.558   4.903  1.0180 -1.6753  1.1285
 1492SOL     OW16108   0.971   2.947   6.397  0.2057  0.2433  0.3981
 1492SOL    HW116109   0.962   2.871   6.340  0.3992 -0.3597  1.1731
 1492SOL    HW216110   0.935   2.913   6.479 -0.4893  0.0861  0.0258
 1493SOL     OW16111   0.633   3.789   3.920 -0.3100  0.1556 -0.4450
 1493SOL    HW116112   0.609   3.802   3.828 -2.5130 -1.4135 -0.0974
 1493SOL    HW216113   0.620   3.694   3.918 -2.2266  0.4215 -0.3383
 1494SOL     OW16114   0.239   4.048  11.537 -0.0999 -0.3383 -0.1464
 1494SOL    HW116115   0.147   4.037  11.513 -0.0399 -2.4030  0.6265
 1494SOL    HW216116   0.226   4.068  11.630 -1.5395 -0.1608 -0.3786
 1495SOL     OW16117   1.183   1.393   8.211 -0.3536  0.8024 -0.0697
 1495SOL    HW116118   1.196   1.483   8.181  1.7009  0.3245 -0.5944
 1495SOL    HW216119   1.087   1.397   8.215 -0.3392 -0.4449  1.5243
 1496SOL     OW16120   3.263   0.209   2.412 -0.3111 -0.4026  0.0410
 1496SOL    HW116121   3.292   0.145   2.478  0.9289  1.6424  1.4847
 1496SOL    HW216122   3.247   0.288   2.464  0.7196 -1.0171  1.2945
 1497SOL     OW16123   3.411   3.008   2.640  0.2406 -0.2617 -0.6602
 1497SOL    HW116124   3.426   2.922   2.600  0.0919 -1.4969  1.8668
 1497SOL    HW216125   3.373   2.974   2.722 -2.5754  0.2997 -1.7269
 1498SOL     OW16126   1.173   0.615   6.928 -0.6670  0.2620  0.2022
 1498SOL    HW116127   1.103   0.609   6.993 -0.9138  0.3447 -0.0565
 1498SOL    HW216128   1.245   0.559   6.958 -0.2949 -0.4290 -2.0078
 1499SOL     OW16129   0.296   4.069   9.369  0.0802  0.3280  0.1331
 1499SOL    HW116130   0.277   4.127   9.443 -1.0897  1.0438 -0.7304
 1499SOL    HW216131   0.269   3.985   9.405 -0.1180  0.2050 -0.3074
 1500SOL     OW16132   0.047   1.431   6.781  0.2221  0.4506  0.5046
 1500SOL    HW116133   0.014   1.491   6.713  1.4437 -0.9770 -1.3445
 1500SOL    HW216134   0.081   1.358   6.731 -0.8624  1.7016 -2.0916
 1501SOL     OW16135   2.315   3.276   6.332 -0.0889  0.8610  0.2641
 1501SOL    HW116136   2.373   3.299   6.259 -0.5355 -1.4627 -0.8147
 1501SOL    HW216137   2.270   3.361   6.336 -1.0993  0.4153 -1.7023
 1502SOL     OW16138   3.033   3.684   2.871 -0.3523  0.0890 -0.1543
 1502SOL    HW116139   3.020   3.614   2.808 -1.3312  0.4623 -0.3703
 1502SOL    HW216140   2.961   3.671   2.933  0.7529 -0.5581  1.0033
 1503SOL     OW16141   2.635   2.636   5.231 -0.0247  0.3862 -0.3291
 1503SOL    HW116142   2.582   2.623   5.153 -0.7845  0.7796  0.1262
 1503SOL    HW216143   2.708   2.578   5.209 -0.3107  0.3110 -1.0839
 1504SOL     OW16144   4.707   4.103   5.606  0.3419  0.1292  0.3530
 1504SOL    HW116145   4.731   4.092   5.697 -3.7736  2.7137  1.7785
 1504SOL    HW216146   0.000   4.024   5.564  0.4042 -0.6951  2.0028
 1505SOL     OW16147   2.018   2.397   7.833 -0.1092 -0.0159  0.2994
 1505SOL    HW116148   1.943   2.339   7.821  1.4997 -1.9043 -0.5921
 1505SOL    HW216149   2.045   2.352   7.913  1.4409  0.7058  0.1878
 1506SOL     OW16150   2.058   2.609   4.477 -0.1470 -0.4052  0.1718
 1506SOL    HW116151   1.985   2.589   4.419  0.0894 -1.2385  0.1584
 1506SOL    HW216152   2.035   2.576   4.564 -0.9898  0.2943  0.2122
 1507SOL     OW16153   0.585   2.524  15.094 -0.1928 -0.1819  0.3304
 1507SOL    HW116154   0.516   2.539  15.158  0.0820  0.9200  0.3691
 1507SOL    HW216155   0.620   2.441  15.126  2.1839 -0.3496 -2.7058
 1508SOL     OW16156   4.253   0.801   8.008 -0.4126 -0.1780  0.1067
 1508SOL    HW116157   4.210   0.731   8.058 -0.2006 -0.1188  0.3672
 1508SOL    HW216158   4.345   0.778   7.995 -1.0971 -3.0595  0.1981
 1509SOL     OW16159   0.789   4.442   2.097  0.5703 -0.4373 -0.0998
 1509SOL    HW116160   0.767   4.351   2.077  0.6071 -0.6621  0.8885
 1509SOL    HW216161   0.733   4.455   2.173  1.0298  0.0769  0.1494
 1510SOL     OW16162   1.822   0.468  12.687  1.2398  0.3992 -0.1281
 1510SOL    HW116163   1.762   0.538  12.708 -1.1471 -1.7119  0.0891
 1510SOL    HW216164   1.785   0.397  12.740 -0.4550  1.0711 -0.4263
 1511SOL     OW16165   0.490   0.449   3.514  0.1019  0.0340  0.0233
 1511SOL    HW116166   0.492   0.451   3.609  1.7418 -3.2034  0.0829
 1511SOL    HW216167   0.583   0.457   3.492 -0.0365 -0.3934 -0.7161
 1512SOL     OW16168   3.773   1.396   5.011 -0.1149  0.4082  0.0083
 1512SOL    HW116169   3.804   1.437   5.092 -0.3254 -0.0357  0.3129
 1512SOL    HW216170   3.832   1.321   5.009  1.2003  1.4746 -0.7949
 1513SOL     OW16171   3.028   3.209   3.757  0.5069 -0.7866 -0.7237
 1513SOL    HW116172   3.103   3.190   3.814 -0.7363  0.1701  1.2198
 1513SOL    HW216173   3.036   3.304   3.748  1.1839 -1.0539 -2.9095
 1514SOL     OW16174   1.108   2.739   8.244 -1.0658 -0.4145  0.1603
 1514SOL    HW116175   1.057   2.672   8.198  0.0743 -0.6406 -0.7682
 1514SOL    HW216176   1.083   2.708   8.331 -1.7385  0.9872  0.4567
 1515SOL     OW16177   3.840   1.870   4.640  0.8988 -0.4621 -0.2872
 1515SOL    HW116178   3.894   1.791   4.633 -0.0535 -1.2945  1.5477
 1515SOL    HW216179   3.829   1.901   4.551  1.3557  1.2795  0.2687
 1516SOL     OW16180   1.307   2.401  13.978 -0.4292  0.3542 -0.1593
 1516SOL    HW116181   1.276   2.408  14.069 -1.1087 -1.5618 -0.2515
 1516SOL    HW216182   1.289   2.307  13.972  1.2490  0.0612 -0.7856
 1517SOL     OW16183   2.349   3.336   1.025  0.4690 -0.5039 -0.3095
 1517SOL    HW116184   2.271   3.279   1.031 -0.1452  0.2351 -1.3533
 1517SOL    HW216185   2.396   3.317   1.106  1.2766  0.6836 -0.5105
 1518SOL     OW16186   2.239   3.170   7.055 -0.1236 -0.2289 -0.3034
 1518SOL    HW116187   2.171   3.135   7.113 -0.3980  1.3415  0.3172
 1518SOL    HW216188   2.224   3.105   6.986 -2.2434 -0.3451  0.2578
 1519SOL     OW16189   3.776   3.194   4.365  0.2430 -0.0642  0.0839
 1519SOL    HW116190   3.746   3.281   4.341 -0.2596 -0.7893 -1.9097
 1519SOL    HW216191   3.743   3.187   4.454 -0.9749 -0.2866 -0.3950
 1520SOL     OW16192   3.088   4.010   3.438  0.0069  0.5571 -0.4217
 1520SOL    HW116193   3.087   3.915   3.449 -0.0212  0.2497 -3.0245
 1520SOL    HW216194   3.180   4.014   3.464 -0.2050  1.0983  0.2341
 1521SOL     OW16195   0.491   0.057  10.989  0.1774  0.5955  0.6173
 1521SOL    HW116196   0.483   0.099  11.074  1.7280  0.4828  0.8064
 1521SOL    HW216197   0.449   0.116  10.926 -0.2709 -0.9068 -0.4930
 1522SOL     OW16198   2.119   2.683   3.347  0.6835  0.3604 -0.1605
 1522SOL    HW116199   2.204   2.648   3.319 -0.6631 -1.5802 -1.8100
 1522SOL    HW216200   2.063   2.643   3.280  0.7309 -1.1140  0.6829
 1523SOL     OW16201   2.983   0.534  12.305  0.2553  0.8751 -0.4774
 1523SOL    HW116202   3.051   0.469  12.289 -1.8157 -1.6801  1.2511
 1523SOL    HW216203   2.923   0.508  12.235  0.5808  0.0340 -0.4459
 1524SOL     OW16204   1.748   3.422  16.661 -0.2345 -0.1079  0.2158
 1524SOL    HW116205   1.719   3.513  16.669  0.5892  0.3104 -1.3902
 1524SOL    HW216206   1.816   3.418  16.728  0.8790 -2.8548 -1.1144
 1525SOL     OW16207   4.269   0.569   5.941  0.0098 -0.1644 -0.4304
 1525SOL    HW116208   4.196   0.518   5.976  0.2067  0.1642  0.4531
 1525SOL    HW216209   4.306   0.624   6.011 -0.9091  0.1514 -0.1903
 1526SOL     OW16210   0.002   3.610   3.928  0.3451 -0.5592 -0.1900
 1526SOL    HW116211   0.012   3.560   4.009  1.4387  0.5664  0.3666
 1526SOL    HW216212   4.693   3.545   3.877 -1.1411  1.3269 -1.1948
 1527SOL     OW16213   0.074   0.524   2.638  0.4911 -0.2182 -0.4278
 1527SOL    HW116214   0.034   0.469   2.571  1.9894  0.6103 -2.0083
 1527SOL    HW216215   4.730   0.539   2.681 -0.2981 -1.2363 -1.5970
 1528SOL     OW16216   1.369   1.590   6.586 -0.5417  0.2182  0.2450
 1528SOL    HW116217   1.408   1.654   6.645 -0.2117 -1.8805  2.2859
 1528SOL    HW216218   1.394   1.624   6.500  2.1342 -1.5389  0.3282
 1529SOL     OW16219   3.781   4.121  13.455 -0.0714  0.0875  0.1088
 1529SOL    HW116220   3.687   4.137  13.461 -0.4934 -1.8993 -1.4886
 1529SOL    HW216221   3.783   4.027  13.440  0.7728 -0.0721  1.1747
 1530SOL     OW16222   1.505   0.036   8.235  0.2406  0.3800  0.5019
 1530SOL    HW116223   1.500   4.681   8.248 -0.1689  0.3355  0.0433
 1530SOL    HW216224   1.552   0.070   8.311  0.2113 -0.4658  0.8999
 1531SOL     OW16225   0.259   0.775  14.655 -0.8163 -0.1660  0.6707
 1531SOL    HW116226   0.250   0.822  14.572  1.3924  2.2571  1.7923
 1531SOL    HW216227   0.352   0.786  14.678 -0.4111  0.3007 -1.2138
 1532SOL     OW16228   4.618   4.267   5.923  0.0817  0.2383  0.1421
 1532SOL    HW116229   4.703   4.229   5.901 -0.2933 -0.7645  0.4105
 1532SOL    HW216230   4.639   4.332   5.991 -2.2994 -1.0614  2.1400
 1533SOL     OW16231   0.743   1.600   7.663  0.1117  0.2565 -0.1362
 1533SOL    HW116232   0.815   1.587   7.602  1.0865  2.0282  0.6489
 1533SOL    HW216233   0.776   1.672   7.716  0.1237  0.9052 -1.0215
 1534SOL     OW16234   1.458   1.487   5.808  0.4128  0.0143  1.0255
 1534SOL    HW116235   1.428   1.405   5.847  0.0356 -0.7171 -0.8174
 1534SOL    HW216236   1.455   1.465   5.715 -0.2418  1.6188  0.6719
 1535SOL     OW16237   4.158   0.608   8.411 -0.0949  0.2350  0.4920
 1535SOL    HW116238   4.246   0.645   8.415 -0.1549  0.6524 -1.8102
 1535SOL    HW216239   4.167   0.592   8.317  1.5452 -2.0989  1.0646
 1536SOL     OW16240   0.839   1.161   3.143 -0.2520  0.0384  0.2171
 1536SOL    HW116241   0.762   1.105   3.147 -1.2739  1.5584  1.8059
 1536SOL    HW216242   0.901   1.097   3.109  0.3331  1.1465 -0.8154
 1537SOL     OW16243   0.252   0.938   2.505  0.0987 -0.1607  0.4117
 1537SOL    HW116244   0.265   0.848   2.534 -2.4589 -0.6749  0.0214
 1537SOL    HW216245   0.170   0.921   2.458  1.2726 -0.1861 -1.6036
 1538SOL     OW16246   4.391   1.592   9.139  0.6179 -0.1183  0.0929
 1538SOL    HW116247   4.382   1.556   9.051 -0.5093 -0.8741  0.5261
 1538SOL    HW216248   4.341   1.532   9.193 -0.7688  1.2890  0.3770
 1539SOL     OW16249   4.404   2.716   3.875 -0.0480 -0.1847  0.3412
 1539SOL    HW116250   4.324   2.664   3.876 -0.0222 -0.2419 -0.4011
 1539SOL    HW216251   4.360   2.799   3.893  1.8920  0.9644 -0.1669
 1540SOL     OW16252   2.731   0.161   8.555  0.3349  0.1469 -0.1461
 1540SOL    HW116253   2.674   0.236   8.569 -0.9469 -0.8349 -0.0649
 1540SOL    HW216254   2.783   0.149   8.634  1.1333 -1.2439 -0.8724
 1541SOL     OW16255   4.436   1.371  11.905 -0.1438 -0.5595  0.0887
 1541SOL    HW116256   4.445   1.464  11.883 -1.5037 -0.0873  1.5835
 1541SOL    HW216257   4.450   1.335  11.817  0.6471  1.8477 -0.7780
 1542SOL     OW16258   2.854   0.816   8.893  0.3848 -0.0122  0.1180
 1542SOL    HW116259   2.762   0.788   8.893  1.1042 -2.2958 -0.3735
 1542SOL    HW216260   2.902   0.735   8.878 -0.0157 -0.1349 -0.4870
 1543SOL     OW16261   0.744   1.722   4.901  0.0571 -0.2250  0.3735
 1543SOL    HW116262   0.814   1.772   4.859 -0.6997  0.7902  0.3354
 1543SOL    HW216263   0.727   1.654   4.835  1.7647  0.3823 -0.7007
 1544SOL     OW16264   4.731   3.701   2.780 -0.0907 -0.1015  0.5209
 1544SOL    HW116265   4.716   3.701   2.875 -1.8179  2.9917  0.2554
 1544SOL    HW216266   4.655   3.654   2.747 -1.4644  1.6246  1.1983
 1545SOL     OW16267   4.152   2.159   6.613 -0.1913  0.1050  0.5280
 1545SOL    HW116268   4.239   2.122   6.596 -0.4653  0.3197 -1.4083
 1545SOL    HW216269   4.101   2.085   6.579 -2.3124  1.6617  0.3214
 1546SOL     OW16270   2.306   4.569  10.081 -0.3953 -0.0463  0.3547
 1546SOL    HW116271   2.215   4.580  10.108 -0.7863  0.7900 -1.3428
 1546SOL    HW216272   2.326   4.647  10.029  0.2085 -1.5589 -1.6905
 1547SOL     OW16273   1.068   1.474   7.763  0.4817 -0.4347  0.5097
 1547SOL    HW116274   1.020   1.391   7.763 -0.3163  0.0222 -0.8773
 1547SOL    HW216275   1.019   1.535   7.818  0.3397  0.8395 -1.0254
 1548SOL     OW16276   0.966   1.750   7.240  0.4990  0.0157 -0.0081
 1548SOL    HW116277   1.047   1.713   7.203  0.5841 -1.8341  2.0167
 1548SOL    HW216278   0.936   1.683   7.301 -1.5756  0.7831 -0.2075
 1549SOL     OW16279   0.234   4.220   7.539 -0.5210  0.2900 -0.7528
 1549SOL    HW116280   0.247   4.315   7.537 -0.4022  0.2677 -1.0639
 1549SOL    HW216281   0.204   4.206   7.449 -2.1065 -3.0388  0.2902
 1550SOL     OW16282   3.780   1.510  13.917  0.0262 -0.0531  0.1592
 1550SOL    HW116283   3.711   1.530  13.980  0.8845  0.7867  0.8273
 1550SOL    HW216284   3.767   1.416  13.903 -1.3344 -0.1937  2.4344
 1551SOL     OW16285   4.093   2.370   4.134 -0.0463 -0.2090 -0.0012
 1551SOL    HW116286   4.008   2.356   4.175 -0.2980  0.2216 -0.3770
 1551SOL    HW216287   4.148   2.348   4.209  1.3018  0.2687 -0.8454
 1552SOL     OW16288   2.084   0.452  14.917 -0.2335  0.8808  0.0853
 1552SOL    HW116289   2.151   0.519  14.904 -0.1850  0.8502  0.1837
 1552SOL    HW216290   2.024   0.496  14.977 -1.9624 -0.2739 -0.7742
 1553SOL     OW16291   4.287   1.792   4.300  0.6901 -0.3495  0.0936
 1553SOL    HW116292   4.286   1.888   4.300 -0.4243 -0.3566 -1.9135
 1553SOL    HW216293   4.372   1.779   4.257  0.3870  1.8490 -1.2141
 1554SOL     OW16294   2.437   1.316   7.907  0.3627  0.8004 -0.5797
 1554SOL    HW116295   2.436   1.410   7.928 -0.9505  0.5814  0.3868
 1554SOL    HW216296   2.516   1.291   7.954  0.4621 -0.5934 -1.5020
 1555SOL     OW16297   1.626   3.714   5.771  0.3341  0.7020  0.5601
 1555SOL    HW116298   1.642   3.792   5.824  0.4481  0.0630  1.4741
 1555SOL    HW216299   1.539   3.734   5.736  0.9144  0.3261 -1.1075
 1556SOL     OW16300   0.504   2.308   3.819 -0.3787 -0.5385  0.2892
 1556SOL    HW116301   0.587   2.302   3.867  0.2472  0.6552 -0.6325
 1556SOL    HW216302   0.539   2.314   3.730  0.0771  1.8209  0.6243
 1557SOL     OW16303   2.339   4.231   4.240  0.0754 -0.0472  0.0041
 1557SOL    HW116304   2.269   4.247   4.176  0.1308  1.0405  0.2272
 1557SOL    HW216305   2.401   4.204   4.172 -1.6060 -1.7886 -0.8551
 1558SOL     OW16306   3.006   0.479   3.194  0.5693  0.1042  0.2856
 1558SOL    HW116307   3.083   0.509   3.243  2.5338 -3.8368 -0.4081
 1558SOL    HW216308   3.015   0.384   3.188 -0.5756  0.0744 -0.9334
 1559SOL     OW16309   1.886   4.532  14.986 -0.4137  0.0278 -0.1241
 1559SOL    HW116310   1.851   4.468  15.048 -2.4191  0.1666 -1.1279
 1559SOL    HW216311   1.882   4.486  14.902 -1.4320  2.7651 -1.5657
 1560SOL     OW16312   0.438   2.726  11.662  0.3839  0.1474 -0.2116
 1560SOL    HW116313   0.392   2.643  11.649 -0.3235  0.4420  0.3969
 1560SOL    HW216314   0.416   2.744  11.753 -1.6166 -0.5606 -0.5574
 1561SOL     OW16315   2.986   0.600   0.533  0.2214  0.1779 -0.1301
 1561SOL    HW116316   3.078   0.598   0.509  0.2837  0.4987  0.0710
 1561SOL    HW216317   2.983   0.670   0.599  0.5070  1.5754 -1.5850
 1562SOL     OW16318   0.298   3.467   7.140 -0.1454  0.3298  0.3957
 1562SOL    HW116319   0.332   3.529   7.076 -1.6790 -1.2045 -1.9142
 1562SOL    HW216320   0.374   3.453   7.196  0.5238  1.9398 -0.1025
 1563SOL     OW16321   2.533   2.895  14.273  0.4258  0.1596  1.1219
 1563SOL    HW116322   2.457   2.839  14.290 -0.1766  0.2838 -1.0938
 1563SOL    HW216323   2.554   2.857  14.187 -1.3600  1.9381 -0.1047
 1564SOL     OW16324   0.636   0.730  16.620  0.1001  0.0164 -0.0918
 1564SOL    HW116325   0.584   0.753  16.543 -0.7675 -0.1524  0.4454
 1564SOL    HW216326   0.662   0.820  16.643  0.0436  0.0994 -0.3493
 1565SOL     OW16327   3.140   1.051  13.036  0.6965  0.4406 -0.7967
 1565SOL    HW116328   3.157   0.998  13.114  1.7386  1.1107 -0.5734
 1565SOL    HW216329   3.090   1.122  13.076  0.3723  0.1583 -0.7064
 1566SOL     OW16330   2.022   0.195  11.834  0.2758 -0.4456  0.1738
 1566SOL    HW116331   2.097   0.242  11.798  0.4019  0.4454  1.6184
 1566SOL    HW216332   2.044   0.215  11.925  0.7922 -1.2299  0.2255
 1567SOL     OW16333   0.583   1.732   5.528 -0.1439 -0.3779 -0.7326
 1567SOL    HW116334   0.551   1.703   5.614 -1.4501  3.1174 -0.0557
 1567SOL    HW216335   0.504   1.745   5.475  0.5737 -5.2751 -3.0114
 1568SOL     OW16336   2.973   1.327   8.974 -0.4683 -0.1486 -0.2925
 1568SOL    HW116337   2.936   1.283   9.051  0.5534  0.9319  0.8202
 1568SOL    HW216338   3.003   1.264   8.908  0.8603  1.0678 -0.8499
 1569SOL     OW16339   0.590   0.450   7.704 -0.3910  0.2436 -0.1807
 1569SOL    HW116340   0.554   0.430   7.791 -2.5341  1.2332 -0.8315
 1569SOL    HW216341   0.610   0.544   7.704 -0.4357  0.2596 -2.6780
 1570SOL     OW16342   1.805   3.313   8.832 -0.0075 -0.1094 -0.4039
 1570SOL    HW116343   1.863   3.388   8.845 -1.3680  1.1115 -1.3631
 1570SOL    HW216344   1.774   3.333   8.744  2.7218 -1.5979 -1.7209
 1571SOL     OW16345   4.624   4.002   4.910  0.1123  0.4746  0.5787
 1571SOL    HW116346   4.598   4.015   5.001 -0.0990 -1.8509  0.8472
 1571SOL    HW216347   4.706   3.953   4.924 -1.3519 -2.3487 -0.5861
 1572SOL     OW16348   0.788   1.937  13.278 -0.0876  0.3480 -0.2049
 1572SOL    HW116349   0.749   2.021  13.303  1.4889  1.5212 -1.6822
 1572SOL    HW216350   0.740   1.863  13.314 -0.0337  0.1508 -0.5474
 1573SOL     OW16351   1.185   1.740   3.194 -0.1524 -0.0071  0.5605
 1573SOL    HW116352   1.149   1.785   3.270  0.4187  0.1808  0.7204
 1573SOL    HW216353   1.159   1.649   3.200  0.7768 -0.3319 -0.2415
 1574SOL     OW16354   3.140   1.446   6.969 -0.1370 -0.3501 -0.2541
 1574SOL    HW116355   3.142   1.510   6.899 -0.6157 -1.6396 -1.4386
 1574SOL    HW216356   3.209   1.486   7.022 -0.1927 -1.3879  0.6028
 1575SOL     OW16357   1.632   1.472   4.763  0.1619 -0.5100  0.8185
 1575SOL    HW116358   1.715   1.483   4.717 -0.1820  0.9501  0.5643
 1575SOL    HW216359   1.633   1.377   4.774 -1.6462 -0.6205  0.0415
 1576SOL     OW16360   2.477   4.287   5.314  0.1617 -0.4035  0.2137
 1576SOL    HW116361   2.478   4.195   5.290  0.1447 -0.4027  0.2103
 1576SOL    HW216362   2.543   4.305   5.382  1.9863 -2.7706 -0.9230
 1577SOL     OW16363   4.183   1.965   1.793  0.1916 -0.5597  0.6512
 1577SOL    HW116364   4.169   2.048   1.747 -0.5310 -1.0431 -0.0174
 1577SOL    HW216365   4.272   1.944   1.767 -0.2514  0.7864 -2.0194
 1578SOL     OW16366   3.471   0.771   0.893 -0.0327 -0.2525  0.1429
 1578SOL    HW116367   3.501   0.831   0.961  0.7804 -0.2672 -0.1996
 1578SOL    HW216368   3.380   0.751   0.916 -1.2582  3.1284 -1.7642
 1579SOL     OW16369   3.580   2.163   0.792  0.9058 -0.2994 -0.5342
 1579SOL    HW116370   3.620   2.130   0.712  2.5853  1.0497 -0.2635
 1579SOL    HW216371   3.539   2.078   0.808  0.0848  0.1706 -0.1437
 1580SOL     OW16372   1.763   4.565   7.981  0.6585 -0.1595 -0.0354
 1580SOL    HW116373   1.836   4.625   7.962  0.6104 -0.2047 -0.3647
 1580SOL    HW216374   1.753   4.592   8.072 -0.6246  0.5837 -0.4006
 1581SOL     OW16375   4.370   0.530   7.265 -0.4813  0.2697 -0.2477
 1581SOL    HW116376   4.391   0.563   7.178  1.5838 -0.7520 -0.1358
 1581SOL    HW216377   4.387   0.604   7.323  1.5749  0.2958 -0.8925
 1582SOL     OW16378   1.609   4.037   9.627  0.0558 -0.5270  0.0620
 1582SOL    HW116379   1.647   4.034   9.715  0.1750  1.3308  0.0734
 1582SOL    HW216380   1.535   4.096   9.642  0.1595 -0.7418  1.4799
 1583SOL     OW16381   2.998   2.630  11.009  0.4055 -0.2660  0.1731
 1583SOL    HW116382   2.972   2.716  11.043 -1.8395 -0.1655 -1.8285
 1583SOL    HW216383   3.035   2.588  11.086 -1.8710  1.2212  2.1127
 1584SOL     OW16384   1.902   0.990   2.694 -0.3372  0.2322 -0.7502
 1584SOL    HW116385   1.978   0.984   2.637 -0.5878 -1.2766 -0.9260
 1584SOL    HW216386   1.841   1.031   2.632  0.1261  0.3586 -1.1203
 1585SOL     OW16387   2.569   1.428   2.786  0.6048 -0.3849 -0.7002
 1585SOL    HW116388   2.577   1.520   2.761  2.3760 -0.3625 -0.0557
 1585SOL    HW216389   2.636   1.417   2.853  1.0971  0.9445 -0.9891
 1586SOL     OW16390   3.797   0.568   6.527 -0.1277  0.4762  0.3847
 1586SOL    HW116391   3.715   0.517   6.526 -0.6516  1.3482 -1.0649
 1586SOL    HW216392   3.768   0.647   6.481  0.9828 -0.2602 -1.5363
 1587SOL     OW16393   3.129   0.827  12.883 -0.6476  0.1218  0.6179
 1587SOL    HW116394   3.138   0.915  12.919  1.7003  1.2918 -2.7504
 1587SOL    HW216395   3.106   0.780  12.963 -0.6876  0.9923  1.1201
 1588SOL     OW16396   0.782   3.510   0.927 -0.0953 -0.1057  0.4997
 1588SOL    HW116397   0.758   3.420   0.951 -1.7198 -0.4391 -2.4106
 1588SOL    HW216398   0.713   3.530   0.864  1.1754 -0.1928 -0.9034
 1589SOL     OW16399   3.929   1.189  10.350  0.0788  0.2855 -0.6820
 1589SOL    HW116400   3.854   1.163  10.296 -0.0473 -1.4710  0.3397
 1589SOL    HW216401   3.985   1.220  10.279  0.9574 -1.8328 -0.9277
 1590SOL     OW16402   0.499   2.906   5.806 -0.2558 -0.0442  0.3683
 1590SOL    HW116403   0.488   2.906   5.901 -1.0488  1.4814  0.2808
 1590SOL    HW216404   0.590   2.934   5.798 -0.3014  0.3199  1.1406
 1591SOL     OW16405   3.991   4.401   1.277  0.0371 -0.7571  0.4323
 1591SOL    HW116406   3.994   4.370   1.368 -0.8158 -1.7985  0.1096
 1591SOL    HW216407   3.966   4.322   1.230 -2.0081 -0.5202  1.1044
 1592SOL     OW16408   2.239   0.342   4.762 -0.1959 -0.0415  0.3372
 1592SOL    HW116409   2.295   0.347   4.839 -1.8901 -2.1791  1.6924
 1592SOL    HW216410   2.194   0.427   4.771 -0.2021 -0.1978  1.6998
 1593SOL     OW16411   3.807   4.137  11.381  0.2787  0.0356 -0.0534
 1593SOL    HW116412   3.809   4.066  11.445 -1.8613 -0.3618 -0.4219
 1593SOL    HW216413   3.816   4.205  11.447  1.5373  1.0447 -1.2524
 1594SOL     OW16414   4.329   0.923  12.558 -0.2604 -0.0968  0.2481
 1594SOL    HW116415   4.323   1.011  12.521  1.9850 -0.3841 -0.7428
 1594SOL    HW216416   4.283   0.954  12.636 -1.4335 -1.5583  0.1510
 1595SOL     OW16417   2.490   4.553  15.750  0.0105  0.2231  0.2805
 1595SOL    HW116418   2.529   4.568  15.664 -1.0906  1.4392 -0.0006
 1595SOL    HW216419   2.559   4.548  15.817  0.7771  4.0224 -0.2729
 1596SOL     OW16420   4.173   1.146   5.220  0.2765 -0.4502  0.0404
 1596SOL    HW116421   4.224   1.167   5.298 -2.2290  0.1331  1.5215
 1596SOL    HW216422   4.238   1.087   5.180  0.2866  0.0969 -0.7449
 1597SOL     OW16423   3.329   1.866  14.661 -0.1811 -0.0548  0.0549
 1597SOL    HW116424   3.406   1.840  14.711  0.0223 -0.8986 -0.6893
 1597SOL    HW216425   3.373   1.908  14.587  2.7903  0.0092  1.8728
 1598SOL     OW16426   1.225   2.643   3.514  0.2520  0.0488 -0.3013
 1598SOL    HW116427   1.273   2.595   3.446 -1.9783 -3.1398  0.3460
 1598SOL    HW216428   1.136   2.611   3.503 -0.0090  1.0834 -1.1940
 1599SOL     OW16429   1.965   0.500  16.875 -0.0852 -0.4046  1.3088
 1599SOL    HW116430   1.928   0.580  16.837  2.0820 -0.5012 -0.9594
 1599SOL    HW216431   1.956   0.525  16.966  0.0809  0.2546  1.1437
 1600SOL     OW16432   1.767   4.624  16.607 -0.0125  0.4460  1.0924
 1600SOL    HW116433   1.855   4.644  16.637  1.6710 -2.0198 -2.1210
 1600SOL    HW216434   1.734   4.713  16.593 -3.4018 -0.6248  2.1236
 1601SOL     OW16435   3.636   3.284   3.091 -0.3488 -0.2181  0.3469
 1601SOL    HW116436   3.692   3.207   3.102  0.4324  0.4482  1.1406
 1601SOL    HW216437   3.689   3.336   3.152 -0.5893 -0.2090  0.5478
 1602SOL     OW16438   4.102   2.265  10.618  0.4780  0.3386 -0.1366
 1602SOL    HW116439   4.013   2.264  10.584  0.3996  0.9535  0.0575
 1602SOL    HW216440   4.099   2.306  10.704 -1.2227 -1.2875  0.5636
 1603SOL     OW16441   4.227   0.110  14.590 -0.0348  0.5416  0.5440
 1603SOL    HW116442   4.279   0.034  14.617  1.7051  0.3853 -3.2570
 1603SOL    HW216443   4.306   0.160  14.569 -0.1137  0.1029 -0.7739
 1604SOL     OW16444   0.907   0.034   3.450 -0.0257 -0.0246  0.0856
 1604SOL    HW116445   0.941   4.737   3.531 -1.4677  0.0993  0.7325
 1604SOL    HW216446   0.863   0.106   3.496 -0.8457 -1.3907  1.4163
 1605SOL     OW16447   1.657   3.534   1.909  0.3619 -0.0195  0.5383
 1605SOL    HW116448   1.640   3.597   1.979 -2.6122  0.4828 -0.6275
 1605SOL    HW216449   1.672   3.454   1.958  0.1443 -1.2936 -1.4638
 1606SOL     OW16450   1.487   3.507   0.382  0.0776 -0.1210  0.1239
 1606SOL    HW116451   1.437   3.474   0.457 -2.5816 -1.7130 -2.3612
 1606SOL    HW216452   1.578   3.480   0.394 -0.2205 -0.8674  0.7208
 1607SOL     OW16453   1.642   0.738   1.875 -0.4503  0.2328  0.6219
 1607SOL    HW116454   1.684   0.818   1.842 -0.4298 -0.7423 -1.7365
 1607SOL    HW216455   1.713   0.675   1.871 -0.4927  0.1296  1.4954
 1608SOL     OW16456   1.951   0.020   5.527  0.1102 -1.1059 -0.2649
 1608SOL    HW116457   1.888   4.688   5.531 -0.5982 -0.4895 -0.2976
 1608SOL    HW216458   1.904   0.094   5.566  1.1421 -0.1267 -0.8644
 1609SOL     OW16459   2.982   0.006   8.989 -0.3284 -0.5936  1.1008
 1609SOL    HW116460   3.022   4.694   8.919 -0.7990  0.1071  0.3049
 1609SOL    HW216461   2.971   4.676   9.054  0.0084 -2.1446 -0.5186
 1610SOL     OW16462   0.491   3.868   5.045  0.6069 -0.0412  0.1766
 1610SOL    HW116463   0.411   3.822   5.021  1.1360 -0.2089 -1.2629
 1610SOL    HW216464   0.458   3.941   5.098 -1.4622 -1.4807  0.8810
 1611SOL     OW16465   3.830   1.028   0.402  0.0577  0.0852  0.5309
 1611SOL    HW116466   3.889   1.081   0.349 -1.1569  1.3546  0.4453
 1611SOL    HW216467   3.888   0.961   0.437  0.3190  1.2385  2.3100
 1612SOL     OW16468   4.484   1.217  12.657  0.0454 -0.5639  0.1395
 1612SOL    HW116469   4.393   1.222  12.626 -0.1627 -0.0828  0.8136
 1612SOL    HW216470   4.519   1.305  12.650 -3.2433  0.8275  1.1265
 1613SOL     OW16471   1.588   0.575   8.252  0.3722 -0.0086  0.1655
 1613SOL    HW116472   1.568   0.503   8.312  1.6067 -0.6137 -0.1566
 1613SOL    HW216473   1.661   0.623   8.294  1.8560 -1.2973 -0.9431
 1614SOL     OW16474   1.887   0.295   4.589  0.0685  0.6441  0.0495
 1614SOL    HW116475   1.962   0.303   4.530  1.0288 -0.6415  1.1085
 1614SOL    HW216476   1.859   0.204   4.579  0.8598  0.3318  0.5871
 1615SOL     OW16477   4.058   2.784   8.148  0.4374 -0.0916  0.0893
 1615SOL    HW116478   3.981   2.813   8.196  1.0402  1.0475  0.3522
 1615SOL    HW216479   4.131   2.840   8.173  2.1891 -1.3106 -2.2797
 1616SOL     OW16480   3.411   1.425   3.753  0.3411 -0.1196 -0.0507
 1616SOL    HW116481   3.453   1.339   3.751  0.3531 -0.1156  0.0724
 1616SOL    HW216482   3.478   1.489   3.777 -0.2625 -0.0751  1.5271
 1617SOL     OW16483   0.173   1.816   8.645 -0.2551 -0.4967  0.1124
 1617SOL    HW116484   0.158   1.768   8.726 -0.2282 -1.6947 -0.5819
 1617SOL    HW216485   0.155   1.750   8.578 -0.7641  0.8520 -1.0865
 1618SOL     OW16486   4.212   1.828  13.730  0.3665  0.0441  0.1371
 1618SOL    HW116487   4.151   1.886  13.684  0.1694 -1.2221 -1.1807
 1618SOL    HW216488   4.143   1.772  13.767  0.3034 -0.4432 -0.7405
 1619SOL     OW16489   0.994   4.609   6.833  0.1115 -0.0433 -0.2750
 1619SOL    HW116490   1.021   4.697   6.807 -1.1293  0.6180  0.6312
 1619SOL    HW216491   0.969   4.564   6.752 -2.2756  3.9906 -1.8384
 1620SOL     OW16492   3.246   1.081  17.355  0.5147 -0.3658 -0.6299
 1620SOL    HW116493   3.268   1.113  17.267 -1.5755 -0.5125 -1.2134
 1620SOL    HW216494   3.159   1.119  17.367  0.2665 -1.4921  1.0839
 1621SOL     OW16495   4.332   3.491   1.536 -0.2393 -0.0971 -0.3706
 1621SOL    HW116496   4.268   3.440   1.585  0.6606 -0.8910 -0.0162
 1621SOL    HW216497   4.313   3.582   1.556  0.2455 -0.2017  0.5317
 1622SOL     OW16498   3.027   1.155   0.351  0.4409  0.0997 -0.4599
 1622SOL    HW116499   2.959   1.090   0.340  0.5872  0.1470 -1.7656
 1622SOL    HW216500   2.999   1.228   0.296  0.9962  1.6267  1.2996
 1623SOL     OW16501   1.636   1.813  17.736  0.1724  0.3372 -0.0490
 1623SOL    HW116502   1.577   1.884  17.710 -1.0588 -0.8714 -0.5264
 1623SOL    HW216503   1.652   1.818   0.073 -1.4466 -3.0364  0.3933
 1624SOL     OW16504   3.443   3.081   0.300  0.0036 -0.8916  0.4391
 1624SOL    HW116505   3.466   3.169   0.268  0.7171 -1.2684 -0.0815
 1624SOL    HW216506   3.351   3.073   0.277  0.1265 -0.6699 -0.1389
 1625SOL     OW16507   2.110   0.210  14.588  0.1436 -0.2295  0.8725
 1625SOL    HW116508   2.125   0.193  14.681 -4.0485 -2.0803  1.2149
 1625SOL    HW216509   2.149   0.296  14.577  0.2599  0.0894  3.9852
 1626SOL     OW16510   0.951   3.232  17.364 -0.2908 -0.2954  0.3902
 1626SOL    HW116511   0.949   3.201  17.455 -1.5220 -1.6962 -0.1091
 1626SOL    HW216512   0.862   3.211  17.335 -1.3010  2.7368  1.3697
 1627SOL     OW16513   0.390   0.933  12.673  0.5347  0.3732 -0.2956
 1627SOL    HW116514   0.405   1.023  12.703  0.3918  0.0651  0.6986
 1627SOL    HW216515   0.371   0.883  12.752 -0.7031 -2.8791 -2.6809
 1628SOL     OW16516   2.955   1.749   1.228 -0.5577 -0.0571 -0.2144
 1628SOL    HW116517   2.958   1.729   1.134 -0.5926 -2.0273  0.2050
 1628SOL    HW216518   3.000   1.832   1.217 -1.8472  0.7403  0.6642
 1629SOL     OW16519   3.653   3.788   5.760  0.1256 -0.5573  0.0565
 1629SOL    HW116520   3.740   3.819   5.739 -0.7989  1.0038 -1.4266
 1629SOL    HW216521   3.667   3.695   5.779  0.1914 -0.1052  2.1919
 1630SOL     OW16522   3.728   0.315   7.324  0.6466  0.9396  0.3516
 1630SOL    HW116523   3.718   0.234   7.374  0.1375  0.7426 -0.0754
 1630SOL    HW216524   3.647   0.317   7.272  1.2141 -1.7440 -0.6145
 1631SOL     OW16525   3.277   2.182   3.864  0.1736 -0.1792 -0.2091
 1631SOL    HW116526   3.371   2.198   3.866  0.2854 -0.9965  2.7391
 1631SOL    HW216527   3.253   2.214   3.777 -0.9490  1.1854  0.5933
 1632SOL     OW16528   4.279   2.163   7.079  0.2026 -0.3678 -0.5799
 1632SOL    HW116529   4.292   2.255   7.052 -0.1250  0.2536  1.4045
 1632SOL    HW216530   4.189   2.176   7.109  0.5734 -1.9840  1.1744
 1633SOL     OW16531   3.315   3.859   1.341  0.6888  0.1005  0.6980
 1633SOL    HW116532   3.377   3.905   1.398  1.1729 -2.8321  2.4992
 1633SOL    HW216533   3.301   3.783   1.397  0.8431 -0.5749 -0.1771
 1634SOL     OW16534   4.122   3.255   3.755  0.0864 -0.0990  0.2002
 1634SOL    HW116535   4.101   3.237   3.847 -0.8757 -1.0896 -0.2261
 1634SOL    HW216536   4.165   3.175   3.727 -1.6001  0.0679 -2.8484
 1635SOL     OW16537   3.356   2.634   4.948 -0.7340  0.8691 -0.6183
 1635SOL    HW116538   3.442   2.602   4.972 -1.0344  0.5614  0.0449
 1635SOL    HW216539   3.385   2.673   4.865  1.2909  0.4271 -0.1004
 1636SOL     OW16540   0.417   3.633   1.705 -0.1890  0.4765  0.3567
 1636SOL    HW116541   0.428   3.727   1.721 -1.3882  0.5325  0.9135
 1636SOL    HW216542   0.506   3.602   1.694 -0.9907 -0.9211 -2.3334
 1637SOL     OW16543   1.076   1.765  12.385 -0.4544  0.3765  0.6679
 1637SOL    HW116544   1.135   1.691  12.398  0.6800  1.3426  0.9320
 1637SOL    HW216545   1.119   1.822  12.448  2.2405 -1.6563  0.6719
 1638SOL     OW16546   3.242   1.189   4.943 -0.1892 -0.5693  0.8569
 1638SOL    HW116547   3.153   1.157   4.927  0.6152 -1.6674 -1.4304
 1638SOL    HW216548   3.286   1.118   4.896 -1.8913 -1.6347  0.8337
 1639SOL     OW16549   0.897   1.931   5.902  0.2036 -0.3278  0.2690
 1639SOL    HW116550   0.923   1.843   5.930  1.0369 -0.1802 -0.0469
 1639SOL    HW216551   0.953   1.981   5.962 -0.2501  0.8232 -0.2691
 1640SOL     OW16552   1.287   0.950   3.030 -0.6475  0.0770 -0.0986
 1640SOL    HW116553   1.252   1.030   2.992 -0.4172  0.5054  0.6110
 1640SOL    HW216554   1.347   0.933   2.957  0.6469  0.3273  0.9323
 1641SOL     OW16555   4.555   3.514  16.397  0.3044 -0.0115 -0.4084
 1641SOL    HW116556   4.521   3.437  16.442  0.5052  0.4666  0.5468
 1641SOL    HW216557   4.650   3.506  16.396 -0.0048 -3.5632  0.7188
 1642SOL     OW16558   1.795   0.797   2.818 -0.0991  0.3681 -0.0618
 1642SOL    HW116559   1.835   0.855   2.752  0.3976  1.3351  1.0855
 1642SOL    HW216560   1.799   0.850   2.898 -3.1091 -2.2106  1.7684
 1643SOL     OW16561   3.529   0.124   7.103 -0.3093 -0.8482  0.4102
 1643SOL    HW116562   3.472   0.178   7.050  1.4296 -1.2711 -1.8948
 1643SOL    HW216563   3.477   0.044   7.112 -0.7638 -0.5082  0.8441
 1644SOL     OW16564   4.123   2.135  15.014  0.3248 -0.4422 -0.2238
 1644SOL    HW116565   4.044   2.082  15.003 -0.5645  0.5076  1.5225
 1644SOL    HW216566   4.115   2.210  14.955  0.1872  0.7659  1.3104
 1645SOL     OW16567   0.108   0.447   9.172  0.0270  0.4234 -0.5487
 1645SOL    HW116568   0.038   0.509   9.190  1.3715  1.1381  2.2614
 1645SOL    HW216569   0.061   0.364   9.177  1.5276 -0.4471 -0.7715
 1646SOL     OW16570   4.574   1.674   4.807 -0.0931  0.0522  0.7145
 1646SOL    HW116571   4.551   1.681   4.900  0.5182  1.8628  0.7279
 1646SOL    HW216572   4.555   1.760   4.769 -1.1672 -1.4751 -2.1708
 1647SOL     OW16573   4.738   0.297   3.007  0.2576 -0.0459  0.2156
 1647SOL    HW116574   4.735   0.203   3.019  1.4394 -0.0468  0.5411
 1647SOL    HW216575   4.699   0.317   3.092  0.6522  1.5708  0.0182
 1648SOL     OW16576   1.145   0.796  14.127  0.3897  0.2244  0.1070
 1648SOL    HW116577   1.085   0.870  14.141  0.2965  0.4310 -1.4027
 1648SOL    HW216578   1.230   0.835  14.108  1.1995 -1.5577  0.0617
 1649SOL     OW16579   4.639   2.320   2.105  0.0663 -0.3610 -0.0401
 1649SOL    HW116580   4.616   2.410   2.129  0.9207  0.1703 -1.1952
 1649SOL    HW216581   4.621   2.315   2.011 -0.5047  2.8394 -0.1043
 1650SOL     OW16582   3.126   2.769   7.901  0.3387 -0.4732  0.0939
 1650SOL    HW116583   3.074   2.847   7.923 -0.3460 -0.6785 -0.7906
 1650SOL    HW216584   3.127   2.724   7.986 -0.1876  1.1560  0.9659
 1651SOL     OW16585   2.082   1.644   7.174  0.3322  0.5577  0.5458
 1651SOL    HW116586   2.007   1.600   7.137 -0.5917  2.6562 -0.0645
 1651SOL    HW216587   2.036   1.721   7.208  0.7834  1.4731 -0.9147
 1652SOL     OW16588   4.728   4.737   8.422 -0.2260  0.0886  0.4763
 1652SOL    HW116589   4.687   0.079   8.395 -1.5394 -0.6138  0.3251
 1652SOL    HW216590   4.725   4.685   8.342  1.6654  0.5669  0.1019
 1653SOL     OW16591   1.173   4.697   2.157 -0.0113 -0.2687 -0.4849
 1653SOL    HW116592   1.160   4.694   2.252  2.2071 -1.2212 -0.2155
 1653SOL    HW216593   1.081   4.709   2.134 -0.4796 -1.7232  0.6574
 1654SOL     OW16594   4.633   4.159   4.073 -0.0729  0.5278 -0.5022
 1654SOL    HW116595   4.638   4.071   4.109 -0.0338  1.5935  2.1338
 1654SOL    HW216596   4.703   4.171   4.009 -1.4012 -1.1454 -2.2690
 1655SOL     OW16597   0.645   1.997   5.883 -0.5281  0.0097 -0.4925
 1655SOL    HW116598   0.622   1.909   5.850  0.4938  0.1448 -1.5675
 1655SOL    HW216599   0.739   1.979   5.890 -0.4983 -0.0019 -0.9131
 1656SOL     OW16600   3.549   0.956   8.433  0.2056  0.0963 -0.7339
 1656SOL    HW116601   3.553   0.962   8.529  0.5353  0.5767 -0.7751
 1656SOL    HW216602   3.624   0.898   8.423  1.7902  2.1116 -0.4373
 1657SOL     OW16603   1.257   2.536   9.396  0.0098  0.0089  0.1066
 1657SOL    HW116604   1.276   2.545   9.302 -0.3226  0.3472  0.0678
 1657SOL    HW216605   1.329   2.483   9.428  0.4296  1.0162  0.8135
 1658SOL     OW16606   4.336   4.464   2.167  0.1674 -0.2065 -0.3147
 1658SOL    HW116607   4.382   4.382   2.182 -1.2378 -0.8924  0.2839
 1658SOL    HW216608   4.365   4.478   2.077  0.3212  0.8713 -0.1026
 1659SOL     OW16609   3.360   0.203   1.046 -0.1635 -0.3952  0.6957
 1659SOL    HW116610   3.352   0.290   1.008  0.5526 -1.8463 -2.7769
 1659SOL    HW216611   3.445   0.210   1.090 -1.0430 -0.4721  2.4203
 1660SOL     OW16612   2.039   0.358   7.693  0.0047 -0.2554  0.5194
 1660SOL    HW116613   2.027   0.432   7.752  1.1142  1.7744 -1.7895
 1660SOL    HW216614   2.056   0.285   7.753  1.4578  0.2943  0.7806
 1661SOL     OW16615   1.159   2.590   6.015  0.1308 -0.3101 -0.2353
 1661SOL    HW116616   1.219   2.530   6.061 -0.8419 -0.4444  0.8456
 1661SOL    HW216617   1.175   2.674   6.058 -1.0399  0.0310 -0.4693
 1662SOL     OW16618   2.135   0.010   3.300 -0.0367 -0.0277 -0.1778
 1662SOL    HW116619   2.112   4.662   3.329 -0.2797  0.2350  0.4165
 1662SOL    HW216620   2.177   0.005   3.214  0.8178  1.7391  0.1406
 1663SOL     OW16621   1.468   3.163   0.268  0.6446  0.1971 -0.6014
 1663SOL    HW116622   1.409   3.186   0.340  1.2782 -0.3312  0.0833
 1663SOL    HW216623   1.551   3.163   0.315  0.4902 -0.9103 -0.3293
 1664SOL     OW16624   2.093   4.503   9.889  0.0631  0.5735  0.1918
 1664SOL    HW116625   2.172   4.473   9.844 -1.0436  1.5406 -2.4078
 1664SOL    HW216626   2.032   4.431   9.877 -0.1796  0.6115  1.1519
 1665SOL     OW16627   1.378   4.295   4.258 -0.0630  0.2222 -0.4734
 1665SOL    HW116628   1.422   4.210   4.263  2.4908  1.5797 -0.2141
 1665SOL    HW216629   1.338   4.298   4.345  0.6799 -0.1577 -0.1149
 1666SOL     OW16630   3.888   3.673   1.515 -0.5722  0.2500  0.4030
 1666SOL    HW116631   3.940   3.632   1.446  2.3506  0.8708  2.2088
 1666SOL    HW216632   3.856   3.756   1.481 -0.4915  0.7968  1.6705
 1667SOL     OW16633   2.450   2.770   1.920 -0.3721 -0.1346  0.4400
 1667SOL    HW116634   2.445   2.693   1.976 -0.8151 -0.6631 -0.3228
 1667SOL    HW216635   2.540   2.799   1.934  0.3508 -1.7653 -0.7927
 1668SOL     OW16636   4.129   3.496   6.586 -0.3127 -0.9012 -0.2250
 1668SOL    HW116637   4.045   3.533   6.561 -0.7484 -0.5114  1.7938
 1668SOL    HW216638   4.153   3.470   6.497  2.1855  3.0064 -0.6761
 1669SOL     OW16639   4.306   4.280   8.155 -0.3750  0.2553 -0.0910
 1669SOL    HW116640   4.318   4.351   8.218  0.1707  0.8926 -0.9119
 1669SOL    HW216641   4.221   4.238   8.171  0.1885 -1.3365 -1.2492
 1670SOL     OW16642   4.547   0.578  11.197  0.1270 -0.5625 -0.2722
 1670SOL    HW116643   4.595   0.661  11.193 -1.6643  0.5354  1.4170
 1670SOL    HW216644   4.541   0.573  11.101 -1.2890 -2.2507 -0.0895
 1671SOL     OW16645   0.038   3.412   8.733 -0.5591 -0.0573  0.6520
 1671SOL    HW116646   0.105   3.373   8.676  0.1455 -0.1642  1.5543
 1671SOL    HW216647   0.022   3.489   8.679  0.3612  0.1582  0.6985
 1672SOL     OW16648   0.747   2.477   1.487 -0.6653 -0.7005  0.2487
 1672SOL    HW116649   0.740   2.569   1.460  0.9085  0.3279  3.2826
 1672SOL    HW216650   0.688   2.486   1.562 -1.3099 -1.2476 -0.1939
 1673SOL     OW16651   3.741   3.359   3.376  0.0634 -0.1624 -0.1398
 1673SOL    HW116652   3.656   3.366   3.420 -0.3094  0.7676 -1.0146
 1673SOL    HW216653   3.798   3.334   3.448  0.7715  0.6726 -0.4133
 1674SOL     OW16654   2.103   1.559   9.879 -0.5927 -0.0858  0.3153
 1674SOL    HW116655   2.148   1.474   9.884 -1.0822 -0.4752 -1.8240
 1674SOL    HW216656   2.028   1.534   9.825 -0.3680 -0.3597  0.1285
 1675SOL     OW16657   2.841   1.618   9.769  0.0463 -0.3108 -0.5160
 1675SOL    HW116658   2.904   1.685   9.742  0.3927 -0.1029  0.8110
 1675SOL    HW216659   2.763   1.669   9.748 -0.0739 -0.5856 -0.7299
 1676SOL     OW16660   0.911   0.613   4.908  0.4969 -0.3407 -0.0759
 1676SOL    HW116661   0.907   0.689   4.850 -1.9507 -1.3163 -1.1927
 1676SOL    HW216662   0.840   0.560   4.872 -0.5163  1.0536 -0.1354
 1677SOL     OW16663   3.066   3.126   6.485 -0.0834  0.3824  0.0936
 1677SOL    HW116664   2.972   3.135   6.499  0.1253  0.5880  1.3959
 1677SOL    HW216665   3.072   3.053   6.546 -1.3951  1.4897  1.5366
 1678SOL     OW16666   2.597   0.530   4.794  0.4642  0.3650  0.3290
 1678SOL    HW116667   2.510   0.551   4.759  0.3053 -0.3585  0.2940
 1678SOL    HW216668   2.562   0.497   4.876 -0.2366  1.4176  0.4617
 1679SOL     OW16669   2.545   4.217   8.721 -0.2848  0.4376 -0.0093
 1679SOL    HW116670   2.622   4.161   8.732  0.0293  1.2316  1.8933
 1679SOL    HW216671   2.537   4.206   8.627 -0.4858  1.4892 -0.1162
 1680SOL     OW16672   0.043   3.944   7.175 -0.5478 -0.3685 -0.4657
 1680SOL    HW116673   0.089   3.869   7.213 -1.9145  0.2139  2.3388
 1680SOL    HW216674   4.709   3.899   7.134 -1.2973  2.2008 -1.9216
 1681SOL     OW16675   0.300   3.810  15.029  0.3806 -0.1614 -0.0762
 1681SOL    HW116676   0.289   3.749  14.957 -2.7819  2.3319 -1.7014
 1681SOL    HW216677   0.278   3.889  14.979  0.2284 -1.2600 -1.7535
 1682SOL     OW16678   0.933   2.729   5.903  0.1288 -0.2365 -0.3768
 1682SOL    HW116679   0.912   2.708   5.812  0.9130 -2.7115  0.0056
 1682SOL    HW216680   0.965   2.649   5.944  2.3994  0.3248 -1.0769
 1683SOL     OW16681   3.075   2.570   6.836 -0.3861  0.3092  0.3113
 1683SOL    HW116682   3.030   2.557   6.919  0.1476  0.4091  0.6125
 1683SOL    HW216683   3.092   2.479   6.810 -1.0411  0.6970 -1.4642
 1684SOL     OW16684   2.697   3.094   9.109  0.4046 -0.5257 -0.7447
 1684SOL    HW116685   2.707   3.184   9.078  0.5361  0.0469  1.0015
 1684SOL    HW216686   2.755   3.085   9.184  0.3291  1.9344 -0.3942
 1685SOL     OW16687   0.838   1.014  14.443  0.3705 -0.1411  0.7659
 1685SOL    HW116688   0.900   0.949  14.477  0.3177 -0.9340 -0.6417
 1685SOL    HW216689   0.879   1.031  14.359  0.4864  0.0496  0.8626
 1686SOL     OW16690   1.660   1.462   4.427  0.3629  0.2324  0.0641
 1686SOL    HW116691   1.714   1.495   4.499  1.3094  0.8715 -0.9335
 1686SOL    HW216692   1.693   1.372   4.424  1.2069  0.5451  0.0098
 1687SOL     OW16693   1.772   3.027  14.417  0.0638 -0.7172 -0.2228
 1687SOL    HW116694   1.719   3.092  14.463 -1.7224 -0.6490 -2.4139
 1687SOL    HW216695   1.809   2.968  14.483  2.4619  2.4065  1.2376
 1688SOL     OW16696   3.265   1.895   8.987  0.1307 -0.0525  0.4085
 1688SOL    HW116697   3.338   1.851   9.030  0.2586 -1.9402 -1.7078
 1688SOL    HW216698   3.302   1.941   8.912 -0.1700 -0.3100  0.1021
 1689SOL     OW16699   4.201   1.221   2.378 -0.5824  0.3093  0.2523
 1689SOL    HW116700   4.226   1.223   2.471 -0.1823 -0.6731  0.1722
 1689SOL    HW216701   4.154   1.137   2.384  1.9935 -1.0967  0.9218
 1690SOL     OW16702   2.856   4.491   7.739  0.5419  0.4499 -0.0116
 1690SOL    HW116703   2.861   4.524   7.829  1.3288  1.6108 -0.4819
 1690SOL    HW216704   2.770   4.526   7.717 -0.1474 -0.4016  1.3374
 1691SOL     OW16705   0.038   0.665   8.767  0.3113 -0.4134  0.5065
 1691SOL    HW116706   0.098   0.592   8.784  1.1027  0.2646  0.6246
 1691SOL    HW216707   4.711   0.660   8.837  1.7673  0.2821  1.9511
 1692SOL     OW16708   3.447   4.382   5.069  0.2688  0.3028  0.7682
 1692SOL    HW116709   3.472   4.290   5.083 -0.8882 -0.1508 -0.1847
 1692SOL    HW216710   3.426   4.373   4.976 -0.8348  0.1760  1.0374
 1693SOL     OW16711   2.334   4.159  16.496 -0.1500  0.0885 -0.0632
 1693SOL    HW116712   2.421   4.199  16.492 -0.1976 -0.1419 -3.3484
 1693SOL    HW216713   2.332   4.121  16.583  1.0937  0.1310 -0.0175
 1694SOL     OW16714   0.836   0.700   2.968  0.2385  0.4704 -0.0111
 1694SOL    HW116715   0.826   0.609   2.937 -1.7023 -0.2366  2.6398
 1694SOL    HW216716   0.763   0.743   2.923 -1.1503 -1.3560  0.4906
 1695SOL     OW16717   3.662   3.927   6.429  0.1824  0.2593 -0.1024
 1695SOL    HW116718   3.712   3.878   6.493  1.1965  1.5935  0.1162
 1695SOL    HW216719   3.717   3.998   6.395 -0.3477 -0.2950 -2.1208
 1696SOL     OW16720   4.007   1.128   4.130 -0.0099 -0.3613  0.3435
 1696SOL    HW116721   3.972   1.207   4.089 -1.4303 -1.1616 -0.0015
 1696SOL    HW216722   3.940   1.102   4.193 -0.0241  0.7761  0.7993
 1697SOL     OW16723   4.667   1.409   6.056 -0.2660  0.7390 -0.0223
 1697SOL    HW116724   4.655   1.471   5.984  2.2654 -1.0222 -1.9795
 1697SOL    HW216725   4.726   1.347   6.014 -0.8478 -1.0972  1.8970
 1698SOL     OW16726   0.704   0.951   7.858  0.6309 -0.5323  0.4982
 1698SOL    HW116727   0.722   0.990   7.943 -0.5340 -1.2172  1.0645
 1698SOL    HW216728   0.622   0.998   7.836 -0.2541 -2.3963 -0.1782
 1699SOL     OW16729   1.950   0.030   8.020  0.4683  0.4354  0.0829
 1699SOL    HW116730   1.888   0.099   7.999 -0.4874 -1.0274 -1.9901
 1699SOL    HW216731   2.024   0.077   8.058  0.5394  1.1932 -1.0170
 1700SOL     OW16732   1.540   2.935   6.197  0.1523  0.5291  0.2006
 1700SOL    HW116733   1.516   3.022   6.228 -1.4439 -0.0253  0.5148
 1700SOL    HW216734   1.606   2.948   6.129 -1.2653 -0.7297 -1.4334
 1701SOL     OW16735   4.182   3.282  12.937  0.8921  0.0928  0.1127
 1701SOL    HW116736   4.179   3.204  12.882 -0.9605  0.1375  0.1515
 1701SOL    HW216737   4.126   3.352  12.903  1.3352 -0.3478 -1.5287
 1702SOL     OW16738   4.354   0.971   3.175 -0.0658 -0.0299  0.5069
 1702SOL    HW116739   4.384   0.951   3.086 -2.0907  0.9951 -0.4054
 1702SOL    HW216740   4.260   0.964   3.159 -0.2844  1.2931  1.3100
 1703SOL     OW16741   2.552   1.093   7.179 -0.3834  0.3693 -0.7443
 1703SOL    HW116742   2.592   1.136   7.254 -1.4220 -0.2442  0.1686
 1703SOL    HW216743   2.570   1.000   7.191 -1.4090  0.3944  1.0616
 1704SOL     OW16744   2.267   2.920   8.762 -0.3540 -0.1285 -0.0703
 1704SOL    HW116745   2.200   2.860   8.728 -0.6692  0.9607 -1.3866
 1704SOL    HW216746   2.291   2.957   8.677  0.0742 -1.8326 -0.6824
 1705SOL     OW16747   4.645   1.388   2.056 -0.2400  0.9826  0.7153
 1705SOL    HW116748   4.723   1.377   2.110  0.5523  0.2185 -0.5818
 1705SOL    HW216749   4.691   1.392   1.972 -1.7906  1.1442 -0.1460
 1706SOL     OW16750   2.335   0.243  12.311 -0.6607  0.4715  0.3227
 1706SOL    HW116751   2.333   0.216  12.219  0.4521  2.1576 -0.2034
 1706SOL    HW216752   2.313   0.336  12.306  0.6029  0.7644  0.0221
 1707SOL     OW16753   0.094   1.668   5.396  0.5803 -0.1910 -0.1767
 1707SOL    HW116754   0.056   1.649   5.310  1.7876  0.9801 -0.9720
 1707SOL    HW216755   0.038   1.742   5.418  1.8271  0.3992  1.0176
 1708SOL     OW16756   3.475   3.228   4.934 -0.1973  0.2530  0.2251
 1708SOL    HW116757   3.470   3.290   5.007  2.4550  1.4487 -0.6531
 1708SOL    HW216758   3.565   3.234   4.903  0.1081  0.3552  1.1374
 1709SOL     OW16759   3.917   0.632   7.863  0.6410 -0.0037  0.4049
 1709SOL    HW116760   4.007   0.604   7.849 -0.3557 -2.5175 -0.8955
 1709SOL    HW216761   3.938   0.720   7.831 -1.1352  0.3697  0.2262
 1710SOL     OW16762   1.807   4.460   2.053  0.1154 -0.0520 -0.6071
 1710SOL    HW116763   1.848   4.541   2.023  0.0167  0.0568 -0.4556
 1710SOL    HW216764   1.735   4.498   2.105 -0.1757 -2.0083  0.4313
 1711SOL     OW16765   3.517   0.648   6.790  0.5885 -0.4402 -0.1207
 1711SOL    HW116766   3.584   0.714   6.773  0.2284  0.2199  1.0614
 1711SOL    HW216767   3.530   0.586   6.718 -2.6073 -0.8359 -0.3533
 1712SOL     OW16768   2.224   2.005   7.897  0.1036  0.2133 -0.2252
 1712SOL    HW116769   2.279   1.996   7.818 -2.4346 -1.2975 -1.8224
 1712SOL    HW216770   2.284   1.964   7.959 -0.0482  1.4731  0.7382
 1713SOL     OW16771   4.446   1.678   3.370  0.3352  0.0123 -0.1854
 1713SOL    HW116772   4.430   1.773   3.372  1.2112  0.2103 -2.5979
 1713SOL    HW216773   4.541   1.675   3.381  0.3692 -0.9922 -0.8125
 1714SOL     OW16774   1.745   2.380  14.636 -0.0397  0.7214 -0.6703
 1714SOL    HW116775   1.819   2.440  14.645  0.9804 -0.8288  1.3730
 1714SOL    HW216776   1.797   2.303  14.611  0.0917  0.9202 -1.0223
 1715SOL     OW16777   2.236   0.226   7.183  1.0742 -0.0888 -0.3314
 1715SOL    HW116778   2.261   0.261   7.098  1.9599  0.5976  0.2207
 1715SOL    HW216779   2.141   0.240   7.180  1.0250 -0.2803  0.3593
 1716SOL     OW16780   2.132   4.738  16.032  0.7646  0.0671  0.3787
 1716SOL    HW116781   2.214   0.020  15.987  2.0112 -2.5798  1.2887
 1716SOL    HW216782   2.147   0.056  16.107  2.7814  0.1546 -0.0938
 1717SOL     OW16783   2.002   0.189  10.737  0.6960 -0.2210 -0.9022
 1717SOL    HW116784   2.033   0.273  10.704  0.2955  0.0220 -0.6655
 1717SOL    HW216785   1.909   0.211  10.748  0.8512 -0.5695  1.0771
 1718SOL     OW16786   4.224   4.057   5.947  0.3299  0.3597  0.2247
 1718SOL    HW116787   4.307   4.041   5.902 -0.1302  1.4620 -1.0138
 1718SOL    HW216788   4.204   4.143   5.909  0.2376 -0.3347 -1.2973
 1719SOL     OW16789   0.276   0.832   6.499  0.6784 -0.1890  0.0187
 1719SOL    HW116790   0.331   0.781   6.440  1.6137  1.7947 -0.8153
 1719SOL    HW216791   0.253   0.909   6.448 -0.3830 -1.5207 -1.5263
 1720SOL     OW16792   4.104   1.845  16.976  0.0218  0.5850  0.1767
 1720SOL    HW116793   4.128   1.753  16.981  1.3323  0.8321 -1.4662
 1720SOL    HW216794   4.175   1.875  16.919  0.6549 -2.9862 -0.8578
 1721SOL     OW16795   3.620   1.059   3.502 -0.7314  0.3345 -0.0648
 1721SOL    HW116796   3.592   0.973   3.535 -0.3766  2.1200  4.9007
 1721SOL    HW216797   3.680   1.026   3.435  0.7158 -0.0230  1.4192
 1722SOL     OW16798   1.455   4.089   7.665  0.3874 -0.6499  0.0670
 1722SOL    HW116799   1.551   4.089   7.668  0.3503 -1.0979  1.2597
 1722SOL    HW216800   1.443   4.000   7.631 -0.2679 -0.6526  0.3197
 1723SOL     OW16801   2.210   2.927   3.036  0.0366 -0.0426 -0.6431
 1723SOL    HW116802   2.133   2.937   2.980 -0.3085 -1.8381 -0.4692
 1723SOL    HW216803   2.170   2.955   3.118  4.4505 -0.9431  1.8117
 1724SOL     OW16804   2.593   1.943  12.843 -0.4775  0.1584  0.4633
 1724SOL    HW116805   2.604   1.898  12.759  0.1999  0.8582  0.1872
 1724SOL    HW216806   2.500   1.955  12.865 -0.6281  0.7347 -0.5370
 1725SOL     OW16807   0.200   1.368   0.554 -0.2414 -0.2282  0.0854
 1725SOL    HW116808   0.200   1.463   0.538 -1.7975 -0.2065  0.1529
 1725SOL    HW216809   0.285   1.341   0.519 -0.7092 -0.5525 -0.7960
 1726SOL     OW16810   3.158   0.859  13.765  0.2034 -0.0167  0.8594
 1726SOL    HW116811   3.150   0.946  13.725 -2.4182 -0.9814 -0.7042
 1726SOL    HW216812   3.085   0.855  13.827 -0.9460 -1.9114 -0.6268
 1727SOL     OW16813   3.009   0.493   4.343 -0.3111  0.1447 -0.1851
 1727SOL    HW116814   2.982   0.484   4.252  1.1006  0.6009 -0.6433
 1727SOL    HW216815   2.968   0.412   4.373  0.8534  0.5496  2.4658
 1728SOL     OW16816   4.275   1.568   3.889  0.2311 -0.7027  0.0517
 1728SOL    HW116817   4.329   1.601   3.818 -0.5981 -0.6237 -0.5425
 1728SOL    HW216818   4.330   1.509   3.940 -0.8535 -1.5040  0.2901
 1729SOL     OW16819   1.508   3.152   2.830  0.7266 -0.3278 -0.0046
 1729SOL    HW116820   1.589   3.189   2.864 -0.9363 -0.0729  3.6276
 1729SOL    HW216821   1.455   3.230   2.841  2.7941  0.9819  0.6320
 1730SOL     OW16822   1.803   2.513   2.589  0.2269  0.0434  0.5220
 1730SOL    HW116823   1.879   2.480   2.637  0.3355 -0.1027  0.2547
 1730SOL    HW216824   1.734   2.517   2.655 -2.6614  0.6982 -2.4988
 1731SOL     OW16825   4.524   1.876   2.017 -0.1971  0.1798  0.6182
 1731SOL    HW116826   4.473   1.847   1.941  2.1665  1.2942 -1.4100
 1731SOL    HW216827   4.572   1.795   2.037 -1.7875 -0.7241  0.7938
 1732SOL     OW16828   0.223   3.780   7.268  0.4162  0.1531 -0.2005
 1732SOL    HW116829   0.283   3.738   7.206 -1.3836 -2.7394  0.0135
 1732SOL    HW216830   0.276   3.772   7.348  0.4509 -0.7399 -0.3146
 1733SOL     OW16831   3.003   3.416  11.972  0.1289 -0.0950  0.1179
 1733SOL    HW116832   2.991   3.436  11.879  0.9539  1.5008  0.3664
 1733SOL    HW216833   2.960   3.494  12.006  1.3418  0.2279  0.8965
 1734SOL     OW16834   0.950   0.269   4.728 -0.5299 -0.5905 -0.0116
 1734SOL    HW116835   0.885   0.332   4.698  1.4882  0.1778 -2.7938
 1734SOL    HW216836   0.957   0.295   4.820  1.1019  0.6098 -0.4758
 1735SOL     OW16837   2.663   1.361   4.138 -0.2813 -0.4298 -0.1337
 1735SOL    HW116838   2.673   1.315   4.222 -0.2158 -1.0368 -0.4727
 1735SOL    HW216839   2.631   1.447   4.165  0.7005 -0.4823  1.2276
 1736SOL     OW16840   3.993   4.584   4.833  0.0192  0.5400  0.7203
 1736SOL    HW116841   3.995   4.641   4.910  0.2274 -1.3832  2.1377
 1736SOL    HW216842   4.063   4.619   4.779  0.5458 -0.2772  0.8777
 1737SOL     OW16843   0.595   0.553   4.519  0.0823  0.3080  0.2484
 1737SOL    HW116844   0.502   0.535   4.509 -0.0210  0.6970  0.4980
 1737SOL    HW216845   0.620   0.597   4.438  0.0604 -0.4428 -0.1626
 1738SOL     OW16846   4.551   1.962   8.827 -0.4106  0.0566 -0.3529
 1738SOL    HW116847   4.594   1.969   8.742 -0.1474  0.6337 -0.1668
 1738SOL    HW216848   4.483   1.897   8.808  0.1851 -0.3697 -1.0025
 1739SOL     OW16849   2.474   3.986   5.239 -0.2067 -0.4311 -0.3040
 1739SOL    HW116850   2.386   3.953   5.218 -0.8076  0.1230  1.3798
 1739SOL    HW216851   2.520   3.991   5.155  0.7429  1.3994  0.3171
 1740SOL     OW16852   2.981   3.631  13.924  0.2047  0.0248  0.2153
 1740SOL    HW116853   2.966   3.725  13.934 -0.2993 -0.0983  0.6043
 1740SOL    HW216854   2.897   3.595  13.951  1.8345 -1.7021  3.0584
 1741SOL     OW16855   1.176   2.377  14.252  0.3746 -0.0833  0.0434
 1741SOL    HW116856   1.198   2.328  14.331  1.4604 -0.1868 -0.3238
 1741SOL    HW216857   1.090   2.412  14.276 -0.3586 -1.5448 -0.4705
 1742SOL     OW16858   1.375   1.296   4.956 -0.6883 -0.0007 -0.0135
 1742SOL    HW116859   1.464   1.297   4.992 -0.2551 -1.6922 -1.0418
 1742SOL    HW216860   1.371   1.377   4.904  0.7730 -0.5211 -0.9478
 1743SOL     OW16861   4.457   1.339   3.512  0.3502  0.5431 -0.0280
 1743SOL    HW116862   4.540   1.321   3.556 -0.0870 -1.3156  0.0537
 1743SOL    HW216863   4.445   1.261   3.457 -1.3006  1.7130 -1.3069
 1744SOL     OW16864   3.344   1.711  15.984 -0.3767  0.0692  0.2558
 1744SOL    HW116865   3.348   1.725  16.079 -0.1895 -0.3814  0.3151
 1744SOL    HW216866   3.336   1.804  15.963 -1.0358  0.0738  0.5328
 1745SOL     OW16867   2.927   3.058   7.069 -0.7646 -0.4808 -0.5663
 1745SOL    HW116868   2.965   3.071   7.156 -1.8029 -1.1421 -0.0156
 1745SOL    HW216869   3.005   3.057   7.014 -0.6854  0.5328 -0.4666
 1746SOL     OW16870   4.506   0.332   8.899  0.0653  0.1409 -0.0796
 1746SOL    HW116871   4.552   0.286   8.829 -0.4057 -1.2605  0.5221
 1746SOL    HW216872   4.530   0.424   8.889 -1.3105  0.4681 -0.3858
 1747SOL     OW16873   3.991   1.054   2.392  0.1014 -0.3246 -0.7354
 1747SOL    HW116874   3.938   1.132   2.408 -1.1849 -1.7038  1.6069
 1747SOL    HW216875   3.931   0.993   2.349 -2.0351  2.1507 -1.2711
 1748SOL     OW16876   0.995   0.139  14.008  0.3347  0.1901 -0.5524
 1748SOL    HW116877   0.907   0.176  14.006  0.3033  0.1813  0.5631
 1748SOL    HW216878   0.982   0.073  13.939  1.7045 -1.6311  0.9277
 1749SOL     OW16879   4.205   1.181   2.702 -0.2813 -0.7425 -0.0197
 1749SOL    HW116880   4.286   1.232   2.700  0.3448 -1.6698  1.9433
 1749SOL    HW216881   4.165   1.207   2.785  0.8357 -0.3174  0.3902
 1750SOL     OW16882   3.800   4.118  11.774  0.0384 -0.2440 -0.1036
 1750SOL    HW116883   3.744   4.194  11.757 -1.0332 -1.0614 -0.2334
 1750SOL    HW216884   3.876   4.165  11.809 -0.3059  0.1848  0.0703
 1751SOL     OW16885   3.987   1.860  10.692 -0.0162  0.2220 -0.0992
 1751SOL    HW116886   3.914   1.921  10.693 -0.5009 -0.3456 -2.7826
 1751SOL    HW216887   3.955   1.800  10.625  2.3596 -0.2623 -0.8001
 1752SOL     OW16888   4.100   2.262   8.137  0.5768 -0.2695 -0.4512
 1752SOL    HW116889   4.055   2.345   8.152 -0.9381 -1.0823 -0.5251
 1752SOL    HW216890   4.117   2.268   8.043  0.7028 -1.0886 -0.4869
 1753SOL     OW16891   3.075   3.939   1.246  0.0137  0.8691  0.7407
 1753SOL    HW116892   3.080   3.914   1.154  0.5895  0.0327  1.0065
 1753SOL    HW216893   3.156   3.899   1.278 -0.2003  0.0620  0.2533
 1754SOL     OW16894   3.719   0.209  14.666 -0.2242  0.1373 -0.3620
 1754SOL    HW116895   3.794   0.165  14.707 -0.9778 -0.8941 -0.1072
 1754SOL    HW216896   3.745   0.258  14.588 -1.9330 -0.4214 -1.2656
 1755SOL     OW16897   3.520   4.190   2.846 -0.5281 -0.1034 -0.1935
 1755SOL    HW116898   3.573   4.144   2.911 -1.4583  1.5027  1.6833
 1755SOL    HW216899   3.523   4.114   2.788  1.2162 -0.2582  0.1040
 1756SOL     OW16900   2.910   0.944   3.189  0.1511 -0.1066  0.2931
 1756SOL    HW116901   2.881   1.003   3.119 -0.1805 -0.4162  0.1712
 1756SOL    HW216902   2.880   0.855   3.172  1.8975 -0.3816 -1.4468
 1757SOL     OW16903   0.665   2.050  10.487  0.5356 -0.2395 -0.3680
 1757SOL    HW116904   0.635   2.111  10.554 -0.4283  1.9862 -2.8264
 1757SOL    HW216905   0.724   2.104  10.435  2.2412 -0.8807  0.9071
 1758SOL     OW16906   0.385   3.284   7.340 -0.6012 -0.4673  0.5893
 1758SOL    HW116907   0.311   3.228   7.365 -0.6322 -0.0346  1.4685
 1758SOL    HW216908   0.429   3.289   7.425  0.2380 -0.5580  0.1599
 1759SOL     OW16909   0.906   0.987   6.866 -0.2469  0.1020 -0.0959
 1759SOL    HW116910   0.996   0.956   6.877  1.3895  4.1121 -2.2380
 1759SOL    HW216911   0.878   1.014   6.953  0.2231  0.9781 -0.2141
 1760SOL     OW16912   4.717   1.640   9.776  0.2914 -0.3552 -0.4532
 1760SOL    HW116913   4.635   1.642   9.825  0.6574 -1.6466  0.2230
 1760SOL    HW216914   0.005   1.731   9.785 -0.8070 -0.1344  0.6231
 1761SOL     OW16915   1.160   0.390   5.609 -0.5640 -0.0774  0.0106
 1761SOL    HW116916   1.188   0.439   5.532 -2.4811 -0.1456 -0.7490
 1761SOL    HW216917   1.221   0.318   5.618 -1.5923 -0.7237  1.8406
 1762SOL     OW16918   3.382   3.988   1.751  0.2702 -0.4347  1.0019
 1762SOL    HW116919   3.298   3.943   1.748  0.8762 -1.5044 -0.0797
 1762SOL    HW216920   3.357   4.076   1.778  0.5282 -0.4412  1.2660
 1763SOL     OW16921   0.040   0.904   5.004 -0.0644 -0.2791 -0.3904
 1763SOL    HW116922   0.107   0.884   4.939 -2.3989 -1.2083 -2.5084
 1763SOL    HW216923   4.737   0.982   4.970  0.6002  0.2960  0.1017
 1764SOL     OW16924   2.340   3.433  11.439  0.4875  0.4845 -0.3616
 1764SOL    HW116925   2.422   3.393  11.468  1.1215  0.8796 -1.6297
 1764SOL    HW216926   2.324   3.506  11.499  0.9484 -0.9695  1.5184
 1765SOL     OW16927   0.765   4.105   5.153  0.4442  0.6132 -0.4243
 1765SOL    HW116928   0.733   4.108   5.242  1.9016 -1.6705  0.1809
 1765SOL    HW216929   0.836   4.041   5.162 -1.5288 -1.5014 -0.2015
 1766SOL     OW16930   4.018   3.005   8.449 -0.3900 -0.4273 -0.0309
 1766SOL    HW116931   3.979   3.058   8.379 -3.5321 -2.0907  0.4787
 1766SOL    HW216932   3.957   2.997   8.522  0.1569  0.9044  0.5712
 1767SOL     OW16933   4.327   2.660   2.027 -0.8614 -0.3132  0.0254
 1767SOL    HW116934   4.410   2.629   2.063 -1.7863 -1.3809  1.2487
 1767SOL    HW216935   4.342   2.753   2.014  2.9535 -0.9150  0.2234
 1768SOL     OW16936   2.153   1.580   8.164  0.4381 -0.4153 -0.4152
 1768SOL    HW116937   2.201   1.599   8.245  1.1321  1.7037 -1.3340
 1768SOL    HW216938   2.062   1.588   8.195  0.4197  1.8000 -1.0292
 1769SOL     OW16939   3.200   0.068   4.931 -0.4336 -0.2511 -0.4503
 1769SOL    HW116940   3.258   0.028   4.995 -2.1048 -0.1446  1.1157
 1769SOL    HW216941   3.246   0.046   4.850 -0.4315  0.5805 -0.6749
 1770SOL     OW16942   3.312   1.156   8.268  0.4614 -0.8082 -0.5491
 1770SOL    HW116943   3.286   1.108   8.347 -0.6128  0.6836  0.0010
 1770SOL    HW216944   3.299   1.247   8.292  0.4106 -0.9391 -0.0791
 1771SOL     OW16945   0.732   0.323  14.292  0.2517 -0.0825  0.0600
 1771SOL    HW116946   0.749   0.311  14.198 -0.8970  1.4029 -0.3263
 1771SOL    HW216947   0.802   0.386  14.310 -0.5832  0.1554  2.3314
 1772SOL     OW16948   4.380   0.831   2.908  0.2668  0.8630  0.9159
 1772SOL    HW116949   4.313   0.854   2.843 -0.9462 -1.8129  1.2538
 1772SOL    HW216950   4.460   0.869   2.872  1.3770 -1.9953  0.3892
 1773SOL     OW16951   3.088   1.450  17.308  0.1319  0.2050 -0.2219
 1773SOL    HW116952   3.117   1.430  17.220 -0.3991 -0.0846 -0.3320
 1773SOL    HW216953   3.015   1.508  17.288  0.1190  0.5424  0.8069
 1774SOL     OW16954   1.057   0.046   6.163  0.5688  0.5383 -0.1737
 1774SOL    HW116955   1.078   0.131   6.201 -0.9196  0.5109  0.7173
 1774SOL    HW216956   1.011   0.009   6.239  0.2620 -1.7283 -1.4692
 1775SOL     OW16957   1.995   3.921   4.737 -0.3717  0.5823  0.5756
 1775SOL    HW116958   1.943   3.994   4.704  0.3403  1.3239  1.1045
 1775SOL    HW216959   2.037   3.967   4.810  2.3860 -2.0586  0.6470
 1776SOL     OW16960   0.195   2.892   8.556  0.2844 -0.2864  0.0045
 1776SOL    HW116961   0.196   2.987   8.570 -1.1931 -0.3621  0.6410
 1776SOL    HW216962   0.289   2.874   8.557  0.1622 -0.9186 -0.7566
 1777SOL     OW16963   0.697   3.403   7.041  0.3523  0.1489  0.1782
 1777SOL    HW116964   0.707   3.406   7.136 -1.2639 -1.3156  0.4095
 1777SOL    HW216965   0.764   3.467   7.019 -0.7440  0.5992 -1.8858
 1778SOL     OW16966   4.370   0.501   8.229 -0.4670  0.8926 -0.3076
 1778SOL    HW116967   4.459   0.531   8.249 -0.0668 -1.0745  0.8702
 1778SOL    HW216968   4.381   0.473   8.138 -1.2560 -0.5299  0.0323
 1779SOL     OW16969   1.518   1.619  10.347  0.1967 -0.6949 -0.0457
 1779SOL    HW116970   1.494   1.676  10.419 -1.9048 -0.3172 -1.0381
 1779SOL    HW216971   1.602   1.663  10.330  0.2019 -0.3192  0.9573
 1780SOL     OW16972   4.643   1.188   3.921  0.4905  0.5840 -0.3492
 1780SOL    HW116973   4.601   1.106   3.894  0.7888  0.8154 -1.5115
 1780SOL    HW216974   4.705   1.159   3.987 -2.3371  0.6919  2.3308
 1781SOL     OW16975   2.017   3.041   5.601  0.0615 -0.3632  0.6918
 1781SOL    HW116976   2.036   2.960   5.553  1.4633  0.3930 -0.0052
 1781SOL    HW216977   2.097   3.045   5.653  1.1328 -1.2083 -0.8614
 1782SOL     OW16978   1.152   2.521   1.553  0.3123  0.2023 -0.0326
 1782SOL    HW116979   1.211   2.466   1.604  0.2845 -0.8850 -1.1755
 1782SOL    HW216980   1.074   2.531   1.608  0.1391  0.8895 -0.3982
 1783SOL     OW16981   4.364   0.727   4.782  0.3718  0.1317 -0.2046
 1783SOL    HW116982   4.416   0.718   4.862  0.6530 -0.8588 -0.4971
 1783SOL    HW216983   4.398   0.647   4.741 -3.6359 -0.9833 -1.3396
 1784SOL     OW16984   0.432   2.922   6.065  0.2955  0.1222 -0.3534
 1784SOL    HW116985   0.365   2.954   6.126 -0.4661  0.6501 -1.4582
 1784SOL    HW216986   0.414   2.829   6.075 -1.6113  0.4434 -0.6811
 1785SOL     OW16987   3.566   3.493  13.573 -0.4429  0.1670 -0.2602
 1785SOL    HW116988   3.478   3.467  13.600 -1.4190  2.3312 -1.3743
 1785SOL    HW216989   3.553   3.539  13.490  0.7675  0.1928 -0.4326
 1786SOL     OW16990   0.803   3.679   5.717 -0.3045  0.0247  0.2699
 1786SOL    HW116991   0.888   3.718   5.699  0.0082 -0.3386  0.9830
 1786SOL    HW216992   0.764   3.725   5.643  2.7549 -2.6965 -3.0166
 1787SOL     OW16993   0.452   3.653  15.475  0.1862 -0.2922  0.4160
 1787SOL    HW116994   0.370   3.604  15.482  1.2533 -2.0434  0.6567
 1787SOL    HW216995   0.468   3.630  15.384  1.7322  1.0435  0.3634
 1788SOL     OW16996   1.765   1.354   0.965  0.7026 -0.0536 -0.0782
 1788SOL    HW116997   1.831   1.285   0.965  1.0653  0.2926 -0.4520
 1788SOL    HW216998   1.692   1.321   1.019 -2.5376  3.0478 -2.5751
 1789SOL     OW16999   1.731   0.450   9.697  0.3353  0.4514 -0.2244
 1789SOL    HW117000   1.778   0.505   9.760 -1.5443  2.7648 -0.8988
 1789SOL    HW217001   1.768   0.362   9.709 -1.5364 -0.5156 -1.6086
 1790SOL     OW17002   3.759   4.010   2.130  0.5894  0.1531  0.1351
 1790SOL    HW117003   3.732   3.966   2.211  0.8646  1.3161  0.8563
 1790SOL    HW217004   3.671   4.030   2.098  0.3727  0.7124  1.0814
 1791SOL     OW17005   4.401   0.637   7.019  0.0481  0.3762 -0.0585
 1791SOL    HW117006   4.481   0.632   6.968 -0.2557  1.9911 -0.6812
 1791SOL    HW217007   4.367   0.715   6.975 -1.3646 -0.9497 -1.3397
 1792SOL     OW17008   3.533   2.610   1.470  0.0430  0.6554  0.0055
 1792SOL    HW117009   3.470   2.626   1.540 -0.0988 -0.1344  0.0665
 1792SOL    HW217010   3.493   2.536   1.424  1.8802 -2.5943  3.6441
 1793SOL     OW17011   1.929   1.401   3.757 -0.4011 -0.3007 -0.6704
 1793SOL    HW117012   1.922   1.317   3.713 -0.0628 -0.9783  0.5914
 1793SOL    HW217013   1.961   1.373   3.842  0.2611  1.7828 -0.2222
 1794SOL     OW17014   3.210   0.267   1.244  0.3585 -0.3805 -0.0338
 1794SOL    HW117015   3.262   0.245   1.166  0.7888  2.1341 -0.4330
 1794SOL    HW217016   3.279   0.264   1.311  1.1556  0.3312 -0.8134
 1795SOL     OW17017   1.970   3.565   8.436  0.0923 -0.5009 -0.6387
 1795SOL    HW117018   1.941   3.640   8.385 -0.0241 -0.0092  0.1595
 1795SOL    HW217019   2.033   3.612   8.490 -1.1765 -0.4679  0.8370
 1796SOL     OW17020   0.918   1.094   5.991 -0.7188 -0.3537 -0.5063
 1796SOL    HW117021   0.951   1.009   5.961  0.0421 -0.2949  0.1528
 1796SOL    HW217022   0.871   1.065   6.069  0.4431  0.5419  0.5242
 1797SOL     OW17023   0.259   0.933   5.521  0.2968  0.0787 -0.1522
 1797SOL    HW117024   0.301   0.847   5.522 -0.1347 -0.1412 -1.0955
 1797SOL    HW217025   0.184   0.914   5.464  1.3729 -0.6748 -1.3154
 1798SOL     OW17026   3.778   1.200   6.583  0.0061  0.0745 -0.2006
 1798SOL    HW117027   3.780   1.278   6.639 -1.0567  1.8179 -2.6090
 1798SOL    HW217028   3.716   1.138   6.624 -0.2394 -0.1065 -0.8478
 1799SOL     OW17029   2.841   0.985   8.616 -0.6359  0.1948 -0.6701
 1799SOL    HW117030   2.918   1.040   8.598  0.5347 -1.1051  0.3673
 1799SOL    HW217031   2.886   0.920   8.670  1.6110  0.4280 -2.2473
 1800SOL     OW17032   3.799   4.425  16.293 -0.1890  0.2592 -0.0004
 1800SOL    HW117033   3.748   4.498  16.258 -2.0926 -1.3100 -0.5099
 1800SOL    HW217034   3.885   4.440  16.255 -1.8096  4.3802 -2.0926
 1801SOL     OW17035   0.713   3.998  10.116  0.1348 -0.3639 -0.1948
 1801SOL    HW117036   0.735   4.039  10.199 -1.3900  1.1742 -0.5599
 1801SOL    HW217037   0.691   3.909  10.146  1.7112 -0.6024  0.2822
 1802SOL     OW17038   4.228   2.937   2.486 -0.0766  0.3212 -0.3324
 1802SOL    HW117039   4.188   2.850   2.489 -0.1428  0.3891  0.6488
 1802SOL    HW217040   4.154   2.991   2.458 -0.8414 -0.5717 -0.0334
 1803SOL     OW17041   0.558   1.799   3.122 -0.4867  1.2182  0.0997
 1803SOL    HW117042   0.566   1.756   3.037 -3.2434 -0.9812  0.9507
 1803SOL    HW217043   0.487   1.861   3.102 -1.8142 -0.1134  0.7270
 1804SOL     OW17044   1.053   0.384   3.222 -0.1880  0.9412  0.4373
 1804SOL    HW117045   1.097   0.311   3.177  0.9410  0.3209  2.5276
 1804SOL    HW217046   0.972   0.401   3.175  0.5493 -0.0817 -1.1964
 1805SOL     OW17047   4.466   3.079   9.510  0.0681  0.2725  0.0416
 1805SOL    HW117048   4.548   3.118   9.541  0.5077 -0.5552 -0.0776
 1805SOL    HW217049   4.492   2.990   9.487 -0.6477 -0.1748  0.9456
 1806SOL     OW17050   0.337   3.633   6.670  0.4173  0.0792 -0.2419
 1806SOL    HW117051   0.320   3.564   6.607 -0.3328  1.4966 -1.5745
 1806SOL    HW217052   0.427   3.655   6.646  0.0954 -0.1736 -1.6367
 1807SOL     OW17053   1.037   2.768   3.241  0.3946  0.1520 -0.2423
 1807SOL    HW117054   1.105   2.741   3.179  1.0470 -1.6301  1.2735
 1807SOL    HW217055   1.053   2.862   3.250 -0.7520  0.4027 -0.8481
 1808SOL     OW17056   0.336   0.384   5.320 -0.5072  0.1096 -0.1644
 1808SOL    HW117057   0.263   0.335   5.358 -1.5196  0.7066 -1.3277
 1808SOL    HW217058   0.406   0.333   5.361  0.1389 -0.9537 -2.5768
 1809SOL     OW17059   3.611   4.545   1.537  0.3062  0.0885 -0.3215
 1809SOL    HW117060   3.612   4.474   1.472  0.8100 -1.7999  1.7456
 1809SOL    HW217061   3.607   4.485   1.612  1.0684  1.6067  0.9291
 1810SOL     OW17062   0.975   3.488   6.321 -0.0457  0.1961  0.1176
 1810SOL    HW117063   0.887   3.520   6.299  0.8193  1.5393 -1.3946
 1810SOL    HW217064   0.974   3.392   6.325 -1.0623  0.3641  3.8227
 1811SOL     OW17065   3.956   0.746   2.765  0.2542 -0.3930 -0.1116
 1811SOL    HW117066   3.998   0.825   2.730 -0.6625  1.1047  2.0962
 1811SOL    HW217067   3.868   0.776   2.788  1.6244  1.0518  3.3135
 1812SOL     OW17068   1.282   3.618   8.563 -0.4537  0.0529 -0.0927
 1812SOL    HW117069   1.277   3.530   8.525 -0.7418 -0.9837  2.3710
 1812SOL    HW217070   1.377   3.632   8.560 -0.7044  1.6815 -0.6813
 1813SOL     OW17071   3.190   1.050   1.456  0.2783 -0.3786  0.6987
 1813SOL    HW117072   3.166   1.003   1.536 -0.5841 -0.4370  0.4089
 1813SOL    HW217073   3.202   1.136   1.494 -0.6757  1.7204 -3.7476
 1814SOL     OW17074   2.727   1.219   2.703  0.3820 -0.0730  0.7735
 1814SOL    HW117075   2.774   1.242   2.622  2.4543 -0.4253  1.8652
 1814SOL    HW217076   2.666   1.292   2.712  0.3515 -0.0627  0.4877
 1815SOL     OW17077   0.137   0.315   6.277  0.1135 -0.0058 -0.4757
 1815SOL    HW117078   0.163   0.302   6.368  2.4474 -0.6165 -1.2310
 1815SOL    HW217079   0.106   0.228   6.250 -2.3750  0.4190  1.0415
 1816SOL     OW17080   1.934   2.151   4.581 -0.6942 -0.0209 -0.4882
 1816SOL    HW117081   2.019   2.110   4.567 -0.5300  0.1005  0.1872
 1816SOL    HW217082   1.902   2.152   4.490  0.4457 -0.1452 -0.8821
 1817SOL     OW17083   3.389   2.459   2.731 -0.5497  0.3071  0.3616
 1817SOL    HW117084   3.367   2.408   2.809 -0.2248  0.5185  0.5916
 1817SOL    HW217085   3.460   2.513   2.766 -0.2747 -0.4236  0.9506
 1818SOL     OW17086   4.676   0.775   3.115  0.2410 -0.0673 -0.1772
 1818SOL    HW117087   4.649   0.691   3.154  0.0561 -0.1949 -0.5876
 1818SOL    HW217088   4.705   0.748   3.028  1.9592 -0.2400  0.4544
 1819SOL     OW17089   1.783   0.999   1.795  0.2969 -0.3879  0.7998
 1819SOL    HW117090   1.852   0.982   1.730  0.5816  2.4744  0.3574
 1819SOL    HW217091   1.796   1.092   1.815 -1.5640  0.1243 -0.4320
 1820SOL     OW17092   4.536   0.561  14.673  0.2596  0.1338  0.0649
 1820SOL    HW117093   4.472   0.505  14.715  1.8013 -2.0565 -0.5104
 1820SOL    HW217094   4.559   0.620  14.745  0.7364  0.4050 -0.3002
 1821SOL     OW17095   1.563   4.190   4.032 -0.1342 -0.0581 -0.3456
 1821SOL    HW117096   1.634   4.127   4.021 -0.3125 -0.3529  0.1827
 1821SOL    HW217097   1.497   4.144   4.084  0.3577 -1.1816 -0.7143
 1822SOL     OW17098   1.501   4.713   2.355 -0.2477  0.2833 -0.6849
 1822SOL    HW117099   1.533   4.705   2.266 -0.3928 -0.9062 -0.6265
 1822SOL    HW217100   1.409   4.688   2.342 -0.3011  1.2709 -2.2517
 1823SOL     OW17101   0.268   1.033   2.888  0.2032  0.3905 -0.4285
 1823SOL    HW117102   0.280   0.938   2.890 -0.5821  0.2676 -1.8008
 1823SOL    HW217103   0.225   1.049   2.972 -1.6009  0.5315 -1.3959
 1824SOL     OW17104   0.155   0.639   7.088 -0.0870 -0.1191  0.0080
 1824SOL    HW117105   0.099   0.613   7.162  0.1663  0.5426  0.4406
 1824SOL    HW217106   0.099   0.702   7.042 -0.2123 -0.8204 -0.7984
 1825SOL     OW17107   1.026   2.786  15.252  0.0986  0.3622 -0.4071
 1825SOL    HW117108   0.964   2.852  15.219  0.0432 -0.2782 -1.5766
 1825SOL    HW217109   1.100   2.842  15.275 -0.8692  1.5092 -0.0465
 1826SOL     OW17110   2.644   1.884  13.847  0.3003 -0.2557 -0.0345
 1826SOL    HW117111   2.696   1.808  13.875 -2.2641 -2.5315 -1.5546
 1826SOL    HW217112   2.638   1.940  13.925 -3.1468 -0.0287 -0.5042
 1827SOL     OW17113   1.270   4.071   4.753 -0.1863 -0.9657  0.1259
 1827SOL    HW117114   1.318   4.121   4.686 -4.2672  0.2460 -1.8608
 1827SOL    HW217115   1.322   4.081   4.832  0.7591  1.0443 -0.7500
 1828SOL     OW17116   2.773   2.908   5.894  0.2521 -0.4975 -0.7810
 1828SOL    HW117117   2.731   2.855   5.827 -0.4520 -0.2356 -0.5522
 1828SOL    HW217118   2.820   2.855   5.959 -0.2734  0.5018  0.4316
 1829SOL     OW17119   2.055   1.316   5.120  0.2187 -0.0093 -0.0564
 1829SOL    HW117120   1.976   1.261   5.128 -0.7543  1.6970  2.0937
 1829SOL    HW217121   2.038   1.372   5.196  2.9815 -2.1180  2.1383
 1830SOL     OW17122   3.021   1.978   8.173 -0.2230  0.0717  0.2144
 1830SOL    HW117123   2.962   2.020   8.236  0.8603  1.7838  0.0684
 1830SOL    HW217124   3.106   2.010   8.204  1.6236 -4.0553 -0.6164
 1831SOL     OW17125   3.895   3.387  16.867 -1.1396  0.2242  0.3658
 1831SOL    HW117126   3.873   3.449  16.936  1.0711  1.9079 -0.4399
 1831SOL    HW217127   3.953   3.441  16.812 -1.5092  0.1210 -0.1291
 1832SOL     OW17128   2.978   0.021   9.439 -0.2035 -0.1227 -0.2356
 1832SOL    HW117129   3.025   4.683   9.409  3.0572  1.5121  0.5672
 1832SOL    HW217130   2.983   0.004   9.533 -0.8594 -0.8452 -0.3384
 1833SOL     OW17131   4.381   4.663   9.612 -0.1527 -0.2198 -0.4943
 1833SOL    HW117132   4.420   4.668   9.699 -2.5763  1.9145  0.4906
 1833SOL    HW217133   4.391   0.015   9.588  1.7500  0.4273  2.8520
 1834SOL     OW17134   2.944   4.068   4.638 -0.2509 -0.0975  0.0045
 1834SOL    HW117135   3.000   4.016   4.580 -1.7719 -0.6897 -0.9205
 1834SOL    HW217136   2.927   4.139   4.577 -0.2491  0.0534  0.1789
 1835SOL     OW17137   1.602   2.801   7.718 -0.6233  0.3705  0.0460
 1835SOL    HW117138   1.625   2.810   7.625 -1.1109  2.5215  0.1352
 1835SOL    HW217139   1.514   2.840   7.717 -0.5845  0.4701  0.5565
 1836SOL     OW17140   3.933   4.231  16.453  0.1060  0.4805 -0.0540
 1836SOL    HW117141   3.921   4.247  16.547  1.0911 -0.4236  0.2262
 1836SOL    HW217142   3.880   4.290  16.399  0.6805  1.4052  0.3871
 1837SOL     OW17143   1.058   2.449   2.972  0.0123 -0.6130 -0.2268
 1837SOL    HW117144   1.052   2.395   2.894 -4.0431 -0.1071 -0.2836
 1837SOL    HW217145   0.985   2.511   2.963 -0.2175 -0.9670 -0.8015
 1838SOL     OW17146   2.150   4.699  10.814 -0.0206 -0.4517 -0.7956
 1838SOL    HW117147   2.095   4.629  10.780 -0.1608 -0.2496 -0.9898
 1838SOL    HW217148   2.097   0.031  10.780 -0.4097 -0.4946 -0.2766
 1839SOL     OW17149   3.362   2.546   7.814 -0.0785  0.0630 -0.1054
 1839SOL    HW117150   3.323   2.482   7.873 -1.8916  0.6840 -0.6238
 1839SOL    HW217151   3.437   2.567   7.870  0.6802 -1.1052 -0.6872
 1840SOL     OW17152   0.185   3.757   5.656 -0.2400  0.1626  0.3707
 1840SOL    HW117153   0.268   3.715   5.676  0.6300  1.0499 -1.3569
 1840SOL    HW217154   0.196   3.798   5.570 -0.6103  1.7012  1.0489
 1841SOL     OW17155   2.615   4.457  17.157  0.0191  0.0387 -0.0925
 1841SOL    HW117156   2.615   4.551  17.175  1.7541  0.2647 -1.3474
 1841SOL    HW217157   2.536   4.468  17.103 -0.0172 -2.0623 -0.4695
 1842SOL     OW17158   4.162   1.094  13.409  0.8062 -0.0104  0.1432
 1842SOL    HW117159   4.228   1.058  13.350  0.9613  0.3451  0.1064
 1842SOL    HW217160   4.213   1.163  13.451  0.2260  1.3352 -1.3455
 1843SOL     OW17161   3.728   0.697  11.189 -0.9217 -0.2516 -0.4789
 1843SOL    HW117162   3.640   0.724  11.211 -1.2499 -1.6497 -0.0761
 1843SOL    HW217163   3.724   0.701  11.093  3.1363  0.0784 -0.6585
 1844SOL     OW17164   3.274   2.792  12.352 -0.2746 -0.5027 -0.2947
 1844SOL    HW117165   3.218   2.720  12.380  0.8989 -2.0890 -2.0015
 1844SOL    HW217166   3.353   2.747  12.322 -1.4846 -2.2723 -0.7857
 1845SOL     OW17167   2.186   0.051   5.658 -0.3032 -0.4909 -0.2922
 1845SOL    HW117168   2.107   0.032   5.607 -0.2098 -0.1308 -0.5639
 1845SOL    HW217169   2.149   0.090   5.738  0.2061 -2.4414  0.9164
 1846SOL     OW17170   0.330   2.686   1.424  0.5082  0.4939  0.2553
 1846SOL    HW117171   0.240   2.719   1.421  0.8228  1.1564 -1.9103
 1846SOL    HW217172   0.330   2.633   1.504  0.6620 -0.4367 -0.3566
 1847SOL     OW17173   2.945   0.029  14.529  0.9083  0.3960  0.3219
 1847SOL    HW117174   2.911   4.704  14.591  1.2082  0.0003  0.0754
 1847SOL    HW217175   2.877   0.019  14.462 -0.2790 -1.7501  1.8562
 1848SOL     OW17176   2.676   3.166  15.792 -0.2040  0.1327 -0.7977
 1848SOL    HW117177   2.629   3.137  15.871  0.8557  1.2529  0.2547
 1848SOL    HW217178   2.627   3.246  15.771 -0.7186 -0.0684 -0.3617
 1849SOL     OW17179   1.106   1.865   2.742  0.1990  0.1639 -0.2457
 1849SOL    HW117180   1.198   1.840   2.734  0.1548 -0.7209  1.8624
 1849SOL    HW217181   1.069   1.778   2.727 -0.1468  0.7387 -2.7505
 1850SOL     OW17182   0.818   4.005  17.566  0.2705 -0.7322  0.1147
 1850SOL    HW117183   0.888   3.960  17.518  0.5100 -2.4284  2.0838
 1850SOL    HW217184   0.852   4.094  17.571  0.6547 -0.8958  0.4702
 1851SOL     OW17185   0.910   3.312   6.634  0.2107 -0.1868 -0.1989
 1851SOL    HW117186   0.929   3.275   6.720  1.1221 -0.2010 -0.4074
 1851SOL    HW217187   0.950   3.398   6.640  1.1082 -0.5927 -0.3152
 1852SOL     OW17188   0.030   3.612   6.952 -0.2902 -0.1074  0.1432
 1852SOL    HW117189   0.079   3.530   6.952 -0.3739 -0.1560  0.3637
 1852SOL    HW217190   0.038   3.626   6.858  1.2626  1.8062  0.5802
 1853SOL     OW17191   0.059   3.437   1.332  0.2340 -0.3024  0.2262
 1853SOL    HW117192   0.121   3.375   1.370  1.9011  1.2164  0.0126
 1853SOL    HW217193   4.727   3.432   1.395 -0.1016 -1.0030 -0.2162
 1854SOL     OW17194   3.933   3.886   5.708  0.3684  0.3921 -0.4675
 1854SOL    HW117195   3.940   3.841   5.624  0.2398  0.4611 -0.5150
 1854SOL    HW217196   4.017   3.864   5.748  1.0809 -2.7385 -3.6795
 1855SOL     OW17197   0.551   4.419   9.123 -0.4055 -0.4475  0.5203
 1855SOL    HW117198   0.471   4.467   9.099  0.7044  0.6707 -0.9342
 1855SOL    HW217199   0.578   4.468   9.201  1.7739 -2.8753  1.2808
 1856SOL     OW17200   3.929   0.015   7.781 -0.0060 -0.1954  0.6252
 1856SOL    HW117201   3.897   4.694   7.714 -0.6162  0.3095  0.4492
 1856SOL    HW217202   3.856   0.007   7.842 -0.0025  0.8067  0.7648
 1857SOL     OW17203   1.847   1.259  16.307 -0.3042  0.1015 -0.3679
 1857SOL    HW117204   1.859   1.176  16.354 -1.3963  0.6387  0.8590
 1857SOL    HW217205   1.766   1.242  16.261  1.2191 -1.9299 -2.2933
 1858SOL     OW17206   1.470   3.661  14.747 -0.1220 -0.3293  0.3803
 1858SOL    HW117207   1.450   3.611  14.667  0.6155 -2.5948  1.6067
 1858SOL    HW217208   1.563   3.677  14.727  0.0283 -1.1199  0.4286
 1859SOL     OW17209   0.439   1.610  10.829 -0.0508 -0.2691  0.6909
 1859SOL    HW117210   0.525   1.599  10.868  0.5503 -0.4655 -0.6883
 1859SOL    HW217211   0.387   1.556  10.889  0.4346 -1.3355  0.1460
 1860SOL     OW17212   4.534   3.982   2.816  0.6324 -0.2370  0.2382
 1860SOL    HW117213   4.509   4.044   2.748  2.3593 -0.6210 -0.7528
 1860SOL    HW217214   4.460   3.974   2.876  1.0493  3.2238  1.1939
 1861SOL     OW17215   3.506   2.965  14.609 -0.2719  0.6876 -1.0041
 1861SOL    HW117216   3.416   2.999  14.606 -0.3112  0.5274 -1.5712
 1861SOL    HW217217   3.522   2.948  14.702 -0.4366  0.0348 -1.1004
 1862SOL     OW17218   2.019   0.230   5.137  0.4616  0.4257  0.2692
 1862SOL    HW117219   2.006   0.223   5.043  0.2533 -0.1079  0.3398
 1862SOL    HW217220   1.980   0.145   5.158 -2.7195  2.0198  0.8829
 1863SOL     OW17221   3.720   3.821   6.885  0.4328  0.1637 -0.3065
 1863SOL    HW117222   3.630   3.849   6.904  1.2740  1.1356  2.2717
 1863SOL    HW217223   3.751   3.798   6.972 -0.1320 -0.7336 -0.3499
 1864SOL     OW17224   1.475   0.446   9.658  0.6789 -0.1967 -0.0548
 1864SOL    HW117225   1.485   0.407   9.571 -1.8700  0.0167 -0.4405
 1864SOL    HW217226   1.567   0.449   9.683  0.4176  0.3155  0.8570
 1865SOL     OW17227   1.325   0.055   5.952 -0.1080  0.2484  0.2572
 1865SOL    HW117228   1.408   0.082   5.991 -0.5777  0.7152  0.9273
 1865SOL    HW217229   1.262   0.127   5.962  0.5411  0.7421  0.7884
 1866SOL     OW17230   3.603   0.359   2.329 -0.1162 -0.2110  0.4779
 1866SOL    HW117231   3.516   0.371   2.291 -0.5909 -0.2138  1.5521
 1866SOL    HW217232   3.602   0.270   2.364 -1.6575 -0.1986  0.4558
 1867SOL     OW17233   4.212   4.607  14.186 -0.0608 -0.6899 -0.0310
 1867SOL    HW117234   4.242   4.641  14.102  3.5885  0.0564  1.5665
 1867SOL    HW217235   4.118   4.601  14.167 -0.1568 -0.6998  0.4331
 1868SOL     OW17236   3.774   1.133   7.912  0.3900  0.3780  0.2407
 1868SOL    HW117237   3.837   1.126   7.984 -0.4486  1.0226  1.0335
 1868SOL    HW217238   3.708   1.180   7.963  1.3304 -0.6909  2.4840
 1869SOL     OW17239   1.701   0.742   7.105 -0.1394  1.0324 -0.3546
 1869SOL    HW117240   1.630   0.680   7.123  0.5022 -0.3643 -2.6013
 1869SOL    HW217241   1.761   0.717   7.175 -1.8162  1.7139  1.3413
 1870SOL     OW17242   3.013   4.160   2.724 -0.5605 -0.0467 -0.7613
 1870SOL    HW117243   3.062   4.135   2.802 -1.1440 -0.1533 -0.4308
 1870SOL    HW217244   3.047   4.088   2.672  0.6087 -0.4122  0.5064
 1871SOL     OW17245   2.642   2.601   9.357  0.0647  0.0762  0.3794
 1871SOL    HW117246   2.682   2.574   9.440 -1.6317 -0.3365  1.0530
 1871SOL    HW217247   2.688   2.536   9.305 -1.3108 -0.2490 -0.4368
 1872SOL     OW17248   0.473   3.114   6.742 -0.3537 -0.0890  0.0575
 1872SOL    HW117249   0.518   3.191   6.777 -1.8520  0.8962 -0.1543
 1872SOL    HW217250   0.544   3.051   6.752 -0.9377 -0.6600  0.6387
 1873SOL     OW17251   1.908   4.232   7.067  0.4583 -0.0269  0.0385
 1873SOL    HW117252   1.907   4.276   7.152  0.1821  0.9040 -0.4507
 1873SOL    HW217253   1.816   4.209   7.077  0.4302 -0.7861 -1.8251
 1874SOL     OW17254   3.068   4.523  17.194  0.0918 -0.0737 -0.1603
 1874SOL    HW117255   3.069   4.618  17.180 -2.4012 -0.0181  0.1164
 1874SOL    HW217256   3.060   4.490  17.104 -0.0419  0.3060 -0.2890
 1875SOL     OW17257   3.310   1.588   7.629 -0.0825 -0.1961  0.6372
 1875SOL    HW117258   3.300   1.493   7.636 -2.2209 -0.0486 -0.5767
 1875SOL    HW217259   3.220   1.613   7.609 -1.0344 -1.1603  3.6625
 1876SOL     OW17260   3.097   4.697   0.156  0.4296 -0.9864 -0.4368
 1876SOL    HW117261   3.059   4.707   0.069 -1.3750 -0.0535  0.4527
 1876SOL    HW217262   3.187   4.729   0.150 -0.0796  0.5362  0.0591
 1877SOL     OW17263   4.018   3.373   4.791 -0.6742 -0.2934 -0.6513
 1877SOL    HW117264   4.100   3.328   4.775  0.0948  0.9830 -0.3269
 1877SOL    HW217265   4.036   3.467   4.785 -0.8075 -0.3528 -1.8261
 1878SOL     OW17266   3.444   1.903  16.608 -0.4242  0.3389 -0.0636
 1878SOL    HW117267   3.515   1.860  16.559 -2.3316 -3.7244  0.7830
 1878SOL    HW217268   3.501   1.973  16.639  1.9072 -2.2767  1.5310
 1879SOL     OW17269   0.654   0.827   2.812  0.7612 -0.0250 -0.1008
 1879SOL    HW117270   0.673   0.795   2.724  0.0462  2.7688 -1.2686
 1879SOL    HW217271   0.682   0.917   2.797 -2.4968  0.8478 -1.0244
 1880SOL     OW17272   4.098   2.039   9.250 -0.4190  0.2113 -0.3446
 1880SOL    HW117273   4.101   2.058   9.156 -0.4842 -1.3669 -0.6649
 1880SOL    HW217274   4.074   1.947   9.255  1.6165 -0.3134 -0.2007
 1881SOL     OW17275   2.818   2.721   0.633 -0.3621 -0.1031  0.5221
 1881SOL    HW117276   2.895   2.765   0.596 -0.3397 -0.0677  0.6121
 1881SOL    HW217277   2.746   2.780   0.615  0.1268  0.9511  2.0481
 1882SOL     OW17278   0.953   3.514   3.377 -0.6259  0.1944  0.3417
 1882SOL    HW117279   0.919   3.461   3.449 -3.2489  0.9474 -0.3253
 1882SOL    HW217280   1.034   3.552   3.411 -0.0652  0.3950 -1.1972
 1883SOL     OW17281   2.659   1.146  17.209 -0.3949 -0.0281 -0.1312
 1883SOL    HW117282   2.587   1.162  17.149  1.3595  2.2451 -1.6138
 1883SOL    HW217283   2.724   1.208  17.177  1.0313 -1.5292 -0.1660
 1884SOL     OW17284   3.870   0.836  17.753 -0.0319 -0.2288 -0.0197
 1884SOL    HW117285   3.890   0.927  17.732 -1.5437 -0.4269 -2.3496
 1884SOL    HW217286   3.895   0.794  17.671 -2.0996 -1.3356 -0.0939
 1885SOL     OW17287   4.603   3.461   1.522  0.2916  0.2414 -0.2521
 1885SOL    HW117288   4.612   3.395   1.590 -0.2251  0.4808  0.0425
 1885SOL    HW217289   4.511   3.487   1.526  0.2535  0.4813 -2.4508
 1886SOL     OW17290   2.217   3.001   4.704  0.7511  0.2004 -0.7552
 1886SOL    HW117291   2.274   3.059   4.655  0.5737  0.8332 -0.2166
 1886SOL    HW217292   2.261   3.005   4.789 -1.1922 -0.0445  0.2636
 1887SOL     OW17293   0.572   4.728  16.879  0.0017  0.4786 -0.1268
 1887SOL    HW117294   0.632   0.059  16.855 -0.0417 -0.2001 -2.1916
 1887SOL    HW217295   0.497   0.005  16.822  0.9713  0.1025 -1.5240
 1888SOL     OW17296   1.264   2.249   4.992  0.1123  0.4368  0.2446
 1888SOL    HW117297   1.187   2.224   5.042  0.0119 -2.0837 -1.1713
 1888SOL    HW217298   1.299   2.298   5.067  3.4339  1.0971 -1.7416
 1889SOL     OW17299   3.688   0.576   3.538 -0.6974  1.0695  0.0703
 1889SOL    HW117300   3.735   0.539   3.612 -2.7060 -0.9290  0.3447
 1889SOL    HW217301   3.666   0.497   3.488 -1.3221  1.1262  0.2571
 1890SOL     OW17302   4.411   2.539   4.801  0.5053  0.0745  0.6391
 1890SOL    HW117303   4.484   2.510   4.745  0.5181  0.4654  0.4493
 1890SOL    HW217304   4.357   2.583   4.736  0.3115  1.0202  1.4414
 1891SOL     OW17305   0.669   2.929   2.052  0.1219 -0.5062 -0.3056
 1891SOL    HW117306   0.759   2.920   2.085  0.5661  1.0033 -1.1331
 1891SOL    HW217307   0.683   2.979   1.972  0.4004  0.9659  0.6603
 1892SOL     OW17308   3.735   0.004   4.838  0.1574  0.3007 -0.4139
 1892SOL    HW117309   3.762   4.721   4.927 -0.1345 -0.8885 -0.6264
 1892SOL    HW217310   3.815   4.727   4.789 -0.1415 -1.7219 -0.2143
 1893SOL     OW17311   0.283   2.814  15.125 -0.0455 -0.3763 -0.1023
 1893SOL    HW117312   0.238   2.750  15.181 -0.5315  0.0896  0.0358
 1893SOL    HW217313   0.253   2.799  15.036  1.1819 -1.1033 -0.3933
 1894SOL     OW17314   3.608   3.425   3.836  0.2360  0.0980 -0.5675
 1894SOL    HW117315   3.584   3.357   3.899 -0.4419  1.8519  1.0552
 1894SOL    HW217316   3.546   3.498   3.842 -0.6282 -0.6270 -0.6649
 1895SOL     OW17317   1.062   3.125   1.104 -0.8614  0.1310  0.6730
 1895SOL    HW117318   1.033   3.058   1.166 -0.6693 -1.6553 -1.1951
 1895SOL    HW217319   0.995   3.118   1.036 -0.7749  2.2273  0.3596
 1896SOL     OW17320   3.331   4.359  10.570  0.2619  0.2415 -0.1132
 1896SOL    HW117321   3.320   4.306  10.649  2.2495 -1.6324 -1.0752
 1896SOL    HW217322   3.289   4.442  10.595 -0.0769 -0.3111  1.1645
 1897SOL     OW17323   1.196   0.108   3.605  0.1118 -0.4535 -0.2498
 1897SOL    HW117324   1.130   0.087   3.670  0.2992 -0.2935 -0.0080
 1897SOL    HW217325   1.267   0.135   3.663  0.3807 -1.3867 -0.1481
 1898SOL     OW17326   2.092   4.417   2.677  0.6320 -0.8985 -0.2969
 1898SOL    HW117327   2.130   4.378   2.598  1.1762 -0.7160 -0.1230
 1898SOL    HW217328   2.173   4.450   2.717  0.1195 -0.0160  0.0222
 1899SOL     OW17329   0.413   4.064   3.162  0.0056 -0.8771 -0.4051
 1899SOL    HW117330   0.458   4.123   3.222 -1.6604 -0.8221  0.7641
 1899SOL    HW217331   0.459   4.075   3.079 -0.5357 -0.5569 -0.6627
 1900SOL     OW17332   2.611   2.357  15.026  0.2100  0.5848 -0.1178
 1900SOL    HW117333   2.596   2.376  14.933 -2.8899 -2.0590 -0.1711
 1900SOL    HW217334   2.523   2.356  15.063  0.4456 -2.4749  0.3495
 1901SOL     OW17335   1.293   1.563   9.710 -0.9311 -0.2395  0.1758
 1901SOL    HW117336   1.261   1.642   9.754  0.0090 -1.5767  3.2733
 1901SOL    HW217337   1.386   1.553   9.728 -0.8439  1.7277  0.8955
 1902SOL     OW17338   3.820   0.938  15.815  0.0826  0.2820 -0.2740
 1902SOL    HW117339   3.749   0.956  15.754  0.0298 -1.0498 -0.6115
 1902SOL    HW217340   3.819   1.022  15.862  1.4514  0.0592  0.1366
 1903SOL     OW17341   3.311   1.772  16.257  0.1981  0.3472 -0.3817
 1903SOL    HW117342   3.250   1.833  16.299  0.6905  0.5877 -0.0238
 1903SOL    HW217343   3.375   1.760  16.327  0.1143 -1.0989 -0.5469
 1904SOL     OW17344   1.906   2.334   9.230  0.0334 -0.0602  0.3206
 1904SOL    HW117345   1.887   2.240   9.227  2.1818 -0.4686 -0.0725
 1904SOL    HW217346   1.857   2.354   9.150  0.7395 -2.5046 -0.7279
 1905SOL     OW17347   0.525   3.114  12.445 -0.4333  0.1938 -0.2132
 1905SOL    HW117348   0.592   3.122  12.513  1.5348 -1.5031 -1.9332
 1905SOL    HW217349   0.475   3.195  12.453  1.1113  1.3284 -2.1737
 1906SOL     OW17350   0.769   2.200   4.959 -0.0851 -0.0090 -0.0410
 1906SOL    HW117351   0.732   2.188   4.872  2.5060  1.0966 -1.3034
 1906SOL    HW217352   0.767   2.109   4.989 -0.5944  0.3611  1.0473
 1907SOL     OW17353   0.134   2.734   5.433  0.6052 -0.1658 -0.3268
 1907SOL    HW117354   0.136   2.650   5.479 -0.1979  1.1282  2.0278
 1907SOL    HW217355   0.143   2.709   5.341  0.5903 -1.1716 -0.0525
 1908SOL     OW17356   3.783   0.128   0.550 -0.8810 -0.0111 -0.6893
 1908SOL    HW117357   3.815   0.136   0.640 -5.1320 -1.5122  0.9289
 1908SOL    HW217358   3.830   0.046   0.530 -1.0508 -0.5243  1.0627
 1909SOL     OW17359   3.403   4.712   3.291  0.7016  0.7663 -0.0606
 1909SOL    HW117360   3.481   0.022   3.316  0.5142  1.8474 -1.6332
 1909SOL    HW217361   3.436   4.670   3.212  0.5994  0.2164  0.1893
 1910SOL     OW17362   1.929   2.059   2.436  0.1486  0.0808 -0.6543
 1910SOL    HW117363   1.927   1.971   2.475  0.3951  1.2155  1.9010
 1910SOL    HW217364   1.901   2.053   2.344 -0.7961 -1.0480 -0.2999
 1911SOL     OW17365   3.542   1.848  11.560  0.2266  0.3548  0.2489
 1911SOL    HW117366   3.510   1.925  11.607 -0.1270  0.2923  0.1096
 1911SOL    HW217367   3.583   1.795  11.628  1.5065  0.3323 -0.5386
 1912SOL     OW17368   1.419   0.247   7.718  0.0025 -0.0548  0.3435
 1912SOL    HW117369   1.446   0.219   7.805  0.2405 -2.7418 -0.5889
 1912SOL    HW217370   1.327   0.221   7.731  0.0431 -0.9572 -1.1305
 1913SOL     OW17371   1.922   3.994   8.912  0.5592 -0.1022 -0.1865
 1913SOL    HW117372   1.883   4.027   8.831 -1.8302 -2.1854  0.1464
 1913SOL    HW217373   1.943   4.078   8.954  0.3995  0.6564 -1.6012
 1914SOL     OW17374   3.677   0.742   3.302  0.5630 -0.1580 -0.8622
 1914SOL    HW117375   3.586   0.712   3.297  0.9892 -1.3610 -1.2405
 1914SOL    HW217376   3.713   0.674   3.359  1.9597  1.4594  0.1910
 1915SOL     OW17377   0.672   1.069   9.143  0.5969 -0.3971  0.0256
 1915SOL    HW117378   0.763   1.061   9.113 -0.1794 -1.5561 -2.0454
 1915SOL    HW217379   0.649   0.977   9.141 -0.8795 -0.0288  0.2078
 1916SOL     OW17380   4.547   1.275   3.048 -0.4538 -0.2720  0.5976
 1916SOL    HW117381   4.487   1.331   3.097 -1.2116 -1.5445  1.1239
 1916SOL    HW217382   4.474   1.223   3.014  1.6119 -0.8730 -2.9419
 1917SOL     OW17383   4.310   2.927   8.161  0.3919 -0.4784  0.0434
 1917SOL    HW117384   4.390   2.965   8.123 -0.2515  0.6140 -0.2360
 1917SOL    HW217385   4.333   2.836   8.177  1.5574  0.0644  1.5045
 1918SOL     OW17386   0.355   2.687   7.671  0.5273 -0.4540 -0.1719
 1918SOL    HW117387   0.275   2.634   7.671  0.8080 -0.8900  3.6811
 1918SOL    HW217388   0.421   2.621   7.651  0.1610 -0.0208 -2.7339
 1919SOL     OW17389   2.766   3.836   5.650  0.2428  0.1472 -0.1154
 1919SOL    HW117390   2.795   3.803   5.734  2.0108  2.5654  0.2073
 1919SOL    HW217391   2.826   3.904   5.623  1.0879  0.4796  2.6402
 1920SOL     OW17392   0.400   0.571   5.146 -0.2217 -0.2164 -0.2006
 1920SOL    HW117393   0.463   0.535   5.083 -1.5812 -0.4543 -1.4442
 1920SOL    HW217394   0.360   0.501   5.197 -1.7230  0.2409 -0.7542
 1921SOL     OW17395   3.678   1.356   6.842 -0.2466  0.4280  0.1900
 1921SOL    HW117396   3.736   1.325   6.912  1.3650  0.0053 -1.3311
 1921SOL    HW217397   3.620   1.414   6.891 -1.5154 -0.4863 -0.2042
 1922SOL     OW17398   3.575   4.625   8.675 -0.2372  0.0038  0.7234
 1922SOL    HW117399   3.613   4.601   8.591  0.3120 -0.3422  1.0723
 1922SOL    HW217400   3.655   4.604   8.722 -0.4323  3.1767  2.4743
 1923SOL     OW17401   3.909   3.140   6.204  0.6909  0.0373 -0.1882
 1923SOL    HW117402   3.861   3.103   6.278  1.1879  0.8127  0.5229
 1923SOL    HW217403   3.901   3.068   6.141  2.4856 -1.4528  1.2871
 1924SOL     OW17404   2.702   3.542  13.940 -0.0196 -0.3922 -0.8613
 1924SOL    HW117405   2.702   3.626  13.894  1.2842 -0.6781 -1.3735
 1924SOL    HW217406   2.692   3.474  13.874  0.8265  0.0624 -1.4543
 1925SOL     OW17407   4.632   1.658   7.296 -0.0434 -0.0174  0.4763
 1925SOL    HW117408   4.623   1.753   7.297  1.9410  0.1648  1.1970
 1925SOL    HW217409   4.718   1.644   7.258 -0.7832  0.0341 -1.2481
 1926SOL     OW17410   4.032   1.303   6.931  0.5094  0.4205  0.2204
 1926SOL    HW117411   4.091   1.376   6.920  1.0189 -0.1457 -0.7857
 1926SOL    HW217412   3.964   1.349   6.979 -0.0298 -0.7189  0.5633
 1927SOL     OW17413   0.953   0.689  12.761  0.3314  0.1035  0.3678
 1927SOL    HW117414   1.026   0.629  12.744 -0.3280 -0.4506 -0.5311
 1927SOL    HW217415   1.002   0.750  12.816 -0.6475  0.0202  1.3260
 1928SOL     OW17416   3.110   1.717   0.530 -0.0577 -0.2352 -0.8627
 1928SOL    HW117417   3.105   1.681   0.442  2.7406 -0.2000 -1.0144
 1928SOL    HW217418   3.027   1.763   0.545 -0.1413 -0.5135 -0.4336
 1929SOL     OW17419   3.637   2.801  12.808  0.4510 -0.3088 -0.3767
 1929SOL    HW117420   3.580   2.781  12.882  1.3547 -2.3128 -0.2334
 1929SOL    HW217421   3.574   2.800  12.735  1.0064  1.5605 -0.8635
 1930SOL     OW17422   1.695   0.254   5.322 -0.3510  0.2636 -0.1041
 1930SOL    HW117423   1.636   0.194   5.368  0.3198  0.5459  1.1070
 1930SOL    HW217424   1.785   0.223   5.317  0.3543  2.2655  0.1180
 1931SOL     OW17425   4.116   4.248   5.620  0.0167 -0.4421  0.3195
 1931SOL    HW117426   4.132   4.331   5.575  1.2645 -0.7447  0.2044
 1931SOL    HW217427   4.153   4.263   5.707  0.6914 -2.9878  0.4730
 1932SOL     OW17428   0.845   3.261  14.709  0.1983  0.4178  0.9160
 1932SOL    HW117429   0.797   3.332  14.665 -1.7233 -1.4397  0.0246
 1932SOL    HW217430   0.784   3.236  14.778 -1.4887  0.5286 -0.5300
 1933SOL     OW17431   2.798   3.722  15.588 -0.2639  0.5093 -0.1933
 1933SOL    HW117432   2.748   3.715  15.669 -0.8796  2.7795 -0.3836
 1933SOL    HW217433   2.880   3.680  15.616  1.5709  2.2743 -2.8994
 1934SOL     OW17434   2.170   1.966  15.823 -0.2336  0.1021 -0.2828
 1934SOL    HW117435   2.213   1.888  15.857  1.4677  2.8072  3.7788
 1934SOL    HW217436   2.107   1.970  15.896  1.2535  2.3851  0.8734
 1935SOL     OW17437   4.013   3.222   4.227 -0.1402  0.2184  0.0956
 1935SOL    HW117438   3.931   3.185   4.259  0.8402 -1.3967  0.7323
 1935SOL    HW217439   3.984   3.308   4.195  0.6779  0.2318 -0.6378
 1936SOL     OW17440   1.864   0.595   0.881 -0.2858  0.4332 -1.0808
 1936SOL    HW117441   1.915   0.675   0.884 -0.5172  0.4935  1.1302
 1936SOL    HW217442   1.807   0.594   0.958 -1.1037  0.7649 -1.6729
 1937SOL     OW17443   0.854   3.873   6.621 -0.5735  0.5840  0.2436
 1937SOL    HW117444   0.903   3.955   6.622 -1.9263  1.4127 -2.1044
 1937SOL    HW217445   0.828   3.869   6.713 -1.8593  1.9423 -0.0614
 1938SOL     OW17446   3.772   4.165   4.928 -0.1549  0.2198 -0.0492
 1938SOL    HW117447   3.729   4.250   4.916 -2.5686 -1.1878 -1.2646
 1938SOL    HW217448   3.855   4.177   4.882  0.5009  0.6293  1.2333
 1939SOL     OW17449   0.572   3.364  12.234  0.4350  0.3832 -0.2316
 1939SOL    HW117450   0.552   3.308  12.159  2.5216 -1.9836  0.9549
 1939SOL    HW217451   0.487   3.392  12.270 -0.5677  0.1418 -2.4042
 1940SOL     OW17452   4.154   1.045   8.083  0.3933  0.0852 -0.4619
 1940SOL    HW117453   4.152   1.083   7.995  1.3093 -1.1211 -0.9922
 1940SOL    HW217454   4.187   0.959   8.060  0.0478 -0.3809  0.7524
 1941SOL     OW17455   4.731   1.190   7.571 -0.5484  0.8644  0.7006
 1941SOL    HW117456   0.085   1.182   7.587 -0.5401 -1.9138 -0.6826
 1941SOL    HW217457   4.694   1.165   7.656 -1.1990  1.9360  0.7325
 1942SOL     OW17458   1.590   3.785   3.867 -0.0022  0.2996 -0.2709
 1942SOL    HW117459   1.663   3.830   3.824 -0.3008  0.4141 -0.6594
 1942SOL    HW217460   1.623   3.776   3.956  1.6796 -0.4138 -0.9678
 1943SOL     OW17461   0.448   4.117  14.693 -0.3211  0.2367  0.1754
 1943SOL    HW117462   0.371   4.064  14.670 -0.8223  0.8135  0.5107
 1943SOL    HW217463   0.441   4.134  14.787  0.8388 -1.0586  0.4969
 1944SOL     OW17464   4.164   3.392  16.620  0.5455  0.1305 -0.0845
 1944SOL    HW117465   4.136   3.454  16.687  0.9616 -0.2036  0.3956
 1944SOL    HW217466   4.125   3.435  16.543  0.8195  2.8532  1.2760
 1945SOL     OW17467   3.542   1.109  16.011 -0.0626 -0.1108  0.4251
 1945SOL    HW117468   3.555   1.154  16.094 -1.1910 -2.2618  1.7484
 1945SOL    HW217469   3.625   1.137  15.972  0.4594  0.3553  1.8791
 1946SOL     OW17470   1.096   1.483   3.298 -0.0401  0.5966 -0.0948
 1946SOL    HW117471   1.110   1.398   3.255  0.3027 -0.3114  1.7945
 1946SOL    HW217472   1.162   1.479   3.367 -0.4208 -2.5046  0.1074
 1947SOL     OW17473   4.466   1.063   6.229  0.8538 -1.1180 -0.2736
 1947SOL    HW117474   4.546   1.043   6.182  1.2952 -1.0168  0.4399
 1947SOL    HW217475   4.401   1.044   6.161 -1.1508  1.3105  0.9534
 1948SOL     OW17476   4.158   4.467   9.893 -0.0934  0.3806 -0.0717
 1948SOL    HW117477   4.104   4.545   9.900 -2.8193 -1.4269 -0.9511
 1948SOL    HW217478   4.163   4.462   9.797  0.5271 -1.3296  0.0387
 1949SOL     OW17479   3.788   0.649   5.075 -0.2955  0.0324  0.3496
 1949SOL    HW117480   3.877   0.662   5.040  0.5707 -1.3673  2.0489
 1949SOL    HW217481   3.773   0.727   5.128 -0.5235 -0.3065  0.7865
 1950SOL     OW17482   1.506   4.698  11.555  0.2773  0.0936 -0.5063
 1950SOL    HW117483   1.535   4.679  11.644  1.2775 -1.7845 -1.2427
 1950SOL    HW217484   1.488   0.052  11.563  1.5222  0.1355  1.7697
 1951SOL     OW17485   0.252   0.090   2.644 -0.4477  0.3384 -0.0708
 1951SOL    HW117486   0.264   0.179   2.677  2.2003 -0.9391  2.4218
 1951SOL    HW217487   0.194   0.115   2.572 -2.2838 -0.6330  1.0555
 1952SOL     OW17488   1.826   1.782   9.700  0.5992  0.1245 -0.4451
 1952SOL    HW117489   1.883   1.798   9.625  1.7670 -0.8730  0.2226
 1952SOL    HW217490   1.839   1.689   9.722  1.0094  0.3010  0.0630
 1953SOL     OW17491   1.996   2.655   1.572 -0.1146 -0.4143  0.0284
 1953SOL    HW117492   1.980   2.646   1.666  0.9679 -3.1046 -0.0432
 1953SOL    HW217493   1.987   2.750   1.560 -0.5201 -0.3552  0.8102
 1954SOL     OW17494   2.214   4.263   8.482 -0.5516  0.5637  0.0258
 1954SOL    HW117495   2.306   4.267   8.508 -0.9209  1.0975  1.3030
 1954SOL    HW217496   2.175   4.203   8.546  1.5423 -0.8585 -0.0517
 1955SOL     OW17497   4.355   1.676   2.830  0.5887  0.7112  0.2088
 1955SOL    HW117498   4.304   1.721   2.762  1.5558  1.4494 -0.0181
 1955SOL    HW217499   4.339   1.725   2.910  1.9687  0.9183  0.3476
 1956SOL     OW17500   3.929   2.949  13.277  0.1542 -0.6350  0.2643
 1956SOL    HW117501   3.858   3.006  13.247 -0.9330 -1.8354  0.5342
 1956SOL    HW217502   4.001   2.960  13.216  0.4815 -1.4942  0.4982
 1957SOL     OW17503   1.564   3.647   2.160 -0.1353  0.1051 -0.2197
 1957SOL    HW117504   1.501   3.575   2.167  0.5019 -0.7041 -2.8846
 1957SOL    HW217505   1.512   3.719   2.126 -0.5845  0.1463  0.5574
 1958SOL     OW17506   1.741   0.035   8.806  0.1820  0.2775  0.8893
 1958SOL    HW117507   1.787   0.114   8.777  1.8641 -0.2165  2.2324
 1958SOL    HW217508   1.650   0.063   8.814 -0.3530 -1.5028  0.9105
 1959SOL     OW17509   2.916   0.639   6.479  0.6919  0.0569  0.2820
 1959SOL    HW117510   2.947   0.670   6.565  1.2897  2.0089 -0.6300
 1959SOL    HW217511   2.880   0.555   6.504  1.4551 -0.4799 -0.4221
 1960SOL     OW17512   1.816   1.945   4.735  0.2920  0.8202  0.7400
 1960SOL    HW117513   1.775   1.970   4.818 -1.4073  0.9041 -0.1354
 1960SOL    HW217514   1.830   2.026   4.686 -0.6704  1.3305  1.3213
 1961SOL     OW17515   3.389   2.803   6.569  0.1940  0.1632  0.5358
 1961SOL    HW117516   3.436   2.823   6.650 -0.3225 -0.3982  0.9706
 1961SOL    HW217517   3.444   2.738   6.524  0.1707  1.0596 -0.7895
 1962SOL     OW17518   3.993   2.824  10.401  0.0992 -0.2927 -0.5330
 1962SOL    HW117519   3.990   2.750  10.340 -0.3599 -0.4833 -0.2791
 1962SOL    HW217520   3.960   2.904  10.360  2.1065 -0.8290 -3.2165
 1963SOL     OW17521   2.615   1.444  16.478  0.0374  0.4511  0.0526
 1963SOL    HW117522   2.633   1.510  16.411 -1.4694  3.2587  2.4244
 1963SOL    HW217523   2.701   1.409  16.502 -0.4528  1.1914  2.9142
 1964SOL     OW17524   2.346   2.623   8.645 -0.1981  0.3441  0.2011
 1964SOL    HW117525   2.410   2.624   8.715  1.9745  1.0264 -1.8011
 1964SOL    HW217526   2.269   2.581   8.683  0.2633 -0.9860 -0.3191
 1965SOL     OW17527   1.648   3.383  10.192  0.0270 -0.1766 -1.0202
 1965SOL    HW117528   1.650   3.379  10.096 -0.1904  1.7304 -1.1119
 1965SOL    HW217529   1.605   3.463  10.225 -1.1476 -1.2745  0.1121
 1966SOL     OW17530   4.299   3.600  11.043 -0.4389 -0.5188 -0.0394
 1966SOL    HW117531   4.219   3.582  10.994  0.2774 -1.5760 -0.8115
 1966SOL    HW217532   4.353   3.645  10.978  1.8582 -2.1100  0.7566
 1967SOL     OW17533   2.689   3.061   6.806 -0.4723 -0.0961  0.0984
 1967SOL    HW117534   2.647   3.040   6.723 -2.4844 -1.3754  1.4363
 1967SOL    HW217535   2.733   2.976   6.819  1.4983  0.6859 -1.3852
 1968SOL     OW17536   0.219   2.567  11.983  0.1476  0.1520 -0.2420
 1968SOL    HW117537   0.170   2.647  12.006  0.7307  0.5203 -0.2812
 1968SOL    HW217538   0.284   2.558  12.053 -0.6259  1.6717  0.6898
 1969SOL     OW17539   3.038   0.592   6.245  0.4713 -0.8902 -0.0051
 1969SOL    HW117540   3.129   0.585   6.276  0.0664  0.7923  1.5392
 1969SOL    HW217541   3.005   0.610   6.333  1.8990  1.3757  0.0738
 1970SOL     OW17542   3.942   1.840   5.552 -0.4100 -0.1304  0.0327
 1970SOL    HW117543   3.854   1.832   5.516  0.1051  0.4883 -1.3778
 1970SOL    HW217544   3.962   1.760   5.600  0.1464  0.0674  0.1366
 1971SOL     OW17545   3.726   4.167  10.103 -0.6206 -0.1734 -0.4389
 1971SOL    HW117546   3.747   4.230  10.172 -1.1202  1.2521 -1.5990
 1971SOL    HW217547   3.716   4.220  10.024  2.3430 -1.3750 -1.6113
 1972SOL     OW17548   3.795   3.849   1.763  0.0664 -0.5979 -0.1704
 1972SOL    HW117549   3.828   3.800   1.688  1.5096  0.1943 -0.0433
 1972SOL    HW217550   3.772   3.935   1.727 -2.0879 -2.0244 -2.2471
 1973SOL     OW17551   3.432   4.159   0.107 -0.3659 -0.2123 -0.2937
 1973SOL    HW117552   3.494   4.165   0.180 -0.8187 -0.5156  0.1201
 1973SOL    HW217553   3.491   4.194   0.041 -1.3615  0.8956 -0.5858
 1974SOL     OW17554   2.346   3.775  11.052  0.0320 -0.5583 -0.0621
 1974SOL    HW117555   2.418   3.815  11.100 -1.1954 -0.5506  1.7552
 1974SOL    HW217556   2.387   3.712  10.992 -0.1586  0.4926 -1.3050
 1975SOL     OW17557   0.429   4.279   0.475  0.4509 -0.3881  0.0531
 1975SOL    HW117558   0.357   4.312   0.422  0.1470  0.6456  1.1253
 1975SOL    HW217559   0.480   4.231   0.410  1.4584 -0.5883  0.9766
 1976SOL     OW17560   4.625   1.459   0.102 -0.4627  0.1499  0.2557
 1976SOL    HW117561   4.618   1.380   0.049  0.1216 -0.5832  1.2796
 1976SOL    HW217562   4.678   1.429   0.175  1.6616 -0.3162 -1.4899
 1977SOL     OW17563   4.367   4.732   3.736 -0.0496  0.1337 -0.4272
 1977SOL    HW117564   4.366   4.725   3.831 -0.3538 -1.2770 -0.5450
 1977SOL    HW217565   4.347   0.085   3.722 -0.1971 -0.0145 -1.1823
 1978SOL     OW17566   1.841   1.760   6.579 -0.4771 -0.2212  0.8917
 1978SOL    HW117567   1.862   1.681   6.531 -0.3163  0.6392 -0.4471
 1978SOL    HW217568   1.749   1.755   6.606 -0.3580  2.0364  1.7296
 1979SOL     OW17569   4.582   4.462   0.784  0.1607  0.0173 -0.3498
 1979SOL    HW117570   4.563   4.430   0.696  1.8093 -0.5764 -0.4974
 1979SOL    HW217571   4.617   4.549   0.763  1.0122 -0.1909  0.1801
 1980SOL     OW17572   4.258   0.538  13.918 -0.0103 -0.2491 -0.0436
 1980SOL    HW117573   4.305   0.501  13.843  0.8776 -0.2261  0.5010
 1980SOL    HW217574   4.249   0.459  13.972 -1.0197 -0.8570 -1.1083
 1981SOL     OW17575   4.310   2.131  14.581 -0.2413  0.1112 -0.0333
 1981SOL    HW117576   4.214   2.136  14.584 -0.4648 -1.5269 -3.8513
 1981SOL    HW217577   4.327   2.108  14.672 -2.4463  1.7058  0.8115
 1982SOL     OW17578   1.646   2.537   3.775  0.4554 -0.0056  1.0619
 1982SOL    HW117579   1.681   2.489   3.701  1.1318  2.6748 -0.3510
 1982SOL    HW217580   1.553   2.535   3.753  0.6796  0.9134  0.0493
 1983SOL     OW17581   4.629   2.263   6.916 -0.2400 -0.3919  0.8131
 1983SOL    HW117582   4.592   2.183   6.954  0.8264 -0.1438  2.3352
 1983SOL    HW217583   4.690   2.228   6.852  0.0737 -1.0535  1.4841
 1984SOL     OW17584   1.401   1.232   7.898 -0.4213 -0.4593  0.6187
 1984SOL    HW117585   1.401   1.326   7.917  1.3225 -0.2539 -0.4437
 1984SOL    HW217586   1.452   1.225   7.818  2.2159  1.7461  2.0855
 1985SOL     OW17587   0.439   3.172   3.934  0.1183  0.0507  0.3385
 1985SOL    HW117588   0.395   3.253   3.906  1.2392  0.4567 -0.2134
 1985SOL    HW217589   0.530   3.196   3.922 -0.0914  0.0979 -1.1857
 1986SOL     OW17590   3.972   1.818   5.939  0.5011  0.2702  0.4239
 1986SOL    HW117591   3.986   1.843   6.030  0.7676  0.5025  0.3196
 1986SOL    HW217592   4.031   1.875   5.888 -0.2507  1.5318  0.9731
 1987SOL     OW17593   3.222   2.224   4.703  0.3879  0.6032 -0.1430
 1987SOL    HW117594   3.227   2.217   4.798  0.6381 -1.6298 -0.3173
 1987SOL    HW217595   3.303   2.271   4.682 -0.9667  3.6681  1.6171
 1988SOL     OW17596   4.478   2.400  16.078  0.0569 -0.2701 -0.6660
 1988SOL    HW117597   4.469   2.460  16.004 -1.3044 -0.0888 -0.3572
 1988SOL    HW217598   4.484   2.312  16.042  1.0280 -0.6418  0.4055
 1989SOL     OW17599   0.336   4.554   1.942  0.2098  0.0835  0.4929
 1989SOL    HW117600   0.329   4.474   1.995  2.0369 -0.6761 -0.4238
 1989SOL    HW217601   0.381   4.610   2.006 -1.1971  1.6289  0.1253
 1990SOL     OW17602   2.499   4.708   8.533 -0.2340 -0.4473  0.2501
 1990SOL    HW117603   2.574   0.026   8.552 -1.0273  0.4716  0.5873
 1990SOL    HW217604   2.540   4.655   8.465 -1.4770 -1.2648  0.1596
 1991SOL     OW17605   1.607   3.477   4.683 -0.0693 -0.2629 -0.4135
 1991SOL    HW117606   1.638   3.403   4.735 -1.5126 -0.6485 -0.1039
 1991SOL    HW217607   1.615   3.553   4.742  1.3021 -0.5799 -0.1679
 1992SOL     OW17608   1.481   3.010   7.384 -0.4537 -0.0737  0.2756
 1992SOL    HW117609   1.571   2.986   7.404 -0.2176  0.9328  0.4105
 1992SOL    HW217610   1.490   3.071   7.311  1.8628  0.3875  0.9365
 1993SOL     OW17611   0.881   1.963   3.014  0.0267 -0.1910 -0.1034
 1993SOL    HW117612   0.865   1.870   2.997  0.8871 -0.3440 -0.0979
 1993SOL    HW217613   0.905   1.995   2.927  0.1786  2.6090  0.9719
 1994SOL     OW17614   2.777   4.193  14.990 -0.4594  0.1694 -0.4615
 1994SOL    HW117615   2.700   4.204  15.045 -0.8014 -2.0851 -0.4806
 1994SOL    HW217616   2.800   4.284  14.970 -2.3511  1.1007  1.4995
 1995SOL     OW17617   4.059   3.813   4.084  0.2100 -0.5620 -0.5094
 1995SOL    HW117618   4.001   3.742   4.057  0.0012 -0.5931  0.0184
 1995SOL    HW217619   4.004   3.891   4.091  2.3988  1.2128 -3.1037
 1996SOL     OW17620   3.046   0.748   3.633 -0.0481 -0.5122  0.4913
 1996SOL    HW117621   3.022   0.665   3.592  1.0135  0.4055 -1.9778
 1996SOL    HW217622   3.058   0.709   3.720  2.0972  1.4668  1.0740
 1997SOL     OW17623   0.854   0.675   0.757 -0.0371  0.3413  0.3674
 1997SOL    HW117624   0.796   0.729   0.811  0.7819  1.8343 -0.2460
 1997SOL    HW217625   0.826   0.586   0.780  0.6958 -0.0926 -0.4316
 1998SOL     OW17626   2.878   4.717   2.541  0.4955 -0.1861 -0.8988
 1998SOL    HW117627   2.823   0.055   2.551 -1.1444 -1.1039 -2.8314
 1998SOL    HW217628   2.900   4.717   2.448 -0.7184 -0.4596 -1.1930
 1999SOL     OW17629   4.305   2.270   4.542 -0.0520  0.2724  0.4960
 1999SOL    HW117630   4.221   2.291   4.503 -0.2885  0.9350  1.3615
 1999SOL    HW217631   4.330   2.356   4.576  1.2178  0.3878 -0.7112
 2000SOL     OW17632   2.911   0.574  12.564 -0.0130  0.1669 -0.2105
 2000SOL    HW117633   2.818   0.569  12.542  0.2125 -0.9730 -0.9069
 2000SOL    HW217634   2.939   0.559  12.474 -1.5168 -0.4586 -0.5645
 2001SOL     OW17635   2.175   3.805   1.424 -0.3666 -0.6202  0.5272
 2001SOL    HW117636   2.157   3.870   1.356  0.9806  1.3787  2.0701
 2001SOL    HW217637   2.261   3.770   1.399 -0.6821 -0.3845 -0.9010
 2002SOL     OW17638   2.019   4.325   4.474  0.2582 -0.1641 -0.5121
 2002SOL    HW117639   2.032   4.288   4.561  1.4187 -0.6078 -0.8692
 2002SOL    HW217640   2.109   4.309   4.444  0.8946  2.0226  0.2466
 2003SOL     OW17641   3.446   0.134  17.372  0.2880 -0.4539  0.5131
 2003SOL    HW117642   3.509   0.107  17.305 -1.3037 -1.8122 -0.4003
 2003SOL    HW217643   3.391   0.057  17.381 -0.5603 -0.0099 -0.9134
 2004SOL     OW17644   1.080   1.385   4.032  0.0970  0.4224 -0.6723
 2004SOL    HW117645   1.077   1.478   4.055  1.9484  0.1894  0.4795
 2004SOL    HW217646   1.092   1.353   4.121 -0.6789  2.6186  0.2259
 2005SOL     OW17647   1.532   1.300   6.848  0.3367 -0.1491  0.3219
 2005SOL    HW117648   1.609   1.356   6.862  1.8395 -1.7939 -1.2344
 2005SOL    HW217649   1.564   1.250   6.772 -2.1065 -1.6010  0.2806
 2006SOL     OW17650   3.578   3.752  16.151 -0.1213 -0.8320 -0.1362
 2006SOL    HW117651   3.541   3.741  16.238  2.4997  0.3986  1.0999
 2006SOL    HW217652   3.551   3.844  16.146  2.5478 -0.0974 -0.5910
 2007SOL     OW17653   1.149   3.053  14.018  0.1138 -0.0684  0.6088
 2007SOL    HW117654   1.092   3.054  14.095  2.3079  0.7797  2.2012
 2007SOL    HW217655   1.228   3.087  14.059  1.6407 -2.1700 -0.6335
 2008SOL     OW17656   1.621   1.638  15.836  0.3759 -0.2051  0.0724
 2008SOL    HW117657   1.681   1.590  15.778  3.2849  1.9948  1.2751
 2008SOL    HW217658   1.665   1.723  15.831 -0.6701  0.2663 -1.2256
 2009SOL     OW17659   0.010   0.284   4.380 -0.1389  0.0995 -0.0022
 2009SOL    HW117660   0.081   0.276   4.444  1.1310  2.3753 -1.1319
 2009SOL    HW217661   4.677   0.307   4.438  0.0664 -1.0114  0.6918
 2010SOL     OW17662   0.645   4.117   4.898  0.6595  0.8996  0.3049
 2010SOL    HW117663   0.678   4.156   4.979 -0.4652  0.2450  1.0745
 2010SOL    HW217664   0.686   4.032   4.911 -1.9275 -0.7784 -2.4873
 2011SOL     OW17665   0.543   4.237   6.273  0.2234  0.0258  0.0066
 2011SOL    HW117666   0.544   4.331   6.287  0.2926 -0.0193  0.3235
 2011SOL    HW217667   0.615   4.203   6.327 -0.6308  0.2495  1.3014
 2012SOL     OW17668   1.809   1.820  15.652 -0.2210 -0.1557 -0.2219
 2012SOL    HW117669   1.903   1.817  15.635 -0.3991 -1.0754 -1.0275
 2012SOL    HW217670   1.808   1.888  15.719  0.8374 -1.7569  1.4350
 2013SOL     OW17671   0.443   0.157   6.527 -0.1488  0.0309  0.0142
 2013SOL    HW117672   0.515   0.165   6.590 -1.3804 -2.4914  1.6976
 2013SOL    HW217673   0.400   0.076   6.552 -2.0487  0.6429 -1.2127
 2014SOL     OW17674   4.310   3.002   6.238 -1.1984 -0.7693  0.1770
 2014SOL    HW117675   4.227   2.957   6.225 -1.9367  0.4351  0.7327
 2014SOL    HW217676   4.316   3.008   6.333  0.5346  2.7874 -0.1629
 2015SOL     OW17677   0.472   0.908   8.721 -0.1746  0.0827 -0.4279
 2015SOL    HW117678   0.427   0.894   8.637  0.7333  0.2821 -0.9405
 2015SOL    HW217679   0.546   0.956   8.685  0.1572 -0.6351 -0.7053
 2016SOL     OW17680   4.235   1.211  12.068  0.4107  0.0312 -0.2595
 2016SOL    HW117681   4.273   1.294  12.040  0.5421 -0.5196 -1.7478
 2016SOL    HW217682   4.147   1.216  12.029 -0.4988 -0.7105  1.6930
 2017SOL     OW17683   3.882   2.194  12.993 -0.1065 -0.5024 -0.5231
 2017SOL    HW117684   3.812   2.243  13.036  1.4449  0.0622  1.3191
 2017SOL    HW217685   3.954   2.219  13.050 -0.1968 -0.1970 -0.5434
 2018SOL     OW17686   2.550   3.375   2.325  0.2744 -0.0801 -0.8098
 2018SOL    HW117687   2.537   3.469   2.319 -1.5747 -0.1577  1.7250
 2018SOL    HW217688   2.521   3.358   2.236 -0.1363  1.7496 -1.0119
 2019SOL     OW17689   3.034   4.005   0.434 -0.6386  0.4544  0.1088
 2019SOL    HW117690   3.080   4.050   0.505  1.0911 -0.5267 -0.3905
 2019SOL    HW217691   3.061   4.064   0.363 -1.0362 -0.2061 -0.5976
 2020SOL     OW17692   4.141   0.059   7.568 -0.1616  0.1895 -0.0086
 2020SOL    HW117693   4.074   0.036   7.503 -1.4076 -1.1168  1.7300
 2020SOL    HW217694   4.169   4.709   7.589  0.7888  0.2675 -0.9391
 2021SOL     OW17695   3.243   1.023   1.016 -0.1144 -0.2456  0.1105
 2021SOL    HW117696   3.280   1.068   0.940 -2.0938  1.1081 -0.0394
 2021SOL    HW217697   3.242   1.091   1.084 -1.9438 -0.2928  0.1287
 2022SOL     OW17698   4.338   3.739   7.660 -0.3570  0.2291 -0.3222
 2022SOL    HW117699   4.329   3.694   7.744  0.6761  1.9870  0.7444
 2022SOL    HW217700   4.366   3.659   7.616  1.5888  0.4739  0.4587
 2023SOL     OW17701   3.843   4.185   1.171 -0.3843  0.7960 -0.1349
 2023SOL    HW117702   3.757   4.178   1.130 -0.1746  1.5741 -0.6954
 2023SOL    HW217703   3.848   4.093   1.198 -1.4972  0.7282 -0.1778
 2024SOL     OW17704   3.654   4.627   4.481 -0.2112 -0.8153  0.0275
 2024SOL    HW117705   3.735   4.656   4.525 -1.2944  1.7214  0.3665
 2024SOL    HW217706   3.671   4.635   4.387 -1.7261  1.3174 -0.0658
 2025SOL     OW17707   0.362   4.604   9.037 -1.4695 -0.3113 -0.1098
 2025SOL    HW117708   0.416   4.654   8.976 -0.5146  0.3119  1.2560
 2025SOL    HW217709   0.362   4.666   9.110 -1.5791  1.8870 -1.9468
 2026SOL     OW17710   0.893   0.891   4.819  0.0888 -0.0289  0.2277
 2026SOL    HW117711   0.976   0.938   4.806 -0.5088  0.9667  0.0958
 2026SOL    HW217712   0.842   0.943   4.880 -1.5166  2.1659 -3.0277
 2027SOL     OW17713   1.185   4.562   8.863 -0.5589  0.0395  0.3952
 2027SOL    HW117714   1.114   4.566   8.927 -1.2933  2.1578 -0.5552
 2027SOL    HW217715   1.203   4.469   8.850  0.3478  0.0102  1.8904
 2028SOL     OW17716   0.546   3.640   7.974  0.5100 -0.0364  0.4801
 2028SOL    HW117717   0.489   3.716   7.960 -0.6774 -1.0158  0.0391
 2028SOL    HW217718   0.540   3.629   8.069 -0.9999  1.1457  0.5198
 2029SOL     OW17719   0.310   0.091  10.293  1.1534 -0.5158 -0.4276
 2029SOL    HW117720   0.336   0.165  10.347 -1.9912  0.6493 -0.5121
 2029SOL    HW217721   0.253   0.046  10.355  1.3532 -1.3673 -0.8545
 2030SOL     OW17722   3.829   4.470   8.681 -0.7551 -0.1481  0.1636
 2030SOL    HW117723   3.900   4.408   8.662  0.8621  1.6259  0.4104
 2030SOL    HW217724   3.757   4.408   8.694 -0.0921 -0.9711 -0.0715
 2031SOL     OW17725   3.415   2.645  13.259 -0.3552  0.3340 -0.4763
 2031SOL    HW117726   3.483   2.625  13.323  0.6453 -1.9536 -2.2868
 2031SOL    HW217727   3.395   2.555  13.235  0.7707  0.6098 -2.4230
 2032SOL     OW17728   0.355   3.696   5.961 -0.0638 -0.4939 -0.3266
 2032SOL    HW117729   0.384   3.619   5.912  2.8658 -0.0859  0.7572
 2032SOL    HW217730   0.442   3.735   5.951  0.1234 -1.0290 -0.7774
 2033SOL     OW17731   0.200   3.809   4.211 -0.3758 -0.0711 -0.8116
 2033SOL    HW117732   0.123   3.864   4.224  0.0989  0.1500  0.9910
 2033SOL    HW217733   0.260   3.869   4.165  0.4166  0.1844  0.5703
 2034SOL     OW17734   3.401   2.169  15.154 -0.2924 -0.5867 -0.4198
 2034SOL    HW117735   3.429   2.176  15.245  1.9671  1.5748 -1.2789
 2034SOL    HW217736   3.362   2.254  15.135 -0.0938 -0.5797 -0.8021
 2035SOL     OW17737   3.400   1.212  17.565  0.1609  0.0796 -0.1772
 2035SOL    HW117738   3.377   1.172  17.481 -1.3131 -0.3101  0.4056
 2035SOL    HW217739   3.431   1.136  17.615 -0.0565  0.7988  1.0516
 2036SOL     OW17740   1.547   3.231  15.573  0.2861  0.2270  0.0179
 2036SOL    HW117741   1.532   3.153  15.519  1.7544 -0.5423  0.7310
 2036SOL    HW217742   1.628   3.270  15.540  0.5669 -0.2060  0.1949
 2037SOL     OW17743   1.713   1.603  17.327 -1.0206 -0.1117 -0.1062
 2037SOL    HW117744   1.770   1.671  17.362  1.8513 -2.6686  0.2223
 2037SOL    HW217745   1.622   1.615  17.353 -0.1521 -0.7642  3.2675
 2038SOL     OW17746   0.273   1.445   5.919  0.2485  0.0223  0.4986
 2038SOL    HW117747   0.346   1.441   5.980 -0.2587  2.2523  1.2427
 2038SOL    HW217748   0.319   1.448   5.834  1.0015  0.7222  0.9366
 2039SOL     OW17749   0.596   3.063  17.625  0.0319 -0.2317  0.6899
 2039SOL    HW117750   0.516   3.107  17.596 -0.5090 -2.3416 -0.9702
 2039SOL    HW217751   0.662   3.121  17.584  2.7778 -2.8030  1.4658
 2040SOL     OW17752   1.011   1.250   3.801  0.2308 -0.3550 -0.4197
 2040SOL    HW117753   1.033   1.160   3.824  1.3110  0.1333  0.4402
 2040SOL    HW217754   1.031   1.285   3.887 -0.9198 -0.6900 -0.0158
 2041SOL     OW17755   3.016   0.120   7.971 -0.6629  0.6711  0.5078
 2041SOL    HW117756   2.926   0.095   7.951  0.0395 -1.2073 -0.3024
 2041SOL    HW217757   3.065   0.122   7.889 -0.5013 -0.6427  0.5779
 2042SOL     OW17758   4.167   4.713  16.424 -0.1139  0.1499  0.2345
 2042SOL    HW117759   4.102   4.727  16.356 -0.5927 -1.2633  0.3998
 2042SOL    HW217760   4.243   4.739  16.372  0.5944 -0.9137  0.7317
 2043SOL     OW17761   0.350   1.231  10.806  0.3108  0.2444 -0.1978
 2043SOL    HW117762   0.417   1.264  10.747  1.3510  0.4908  1.1288
 2043SOL    HW217763   0.379   1.282  10.882 -0.1079  1.0383 -0.5635
 2044SOL     OW17764   2.893   3.753  14.300  0.2213 -0.5460  0.3811
 2044SOL    HW117765   2.824   3.804  14.258  1.9707  1.2650 -0.3165
 2044SOL    HW217766   2.945   3.820  14.346 -1.2675  1.0072 -0.1898
 2045SOL     OW17767   3.778   3.289   6.977 -0.2759  0.1194  0.1538
 2045SOL    HW117768   3.861   3.243   6.970 -0.1571  0.6243 -1.5971
 2045SOL    HW217769   3.772   3.311   7.070 -1.8196  1.7973 -0.3380
 2046SOL     OW17770   2.353   4.067   3.639  0.0983 -0.0586  0.1984
 2046SOL    HW117771   2.281   4.129   3.633  2.1047  2.2231 -0.3393
 2046SOL    HW217772   2.414   4.112   3.698 -2.7879  1.0487  2.3203
 2047SOL     OW17773   1.753   0.823   1.052 -0.1278 -0.3683 -0.3160
 2047SOL    HW117774   1.769   0.868   0.969 -1.1142 -1.4640 -1.1011
 2047SOL    HW217775   1.836   0.818   1.099 -0.3329 -1.1592 -0.0304
 2048SOL     OW17776   0.121   1.765   7.864 -0.2267  0.0440 -0.4389
 2048SOL    HW117777   0.152   1.680   7.835  1.7200  1.2825 -2.0545
 2048SOL    HW217778   0.209   1.800   7.881 -0.5245  0.9704 -0.7957
 2049SOL     OW17779   1.332   2.468   3.289  0.3287  0.1892  0.1150
 2049SOL    HW117780   1.415   2.497   3.328 -0.1830  2.2692 -0.3539
 2049SOL    HW217781   1.325   2.537   3.222  1.0299  0.1150 -0.0332
 2050SOL     OW17782   1.613   0.812  12.054  0.8776 -0.6255  0.3726
 2050SOL    HW117783   1.554   0.878  12.089  2.5548  0.0256  1.9723
 2050SOL    HW217784   1.685   0.869  12.027  0.6033 -1.0207 -1.2139
 2051SOL     OW17785   2.339   4.041  16.721 -0.0379 -0.0356  0.1742
 2051SOL    HW117786   2.343   4.055  16.816  2.0494  1.0481 -0.0826
 2051SOL    HW217787   2.304   3.952  16.713  2.7124 -1.0580 -0.2616
 2052SOL     OW17788   0.712   3.823   3.021 -0.5590  0.6642  0.6751
 2052SOL    HW117789   0.627   3.812   3.063 -1.5220  0.8081 -1.2073
 2052SOL    HW217790   0.773   3.823   3.094  0.7736 -1.5973 -0.4420
 2053SOL     OW17791   2.114   1.374   8.806 -0.4639  0.2318  0.1823
 2053SOL    HW117792   2.021   1.385   8.787 -0.0383 -1.0365 -2.6792
 2053SOL    HW217793   2.099   1.321   8.884 -2.6909  1.1931  0.3932
 2054SOL     OW17794   2.895   0.882   7.118  0.8331 -0.5015 -0.3931
 2054SOL    HW117795   2.823   0.864   7.178 -1.3494  0.3073 -2.7958
 2054SOL    HW217796   2.851   0.934   7.051  1.8413 -1.1248 -1.5387
 2055SOL     OW17797   0.583   3.714   6.707 -0.4542 -0.8883 -0.4389
 2055SOL    HW117798   0.642   3.670   6.646 -2.6265 -0.2544 -3.0086
 2055SOL    HW217799   0.643   3.743   6.775 -1.1940 -0.8290  0.1881
 2056SOL     OW17800   4.512   3.744   8.987  0.1454  0.4134 -0.2771
 2056SOL    HW117801   4.435   3.743   8.931  0.1025 -0.0474 -0.2100
 2056SOL    HW217802   4.572   3.812   8.957 -0.4105  0.5158 -1.1473
 2057SOL     OW17803   2.376   2.118  11.070 -0.9400 -0.2151 -0.2872
 2057SOL    HW117804   2.460   2.114  11.025 -0.2601  1.7972  0.7983
 2057SOL    HW217805   2.375   2.058  11.144 -0.1891 -0.2660 -0.3116
 2058SOL     OW17806   3.818   0.206   8.799 -0.4859 -0.5589 -0.1032
 2058SOL    HW117807   3.749   0.203   8.732  0.0996 -0.5014 -0.7035
 2058SOL    HW217808   3.818   0.126   8.851 -2.9588 -0.8206 -0.4780
 2059SOL     OW17809   3.268   1.559   8.682 -0.7834  0.5848 -0.2023
 2059SOL    HW117810   3.301   1.626   8.623 -0.6927  1.4944  0.8925
 2059SOL    HW217811   3.333   1.491   8.662 -0.2983  1.1052 -0.3707
 2060SOL     OW17812   0.832   0.233   8.694  0.0336  0.4879 -0.2022
 2060SOL    HW117813   0.882   0.160   8.731  0.7236  1.4255  0.7504
 2060SOL    HW217814   0.904   0.296   8.688 -0.4094  1.0603  0.4189
 2061SOL     OW17815   1.379   2.289   5.501 -0.1996 -0.0137  0.4286
 2061SOL    HW117816   1.320   2.283   5.577 -0.5054  0.5840  0.2400
 2061SOL    HW217817   1.393   2.197   5.483  1.0603  0.0562  1.0957
 2062SOL     OW17818   0.588   3.982   7.931 -0.1658  0.3245  0.2325
 2062SOL    HW117819   0.523   3.920   7.896  0.1280 -0.5404  1.2040
 2062SOL    HW217820   0.555   3.984   8.021  0.8738  0.9265  0.5893
 2063SOL     OW17821   3.958   0.526  11.024 -0.5445 -0.1493 -0.3818
 2063SOL    HW117822   4.037   0.479  11.052 -0.6119  0.8285  1.4548
 2063SOL    HW217823   3.882   0.482  11.062 -0.6295 -0.9229 -1.4268
 2064SOL     OW17824   0.388   4.132   8.683  0.1759  0.0174 -0.2869
 2064SOL    HW117825   0.465   4.184   8.707 -0.0497 -1.3065  3.3422
 2064SOL    HW217826   0.385   4.082   8.764 -2.2247  0.5866 -0.0269
 2065SOL     OW17827   0.836   1.948  11.034  0.1153  0.0600  0.3940
 2065SOL    HW117828   0.857   2.035  10.999 -1.3568  0.3518  0.2272
 2065SOL    HW217829   0.753   1.969  11.076  1.5352  2.0425  2.1613
 2066SOL     OW17830   3.360   0.786  17.712 -0.1239 -0.0935  0.6741
 2066SOL    HW117831   3.413   0.706  17.712 -2.3412 -1.5447  0.3116
 2066SOL    HW217832   3.286   0.752  17.662  1.5244 -1.3884 -0.9162
 2067SOL     OW17833   3.534   2.531   3.071  0.3180  0.4664 -0.2444
 2067SOL    HW117834   3.471   2.468   3.039  0.1364  0.5393 -0.0321
 2067SOL    HW217835   3.480   2.581   3.132 -0.1756  1.1313 -1.2174
 2068SOL     OW17836   1.371   4.287   3.559 -0.1948  0.0559 -0.1626
 2068SOL    HW117837   1.458   4.251   3.573 -0.6548 -0.7890  0.5539
 2068SOL    HW217838   1.390   4.360   3.499 -2.2468 -1.0573 -2.2101
 2069SOL     OW17839   2.898   3.470  14.351  0.2801  0.0436  0.0222
 2069SOL    HW117840   2.898   3.556  14.309  0.2953 -0.1722 -0.4170
 2069SOL    HW217841   2.975   3.444  14.299  0.3402 -0.7891  0.5185
 2070SOL     OW17842   1.171   3.709   8.980 -0.1657  0.2788  0.0264
 2070SOL    HW117843   1.117   3.718   8.901  1.3127  2.7161 -0.6943
 2070SOL    HW217844   1.181   3.800   9.007  1.0466  0.5031 -1.1805
 2071SOL     OW17845   3.046   1.384   8.686 -0.1934  0.6110  0.2418
 2071SOL    HW117846   2.972   1.430   8.727 -1.7335 -0.2269 -1.6190
 2071SOL    HW217847   3.114   1.451   8.685  1.0599 -0.6894 -0.2277
 2072SOL     OW17848   1.638   4.302   1.436  0.4169  0.2138  0.0462
 2072SOL    HW117849   1.587   4.380   1.413 -0.5764 -0.2046  0.8334
 2072SOL    HW217850   1.605   4.277   1.522  0.3217  2.6211  0.6892
 2073SOL     OW17851   3.958   4.657   3.981 -0.2473  0.0730 -0.6720
 2073SOL    HW117852   3.978   4.715   4.054  1.6767 -0.1811 -1.0046
 2073SOL    HW217853   4.023   4.587   3.981  1.4163  1.6445  0.3821
 2074SOL     OW17854   1.071   1.319  17.401 -0.3023 -0.0789 -0.3790
 2074SOL    HW117855   1.116   1.342  17.319  0.6475 -0.7545 -0.0386
 2074SOL    HW217856   1.085   1.225  17.403 -1.1986 -0.2276 -0.8685
 2075SOL     OW17857   4.329   1.760  17.731 -0.2396 -0.0255 -0.5295
 2075SOL    HW117858   4.296   1.850  17.738  0.4327  0.2275 -0.6674
 2075SOL    HW217859   4.253   1.725   0.022  0.9993 -0.9265  0.7739
 2076SOL     OW17860   1.167   2.176   7.401 -0.0793 -0.4792 -0.5290
 2076SOL    HW117861   1.139   2.267   7.398 -4.4042 -1.8393 -1.4540
 2076SOL    HW217862   1.087   2.124   7.403 -0.1164 -0.3382  1.1580
 2077SOL     OW17863   2.088   1.271   0.496 -0.7856 -0.1344 -0.1628
 2077SOL    HW117864   2.177   1.290   0.464 -0.5674  0.1418  0.6008
 2077SOL    HW217865   2.067   1.350   0.547  1.2127  0.7287 -0.6681
 2078SOL     OW17866   0.016   2.777  14.143 -0.0240 -0.2548  0.1382
 2078SOL    HW117867   0.044   2.854  14.192  0.6408 -0.5459  0.2204
 2078SOL    HW217868   0.005   2.813  14.056 -1.7606 -0.9763  0.0665
 2079SOL     OW17869   2.763   4.209   2.589 -0.0256 -0.1879 -0.0843
 2079SOL    HW117870   2.830   4.192   2.655  0.1970 -0.1529 -0.2990
 2079SOL    HW217871   2.770   4.128   2.540  2.4833 -0.2666  0.3922
 2080SOL     OW17872   2.411   4.701   6.122 -0.6079 -0.5796  0.3697
 2080SOL    HW117873   2.455   0.032   6.169  2.5652 -1.8719 -0.6160
 2080SOL    HW217874   2.409   4.733   6.031  0.2912  1.0095  0.8948
 2081SOL     OW17875   2.375   0.194   2.148  0.2824  0.0365  0.8329
 2081SOL    HW117876   2.346   0.284   2.166 -0.5243 -0.4197  1.7857
 2081SOL    HW217877   2.436   0.175   2.219  2.2606 -0.4364 -1.0096
 2082SOL     OW17878   2.099   1.470  14.658  0.1830  0.1498  0.4540
 2082SOL    HW117879   2.190   1.441  14.650  0.4930  1.6408 -1.1934
 2082SOL    HW217880   2.122   1.557  14.691  3.8793 -0.6470 -0.0282
 2083SOL     OW17881   0.201   3.645  13.357 -0.1885 -0.1050  1.1331
 2083SOL    HW117882   0.247   3.702  13.295 -0.7410 -1.6779 -0.7166
 2083SOL    HW217883   0.207   3.563  13.307 -0.1102  0.0873  0.8270
 2084SOL     OW17884   4.512   4.339   4.232  0.8362  0.0048 -0.2178
 2084SOL    HW117885   4.545   4.263   4.185 -0.1006  0.0070 -0.8685
 2084SOL    HW217886   4.540   4.411   4.175  0.4502 -1.6039 -2.4132
 2085SOL     OW17887   2.568   3.271  14.572 -0.2832 -0.1515  0.1199
 2085SOL    HW117888   2.494   3.212  14.563  0.1582 -0.8050  0.8349
 2085SOL    HW217889   2.557   3.317  14.488  0.9009 -0.4340 -0.1874
 2086SOL     OW17890   0.646   1.695   9.433 -0.0973 -0.3921  0.0540
 2086SOL    HW117891   0.672   1.646   9.511 -0.7943  0.7163  0.9809
 2086SOL    HW217892   0.655   1.784   9.467  2.9913 -0.7107  0.0509
 2087SOL     OW17893   3.105   0.167   8.237 -0.5158 -0.1185  0.5195
 2087SOL    HW117894   3.113   0.141   8.145 -1.0237  2.5165 -0.2923
 2087SOL    HW217895   3.018   0.207   8.244 -0.2872  0.2840  1.0628
 2088SOL     OW17896   2.513   1.866   5.843  0.2948 -0.6105  0.1317
 2088SOL    HW117897   2.570   1.933   5.881  0.1337 -1.4959  1.9502
 2088SOL    HW217898   2.573   1.836   5.774  0.1104 -0.3140 -0.1541
 2089SOL     OW17899   4.555   3.527   8.330 -0.3258  0.2211 -0.3159
 2089SOL    HW117900   4.598   3.445   8.356  0.2255  0.8121  0.6146
 2089SOL    HW217901   4.495   3.519   8.256 -0.4431  2.8604 -0.5021
 2090SOL     OW17902   3.353   1.144  15.836 -0.7961 -0.2195 -0.0985
 2090SOL    HW117903   3.276   1.103  15.875 -2.2965  2.2874 -0.3958
 2090SOL    HW217904   3.425   1.121  15.894 -0.2639 -0.3702 -0.8235
 2091SOL     OW17905   1.478   0.319   1.622  0.7350  0.1706  0.1125
 2091SOL    HW117906   1.565   0.279   1.630  0.4402 -0.1796  1.6626
 2091SOL    HW217907   1.464   0.343   1.714 -0.3041 -0.4039  0.1010
 2092SOL     OW17908   0.000   2.984  15.634 -0.4615 -0.4584  0.2541
 2092SOL    HW117909   0.056   2.978  15.712 -0.1795 -1.1293  0.0035
 2092SOL    HW217910   4.723   2.892  15.611 -2.5963  0.2438 -0.9068
 2093SOL     OW17911   1.854   2.871   2.178  0.2165  0.7042 -0.3796
 2093SOL    HW117912   1.843   2.820   2.258  1.8130  0.6781 -0.1667
 2093SOL    HW217913   1.862   2.797   2.118  0.2545  0.0583  0.4192
 2094SOL     OW17914   3.556   3.353   7.568  0.6732  0.1724  0.1464
 2094SOL    HW117915   3.567   3.445   7.591  2.3997 -0.6470  2.6296
 2094SOL    HW217916   3.611   3.304   7.629  0.6953  3.2015  2.5512
 2095SOL     OW17917   3.272   2.734   0.350  0.4944  0.1442  0.3340
 2095SOL    HW117918   3.215   2.769   0.281  0.1600  1.8856  1.5046
 2095SOL    HW217919   3.330   2.676   0.300 -0.5036  0.6881 -1.4813
 2096SOL     OW17920   2.005   2.664   7.757 -0.1090  0.1122 -0.4917
 2096SOL    HW117921   1.919   2.656   7.800  0.1641  0.9532  0.2191
 2096SOL    HW217922   2.045   2.584   7.791  0.2569  1.2973  1.8550
 2097SOL     OW17923   0.943   4.605  16.432  0.4183 -0.2729  0.3433
 2097SOL    HW117924   0.853   4.634  16.420  1.2110  1.0225 -2.3987
 2097SOL    HW217925   0.993   4.687  16.437 -1.2970  0.8017 -0.2755
 2098SOL     OW17926   3.691   1.795  10.980  0.0763  0.2089 -0.4129
 2098SOL    HW117927   3.756   1.860  10.952 -0.4310  1.0224  0.2773
 2098SOL    HW217928   3.615   1.814  10.924 -0.3766 -3.7691 -1.1053
 2099SOL     OW17929   3.368   3.677  10.576 -0.1266  0.0924  0.3295
 2099SOL    HW117930   3.355   3.735  10.650 -0.7330 -2.1019  1.9406
 2099SOL    HW217931   3.280   3.642  10.558 -0.7615  2.1744 -0.6148
 2100SOL     OW17932   0.060   4.257  17.076  0.6092  0.5142 -0.4035
 2100SOL    HW117933   0.076   4.211  17.158 -2.4658  1.1296  0.5400
 2100SOL    HW217934   0.125   4.218  17.018 -0.0521  1.6641 -1.9064
 2101SOL     OW17935   4.464   4.515   4.700 -0.0381  0.1561 -0.0525
 2101SOL    HW117936   4.493   4.564   4.778  1.8669  1.4545 -1.5613
 2101SOL    HW217937   4.554   4.504   4.670 -0.1191  0.3195 -0.3506
 2102SOL     OW17938   3.958   2.450   2.471  0.4569  0.1771  0.0857
 2102SOL    HW117939   4.039   2.419   2.512  0.2621  0.5687  0.7690
 2102SOL    HW217940   3.966   2.430   2.378 -0.3202 -0.4330  0.1420
 2103SOL     OW17941   0.911   2.122  12.193 -0.0178 -0.5377  0.4107
 2103SOL    HW117942   0.961   2.182  12.248 -1.1871 -0.0770  0.9769
 2103SOL    HW217943   0.861   2.193  12.152 -1.6748 -1.1636  1.3524
 2104SOL     OW17944   0.669   2.492   4.142 -0.1297  0.2093  0.5301
 2104SOL    HW117945   0.725   2.484   4.219  1.6027  1.5727 -0.5871
 2104SOL    HW217946   0.718   2.430   4.087 -0.6627 -0.1346  0.4350
 2105SOL     OW17947   2.318   1.451   3.434 -0.2394  0.2109  0.2005
 2105SOL    HW117948   2.384   1.383   3.421 -0.2225  0.3110 -0.2332
 2105SOL    HW217949   2.259   1.415   3.500 -1.3827  3.8253  1.1710
 2106SOL     OW17950   0.719   3.982  13.073 -0.0509  0.3217  0.6355
 2106SOL    HW117951   0.717   3.909  13.134 -0.3791  0.3575  0.6659
 2106SOL    HW217952   0.675   4.046  13.130 -0.4958  1.1878 -0.6768
 2107SOL     OW17953   2.196   1.708   4.447  0.2859  0.2261 -0.8244
 2107SOL    HW117954   2.282   1.747   4.467 -0.3631  1.4378 -0.4141
 2107SOL    HW217955   2.217   1.660   4.367  1.1055 -0.8648  0.0377
 2108SOL     OW17956   0.717   1.674   8.890  0.1464  0.1468  0.0994
 2108SOL    HW117957   0.793   1.701   8.942  0.2845  0.5022 -0.2807
 2108SOL    HW217958   0.641   1.679   8.947  0.4686 -1.9051  0.7053
 2109SOL     OW17959   0.345   4.651   3.555  0.4183 -0.1937 -0.1039
 2109SOL    HW117960   0.271   4.599   3.525 -0.2355 -0.3389  1.7852
 2109SOL    HW217961   0.411   4.582   3.558  0.8138  0.2202  0.8733
 2110SOL     OW17962   1.106   0.576   4.253  0.1841  0.2987  0.1341
 2110SOL    HW117963   1.187   0.578   4.305 -0.2604 -1.3198  0.9057
 2110SOL    HW217964   1.151   0.549   4.173  0.6647 -0.5280  0.6842
 2111SOL     OW17965   3.646   3.312   5.403 -0.3338 -0.7364  0.2774
 2111SOL    HW117966   3.678   3.223   5.416 -1.9851 -1.1483  1.5133
 2111SOL    HW217967   3.667   3.346   5.316 -3.5662  2.8011  0.8898
 2112SOL     OW17968   3.261   3.812  13.258  0.2646  0.0602  0.1841
 2112SOL    HW117969   3.280   3.776  13.171  1.3456 -0.1977  0.5345
 2112SOL    HW217970   3.165   3.821  13.253  0.0889 -2.1481 -0.4396
 2113SOL     OW17971   4.365   3.942   3.011 -0.1701 -0.3249  0.0569
 2113SOL    HW117972   4.437   3.991   3.051  0.9386 -0.0111 -2.3738
 2113SOL    HW217973   4.329   3.918   3.097 -1.4109  1.4378  0.0413
 2114SOL     OW17974   3.818   2.042  13.834 -0.6952 -0.4851  0.3721
 2114SOL    HW117975   3.893   2.004  13.789 -1.0888 -1.1404  0.2715
 2114SOL    HW217976   3.856   2.127  13.855 -0.8085 -0.2712 -0.2849
 2115SOL     OW17977   1.992   3.838  10.630  0.3776 -0.3620 -0.1393
 2115SOL    HW117978   2.043   3.919  10.620 -0.7825  0.8844  3.9738
 2115SOL    HW217979   2.043   3.792  10.697  2.3351 -0.9557 -2.0368
 2116SOL     OW17980   1.374   2.193   9.610  0.1293  0.4475  0.3391
 2116SOL    HW117981   1.361   2.204   9.516 -0.4703 -4.8085 -0.1739
 2116SOL    HW217982   1.348   2.101   9.617  1.2194  0.0165 -1.3126
 2117SOL     OW17983   1.774   1.201   8.887 -0.5296  0.2499 -0.1141
 2117SOL    HW117984   1.784   1.180   8.980 -1.2751  0.5478  0.0293
 2117SOL    HW217985   1.768   1.117   8.843  1.1414  0.4056 -0.6517
 2118SOL     OW17986   2.290   2.507   3.599 -0.0536 -0.2840 -0.1044
 2118SOL    HW117987   2.321   2.512   3.509  1.7693  2.2545  0.6752
 2118SOL    HW217988   2.223   2.575   3.609 -2.6462 -2.6998 -0.9064
 2119SOL     OW17989   0.836   0.899  17.647 -0.1080  0.6203 -0.1122
 2119SOL    HW117990   0.906   0.952  17.608  2.3927 -2.2098  0.5020
 2119SOL    HW217991   0.890   0.829  17.683 -0.3247 -0.4275 -1.8897
 2120SOL     OW17992   1.477   2.492   9.974  0.0177  0.3554 -0.1981
 2120SOL    HW117993   1.534   2.456  10.041 -0.8533  0.6235  0.6917
 2120SOL    HW217994   1.497   2.586   9.981  3.3144 -0.2221 -2.3457
 2121SOL     OW17995   0.454   1.899   7.470  0.0148  0.5141  0.1959
 2121SOL    HW117996   0.541   1.938   7.472 -0.1488  0.8368  1.0966
 2121SOL    HW217997   0.454   1.834   7.541 -1.6463 -0.5159 -0.7296
 2122SOL     OW17998   4.544   0.679   8.570 -0.6287  0.2745  0.0218
 2122SOL    HW117999   4.553   0.597   8.522  0.6516  1.7659 -2.3070
 2122SOL    HW218000   4.616   0.669   8.632 -0.9505  2.5016  0.7487
 2123SOL     OW18001   2.325   0.073   2.732 -0.7389 -0.1091  0.5413
 2123SOL    HW118002   2.307   0.101   2.642  2.4107  0.1498 -0.0086
 2123SOL    HW218003   2.265   0.132   2.778 -0.5357 -0.3386  1.1036
 2124SOL     OW18004   2.463   3.299   8.643  0.5256  0.0025  0.5407
 2124SOL    HW118005   2.400   3.266   8.706 -0.7393 -0.1094 -0.7934
 2124SOL    HW218006   2.542   3.284   8.695 -0.5194 -2.8728  1.3024
 2125SOL     OW18007   0.172   0.185  11.845  0.4791 -0.2341 -0.1088
 2125SOL    HW118008   0.207   0.261  11.892 -2.0151  1.1179 -0.4778
 2125SOL    HW218009   0.080   0.184  11.869  0.8875  0.3875  1.4594
 2126SOL     OW18010   3.979   3.605   6.929 -0.6572 -0.2634  0.0507
 2126SOL    HW118011   3.899   3.591   6.879 -0.5944 -0.1441 -0.0849
 2126SOL    HW218012   4.036   3.538   6.890 -0.6804  0.4165 -1.1581
 2127SOL     OW18013   3.261   3.670   1.534  0.3211  0.5024 -0.1606
 2127SOL    HW118014   3.291   3.655   1.623  0.3833 -2.3825 -0.6719
 2127SOL    HW218015   3.257   3.585   1.491  0.9765 -0.4927  1.7986
 2128SOL     OW18016   3.344   1.047   7.504 -0.6383  0.2981  0.3310
 2128SOL    HW118017   3.294   0.972   7.471  1.8920 -1.4488  0.4546
 2128SOL    HW218018   3.336   1.114   7.436 -1.5505  0.8961  1.0215
 2129SOL     OW18019   4.699   4.532  15.985  0.5738 -0.2909  0.0457
 2129SOL    HW118020   4.721   4.619  16.019 -0.4074  0.1355 -0.4021
 2129SOL    HW218021   0.010   4.472  16.039 -0.8161 -2.8276 -1.4676
 2130SOL     OW18022   0.993   4.503   9.088 -0.0786  0.1721 -0.8143
 2130SOL    HW118023   0.928   4.520   9.156  0.7659 -0.1517  0.0712
 2130SOL    HW218024   0.930   4.502   9.016 -0.5096 -2.0267 -0.4008
 2131SOL     OW18025   0.927   4.558   4.589  0.2350  0.6796 -0.4985
 2131SOL    HW118026   0.949   4.515   4.507  1.7731 -0.0579  0.3080
 2131SOL    HW218027   0.838   4.590   4.575  0.9485  3.0997  0.2999
 2132SOL     OW18028   2.431   1.734   5.453  0.0280  0.3365 -0.2652
 2132SOL    HW118029   2.506   1.730   5.513  1.3164  0.8810 -1.8486
 2132SOL    HW218030   2.405   1.641   5.457  3.2305 -0.5709 -0.4612
 2133SOL     OW18031   2.160   3.699   7.629  0.1607 -0.3963 -0.2560
 2133SOL    HW118032   2.241   3.656   7.656  1.1018  1.8763  0.6152
 2133SOL    HW218033   2.136   3.742   7.712 -1.3696  0.5396 -1.1828
 2134SOL     OW18034   2.562   2.381   6.824 -0.6900  0.0985  0.1322
 2134SOL    HW118035   2.592   2.357   6.912 -0.4662 -1.3976 -0.3620
 2134SOL    HW218036   2.504   2.307   6.813  0.8915 -1.2020  0.5630
 2135SOL     OW18037   4.025   4.102  10.881 -0.4016  0.2831  0.2081
 2135SOL    HW118038   3.986   4.095  10.968  0.8684  1.8127  0.8945
 2135SOL    HW218039   4.087   4.029  10.875  0.4886  1.1336 -0.9492
 2136SOL     OW18040   3.212   3.983   6.583  0.5143  0.2734 -0.6435
 2136SOL    HW118041   3.298   4.024   6.592 -0.2175  1.8989 -1.1321
 2136SOL    HW218042   3.244   3.894   6.598  0.2750  0.6069  1.7796
 2137SOL     OW18043   1.017   1.593   9.380 -0.2556 -0.0019  0.0665
 2137SOL    HW118044   0.997   1.521   9.440  0.2490 -1.0303 -1.0082
 2137SOL    HW218045   1.089   1.635   9.426 -0.8112  2.2269 -1.0565
 2138SOL     OW18046   4.173   1.538  10.727  0.5999 -0.5453  0.3599
 2138SOL    HW118047   4.148   1.627  10.704 -1.8584 -1.8725 -2.1545
 2138SOL    HW218048   4.150   1.541  10.819 -1.4034  2.1084 -0.2351
 2139SOL     OW18049   4.129   1.270   6.081 -0.5784 -0.1552  0.0725
 2139SOL    HW118050   4.145   1.282   6.174 -0.2597 -0.4327  0.0553
 2139SOL    HW218051   4.203   1.215   6.055 -0.1067  1.6578 -2.4744
 2140SOL     OW18052   1.807   1.139   7.155  0.2988  0.2063 -0.1463
 2140SOL    HW118053   1.764   1.103   7.077 -1.3762 -0.5732  1.1389
 2140SOL    HW218054   1.732   1.176   7.202  3.0359  2.0366  2.7290
 2141SOL     OW18055   2.325   2.438   3.326  0.0228 -0.5400 -0.0667
 2141SOL    HW118056   2.347   2.346   3.316 -0.4115 -0.8487  1.8246
 2141SOL    HW218057   2.317   2.472   3.237  0.7711 -0.1616  0.0045
 2142SOL     OW18058   1.535   4.458  10.021 -0.0122 -0.3224 -0.5476
 2142SOL    HW118059   1.487   4.399   9.962 -0.4556 -1.3600  0.8462
 2142SOL    HW218060   1.463   4.521  10.029  0.7246  0.2025  2.0153
 2143SOL     OW18061   4.492   2.871   1.986 -0.9853  0.5205  0.4718
 2143SOL    HW118062   4.566   2.932   1.983  0.8606 -1.8801 -2.5694
 2143SOL    HW218063   4.494   2.830   1.900  0.9447 -0.3202  0.9188
 2144SOL     OW18064   2.986   1.174   2.812 -0.7912  1.2177  0.2394
 2144SOL    HW118065   3.004   1.259   2.771 -0.3443  0.4474 -1.1303
 2144SOL    HW218066   2.891   1.169   2.809 -0.9641  3.6989  1.5231
 2145SOL     OW18067   3.260   3.556   7.481 -0.8071  0.0246  0.3763
 2145SOL    HW118068   3.261   3.649   7.457 -0.5867 -0.4309 -1.4367
 2145SOL    HW218069   3.230   3.505   7.406  0.2821  2.3613 -1.6615
 2146SOL     OW18070   3.270   3.259   4.080  0.1558  0.4946  0.1470
 2146SOL    HW118071   3.310   3.345   4.068 -2.3081  2.0794  3.2009
 2146SOL    HW218072   3.293   3.244   4.172  1.0584 -0.9547 -0.3130
 2147SOL     OW18073   2.383   0.489   0.086 -0.2184  0.3985 -0.2103
 2147SOL    HW118074   2.464   0.475   0.136 -0.6804 -1.6529 -0.0513
 2147SOL    HW218075   2.421   0.452   0.006  0.3873 -3.2452  1.7773
 2148SOL     OW18076   4.195   0.330  11.040 -0.5447  0.6097  0.1231
 2148SOL    HW118077   4.242   0.338  11.124 -1.1623  0.7359  0.4564
 2148SOL    HW218078   4.131   0.261  11.058  0.6571 -0.3179  0.8689
 2149SOL     OW18079   1.140   3.029   8.128 -0.2305 -1.0710 -0.0248
 2149SOL    HW118080   1.140   2.936   8.149 -0.3068 -1.1213 -0.2427
 2149SOL    HW218081   1.148   3.027   8.032  1.8702 -0.0932  0.1279
 2150SOL     OW18082   0.463   3.381  13.098 -0.3532 -0.3721 -0.4692
 2150SOL    HW118083   0.512   3.328  13.161 -0.7411  0.8174  0.8162
 2150SOL    HW218084   0.499   3.352  13.014 -1.4731  0.8483 -1.3782
 2151SOL     OW18085   0.661   4.058   1.351 -0.3473 -0.2708 -1.0337
 2151SOL    HW118086   0.728   3.994   1.324 -0.0190 -0.9562  1.3623
 2151SOL    HW218087   0.601   4.057   1.276 -2.0432  0.1540  0.3266
 2152SOL     OW18088   1.780   1.523  15.658 -0.5995  0.1467 -0.5929
 2152SOL    HW118089   1.859   1.555  15.702 -0.0040 -1.9115 -0.1895
 2152SOL    HW218090   1.752   1.606  15.619 -1.0459 -0.7117 -2.0850
 2153SOL     OW18091   4.221   0.416  13.678 -0.2267 -0.4516 -0.3860
 2153SOL    HW118092   4.173   0.495  13.703 -2.3073 -0.7286 -3.5888
 2153SOL    HW218093   4.156   0.388  13.615 -0.2931 -0.0612 -0.4883
 2154SOL     OW18094   0.872   0.698   6.885 -0.6100  0.3995  0.0392
 2154SOL    HW118095   0.867   0.792   6.871 -2.1065  0.0446 -1.8185
 2154SOL    HW218096   0.903   0.692   6.975 -2.6764 -0.3726  0.6917
 2155SOL     OW18097   2.611   3.047   5.342  0.3049  0.0461 -0.5114
 2155SOL    HW118098   2.518   3.028   5.329  0.5967 -1.5943 -0.2458
 2155SOL    HW218099   2.613   3.134   5.303 -1.3820  0.4451  0.2949
 2156SOL     OW18100   1.852   2.612   7.540 -0.1325 -0.6374  0.9180
 2156SOL    HW118101   1.787   2.550   7.574  0.2029  0.1643  3.0163
 2156SOL    HW218102   1.922   2.613   7.606 -2.0777 -1.8172  3.0229
 2157SOL     OW18103   2.776   2.485   2.988  0.0656 -0.3290  0.1355
 2157SOL    HW118104   2.845   2.480   3.055 -0.0802  0.8660  0.3718
 2157SOL    HW218105   2.798   2.567   2.944  2.5321 -0.0619  1.8243
 2158SOL     OW18106   1.740   3.695   4.830 -0.0229 -0.2376 -0.0835
 2158SOL    HW118107   1.826   3.728   4.805  0.4557 -1.9227 -0.6761
 2158SOL    HW218108   1.777   3.625   4.883 -1.5641  0.1966  1.5454
 2159SOL     OW18109   3.540   0.614   7.826  0.0211  0.1527 -0.2747
 2159SOL    HW118110   3.587   0.640   7.746  1.0073  0.6761  0.4749
 2159SOL    HW218111   3.578   0.679   7.885  0.4157 -0.4326  0.1129
 2160SOL     OW18112   1.893   3.442   2.722  0.1569  0.2050  0.0452
 2160SOL    HW118113   1.836   3.441   2.646 -0.0112  1.7316  0.1561
 2160SOL    HW218114   1.882   3.530   2.758 -0.8720  0.2175 -0.2951
 2161SOL     OW18115   3.987   0.720   4.909 -0.0311  0.2165  0.4645
 2161SOL    HW118116   3.973   0.797   4.965  0.0946  0.7738 -0.2734
 2161SOL    HW218117   3.945   0.750   4.829 -0.7526  1.0112  1.1348
 2162SOL     OW18118   2.444   1.191  12.314 -0.3792 -0.1565 -0.3842
 2162SOL    HW118119   2.524   1.213  12.267 -1.5416  0.6789 -1.9520
 2162SOL    HW218120   2.480   1.137  12.385 -2.2315  0.8538  1.3095
 2163SOL     OW18121   2.777   2.167   4.125  0.0602  0.5907  0.2777
 2163SOL    HW118122   2.872   2.162   4.123  0.0489  0.7547 -1.2060
 2163SOL    HW218123   2.770   2.262   4.118  0.1788  0.5687 -0.1601
 2164SOL     OW18124   0.377   3.043   5.603 -0.4145 -0.0890  0.4528
 2164SOL    HW118125   0.373   3.132   5.637  0.1310 -0.3487  1.1900
 2164SOL    HW218126   0.414   3.000   5.680 -1.2495 -4.3796 -1.5123
 2165SOL     OW18127   3.348   0.432   1.706 -0.0730 -0.2785  0.1080
 2165SOL    HW118128   3.429   0.420   1.755  0.6309  0.3351 -0.9104
 2165SOL    HW218129   3.321   0.511   1.752  2.5917  0.1734  0.8615
 2166SOL     OW18130   2.986   3.542   8.944 -0.1714 -0.2806 -0.2175
 2166SOL    HW118131   3.022   3.454   8.933  1.6228  0.3374  0.6740
 2166SOL    HW218132   2.931   3.529   9.021  0.7160 -2.5804  0.0371
 2167SOL     OW18133   2.897   1.625   6.466 -0.1199  0.5394 -0.0355
 2167SOL    HW118134   2.818   1.578   6.438  0.2484  0.5834 -1.1271
 2167SOL    HW218135   2.872   1.668   6.548  0.4880 -0.6052  0.7562
 2168SOL     OW18136   2.211   0.825   8.318 -0.3022  0.6963  0.3186
 2168SOL    HW118137   2.242   0.881   8.247 -1.9179  0.3153 -0.6797
 2168SOL    HW218138   2.249   0.879   8.387 -0.2715 -0.1441  0.9543
 2169SOL     OW18139   2.011   0.133   7.447  0.1871  0.5025 -0.2174
 2169SOL    HW118140   2.051   0.180   7.521 -0.4743 -0.8389  0.9904
 2169SOL    HW218141   1.961   0.066   7.494 -0.6067  1.2729  0.0321
 2170SOL     OW18142   3.021   1.232  17.408  0.2568  0.3984  0.5441
 2170SOL    HW118143   2.935   1.259  17.439 -0.2272  1.0375 -1.3398
 2170SOL    HW218144   3.045   1.314  17.365 -0.4517 -0.0509 -0.7031
 2171SOL     OW18145   4.077   1.975   5.742 -0.3060  0.4382  0.7349
 2171SOL    HW118146   4.051   2.065   5.723 -1.3499  0.0239  0.2063
 2171SOL    HW218147   4.016   1.920   5.693  1.7050  0.3199 -1.6098
 2172SOL     OW18148   2.131   2.179   3.283 -0.2565  0.7663 -0.5923
 2172SOL    HW118149   2.056   2.121   3.297 -1.9167  2.7833 -1.1183
 2172SOL    HW218150   2.097   2.265   3.305  0.2024  0.8652 -0.2765
 2173SOL     OW18151   1.338   2.263  10.177  0.3605 -0.8405  0.1970
 2173SOL    HW118152   1.391   2.304  10.245  0.3460 -1.9393  0.8575
 2173SOL    HW218153   1.372   2.175  10.159  1.7777 -0.2972  0.2448
 2174SOL     OW18154   3.337   4.008   2.167  0.0601  0.4805  0.3016
 2174SOL    HW118155   3.258   4.051   2.136  1.2596  0.7183 -2.4385
 2174SOL    HW218156   3.300   3.956   2.238  2.3825 -0.9995  0.4441
 2175SOL     OW18157   3.004   0.162   4.113  0.8714 -0.3778  0.0521
 2175SOL    HW118158   3.070   0.095   4.092  1.8664  0.3860  0.7950
 2175SOL    HW218159   2.929   0.122   4.067 -0.9457  3.4647 -0.2674
 2176SOL     OW18160   0.148   2.560   2.841 -0.0690 -0.7975 -0.1685
 2176SOL    HW118161   0.180   2.618   2.910 -2.1334  2.6931 -2.1413
 2176SOL    HW218162   0.185   2.479   2.878 -0.4218 -1.0244 -0.3074
 2177SOL     OW18163   0.543   4.229   2.225 -0.4071  0.1125 -0.1790
 2177SOL    HW118164   0.636   4.207   2.223 -0.9594 -2.2806 -0.0896
 2177SOL    HW218165   0.526   4.210   2.318  1.5216 -0.0451  0.1341
 2178SOL     OW18166   2.697   3.344   8.993  0.2326 -0.0963 -0.1495
 2178SOL    HW118167   2.613   3.388   9.007 -0.9085 -2.0644 -0.7905
 2178SOL    HW218168   2.753   3.391   9.054 -2.3908  0.0207  2.1710
 2179SOL     OW18169   0.822   0.888  11.949  0.2381 -0.4257 -0.8015
 2179SOL    HW118170   0.856   0.866  11.863 -0.1262 -2.0124 -0.5359
 2179SOL    HW218171   0.784   0.803  11.969 -3.3230  1.6650  1.5004
 2180SOL     OW18172   0.239   0.192   5.730 -0.0347 -0.8044 -0.2956
 2180SOL    HW118173   0.242   0.142   5.649  0.3667  0.8682 -1.3149
 2180SOL    HW218174   0.332   0.212   5.740 -0.3756  0.4515  0.3532
 2181SOL     OW18175   2.717   1.581  15.624 -0.3736  0.0811  0.6277
 2181SOL    HW118176   2.686   1.598  15.535 -0.0938 -2.0965  0.1302
 2181SOL    HW218177   2.676   1.649  15.678  0.3461  3.5305 -3.1615
 2182SOL     OW18178   3.453   1.652   4.431 -0.1199  0.0302  0.0080
 2182SOL    HW118179   3.452   1.623   4.523 -0.1063 -0.9070 -0.2825
 2182SOL    HW218180   3.448   1.565   4.391 -2.5193 -0.2481  0.8994
 2183SOL     OW18181   0.644   3.622  16.060  0.1176 -0.3840  0.0774
 2183SOL    HW118182   0.647   3.531  16.090 -1.6556  0.2306  2.1314
 2183SOL    HW218183   0.583   3.622  15.987 -0.5846  2.8941  0.6918
 2184SOL     OW18184   2.095   0.581   4.779 -0.4224  0.1161  0.0962
 2184SOL    HW118185   2.014   0.610   4.737 -0.0494 -2.1089 -2.1344
 2184SOL    HW218186   2.082   0.621   4.865  1.6893  0.6681  0.1695
 2185SOL     OW18187   0.932   3.802   3.212 -0.0504 -0.4135 -0.4954
 2185SOL    HW118188   0.934   3.731   3.276 -0.5743 -0.9884 -1.1159
 2185SOL    HW218189   1.024   3.800   3.185 -0.0170 -0.0082 -0.4148
 2186SOL     OW18190   0.950   2.552   3.529  0.3661 -0.4154  0.0695
 2186SOL    HW118191   0.895   2.625   3.502  0.1898 -0.9039 -0.9129
 2186SOL    HW218192   0.917   2.517   3.612 -0.0588  0.2536  0.1770
 2187SOL     OW18193   4.236   4.596   5.562 -0.7639  0.4384  0.4636
 2187SOL    HW118194   4.308   4.649   5.527 -0.2076  0.4912  1.6974
 2187SOL    HW218195   4.247   4.627   5.652 -1.8346  0.6581  0.5156
 2188SOL     OW18196   4.445   2.679   8.186 -0.0955  0.1042  0.3267
 2188SOL    HW118197   4.418   2.588   8.192  0.2310 -0.0447 -0.4018
 2188SOL    HW218198   4.536   2.667   8.214 -0.1826  1.2073  1.0791
 2189SOL     OW18199   1.627   3.177   0.497  0.0505 -0.1924 -0.1456
 2189SOL    HW118200   1.625   3.226   0.579 -1.7460 -0.4819 -0.0235
 2189SOL    HW218201   1.638   3.087   0.529 -3.5194  0.3667  2.6970
 2190SOL     OW18202   1.299   0.330   6.675 -0.2451 -0.3504  0.1829
 2190SOL    HW118203   1.365   0.378   6.625 -2.6208  2.2373 -0.4731
 2190SOL    HW218204   1.303   0.382   6.755  1.9133 -0.0342 -0.1365
 2191SOL     OW18205   2.481   1.231  16.267 -0.3821 -0.1938  0.2935
 2191SOL    HW118206   2.511   1.158  16.320  1.8607 -0.2013 -0.9902
 2191SOL    HW218207   2.561   1.282  16.280  0.6094 -1.2359 -1.7013
 2192SOL     OW18208   1.844   4.004   1.042  0.0520 -0.5857  0.5374
 2192SOL    HW118209   1.817   4.093   1.067  0.7884 -0.2147  0.0097
 2192SOL    HW218210   1.872   3.971   1.127 -0.5560 -1.2917  0.4678
 2193SOL     OW18211   1.545   3.457  13.755 -0.6498 -0.1661 -0.3460
 2193SOL    HW118212   1.587   3.433  13.838  0.0513  1.0101 -0.3586
 2193SOL    HW218213   1.520   3.368  13.728  0.5032 -1.7447  3.7259
 2194SOL     OW18214   1.384   3.457   1.969  0.4800 -0.2371 -0.3758
 2194SOL    HW118215   1.419   3.534   1.925 -0.9157  1.2614  1.1704
 2194SOL    HW218216   1.297   3.495   1.982  0.5126  0.4760 -2.2380
 2195SOL     OW18217   4.564   3.591  14.739  0.2652 -0.1846 -0.3102
 2195SOL    HW118218   4.642   3.568  14.790  0.4107 -0.4298 -0.6383
 2195SOL    HW218219   4.488   3.563  14.790  0.3190  0.4710  0.1133
 2196SOL     OW18220   2.985   3.225   9.540 -0.4141 -0.1051 -0.5615
 2196SOL    HW118221   3.011   3.135   9.518  0.2286 -0.4253  1.4560
 2196SOL    HW218222   3.063   3.265   9.579 -0.7512 -0.5643  0.6040
 2197SOL     OW18223   3.715   2.613   7.393  0.0063 -0.0915 -0.3378
 2197SOL    HW118224   3.662   2.674   7.445 -0.5841 -2.0732  1.3427
 2197SOL    HW218225   3.646   2.560   7.352  3.1751 -4.6545  0.3254
 2198SOL     OW18226   3.365   0.298   3.124 -0.3935 -0.4513  0.3420
 2198SOL    HW118227   3.331   0.241   3.192  0.0884  0.5105  1.3982
 2198SOL    HW218228   3.332   0.259   3.043  1.0332 -0.9020 -0.0191
 2199SOL     OW18229   1.634   2.365   5.722  0.0026 -0.0794  0.2977
 2199SOL    HW118230   1.683   2.397   5.646  3.6404 -1.6423  1.9672
 2199SOL    HW218231   1.614   2.275   5.694 -2.2190  0.5783 -0.2664
 2200SOL     OW18232   4.678   2.874   9.423 -0.2317  0.9588  0.0618
 2200SOL    HW118233   4.650   2.849   9.335 -2.1517 -0.0678  0.9750
 2200SOL    HW218234   4.733   2.799   9.445 -0.2579  1.8920  3.3021
 2201SOL     OW18235   2.591   2.505  13.704  0.4455  0.4715  0.1574
 2201SOL    HW118236   2.666   2.451  13.681 -0.2483 -0.0568 -0.8648
 2201SOL    HW218237   2.568   2.466  13.789  2.1923 -2.0140 -0.5262
 2202SOL     OW18238   1.663   4.019   7.376  0.1003 -0.3124 -0.2693
 2202SOL    HW118239   1.754   4.003   7.401  1.2275  1.2177 -3.4134
 2202SOL    HW218240   1.624   3.941   7.416 -0.0257  0.3796  0.9450
 2203SOL     OW18241   2.093   1.619   9.490 -0.1905  0.0201 -0.5099
 2203SOL    HW118242   2.030   1.690   9.483 -1.4386 -1.1256 -0.9953
 2203SOL    HW218243   2.037   1.542   9.485  1.6661 -1.5116  1.9164
 2204SOL     OW18244   1.756   4.519   6.293 -0.0807 -0.4606 -0.3884
 2204SOL    HW118245   1.823   4.452   6.280 -0.8237 -1.6746  2.0355
 2204SOL    HW218246   1.717   4.530   6.207  0.0412 -0.2844 -0.4206
 2205SOL     OW18247   1.489   2.318  10.402 -0.7171 -0.5942  0.0956
 2205SOL    HW118248   1.501   2.382  10.472 -1.8412  0.1565 -0.4090
 2205SOL    HW218249   1.511   2.240  10.454 -0.0149  1.3632  2.7232
 2206SOL     OW18250   3.806   2.929   8.621  0.1039 -0.0460  0.2013
 2206SOL    HW118251   3.785   2.938   8.713 -0.8449  1.1711 -0.1314
 2206SOL    HW218252   3.728   2.976   8.592  0.9451  1.6380  0.6154
 2207SOL     OW18253   2.837   1.104   7.972  0.6633 -0.0289  0.3578
 2207SOL    HW118254   2.836   1.009   7.963  0.4153  0.0284 -0.2326
 2207SOL    HW218255   2.918   1.116   8.022  1.6387 -0.9327 -1.0165
 2208SOL     OW18256   0.590   4.202  14.088  0.0604 -0.3126  0.7597
 2208SOL    HW118257   0.533   4.242  14.153 -0.1491 -0.9761  0.9801
 2208SOL    HW218258   0.637   4.280  14.058  0.5251 -0.6921  0.5061
 2209SOL     OW18259   3.874   4.060   3.628  0.0754  0.0270 -0.1099
 2209SOL    HW118260   3.846   4.072   3.718  1.6232 -1.4947  0.5702
 2209SOL    HW218261   3.969   4.044   3.626  0.1414  0.4882 -0.6946
 2210SOL     OW18262   3.049   0.672   7.956  0.7131  0.3705 -0.1068
 2210SOL    HW118263   3.137   0.671   7.919  0.2756 -0.7089 -1.1213
 2210SOL    HW218264   3.027   0.579   7.950  0.5472  0.3500  0.9050
 2211SOL     OW18265   0.128   0.889  16.673  0.1090  0.4941 -0.0086
 2211SOL    HW118266   0.195   0.895  16.605  1.2567 -0.0824  1.0549
 2211SOL    HW218267   0.053   0.912  16.618 -0.3602 -2.0335 -0.4042
 2212SOL     OW18268   4.204   3.683   4.960  0.0017  0.6472  0.0446
 2212SOL    HW118269   4.271   3.719   4.903 -1.2851  1.2735 -1.0759
 2212SOL    HW218270   4.233   3.592   4.963 -0.2795  0.5869  0.9715
 2213SOL     OW18271   3.658   0.472   2.690  0.1458  0.0041 -0.1273
 2213SOL    HW118272   3.610   0.397   2.726 -0.4724  1.2049  1.5838
 2213SOL    HW218273   3.747   0.446   2.713  0.7575  2.3487  0.1863
 2214SOL     OW18274   3.087   1.285   2.405  0.1300 -0.1798 -0.9274
 2214SOL    HW118275   3.054   1.233   2.332  0.3733 -1.3556 -0.1884
 2214SOL    HW218276   3.010   1.297   2.460 -0.6923 -1.6337 -1.7906
 2215SOL     OW18277   3.343   1.943   5.385  0.2659 -0.3496  0.0535
 2215SOL    HW118278   3.319   2.025   5.428 -0.5456  0.2928 -1.6285
 2215SOL    HW218279   3.265   1.930   5.331 -0.9192  1.1628  1.3845
 2216SOL     OW18280   4.112   1.848   1.544 -0.1736 -0.4421 -0.2079
 2216SOL    HW118281   4.050   1.909   1.503 -0.1171  0.2571  0.7545
 2216SOL    HW218282   4.143   1.895   1.621 -1.0274 -1.3133  0.6476
 2217SOL     OW18283   0.782   0.248   5.012  0.4005  0.6885  0.1120
 2217SOL    HW118284   0.876   0.241   5.027  0.6123  0.0030 -1.5249
 2217SOL    HW218285   0.756   0.171   5.062 -1.2385  1.7711  0.9574
 2218SOL     OW18286   3.033   0.875  17.123  0.3053 -0.2982  0.0556
 2218SOL    HW118287   2.948   0.889  17.164  1.0424  0.0867  1.4218
 2218SOL    HW218288   3.089   0.870  17.200  2.0495 -0.3406 -1.2340
 2219SOL     OW18289   3.378   2.762   4.700 -0.4616 -0.1786 -0.1926
 2219SOL    HW118290   3.302   2.802   4.658  0.7642  0.0701 -2.2155
 2219SOL    HW218291   3.408   2.699   4.634  0.6755 -0.1626  0.3051
 2220SOL     OW18292   2.304   1.912   8.547 -0.0430  0.6395 -0.1810
 2220SOL    HW118293   2.384   1.873   8.512  0.0029  0.4161  0.1754
 2220SOL    HW218294   2.239   1.842   8.539 -0.2869  0.6184  1.9359
 2221SOL     OW18295   0.176   0.541   3.216 -0.4673 -0.0498 -0.3432
 2221SOL    HW118296   0.170   0.616   3.275 -0.4205  1.1138 -1.8307
 2221SOL    HW218297   0.258   0.505   3.251  0.9090  1.4063 -2.0830
 2222SOL     OW18298   2.241   0.254   3.707 -0.1499  0.0306 -0.1669
 2222SOL    HW118299   2.219   0.327   3.648 -1.0546 -1.2749 -1.4613
 2222SOL    HW218300   2.209   0.172   3.668 -2.1104  0.1793  1.1377
 2223SOL     OW18301   0.733   0.401   1.604 -0.4615 -0.3258  0.1725
 2223SOL    HW118302   0.806   0.373   1.659  0.5907  1.6451 -0.2401
 2223SOL    HW218303   0.772   0.381   1.519 -0.0789 -2.2705  0.8056
 2224SOL     OW18304   3.475   3.774   8.138  0.3363  0.3676  0.6257
 2224SOL    HW118305   3.543   3.838   8.116  1.0581 -0.1527  1.3225
 2224SOL    HW218306   3.469   3.800   8.230 -1.7596 -1.1157  0.9092
 2225SOL     OW18307   1.626   1.684   6.720 -0.1678 -0.0029  0.0731
 2225SOL    HW118308   1.567   1.693   6.794  0.1289  1.0534  0.1861
 2225SOL    HW218309   1.640   1.589   6.724  0.3813  0.0733 -0.0305
 2226SOL     OW18310   3.155   0.824   8.717  0.5774  0.0330 -0.1047
 2226SOL    HW118311   3.147   0.856   8.627  2.2259 -1.3820 -0.7572
 2226SOL    HW218312   3.213   0.749   8.706  0.7421  0.2996 -1.0385
 2227SOL     OW18313   3.413   3.581  16.019  0.9067  0.1782 -0.1291
 2227SOL    HW118314   3.334   3.633  16.006  2.0369  1.9380 -0.0522
 2227SOL    HW218315   3.471   3.642  16.066  0.9331  0.8255 -1.0048
 2228SOL     OW18316   2.599   4.567   1.973 -0.1178  0.0132 -0.3197
 2228SOL    HW118317   2.640   4.653   1.961  0.5561 -0.2775 -0.1220
 2228SOL    HW218318   2.623   4.528   1.888  0.9722  1.0338 -0.4758
 2229SOL     OW18319   4.029   0.691   3.022 -0.5570  0.1173  0.0182
 2229SOL    HW118320   3.954   0.640   3.056 -1.9519  1.9832 -0.2697
 2229SOL    HW218321   4.014   0.693   2.928 -0.6789  1.2964  0.0567
 2230SOL     OW18322   2.523   0.814   6.445  0.2069  0.4886  0.2861
 2230SOL    HW118323   2.583   0.868   6.394 -1.9323  2.5721 -0.0210
 2230SOL    HW218324   2.576   0.796   6.523 -0.1537 -0.5454  0.2882
 2231SOL     OW18325   3.685   4.191   8.702  0.4025 -0.4197  1.1605
 2231SOL    HW118326   3.672   4.231   8.788  1.4017  3.8364 -0.6449
 2231SOL    HW218327   3.600   4.153   8.680  0.5589 -0.3853  0.5062
 2232SOL     OW18328   4.218   3.277   6.948 -0.1932  0.2374  0.0558
 2232SOL    HW118329   4.247   3.365   6.923  0.4709  0.8258  2.8571
 2232SOL    HW218330   4.291   3.219   6.928 -0.2105  0.2002  0.0997
 2233SOL     OW18331   2.124   3.902   0.881  0.5628  0.7664  0.2888
 2233SOL    HW118332   2.201   3.915   0.825  0.6092 -1.6549 -0.2219
 2233SOL    HW218333   2.104   3.810   0.866  3.2772 -0.1111  1.9872
 2234SOL     OW18334   3.161   0.155   7.395 -0.4648 -0.0126  0.1800
 2234SOL    HW118335   3.201   0.068   7.406 -0.5387 -0.1024 -0.2549
 2234SOL    HW218336   3.191   0.175   7.306  0.0860 -1.4424  0.0320
 2235SOL     OW18337   1.032   1.412   8.666  0.4998 -0.0200  0.1304
 2235SOL    HW118338   1.084   1.410   8.747 -0.0428 -0.1171  0.4769
 2235SOL    HW218339   1.100   1.376   8.609  0.2799  1.6203 -1.1493
 2236SOL     OW18340   3.252   3.997   8.859 -0.3442 -0.8312 -0.4641
 2236SOL    HW118341   3.201   3.930   8.904  0.4298  1.2966  3.5012
 2236SOL    HW218342   3.238   3.970   8.768 -1.2647 -0.3494 -0.4657
 2237SOL     OW18343   1.295   2.015   2.481  0.1945  0.6991  0.1640
 2237SOL    HW118344   1.383   2.043   2.458 -0.0886  0.9990 -0.5408
 2237SOL    HW218345   1.316   1.960   2.556  0.7623  0.8181  0.0918
 2238SOL     OW18346   4.111   0.680   3.557  0.1739  0.2879 -0.1884
 2238SOL    HW118347   4.191   0.645   3.594  0.8402 -0.2729 -2.1866
 2238SOL    HW218348   4.050   0.660   3.628 -0.1019 -4.5798 -1.8276
 2239SOL     OW18349   3.687   1.611  16.897 -0.3009 -0.7187  0.3626
 2239SOL    HW118350   3.761   1.628  16.839  0.2173 -3.1775  0.3354
 2239SOL    HW218351   3.671   1.701  16.926 -2.0758 -0.2964 -2.0005
 2240SOL     OW18352   0.938   1.070   1.172  0.2070  0.5070  0.1882
 2240SOL    HW118353   0.957   1.117   1.253  1.2988  0.2472  0.0835
 2240SOL    HW218354   0.953   0.977   1.190  0.0066 -0.0561 -2.6188
 2241SOL     OW18355   2.846   1.419  15.360  0.5442 -0.3842 -0.1078
 2241SOL    HW118356   2.761   1.449  15.328  0.1163 -1.3619  0.1010
 2241SOL    HW218357   2.886   1.504  15.378 -0.9042  0.3637 -0.4773
 2242SOL     OW18358   0.565   4.704   8.882  0.4588 -0.2051 -0.2394
 2242SOL    HW118359   0.520   0.048   8.892  0.9213 -0.0868  0.9561
 2242SOL    HW218360   0.570   4.694   8.787  0.5130 -1.6225 -0.0959
 2243SOL     OW18361   3.478   1.170   3.722  0.0530  0.0906  0.7332
 2243SOL    HW118362   3.537   1.130   3.658 -1.5780 -1.1310 -0.0110
 2243SOL    HW218363   3.421   1.098   3.749  0.8067 -0.0269  2.0314
 2244SOL     OW18364   1.113   1.691  17.566 -0.7649 -0.3516 -0.5640
 2244SOL    HW118365   1.175   1.631  17.610  0.9899  1.8244 -0.0735
 2244SOL    HW218366   1.031   1.659  17.604 -0.7971 -0.6635 -0.8974
 2245SOL     OW18367   1.223   1.417  15.423  0.8079 -0.2033 -0.3511
 2245SOL    HW118368   1.239   1.510  15.407 -2.8506  0.1537 -1.9197
 2245SOL    HW218369   1.128   1.415  15.427  0.8315 -0.7402 -0.0791
 2246SOL     OW18370   2.908   0.453  11.478  0.4947  0.1134 -0.2405
 2246SOL    HW118371   3.003   0.463  11.474  0.4943  0.3761  0.4129
 2246SOL    HW218372   2.877   0.417  11.395 -0.9574  2.7122 -0.8097
 2247SOL     OW18373   3.790   0.753  16.023  0.4325  0.6041 -0.1315
 2247SOL    HW118374   3.701   0.787  16.030  0.3824  0.0879  2.0460
 2247SOL    HW218375   3.816   0.805  15.948  3.1631 -1.0358 -0.3185
 2248SOL     OW18376   3.308   1.111   0.502 -0.0995 -0.4250  0.4075
 2248SOL    HW118377   3.356   1.146   0.427  1.4811 -0.2864  1.4714
 2248SOL    HW218378   3.217   1.119   0.473 -0.4232 -3.6515  0.5443
 2249SOL     OW18379   3.058   0.137   5.622 -0.2648  0.1139 -0.5225
 2249SOL    HW118380   3.124   0.189   5.669 -0.0069 -0.1803 -0.5577
 2249SOL    HW218381   3.065   0.170   5.532 -0.1364  0.3611 -0.4213
 2250SOL     OW18382   1.371   0.153   8.540  0.3353 -0.1704 -0.5769
 2250SOL    HW118383   1.403   0.069   8.507 -0.8160 -0.8390 -0.0157
 2250SOL    HW218384   1.283   0.130   8.571 -0.0233  1.4383 -0.3993
 2251SOL     OW18385   4.026   2.101   3.976  0.1474  0.1821 -0.1508
 2251SOL    HW118386   4.058   2.185   4.009 -1.4132  1.1207 -1.0089
 2251SOL    HW218387   4.096   2.038   3.993  1.3254  1.5663  0.0940
 2252SOL     OW18388   3.361   0.611   5.284  0.2435  0.6290  0.3919
 2252SOL    HW118389   3.417   0.590   5.209 -1.5969 -0.2142 -0.7470
 2252SOL    HW218390   3.276   0.578   5.255  0.6834  0.5080 -0.7700
 2253SOL     OW18391   1.299   0.855   1.083 -0.7105 -0.2629  1.0470
 2253SOL    HW118392   1.311   0.837   0.990 -2.9750 -0.8888  0.8813
 2253SOL    HW218393   1.373   0.800   1.109 -0.7370 -0.9872 -0.3910
 2254SOL     OW18394   1.231   0.460  11.246  0.3630 -1.0642  0.0112
 2254SOL    HW118395   1.178   0.381  11.238 -0.2631 -0.7504  1.0318
 2254SOL    HW218396   1.311   0.419  11.278  1.6755 -0.8141 -2.9784
 2255SOL     OW18397   3.897   0.768   5.838  0.7698  0.2324  0.6329
 2255SOL    HW118398   3.924   0.797   5.751 -0.9593 -2.2060 -0.7220
 2255SOL    HW218399   3.893   0.673   5.828 -0.2599  0.7747 -4.0248
 2256SOL     OW18400   2.711   3.281   9.536  0.7419 -0.1000  0.6933
 2256SOL    HW118401   2.705   3.185   9.544  3.3152 -0.3312 -0.1471
 2256SOL    HW218402   2.806   3.284   9.522  0.1832  0.7523 -3.0170
 2257SOL     OW18403   0.867   1.824   7.776  0.3038 -0.5587  0.1804
 2257SOL    HW118404   0.813   1.864   7.843 -1.8603 -2.4288 -0.4873
 2257SOL    HW218405   0.924   1.764   7.823  1.4691 -0.8319 -1.5540
 2258SOL     OW18406   1.171   1.333  13.132 -0.1305 -0.0764  0.4533
 2258SOL    HW118407   1.137   1.419  13.155  1.0040 -0.3005  3.0652
 2258SOL    HW218408   1.261   1.363  13.117 -0.4563  0.1984 -0.8827
 2259SOL     OW18409   0.507   4.727   8.628  0.0599  0.3559  0.1344
 2259SOL    HW118410   0.443   4.714   8.558  0.1256 -2.7434  0.6700
 2259SOL    HW218411   0.540   0.073   8.600  0.0066 -0.1775 -1.5517
 2260SOL     OW18412   3.592   2.755   6.158 -0.0509 -0.2067 -0.0350
 2260SOL    HW118413   3.672   2.752   6.211 -0.7575  2.5171  1.1710
 2260SOL    HW218414   3.556   2.843   6.170  0.0230  0.0528 -1.7772
 2261SOL     OW18415   0.491   2.866   7.920 -0.0545 -0.2893 -0.1506
 2261SOL    HW118416   0.508   2.829   7.834 -0.7066 -0.8102 -0.0581
 2261SOL    HW218417   0.549   2.811   7.972  1.4358  1.4692  0.0518
 2262SOL     OW18418   4.297   0.587   7.569  0.0463 -0.7610 -0.6017
 2262SOL    HW118419   4.274   0.539   7.489  0.1002  1.5148 -1.9679
 2262SOL    HW218420   4.354   0.657   7.537  1.6989 -1.3188  1.1510
 2263SOL     OW18421   1.747   4.547   8.283 -0.1690 -0.0222 -0.3733
 2263SOL    HW118422   1.784   4.540   8.371 -0.1165 -0.4213 -0.4289
 2263SOL    HW218423   1.753   4.456   8.253  1.5747  0.3949 -1.2815
 2264SOL     OW18424   3.413   2.994  12.056  0.0090  0.0445  0.1042
 2264SOL    HW118425   3.378   2.909  12.030 -0.7005  0.3107  0.2115
 2264SOL    HW218426   3.346   3.016  12.120 -0.5927  0.0818 -0.5384
 2265SOL     OW18427   1.887   0.131  11.399 -0.0740 -0.3054 -1.0077
 2265SOL    HW118428   1.792   0.135  11.399 -0.1566 -2.1542  0.9645
 2265SOL    HW218429   1.915   0.150  11.309 -0.0008  0.8946 -0.7222
 2266SOL     OW18430   2.891   3.693   1.518 -0.1039 -0.6681  0.2800
 2266SOL    HW118431   2.919   3.735   1.599 -1.3360 -0.2668  0.4936
 2266SOL    HW218432   2.855   3.762   1.462 -0.2727 -0.7635  0.2692
 2267SOL     OW18433   2.912   3.758   6.962  0.3142 -0.0138  0.0266
 2267SOL    HW118434   2.880   3.754   6.872 -0.0078 -0.2773  0.1574
 2267SOL    HW218435   2.999   3.718   6.959  1.2433  2.0331 -0.5607
 2268SOL     OW18436   2.847   2.849   5.380  0.6112  0.2075  0.0777
 2268SOL    HW118437   2.780   2.918   5.378  0.7515  0.3545  0.2897
 2268SOL    HW218438   2.881   2.854   5.291  0.1298  1.7081 -0.0338
 2269SOL     OW18439   4.068   0.183  14.299 -0.0654  0.0396  0.0630
 2269SOL    HW118440   4.098   0.229  14.221  1.1308  0.4632  0.7748
 2269SOL    HW218441   4.140   0.220  14.351 -0.5844 -0.0960  0.8876
 2270SOL     OW18442   1.434   4.519  12.222  0.2074  0.4100  0.7504
 2270SOL    HW118443   1.458   4.518  12.315  1.0602 -1.3404  0.5043
 2270SOL    HW218444   1.365   4.453  12.224 -0.5585  1.1952  0.2592
 2271SOL     OW18445   4.336   3.779   1.609 -0.6962  0.2063 -0.4860
 2271SOL    HW118446   4.312   3.871   1.595 -2.9230 -0.4641 -1.1237
 2271SOL    HW218447   4.431   3.780   1.621 -0.7680  0.7541  0.0328
 2272SOL     OW18448   2.558   4.198   3.736  0.0069  0.0521 -0.7808
 2272SOL    HW118449   2.530   4.289   3.720 -3.0729 -0.6412  0.5659
 2272SOL    HW218450   2.636   4.190   3.682 -0.8994 -1.8119 -1.8314
 2273SOL     OW18451   2.292   1.618   4.721  0.3261 -0.1401 -0.2561
 2273SOL    HW118452   2.236   1.620   4.644  1.1697  0.6912 -0.8472
 2273SOL    HW218453   2.278   1.698   4.771  2.0957  1.5174 -2.4653
 2274SOL     OW18454   1.939   1.135   2.955 -0.3498 -0.5729  0.0944
 2274SOL    HW118455   1.925   1.228   2.937 -1.7660 -0.5893  1.1359
 2274SOL    HW218456   1.940   1.092   2.869  0.5078  0.1656 -0.2596
 2275SOL     OW18457   4.595   2.966   4.900 -0.9976  0.0882  0.2403
 2275SOL    HW118458   4.643   2.914   4.835 -0.1700  0.5638  0.4718
 2275SOL    HW218459   4.609   3.058   4.879  2.1687 -0.6487 -0.8430
 2276SOL     OW18460   3.807   4.360  11.545 -0.1022  0.1006 -0.2641
 2276SOL    HW118461   3.843   4.420  11.479  0.5836  0.5382  0.5066
 2276SOL    HW218462   3.798   4.419  11.620 -0.4862  0.8404 -0.8948
 2277SOL     OW18463   3.958   1.808  12.388 -0.1731 -0.2327 -0.2229
 2277SOL    HW118464   3.926   1.814  12.479 -0.2029  3.4976 -0.4783
 2277SOL    HW218465   3.981   1.898  12.367 -2.3077  0.7959  1.8007
 2278SOL     OW18466   2.645   3.873   6.756 -0.2568 -0.6738 -0.5391
 2278SOL    HW118467   2.610   3.792   6.720  0.3552 -1.3192  0.3145
 2278SOL    HW218468   2.568   3.930   6.756 -0.0694 -0.4249 -1.0333
 2279SOL     OW18469   3.813   1.165   2.655  0.3108  0.0195  0.1247
 2279SOL    HW118470   3.825   1.239   2.596 -0.1449  0.0923  0.1260
 2279SOL    HW218471   3.724   1.141   2.630  0.5259  1.2225 -1.7370
 2280SOL     OW18472   1.179   0.486  10.850 -0.3470  0.1619 -0.4624
 2280SOL    HW118473   1.233   0.526  10.782 -0.9483  0.2081 -0.9109
 2280SOL    HW218474   1.169   0.557  10.915  0.7548 -0.2835  0.1930
 2281SOL     OW18475   3.976   0.494  16.817 -0.0161 -0.4712  0.3520
 2281SOL    HW118476   4.054   0.477  16.763  0.1418  0.2151  0.3611
 2281SOL    HW218477   4.027   0.507  16.897  1.1503 -0.9039 -0.3104
 2282SOL     OW18478   2.747   3.698   7.243 -0.5400 -0.3649 -0.0467
 2282SOL    HW118479   2.746   3.603   7.259 -0.1057  0.2142  3.4814
 2282SOL    HW218480   2.804   3.702   7.166 -0.2532  0.3179  0.2036
 2283SOL     OW18481   0.648   1.303   4.468  0.1218  0.3789  0.5467
 2283SOL    HW118482   0.730   1.274   4.429  0.5559  1.8664  0.3589
 2283SOL    HW218483   0.585   1.278   4.400 -0.5750  2.4034  0.4681
 2284SOL     OW18484   3.926   1.528   4.766  0.5446  0.1990 -0.5340
 2284SOL    HW118485   3.870   1.459   4.730  0.8959 -1.3109  1.8483
 2284SOL    HW218486   3.857   1.555   4.826  1.4723 -0.4380  0.8266
 2285SOL     OW18487   1.455   0.983   8.756 -0.1236  0.4244 -0.0118
 2285SOL    HW118488   1.409   0.981   8.840 -0.6794 -2.4009 -0.3658
 2285SOL    HW218489   1.403   0.917   8.709  1.5078 -1.2498  0.5698
 2286SOL     OW18490   3.800   0.334  11.148 -0.5468  0.3521 -0.3685
 2286SOL    HW118491   3.874   0.312  11.205  0.0173  1.9172 -0.5100
 2286SOL    HW218492   3.751   0.396  11.202 -1.5712  0.7294 -1.7160
 2287SOL     OW18493   1.887   2.221  11.082 -0.3442 -0.2218  0.0496
 2287SOL    HW118494   1.808   2.179  11.116  0.2408 -0.3924  1.2042
 2287SOL    HW218495   1.954   2.209  11.149  1.4963  1.1392 -1.5458
 2288SOL     OW18496   4.596   0.516  17.372  0.1306  0.0195  0.1516
 2288SOL    HW118497   4.550   0.600  17.362 -0.4132 -0.2527  0.3664
 2288SOL    HW218498   4.530   0.447  17.368  1.4930 -1.3052  0.4216
 2289SOL     OW18499   3.781   1.349  14.802 -0.0940  0.0209 -0.1230
 2289SOL    HW118500   3.751   1.273  14.852 -0.5034  1.5212  1.9147
 2289SOL    HW218501   3.817   1.297  14.731  1.9185  1.7643 -0.3737
 2290SOL     OW18502   0.164   3.573  10.516  0.2650 -0.4500  0.3335
 2290SOL    HW118503   0.208   3.639  10.461  1.9966 -0.3348  1.8332
 2290SOL    HW218504   0.177   3.595  10.609 -1.7856  2.4099 -0.0625
 2291SOL     OW18505   0.946   3.034   2.387 -0.0516  0.5806  0.3675
 2291SOL    HW118506   0.988   3.056   2.470  0.1546 -3.6876  1.4246
 2291SOL    HW218507   0.973   3.109   2.335 -1.5570  1.3893  0.7618
 2292SOL     OW18508   3.620   3.370   1.340 -0.1318  0.5802 -0.3428
 2292SOL    HW118509   3.551   3.387   1.276 -1.5229  0.3395  1.0839
 2292SOL    HW218510   3.640   3.280   1.313 -3.2929 -0.6659  1.4311
 2293SOL     OW18511   3.024   0.276   4.906  0.5526 -0.3440  0.2892
 2293SOL    HW118512   3.067   0.339   4.847  0.2489 -0.8499 -0.4750
 2293SOL    HW218513   3.088   0.205   4.905 -0.6049 -1.3662 -1.2769
 2294SOL     OW18514   2.216   2.982   2.716  0.3989  0.5187  0.7398
 2294SOL    HW118515   2.180   3.070   2.719  2.1860  1.2725 -0.1521
 2294SOL    HW218516   2.305   2.984   2.681 -0.0284 -1.9363 -0.5267
 2295SOL     OW18517   4.591   4.106   5.148 -0.2944 -1.1036 -0.4126
 2295SOL    HW118518   4.500   4.132   5.162  0.1692 -0.0419  0.5892
 2295SOL    HW218519   4.600   4.044   5.220  1.0477  1.0154  1.2307
 2296SOL     OW18520   2.592   1.700   7.858 -0.4501  0.0318  0.8435
 2296SOL    HW118521   2.632   1.614   7.873 -0.7859 -0.5451 -1.6214
 2296SOL    HW218522   2.583   1.724   7.950  0.4230 -1.9749  1.4555
 2297SOL     OW18523   3.747   1.575   1.883 -0.1068 -0.0975  0.0235
 2297SOL    HW118524   3.814   1.507   1.876  0.6005  0.1482  4.0225
 2297SOL    HW218525   3.787   1.636   1.821  0.8642  0.0050  0.7543
 2298SOL     OW18526   4.723   3.454   9.387  0.0638 -0.0242  0.3364
 2298SOL    HW118527   0.005   3.371   9.345  0.8497  1.3639 -2.0141
 2298SOL    HW218528   4.654   3.488   9.330  0.2600  0.1739  0.2173
 2299SOL     OW18529   1.817   3.651   7.738  0.2079 -0.0524 -0.1175
 2299SOL    HW118530   1.899   3.602   7.749  0.1500 -0.0387  0.3484
 2299SOL    HW218531   1.836   3.728   7.791 -1.3272  0.4151 -0.2479
 2300SOL     OW18532   0.501   1.808   8.255  0.0026  0.0167 -0.9678
 2300SOL    HW118533   0.562   1.868   8.298  0.8348 -2.1777  0.8871
 2300SOL    HW218534   0.454   1.778   8.333 -2.8804  1.2667 -2.2376
 2301SOL     OW18535   3.307   2.641  11.268  0.3679  0.1945  0.2728
 2301SOL    HW118536   3.243   2.580  11.231 -1.3667  1.3132  1.4210
 2301SOL    HW218537   3.333   2.595  11.349  2.8531 -2.0238 -1.7758
 2302SOL     OW18538   1.133   4.145   7.421  0.2671 -0.0380 -0.2435
 2302SOL    HW118539   1.127   4.228   7.374  1.2387 -0.9228 -1.9303
 2302SOL    HW218540   1.198   4.108   7.362  0.9576  0.5331  0.1452
 2303SOL     OW18541   4.168   1.039   3.820 -0.4355 -0.4213  0.3739
 2303SOL    HW118542   4.238   0.974   3.815 -0.5624 -0.5764  0.6647
 2303SOL    HW218543   4.227   1.115   3.813 -0.8779  0.2190  3.6850
 2304SOL     OW18544   4.532   2.323   4.027  0.3038  0.3303  0.1456
 2304SOL    HW118545   4.515   2.294   3.937  1.7911  1.6593 -0.5478
 2304SOL    HW218546   4.600   2.263   4.056 -0.4310 -0.5013  0.1643
 2305SOL     OW18547   2.992   0.961   1.974  0.1546 -0.1293 -0.0670
 2305SOL    HW118548   2.987   0.871   2.005 -1.9046  0.0702  0.1828
 2305SOL    HW218549   3.071   0.993   2.018  0.1994  0.9790 -0.9366
 2306SOL     OW18550   1.818   3.496   3.695  0.4725  0.1815  0.0579
 2306SOL    HW118551   1.751   3.430   3.709  0.7453  0.1985  1.5309
 2306SOL    HW218552   1.854   3.514   3.782  1.1102  0.2693 -0.2210
 2307SOL     OW18553   3.550   3.508   8.461 -0.5214  0.4617 -0.1107
 2307SOL    HW118554   3.527   3.585   8.514 -1.4030 -0.5617  1.0020
 2307SOL    HW218555   3.461   3.486   8.436 -0.1342  0.1361 -1.1863
 2308SOL     OW18556   0.776   3.750   6.386  0.2282 -0.2351 -0.6000
 2308SOL    HW118557   0.831   3.786   6.456  1.0849  0.2034 -1.4940
 2308SOL    HW218558   0.690   3.761   6.425  0.0450  0.0717 -1.0950
 2309SOL     OW18559   2.469   3.795   4.883  0.5427 -0.0764 -0.0049
 2309SOL    HW118560   2.455   3.886   4.909  0.1137  0.0387 -0.6500
 2309SOL    HW218561   2.404   3.785   4.813  0.2862 -0.3280  0.2684
 2310SOL     OW18562   0.851   4.719   4.128 -0.0189  0.2102  0.5113
 2310SOL    HW118563   0.939   4.727   4.092 -0.9601  2.0374 -1.3233
 2310SOL    HW218564   0.861   0.023   4.213 -0.3357  1.4280 -0.0855
 2311SOL     OW18565   2.830   0.849   6.281 -0.5484  0.2723  0.2879
 2311SOL    HW118566   2.825   0.798   6.200 -2.1359  2.0385 -0.7272
 2311SOL    HW218567   2.851   0.785   6.349 -0.8222  0.6763  0.7505
 2312SOL     OW18568   2.885   4.691   5.517  0.3181 -0.0874  0.3614
 2312SOL    HW118569   2.930   0.024   5.561  0.8038 -0.2677  0.1558
 2312SOL    HW218570   2.899   4.707   5.424 -1.3562 -1.8831 -0.1825
 2313SOL     OW18571   0.692   1.034   8.141  0.0743  0.0085  0.2591
 2313SOL    HW118572   0.653   1.049   8.227  0.5929 -0.2109  0.5347
 2313SOL    HW218573   0.768   0.983   8.168  1.2578  0.5430 -2.0338
 2314SOL     OW18574   2.299   0.721  13.636  0.1127 -0.1261  0.0295
 2314SOL    HW118575   2.347   0.753  13.712  0.3463 -0.9205  0.2127
 2314SOL    HW218576   2.364   0.726  13.567 -0.9574  0.4829 -0.9459
 2315SOL     OW18577   2.878   2.392   7.330 -0.0414 -0.1323 -0.2046
 2315SOL    HW118578   2.814   2.359   7.267 -1.7965 -0.5731  1.8167
 2315SOL    HW218579   2.957   2.410   7.279  0.5191 -1.0726  0.3368
 2316SOL     OW18580   0.816   1.007   3.583 -0.3510 -0.0348  0.1494
 2316SOL    HW118581   0.872   1.084   3.573 -0.5580  0.5532  3.5531
 2316SOL    HW218582   0.829   0.969   3.496 -1.0845 -1.8199  0.8128
 2317SOL     OW18583   2.765   1.240   9.220  0.2193  0.2456 -0.1065
 2317SOL    HW118584   2.692   1.194   9.261 -1.1138  0.7154 -1.9557
 2317SOL    HW218585   2.842   1.184   9.231 -0.5377 -0.6173  0.6957
 2318SOL     OW18586   2.156   2.248   7.380  0.1396  0.1694  0.4793
 2318SOL    HW118587   2.189   2.174   7.430 -3.4572 -1.6826  0.0745
 2318SOL    HW218588   2.134   2.308   7.450  0.4414  0.8660 -0.0153
 2319SOL     OW18589   2.797   1.808   7.683  0.3977  0.2357  0.6201
 2319SOL    HW118590   2.801   1.837   7.774 -1.1029  1.3169  0.3495
 2319SOL    HW218591   2.732   1.738   7.688 -0.7025  1.4906  3.4681
 2320SOL     OW18592   2.500   3.820   4.470  0.2225 -0.5749  0.3856
 2320SOL    HW118593   2.575   3.797   4.525  0.6785 -1.0352 -0.4349
 2320SOL    HW218594   2.444   3.748   4.496 -1.7048  0.6329 -0.4312
 2321SOL     OW18595   4.196   3.313   9.114 -0.0427 -0.1544 -0.8268
 2321SOL    HW118596   4.270   3.294   9.172  0.2613  0.7363 -0.9357
 2321SOL    HW218597   4.234   3.378   9.056  1.5818  0.6925  1.2138
 2322SOL     OW18598   0.752   3.734  13.229  0.4064  0.1153 -0.0663
 2322SOL    HW118599   0.785   3.691  13.308  0.5577 -0.6258 -0.5355
 2322SOL    HW218600   0.830   3.751  13.176  0.5738  0.1320  0.1851
 2323SOL     OW18601   2.594   3.343   1.528 -0.0829 -0.6490 -0.7219
 2323SOL    HW118602   2.539   3.399   1.582  1.0958 -2.4218  2.3304
 2323SOL    HW218603   2.584   3.392   1.446 -0.1157  2.0510  0.8946
 2324SOL     OW18604   1.706   3.822   3.485  0.0503  0.0812  0.4516
 2324SOL    HW118605   1.792   3.821   3.527  0.5108  0.3631 -0.4782
 2324SOL    HW218606   1.706   3.903   3.433 -0.1554  0.8581  1.6557
 2325SOL     OW18607   3.717   3.176   3.953  0.5117  0.1605  0.5622
 2325SOL    HW118608   3.759   3.092   3.969 -1.0910 -0.5830  0.8687
 2325SOL    HW218609   3.709   3.161   3.859 -2.2527 -2.4665  1.1987
 2326SOL     OW18610   2.594   0.384   4.173  0.1732 -0.5535  0.0631
 2326SOL    HW118611   2.680   0.341   4.176  0.2987 -0.4209 -1.4315
 2326SOL    HW218612   2.555   0.344   4.250 -1.6551 -0.5151 -0.8466
 2327SOL     OW18613   2.235   3.765   4.740 -0.3329  0.1071  0.1112
 2327SOL    HW118614   2.188   3.695   4.786  1.4747 -0.6650  0.8034
 2327SOL    HW218615   2.176   3.840   4.740  0.4382  0.7186  0.7056
 2328SOL     OW18616   0.120   2.898   0.503  0.2334  0.3400  0.3406
 2328SOL    HW118617   0.024   2.894   0.504  0.2889 -0.7576  0.0550
 2328SOL    HW218618   0.134   2.913   0.597  2.7227 -0.3395  0.0743
 2329SOL     OW18619   0.381   3.198   6.025  0.1082  0.4146 -0.1547
 2329SOL    HW118620   0.402   3.243   6.106 -1.0663  1.1619 -0.2671
 2329SOL    HW218621   0.408   3.108   6.042 -2.9334 -0.7994 -1.7277
 2330SOL     OW18622   4.579   3.781  11.309 -0.4864 -0.6430  0.0646
 2330SOL    HW118623   4.598   3.724  11.235  0.7767  0.3070 -0.3430
 2330SOL    HW218624   4.542   3.854  11.259  0.0308 -0.4522 -0.0452
 2331SOL     OW18625   1.578   0.760  11.521 -0.0930 -0.1931  0.4092
 2331SOL    HW118626   1.504   0.699  11.527  0.3671 -0.6185  1.7781
 2331SOL    HW218627   1.537   0.845  11.501 -2.2658 -1.2863  0.1452
 2332SOL     OW18628   0.108   0.819  14.887  0.5754 -0.6877  0.3230
 2332SOL    HW118629   0.145   0.749  14.941  1.7147 -0.2423  0.1143
 2332SOL    HW218630   0.142   0.803  14.799  0.1344 -1.5965  0.3190
 2333SOL     OW18631   2.513   1.473   5.432 -0.0605 -0.3338 -0.3138
 2333SOL    HW118632   2.577   1.412   5.469  0.1521  1.1702  1.8051
 2333SOL    HW218633   2.570   1.529   5.379  0.1036 -0.9822 -0.8232
 2334SOL     OW18634   4.151   0.272   8.085 -0.1618 -0.3987  0.8757
 2334SOL    HW118635   4.149   0.243   7.994 -0.7173  1.7417  0.1896
 2334SOL    HW218636   4.085   0.217   8.127  0.1510 -2.2460 -1.0642
 2335SOL     OW18637   1.931   4.718  17.121 -0.4148 -0.1318  0.5802
 2335SOL    HW118638   2.017   4.678  17.129 -0.1328  0.0665 -1.3135
 2335SOL    HW218639   1.875   4.650  17.157  0.1305 -0.7942  0.1832
 2336SOL     OW18640   0.841   4.603   7.047 -0.0434 -0.2581 -0.1168
 2336SOL    HW118641   0.898   4.590   6.971  1.7477 -0.6164  1.2927
 2336SOL    HW218642   0.858   4.518   7.086 -0.8214  0.9965  2.9941
 2337SOL     OW18643   1.096   0.681   2.866 -0.1193  0.0266  0.3011
 2337SOL    HW118644   1.091   0.761   2.813 -1.1996 -0.7400 -0.7559
 2337SOL    HW218645   1.013   0.684   2.915 -0.4391 -1.7354 -0.1368
 2338SOL     OW18646   3.465   2.124   3.069 -0.2049  0.5543 -0.1313
 2338SOL    HW118647   3.514   2.115   3.151 -0.7137 -4.0123 -0.3436
 2338SOL    HW218648   3.411   2.045   3.073 -1.2939  1.3118  0.1901
 2339SOL     OW18649   1.582   0.130   4.502  0.2181 -0.1576  0.2733
 2339SOL    HW118650   1.579   0.186   4.424 -1.6991  1.8368  1.8014
 2339SOL    HW218651   1.488   0.112   4.496  0.0964  0.0154  1.6087
 2340SOL     OW18652   1.900   3.654   6.284 -0.1926  0.0607  0.4005
 2340SOL    HW118653   1.901   3.678   6.191 -1.4078  0.0934  0.3863
 2340SOL    HW218654   1.818   3.699   6.308 -1.2087 -0.5385 -1.9125
 2341SOL     OW18655   3.265   1.660   3.611 -0.0412 -0.4016  0.1841
 2341SOL    HW118656   3.257   1.666   3.706  0.5173  1.4633  0.1223
 2341SOL    HW218657   3.257   1.565   3.612  1.7458 -0.5461  1.5669
 2342SOL     OW18658   1.683   2.723   4.591 -0.0664 -0.0622 -0.0345
 2342SOL    HW118659   1.727   2.760   4.667  1.3891 -1.9603  0.0214
 2342SOL    HW218660   1.611   2.782   4.565  1.2318  0.1741 -3.1105
 2343SOL     OW18661   4.459   3.525   9.335 -0.7005 -0.1151  0.5070
 2343SOL    HW118662   4.400   3.548   9.406  1.0313 -0.0673  1.9203
 2343SOL    HW218663   4.431   3.434   9.324 -1.7153  0.1822  0.6333
 2344SOL     OW18664   1.264   0.597   9.587 -0.0071 -0.0294  0.4716
 2344SOL    HW118665   1.202   0.524   9.591  0.1241 -0.2162 -0.9039
 2344SOL    HW218666   1.342   0.549   9.614 -1.5920 -1.8024  1.9089
 2345SOL     OW18667   3.149   3.685   3.475  0.3517 -0.3819 -0.5184
 2345SOL    HW118668   3.225   3.629   3.460  2.5202  1.8867  2.1328
 2345SOL    HW218669   3.088   3.661   3.404  0.8833  1.6784 -1.6749
 2346SOL     OW18670   3.633   2.986  15.213  0.1615  0.2527  0.6642
 2346SOL    HW118671   3.706   2.925  15.217 -2.1940 -2.4918  1.3973
 2346SOL    HW218672   3.565   2.944  15.266  1.0716  1.3363  2.6682
 2347SOL     OW18673   4.621   0.135   6.396 -0.6091  0.2910 -0.6853
 2347SOL    HW118674   4.619   0.230   6.409 -2.9664  0.2232 -0.5748
 2347SOL    HW218675   4.599   0.138   6.303 -0.9359  0.5329 -0.6026
 2348SOL     OW18676   2.311   1.209   5.688  0.2658  0.2755 -0.8375
 2348SOL    HW118677   2.297   1.147   5.759 -3.8089  0.4574 -1.5182
 2348SOL    HW218678   2.407   1.202   5.683  0.4386  1.4350  1.2084
 2349SOL     OW18679   2.804   0.287   7.743 -0.2007 -0.8148 -0.6569
 2349SOL    HW118680   2.722   0.270   7.790 -0.0492 -1.0944 -0.4967
 2349SOL    HW218681   2.791   0.226   7.670  0.7752 -1.5465 -0.2113
 2350SOL     OW18682   1.088   1.104  13.053  0.7926  0.1866  0.0202
 2350SOL    HW118683   1.030   1.072  13.122  0.5837 -1.8194 -1.1007
 2350SOL    HW218684   1.111   1.194  13.077 -0.1019  0.8126 -1.4501
 2351SOL     OW18685   1.987   1.002   0.430 -0.8675  0.5197 -0.4580
 2351SOL    HW118686   2.019   1.092   0.428 -2.8919  1.2613  0.2546
 2351SOL    HW218687   2.064   0.962   0.391 -1.2553 -1.0112  0.3858
 2352SOL     OW18688   1.328   3.428   5.316 -0.4670  0.0586 -0.8569
 2352SOL    HW118689   1.267   3.355   5.326  1.0934 -1.2379 -0.8704
 2352SOL    HW218690   1.308   3.469   5.400 -0.1884  0.7673 -1.1389
 2353SOL     OW18691   0.046   1.142   4.306  0.1075 -0.8123 -0.4580
 2353SOL    HW118692   4.695   1.117   4.290 -0.7142  1.1072  1.2324
 2353SOL    HW218693   0.063   1.160   4.213  2.7234  1.6759  0.5022
 2354SOL     OW18694   3.941   3.549   8.532 -0.1494  0.1545 -0.2284
 2354SOL    HW118695   3.979   3.464   8.510 -0.6686 -0.5417  1.5378
 2354SOL    HW218696   3.964   3.546   8.625  3.5080  0.3873 -1.1213
 2355SOL     OW18697   1.425   0.029   6.861 -0.0017 -0.3881  0.0991
 2355SOL    HW118698   1.501   0.082   6.835  1.3748 -2.1908  0.4598
 2355SOL    HW218699   1.355   0.058   6.803  0.3963 -0.9245 -0.6586
 2356SOL     OW18700   1.432   0.481  14.140  0.3462 -0.3139  0.3214
 2356SOL    HW118701   1.368   0.520  14.081  0.0307 -2.0805 -0.5053
 2356SOL    HW218702   1.385   0.498  14.222 -0.0528 -0.2143  0.0697
 2357SOL     OW18703   1.031   0.806   8.597  0.2610 -0.3447  0.3628
 2357SOL    HW118704   1.124   0.816   8.576  0.1732  0.4126  0.3469
 2357SOL    HW218705   0.997   0.894   8.580 -0.1340 -0.3831  0.9685
 2358SOL     OW18706   1.388   0.838   7.040 -0.4817 -0.1470  0.1614
 2358SOL    HW118707   1.453   0.856   6.972  0.6797 -1.8731  0.8069
 2358SOL    HW218708   1.423   0.757   7.077  1.1369  0.6774  0.4608
 2359SOL     OW18709   0.674   4.638   6.544 -0.7333 -0.1497 -0.5450
 2359SOL    HW118710   0.590   4.597   6.567 -0.9077 -0.5909 -1.9346
 2359SOL    HW218711   0.698   4.650   6.636 -1.9297  1.1024 -0.3973
 2360SOL     OW18712   3.368   1.618  17.008 -0.6622  0.3374 -0.2186
 2360SOL    HW118713   3.346   1.705  17.040 -0.3806 -0.9835  3.5098
 2360SOL    HW218714   3.398   1.574  17.087  3.2615  2.1983 -0.6369
 2361SOL     OW18715   1.320   1.107   9.528  0.5675 -0.7590 -0.9893
 2361SOL    HW118716   1.319   1.161   9.607 -0.6068 -0.5082 -1.1877
 2361SOL    HW218717   1.281   1.028   9.565  1.5244 -0.8169 -0.0872
 2362SOL     OW18718   3.610   1.884  12.834  0.5489  0.9818 -0.0750
 2362SOL    HW118719   3.590   1.794  12.807  1.9483  0.8633 -0.7311
 2362SOL    HW218720   3.612   1.916  12.744  0.2436  0.0122 -0.4329
 2363SOL     OW18721   0.886   4.437   4.025  0.6602 -0.4886 -0.4545
 2363SOL    HW118722   0.842   4.418   3.942  1.1164  1.6049 -1.1564
 2363SOL    HW218723   0.874   4.531   4.037  1.5009 -0.4049 -0.2363
 2364SOL     OW18724   1.465   2.730   8.435  0.4105  0.2018  0.6833
 2364SOL    HW118725   1.548   2.777   8.436  0.6976 -0.2824 -0.9330
 2364SOL    HW218726   1.434   2.758   8.349  1.6023 -0.3957  0.0684
 2365SOL     OW18727   3.068   4.207   6.127  0.5151 -0.1011 -0.2347
 2365SOL    HW118728   3.127   4.147   6.172 -0.6384 -1.8017 -0.9543
 2365SOL    HW218729   3.132   4.244   6.067 -0.5937 -1.1616 -2.0841
 2366SOL     OW18730   3.762   2.975  13.572  0.0521 -0.3071  0.2812
 2366SOL    HW118731   3.798   3.055  13.533 -0.3716  0.2573  1.0360
 2366SOL    HW218732   3.685   2.959  13.517  0.3394 -0.6266 -0.0246
 2367SOL     OW18733   3.950   3.612   0.043  0.1669  0.0458  0.2885
 2367SOL    HW118734   3.864   3.576   0.022 -0.2274  0.7566  0.6679
 2367SOL    HW218735   3.945   3.652   0.130  4.9355  1.2261  0.0329
 2368SOL     OW18736   4.406   3.323  16.501 -0.1346  0.8658  0.7671
 2368SOL    HW118737   4.343   3.273  16.449  0.5837  0.6559  0.1037
 2368SOL    HW218738   4.342   3.360  16.562  0.1542 -0.9151  2.1505
 2369SOL     OW18739   0.666   4.018   1.635  0.5083 -0.1255  0.5406
 2369SOL    HW118740   0.661   4.102   1.681  0.7883  0.1976 -0.0219
 2369SOL    HW218741   0.660   4.044   1.543  1.6032  1.8317  1.0142
 2370SOL     OW18742   0.321   0.493   4.508  0.2486  0.4528  0.4305
 2370SOL    HW118743   0.340   0.464   4.418 -0.5145  0.0076  0.4075
 2370SOL    HW218744   0.299   0.409   4.548  1.1681  0.9315  1.9371
 2371SOL     OW18745   2.093   4.072  10.577 -0.1425  0.4616  0.7554
 2371SOL    HW118746   2.125   4.113  10.496  0.5635 -1.5905  0.0125
 2371SOL    HW218747   2.123   4.126  10.650  0.4137  0.7837  0.2914
 2372SOL     OW18748   2.620   3.253   4.990 -0.6225  0.1451  0.5415
 2372SOL    HW118749   2.649   3.254   5.081 -4.3223  1.2755  1.7305
 2372SOL    HW218750   2.619   3.347   4.971 -0.0259  0.0829  0.2203
 2373SOL     OW18751   1.095   4.436   1.099  0.2085 -0.2389 -0.3443
 2373SOL    HW118752   1.017   4.381   1.096 -0.9714  1.4282 -0.3468
 2373SOL    HW218753   1.108   4.435   1.194  0.6674 -4.1823 -0.4521
 2374SOL     OW18754   4.680   3.026  14.270 -0.4195 -0.1886  0.6370
 2374SOL    HW118755   4.671   3.081  14.192 -2.4476  0.8024  1.5817
 2374SOL    HW218756   4.694   3.079  14.348  1.5312  0.5758 -0.2318
 2375SOL     OW18757   4.103   3.303  10.542  0.6535  0.3733 -0.3155
 2375SOL    HW118758   4.144   3.219  10.523  2.2214  1.2848 -0.9862
 2375SOL    HW218759   4.081   3.288  10.634  1.7505 -1.5534 -0.3623
 2376SOL     OW18760   1.153   0.518  16.012 -0.0182  0.2579 -0.4724
 2376SOL    HW118761   1.087   0.581  16.041 -0.4061 -0.1227 -0.5210
 2376SOL    HW218762   1.186   0.483  16.095  1.5860  1.6593 -0.5188
 2377SOL     OW18763   4.500   2.631   7.061 -0.5643 -0.1343  0.0786
 2377SOL    HW118764   4.532   2.591   7.142  1.7173  0.4684 -0.5252
 2377SOL    HW218765   4.489   2.720   7.093 -4.3241 -1.0410  1.2802
 2378SOL     OW18766   3.351   3.481   3.471 -0.4574 -0.2709  0.4155
 2378SOL    HW118767   3.418   3.546   3.451 -1.0148  0.0502 -0.4381
 2378SOL    HW218768   3.385   3.405   3.425  1.5247  0.5322  0.5844
 2379SOL     OW18769   1.557   2.971   0.038 -0.0274 -0.0718  0.2553
 2379SOL    HW118770   1.635   3.017   0.069  1.2939 -1.3423 -1.1858
 2379SOL    HW218771   1.502   3.014   0.103  2.1030  1.4541  1.0403
 2380SOL     OW18772   3.812   3.557   6.731 -0.0912 -0.4043 -0.3727
 2380SOL    HW118773   3.790   3.617   6.660  1.3303  1.0735  0.4086
 2380SOL    HW218774   3.828   3.475   6.684 -0.3652  0.1194 -1.3838
 2381SOL     OW18775   2.384   0.720   9.372  0.0280 -0.0798  0.1643
 2381SOL    HW118776   2.426   0.785   9.316 -3.2822  1.5857 -0.3951
 2381SOL    HW218777   2.413   0.636   9.336  0.3178 -0.6831  1.7814
 2382SOL     OW18778   0.805   0.387  14.990  0.6655 -0.1660 -0.0520
 2382SOL    HW118779   0.790   0.417  14.900 -0.7059  0.5576  0.4170
 2382SOL    HW218780   0.881   0.442  15.008  0.5876 -0.8659  2.4598
 2383SOL     OW18781   3.983   1.391   6.298 -0.5272  0.2638 -0.0195
 2383SOL    HW118782   3.911   1.331   6.275 -0.0995  0.0363 -0.7917
 2383SOL    HW218783   4.022   1.356   6.378 -0.1041  1.2805  0.2136
 2384SOL     OW18784   2.690   1.038   8.380 -0.0955 -0.2277 -0.0475
 2384SOL    HW118785   2.750   1.032   8.454 -1.0985  0.1798  0.8007
 2384SOL    HW218786   2.697   0.951   8.342  0.3360  0.1554 -0.8524
 2385SOL     OW18787   3.257   3.978   2.656 -0.3811  0.2020 -0.4108
 2385SOL    HW118788   3.270   3.926   2.736  0.2203 -0.0631 -0.6773
 2385SOL    HW218789   3.339   4.026   2.644  0.0210 -0.9227 -2.1784
 2386SOL     OW18790   0.390   2.111   1.864  0.0087  0.2148  0.0125
 2386SOL    HW118791   0.473   2.154   1.882  0.3511 -0.1843 -0.6197
 2386SOL    HW218792   0.340   2.151   1.935  0.7829  3.2703 -1.1515
 2387SOL     OW18793   4.692   3.167  12.248 -0.6452 -0.4912 -0.1090
 2387SOL    HW118794   0.034   3.200  12.209 -0.9349  0.9646  0.4967
 2387SOL    HW218795   4.725   3.092  12.297 -1.0470  0.2717  1.3305
 2388SOL     OW18796   2.186   1.138   6.766  0.1774  0.3816 -0.1860
 2388SOL    HW118797   2.130   1.060   6.770  2.3149 -1.1178 -0.0141
 2388SOL    HW218798   2.176   1.176   6.854  1.3765  0.4786 -0.0954
 2389SOL     OW18799   3.985   3.553   2.348 -0.0558 -0.1660 -0.1625
 2389SOL    HW118800   3.932   3.535   2.271  0.0080 -0.8579 -0.0413
 2389SOL    HW218801   4.062   3.497   2.334  0.9555  1.2623 -0.3704
 2390SOL     OW18802   2.336   1.271   2.787 -0.4586  0.1999  0.1914
 2390SOL    HW118803   2.293   1.335   2.844  0.3106 -1.8783  3.0678
 2390SOL    HW218804   2.429   1.295   2.797 -0.4409 -0.2817  1.1427
 2391SOL     OW18805   3.694   3.071   9.860 -0.1444 -0.0026  0.2222
 2391SOL    HW118806   3.713   3.070   9.954  0.9106 -1.4952 -0.0037
 2391SOL    HW218807   3.763   3.123   9.819 -0.9468  1.3681  0.6364
 2392SOL     OW18808   3.203   3.371   6.492 -0.0174  0.9165 -0.4191
 2392SOL    HW118809   3.157   3.299   6.535  2.4943 -0.0521  0.6715
 2392SOL    HW218810   3.290   3.351   6.528  0.5577  3.2720 -0.5226
 2393SOL     OW18811   3.070   2.944   6.697 -0.0866 -0.2783 -0.3964
 2393SOL    HW118812   3.061   2.869   6.638 -0.7513 -0.5282  0.0237
 2393SOL    HW218813   2.989   2.933   6.747  1.0283  1.0712  1.7223
 2394SOL     OW18814   1.419   2.764  17.567  0.5326 -0.2644  0.2181
 2394SOL    HW118815   1.361   2.839  17.554 -2.0541 -2.0230  1.7456
 2394SOL    HW218816   1.474   2.805  17.635  0.9553  0.4224 -0.5284
 2395SOL     OW18817   3.463   3.540   6.747 -0.0355  0.2734 -0.0609
 2395SOL    HW118818   3.448   3.449   6.773  0.7698  0.6017  1.5704
 2395SOL    HW218819   3.531   3.565   6.808  0.8112 -1.4995 -0.2888
 2396SOL     OW18820   4.150   4.425  15.164  0.2442 -0.2147 -0.2777
 2396SOL    HW118821   4.075   4.369  15.144 -0.2503 -0.0289  1.0521
 2396SOL    HW218822   4.191   4.410  15.079  2.3065  1.9662  0.3132
 2397SOL     OW18823   3.666   1.523   8.393  0.3045  0.1480 -0.3039
 2397SOL    HW118824   3.624   1.520   8.307  0.6139 -0.7316 -0.4256
 2397SOL    HW218825   3.747   1.482   8.364  0.0447  0.4025 -1.3991
 2398SOL     OW18826   0.894   3.909  11.510 -0.1515 -0.1254  0.2957
 2398SOL    HW118827   0.916   3.996  11.545 -0.4521 -0.4588  1.3290
 2398SOL    HW218828   0.882   3.934  11.419  1.9489  0.8461  0.2771
 2399SOL     OW18829   2.295   1.214  11.902  0.2147  0.0488 -0.4019
 2399SOL    HW118830   2.297   1.181  11.992  1.1992 -0.6047 -0.6578
 2399SOL    HW218831   2.389   1.230  11.889  0.2822 -1.1842 -1.3813
 2400SOL     OW18832   2.953   2.757   3.496  0.4216 -0.1161  0.1332
 2400SOL    HW118833   2.869   2.790   3.463 -0.3659 -1.4042  0.8578
 2400SOL    HW218834   2.933   2.669   3.526 -1.0954 -0.2950 -1.4149
 2401SOL     OW18835   0.652   0.496   7.292  0.1519 -0.1372 -0.4014
 2401SOL    HW118836   0.601   0.573   7.319  0.2191 -0.2385  0.0250
 2401SOL    HW218837   0.706   0.528   7.220  0.8316  2.0286  1.0623
 2402SOL     OW18838   3.141   0.994   1.704 -0.1672  0.0868  0.2342
 2402SOL    HW118839   3.086   0.964   1.776 -0.0744 -1.5465 -0.3708
 2402SOL    HW218840   3.230   0.988   1.739  0.1803 -4.6730 -1.3578
 2403SOL     OW18841   2.988   0.193   3.687  0.6307  0.3493 -0.2820
 2403SOL    HW118842   2.975   0.167   3.596 -0.2297 -1.1851  0.2788
 2403SOL    HW218843   2.926   0.266   3.688  0.2114 -0.0000 -0.6342
 2404SOL     OW18844   0.142   2.882   4.421 -0.4399 -0.0081 -0.0624
 2404SOL    HW118845   0.114   2.794   4.449 -0.5011  0.4250  1.2614
 2404SOL    HW218846   0.233   2.854   4.411 -0.6710 -0.7985  0.0517
 2405SOL     OW18847   2.111   3.671  11.321 -0.0803 -0.1188 -0.5769
 2405SOL    HW118848   2.188   3.681  11.377  0.3454 -3.1190 -0.6233
 2405SOL    HW218849   2.108   3.576  11.313 -1.6482 -0.1883  0.8766
 2406SOL     OW18850   1.414   3.218   6.591  0.1674 -0.4092  0.0704
 2406SOL    HW118851   1.504   3.237   6.567 -0.3574  0.5477 -1.1249
 2406SOL    HW218852   1.423   3.168   6.672  0.9360 -0.0136  0.2326
 2407SOL     OW18853   1.853   0.238   5.690  0.0642  0.1511  0.7287
 2407SOL    HW118854   1.918   0.303   5.663 -0.0642 -0.5841 -1.3815
 2407SOL    HW218855   1.771   0.286   5.685  0.5489  0.9806  0.6715
 2408SOL     OW18856   4.566   4.583   3.306  0.2159 -0.1856 -0.4481
 2408SOL    HW118857   4.530   4.519   3.367  0.6063  1.4383  1.4770
 2408SOL    HW218858   4.573   4.533   3.224  0.7200  1.5455 -1.4639
 2409SOL     OW18859   1.503   4.061   0.734  0.1566 -0.4473  0.0160
 2409SOL    HW118860   1.428   4.038   0.790  0.8028  1.7563  1.7803
 2409SOL    HW218861   1.466   4.051   0.646 -0.3590 -0.9648  0.2864
 2410SOL     OW18862   3.060   0.322   5.391  0.4472  0.0740 -0.7752
 2410SOL    HW118863   3.015   0.288   5.313 -0.4116 -1.6424  0.4639
 2410SOL    HW218864   3.119   0.386   5.353  0.1891  0.9811  0.3428
 2411SOL     OW18865   1.818   0.166   6.149 -0.0827  0.2210 -0.5718
 2411SOL    HW118866   1.819   0.111   6.071  1.5863 -0.9435  0.2725
 2411SOL    HW218867   1.907   0.147   6.179 -0.7912 -1.6665  0.3170
 2412SOL     OW18868   2.454   0.327  10.972  0.3266 -0.5250  0.1152
 2412SOL    HW118869   2.528   0.317  10.913  1.4146  1.5108  1.1694
 2412SOL    HW218870   2.387   0.344  10.905  0.1215  1.4646  0.8523
 2413SOL     OW18871   2.522   2.839   9.321 -0.0480 -0.1769 -0.2206
 2413SOL    HW118872   2.452   2.802   9.266  1.0582 -3.7532  0.8047
 2413SOL    HW218873   2.568   2.761   9.352 -1.0941 -0.2232  1.2055
 2414SOL     OW18874   3.863   1.976   3.228 -0.4422  0.4378  0.3010
 2414SOL    HW118875   3.894   1.918   3.158  0.2307  0.1177  0.8691
 2414SOL    HW218876   3.932   2.042   3.226  0.9682 -1.0249  0.3059
 2415SOL     OW18877   4.352   3.442   8.570 -0.2116 -0.7281  0.0902
 2415SOL    HW118878   4.383   3.452   8.480 -0.2277 -1.3416  0.0118
 2415SOL    HW218879   4.275   3.387   8.554  0.7721 -1.8815 -0.6459
 2416SOL     OW18880   2.904   3.612  17.044 -0.0285  0.1784 -0.1891
 2416SOL    HW118881   2.827   3.588  17.096  0.6208 -0.9368  0.2483
 2416SOL    HW218882   2.876   3.568  16.964  0.6490  1.1991 -0.9789
 2417SOL     OW18883   0.584   0.169   3.740  0.0539  0.5153 -0.5556
 2417SOL    HW118884   0.669   0.175   3.696  1.3570  0.9912  2.0202
 2417SOL    HW218885   0.573   0.247   3.794 -0.1043 -0.1236  0.3387
 2418SOL     OW18886   2.941   1.233  11.546 -0.5429 -0.1807  0.4552
 2418SOL    HW118887   3.021   1.212  11.594 -0.2319 -2.0222 -0.8665
 2418SOL    HW218888   2.892   1.152  11.559 -0.0519  0.0941  4.0743
 2419SOL     OW18889   4.236   2.076   7.743 -0.2751 -0.1767 -0.0157
 2419SOL    HW118890   4.240   2.012   7.672 -0.9860  0.6915 -0.8453
 2419SOL    HW218891   4.231   2.009   7.810  1.4587  1.4146  1.6951
 2420SOL     OW18892   4.397   2.208  12.456 -0.1687  0.3609 -0.3444
 2420SOL    HW118893   4.356   2.131  12.416  0.3904  0.4343 -1.0572
 2420SOL    HW218894   4.348   2.216  12.538 -2.7852  1.1628 -2.0133
 2421SOL     OW18895   0.243   0.759   2.862  0.1851  0.3076 -0.0541
 2421SOL    HW118896   0.243   0.752   2.767  0.7935 -1.6823  0.0892
 2421SOL    HW218897   0.203   0.680   2.898  1.3718 -0.1806  0.1835
 2422SOL     OW18898   0.175   0.930   4.433  0.1389 -0.6541  0.0837
 2422SOL    HW118899   0.127   0.994   4.380  1.6042  1.1052  0.8643
 2422SOL    HW218900   0.209   0.994   4.497  0.5623 -0.5445 -0.2537
 2423SOL     OW18901   1.185   3.813   7.118  0.4986  0.1793 -0.1028
 2423SOL    HW118902   1.252   3.763   7.072  0.9198  0.2144  0.4678
 2423SOL    HW218903   1.172   3.773   7.204 -1.7765  2.3882  0.5865
 2424SOL     OW18904   2.402   1.033   7.813  0.4152  0.0843  0.3093
 2424SOL    HW118905   2.486   0.990   7.793  0.2312 -0.1109 -0.0475
 2424SOL    HW218906   2.416   1.121   7.846 -1.7651  0.1365  1.0884
 2425SOL     OW18907   2.069   0.475  11.545 -0.0611 -0.5026  0.1460
 2425SOL    HW118908   2.003   0.490  11.478 -1.1581  1.4385  1.6466
 2425SOL    HW218909   2.128   0.412  11.504  1.9182  2.0783 -0.9584
 2426SOL     OW18910   1.813   1.667   1.787 -0.1272  0.4219  0.0108
 2426SOL    HW118911   1.832   1.577   1.761 -1.7719 -0.2587  1.1494
 2426SOL    HW218912   1.723   1.676   1.756 -0.6302  1.5488  1.8126
 2427SOL     OW18913   3.331   1.734   5.921 -0.1739  0.2645  0.4917
 2427SOL    HW118914   3.382   1.663   5.882 -1.9034 -1.3827  1.2115
 2427SOL    HW218915   3.332   1.796   5.848  0.4234  0.2576  0.4961
 2428SOL     OW18916   3.991   2.605   6.420 -0.1644  0.0244  0.5363
 2428SOL    HW118917   4.029   2.518   6.406 -0.3346  0.0101  0.1820
 2428SOL    HW218918   4.005   2.619   6.514  0.8798 -0.7548  0.4934
 2429SOL     OW18919   3.657   1.960   1.194 -0.3489  0.2755 -0.2785
 2429SOL    HW118920   3.561   1.959   1.188 -0.6337 -1.0768  4.3902
 2429SOL    HW218921   3.680   2.035   1.248  3.8904 -0.7155 -0.6610
 2430SOL     OW18922   1.954   3.312   3.280 -0.0431 -0.2434 -0.5457
 2430SOL    HW118923   1.875   3.335   3.231  1.8587  0.0197 -3.5023
 2430SOL    HW218924   1.920   3.286   3.366  1.8628  1.5033  0.7544
 2431SOL     OW18925   3.345   0.354   2.200  0.7084 -0.2337  0.4990
 2431SOL    HW118926   3.265   0.398   2.171  2.0274  2.7384  1.4189
 2431SOL    HW218927   3.315   0.297   2.271 -0.3039 -1.9075 -1.2726
 2432SOL     OW18928   2.210   0.307  17.199  0.5265  0.1789 -0.4380
 2432SOL    HW118929   2.193   0.402  17.200 -4.0350 -0.6283  0.3944
 2432SOL    HW218930   2.291   0.297  17.249  0.3915 -0.6345 -0.3874
 2433SOL     OW18931   2.353   1.402  14.635 -0.1954  0.3805  0.1603
 2433SOL    HW118932   2.393   1.323  14.596 -1.4203 -1.2149  2.1609
 2433SOL    HW218933   2.410   1.463  14.588  2.4099  0.4107  3.3724
 2434SOL     OW18934   2.102   3.365   8.956 -0.9681 -0.0440 -0.0083
 2434SOL    HW118935   2.143   3.398   9.036  3.1189  1.4737 -2.7583
 2434SOL    HW218936   2.036   3.433   8.940  1.3436  1.8719 -1.2553
 2435SOL     OW18937   3.842   3.593   2.653  0.1707 -0.7206 -0.2460
 2435SOL    HW118938   3.792   3.628   2.727  2.2832 -1.2903  1.4579
 2435SOL    HW218939   3.779   3.588   2.581  1.8081  1.8385 -1.8675
 2436SOL     OW18940   4.442   2.253   3.280  0.7777  0.0554 -0.6415
 2436SOL    HW118941   4.447   2.257   3.185  3.3028 -0.7885 -0.5199
 2436SOL    HW218942   4.440   2.343   3.313  0.1782  0.1349 -0.8958
 2437SOL     OW18943   4.093   2.190   1.660 -0.4939 -0.4914  0.4484
 2437SOL    HW118944   4.106   2.267   1.605 -1.6015 -0.3473  0.3996
 2437SOL    HW218945   4.026   2.140   1.614  0.0910 -2.3770  1.6231
 2438SOL     OW18946   4.314   0.200   5.823 -0.3917  0.3617 -0.2143
 2438SOL    HW118947   4.384   0.264   5.832 -1.1948  1.1510  0.4536
 2438SOL    HW218948   4.264   0.219   5.903 -1.6783 -1.0101 -0.6888
 2439SOL     OW18949   1.954   0.467   5.218  0.4201  0.3594  0.0696
 2439SOL    HW118950   2.032   0.515   5.246 -0.0423  1.3116 -0.2947
 2439SOL    HW218951   1.986   0.378   5.201 -2.5088  0.0386 -3.5494
 2440SOL     OW18952   4.437   1.573  16.172 -0.8068 -0.0536  0.2967
 2440SOL    HW118953   4.443   1.537  16.084  0.3469  1.5378 -0.2610
 2440SOL    HW218954   4.497   1.645  16.156  1.0076 -1.4689  0.7753
 2441SOL     OW18955   0.102   4.052   2.240 -0.2254 -0.6452  0.3091
 2441SOL    HW118956   0.149   4.036   2.159 -1.1516  0.7998 -0.5056
 2441SOL    HW218957   0.144   3.991   2.301  0.0617 -2.3821 -1.6365
 2442SOL     OW18958   2.453   1.191   6.786  0.8405 -0.0006 -0.0550
 2442SOL    HW118959   2.359   1.178   6.770  0.5954  1.2037  0.3556
 2442SOL    HW218960   2.485   1.230   6.704  1.4234  0.2768  0.3056
 2443SOL     OW18961   3.434   0.964   3.232 -0.4372 -0.1859 -0.3728
 2443SOL    HW118962   3.402   0.920   3.153  2.1787 -0.0997 -1.5005
 2443SOL    HW218963   3.417   1.050   3.194  2.3065  0.7580  0.5682
 2444SOL     OW18964   3.480   4.374   3.439 -0.4337  0.1312 -0.1178
 2444SOL    HW118965   3.513   4.355   3.351  2.2351  0.4538  0.8292
 2444SOL    HW218966   3.552   4.421   3.481 -0.5456  1.4175 -1.3419
 2445SOL     OW18967   0.025   1.842   0.695  0.1014  0.1812 -0.6127
 2445SOL    HW118968   0.103   1.873   0.740  0.6893 -1.3983 -0.5292
 2445SOL    HW218969   4.721   1.926   0.684  2.2007  1.5748  1.8728
 2446SOL     OW18970   2.473   1.130   5.411 -0.1092  0.2754 -0.3766
 2446SOL    HW118971   2.559   1.136   5.452  0.5741  0.9765 -1.8983
 2446SOL    HW218972   2.492   1.143   5.318  0.9054  0.2584 -0.1654
 2447SOL     OW18973   4.574   2.575   6.273 -0.6267  0.2536 -0.1514
 2447SOL    HW118974   4.611   2.587   6.186 -1.8071 -0.1011 -0.6993
 2447SOL    HW218975   4.483   2.545   6.263 -0.3015 -0.9052  0.4131
 2448SOL     OW18976   0.297   2.437  12.716  0.5261  0.6305 -0.3340
 2448SOL    HW118977   0.385   2.456  12.749  0.4038  2.0859 -0.8168
 2448SOL    HW218978   0.273   2.518  12.671  1.0637  0.1959 -1.4021
 2449SOL     OW18979   2.789   1.516   1.917 -0.2678 -0.0529 -0.2623
 2449SOL    HW118980   2.813   1.544   1.829 -1.7563  2.5117  0.1293
 2449SOL    HW218981   2.876   1.486   1.943 -0.7331 -0.8421  0.3657
 2450SOL     OW18982   2.899   4.608   0.815 -0.3156  0.1239 -0.1324
 2450SOL    HW118983   2.894   4.516   0.840  1.0627  0.6965  2.2274
 2450SOL    HW218984   2.990   4.608   0.784 -0.2705  0.8925 -0.0022
 2451SOL     OW18985   4.560   4.410   3.098 -0.0646 -0.6101  0.1432
 2451SOL    HW118986   4.620   4.358   3.044  1.3790  2.6877 -1.4123
 2451SOL    HW218987   4.546   4.344   3.166 -1.2172 -1.5810 -1.0389
 2452SOL     OW18988   2.132   0.008   9.489  0.0304  0.1542 -0.6417
 2452SOL    HW118989   2.085   4.667   9.470  2.4904 -1.2401 -0.7766
 2452SOL    HW218990   2.108   0.020   9.580  1.5961  0.2204 -0.2361
 2453SOL     OW18991   1.284   0.935   4.334  0.0072  0.7516  0.2606
 2453SOL    HW118992   1.294   0.978   4.419 -0.8459  2.4724 -0.5304
 2453SOL    HW218993   1.349   0.981   4.280 -0.7354  0.6154 -0.7440
 2454SOL     OW18994   2.490   0.727  12.381  0.5253  0.2803  0.4967
 2454SOL    HW118995   2.513   0.780  12.305 -1.1505  0.4634  0.1278
 2454SOL    HW218996   2.496   0.798  12.446  1.1558 -0.5797  1.3737
 2455SOL     OW18997   3.481   0.246  17.091 -0.4941 -0.4912 -0.0465
 2455SOL    HW118998   3.454   0.265  17.181  1.8765 -1.0219  0.7589
 2455SOL    HW218999   3.449   0.156  17.088  2.5282 -1.5989  1.6058
 2456SOL     OW19000   0.900   2.191  10.960 -0.7976 -0.5765 -0.5651
 2456SOL    HW119001   0.894   2.286  10.971  4.1518 -0.1539 -1.8392
 2456SOL    HW219002   0.974   2.183  10.900 -0.3140  1.1342 -0.1919
 2457SOL     OW19003   4.508   2.160  17.285  0.0884  0.0286  0.9629
 2457SOL    HW119004   4.433   2.202  17.243  1.4211  1.9987  0.5379
 2457SOL    HW219005   4.550   2.118  17.210  0.6696 -0.3974  1.5268
 2458SOL     OW19006   3.001   3.799   5.371 -0.2845 -0.2705 -0.2584
 2458SOL    HW119007   2.986   3.782   5.464  0.5998  2.8770  0.4718
 2458SOL    HW219008   2.908   3.793   5.347 -1.1664  1.4788  2.8269
 2459SOL     OW19009   2.377   2.108   1.229  0.2050  0.4724  0.6286
 2459SOL    HW119010   2.340   2.166   1.296 -1.0217  1.0843 -0.5769
 2459SOL    HW219011   2.309   2.107   1.162 -2.1920 -0.7149  3.0558
 2460SOL     OW19012   0.244   2.519  11.702  0.0703  0.0662 -0.6106
 2460SOL    HW119013   0.174   2.516  11.637 -1.6399 -0.3590  1.2366
 2460SOL    HW219014   0.192   2.528  11.782  2.0512  0.9056  0.5849
 2461SOL     OW19015   4.383   3.784  11.486 -0.2592  0.2444 -0.6113
 2461SOL    HW119016   4.355   3.695  11.463 -3.3506  1.9390 -3.3376
 2461SOL    HW219017   4.465   3.790  11.438 -1.1991 -0.8188 -2.3288
 2462SOL     OW19018   3.592   3.827   5.292 -0.1917 -0.4402  0.5263
 2462SOL    HW119019   3.525   3.878   5.338 -3.4009 -3.5138 -0.7172
 2462SOL    HW219020   3.617   3.875   5.213 -3.4763 -1.1057 -0.9111
 2463SOL     OW19021   2.133   3.088   5.121  0.0796 -0.8216 -0.0420
 2463SOL    HW119022   2.088   3.173   5.120 -0.7349 -1.2248  3.1654
 2463SOL    HW219023   2.059   3.029   5.138 -0.5822  0.4524  1.4719
 2464SOL     OW19024   1.172   3.235   4.796  0.5722 -0.0162 -0.4188
 2464SOL    HW119025   1.095   3.221   4.851  1.5804  0.8012  1.2122
 2464SOL    HW219026   1.243   3.198   4.849  0.6572 -0.9115 -1.1648
 2465SOL     OW19027   2.492   3.630   7.218 -0.6737 -0.3640 -0.5225
 2465SOL    HW119028   2.507   3.571   7.144  0.3005 -0.9669  0.1622
 2465SOL    HW219029   2.579   3.663   7.243 -1.3005 -1.2412  2.8058
 2466SOL     OW19030   3.441   2.081  11.705 -0.4397 -0.1937 -0.4152
 2466SOL    HW119031   3.475   2.147  11.765 -0.7819  0.3457 -0.8208
 2466SOL    HW219032   3.348   2.103  11.711 -0.4323  0.1721 -1.6095
 2467SOL     OW19033   0.580   2.438   6.132 -0.0608  0.1723  0.3524
 2467SOL    HW119034   0.630   2.360   6.106 -0.1249 -0.7376  2.9160
 2467SOL    HW219035   0.620   2.505   6.077 -0.4208 -1.5029 -1.9707
 2468SOL     OW19036   4.036   3.798   2.268 -0.0956  0.4122  0.0720
 2468SOL    HW119037   4.034   3.709   2.302 -0.8735  1.3283  2.4312
 2468SOL    HW219038   3.968   3.788   2.201 -0.1736  0.3272  0.1634
 2469SOL     OW19039   2.699   1.100   7.596 -0.5002  0.2219  0.4849
 2469SOL    HW119040   2.727   1.157   7.668 -0.7032  1.8446 -0.7263
 2469SOL    HW219041   2.775   1.043   7.581 -2.4570 -2.7522  1.8599
 2470SOL     OW19042   3.539   0.980   1.044  0.7255  0.2121 -0.4068
 2470SOL    HW119043   3.520   0.983   1.138 -1.9204  2.0460 -1.0033
 2470SOL    HW219044   3.505   1.065   1.015  1.0287  0.6469  0.4880
 2471SOL     OW19045   0.146   2.863   3.971 -0.6233  0.1529  0.1906
 2471SOL    HW119046   0.220   2.897   3.920  1.8951 -0.3234  3.4763
 2471SOL    HW219047   0.074   2.920   3.943 -1.3340 -0.9219 -0.1538
 2472SOL     OW19048   4.290   1.904   0.596 -0.9332 -0.1970 -0.3883
 2472SOL    HW119049   4.274   1.811   0.581  1.3836 -0.7146  0.3308
 2472SOL    HW219050   4.318   1.923   0.506  1.6952 -1.6593  0.0961
 2473SOL     OW19051   0.674   3.752   2.372  0.4159 -0.5634 -0.3937
 2473SOL    HW119052   0.758   3.706   2.377  0.9553  0.4167 -0.3125
 2473SOL    HW219053   0.682   3.787   2.283 -0.3882  0.9765  0.1416
 2474SOL     OW19054   2.511   0.850   7.506  0.2046 -0.4433 -0.2085
 2474SOL    HW119055   2.434   0.902   7.527 -1.0409 -2.4092  0.1045
 2474SOL    HW219056   2.571   0.872   7.577 -0.8875 -1.7298  1.0974
 2475SOL     OW19057   4.273   2.980   5.957  0.2392  0.0167  0.3421
 2475SOL    HW119058   4.341   3.004   5.894 -0.8964 -0.7288 -1.1838
 2475SOL    HW219059   4.277   3.052   6.021  1.8513  2.5387 -2.5684
 2476SOL     OW19060   3.330   3.773  10.837 -0.3276 -1.0276 -0.1275
 2476SOL    HW119061   3.305   3.838  10.902  0.4121  0.3237 -1.1865
 2476SOL    HW219062   3.385   3.710  10.883 -0.8313 -0.8344  0.7429
 2477SOL     OW19063   2.037   3.250   3.539  0.0607  0.2161 -0.0590
 2477SOL    HW119064   2.042   3.238   3.634 -0.4133  2.0774  0.1997
 2477SOL    HW219065   1.944   3.228   3.531  0.3967 -0.8307 -1.1531
 2478SOL     OW19066   0.423   4.036   8.929  0.2020  0.8571  0.4788
 2478SOL    HW119067   0.449   4.081   9.010 -0.6171  0.3724  1.0152
 2478SOL    HW219068   0.357   3.973   8.960 -0.4348  0.4124 -1.8070
 2479SOL     OW19069   4.675   3.296   0.160 -0.1501  0.4779 -0.2922
 2479SOL    HW119070   0.026   3.318   0.139 -0.5201 -0.4469 -2.8321
 2479SOL    HW219071   4.680   3.208   0.197  1.0588  0.4452 -0.5130
 2480SOL     OW19072   3.337   1.636   1.754  0.4459  0.1113  0.1714
 2480SOL    HW119073   3.393   1.701   1.712  0.5524 -0.6470 -0.8736
 2480SOL    HW219074   3.404   1.596   1.810  1.5569  0.3133 -1.0245
 2481SOL     OW19075   3.425   1.388   4.311  0.1988  0.1416 -0.2769
 2481SOL    HW119076   3.452   1.314   4.365 -3.5040 -0.7901  0.2764
 2481SOL    HW219077   3.401   1.354   4.225 -1.4787  0.4778  0.0691
 2482SOL     OW19078   3.541   4.666   2.728  0.9328 -0.1651 -0.6703
 2482SOL    HW119079   3.570   4.575   2.724  1.3616  0.0449 -2.5593
 2482SOL    HW219080   3.615   4.700   2.778  0.4373  1.2989 -0.9278
 2483SOL     OW19081   1.280   0.562   8.668  0.2754  0.3828  0.3015
 2483SOL    HW119082   1.303   0.558   8.761 -1.8839  0.6926  0.8459
 2483SOL    HW219083   1.281   0.657   8.657 -1.4508  0.4415  0.6083
 2484SOL     OW19084   2.506   0.252   9.236 -0.2209 -0.4058 -0.2261
 2484SOL    HW119085   2.564   0.177   9.248  1.4626  1.2828  2.1879
 2484SOL    HW219086   2.425   0.201   9.229  0.0732 -0.9877  0.5574
 2485SOL     OW19087   3.407   4.034  14.757 -0.2828 -0.2281 -0.1374
 2485SOL    HW119088   3.315   4.057  14.744 -0.7286 -0.2707  2.9883
 2485SOL    HW219089   3.446   4.106  14.706 -0.6166 -0.6878 -1.0257
 2486SOL     OW19090   0.385   0.707   7.543 -0.0669  0.2634  0.2513
 2486SOL    HW119091   0.414   0.714   7.452 -0.4756 -3.3285 -0.1800
 2486SOL    HW219092   0.467   0.708   7.592 -0.9042 -0.2969  1.6981
 2487SOL     OW19093   1.763   2.889   6.459  0.0266  0.0047  0.4732
 2487SOL    HW119094   1.839   2.865   6.405 -1.1195 -2.3213 -0.1020
 2487SOL    HW219095   1.701   2.891   6.386  0.7610 -1.4858 -0.2067
 2488SOL     OW19096   4.428   2.834  14.107 -0.0870  0.3019  0.4009
 2488SOL    HW119097   4.490   2.907  14.111  0.3341 -0.0986  1.2705
 2488SOL    HW219098   4.392   2.837  14.195 -1.1308  0.7928 -0.0395
 2489SOL     OW19099   4.401   3.636   3.354  0.4165  0.3793 -0.2658
 2489SOL    HW119100   4.391   3.641   3.449  0.1133 -2.2045 -0.1701
 2489SOL    HW219101   4.341   3.565   3.331  1.3694 -0.8581  1.1542
 2490SOL     OW19102   2.413   1.954   4.155 -0.6873  0.3094  0.6842
 2490SOL    HW119103   2.441   2.010   4.084 -0.0012 -0.1431  0.5976
 2490SOL    HW219104   2.489   1.962   4.212 -0.0278 -3.2171  0.3140
 2491SOL     OW19105   1.355   4.511   5.730 -0.7374 -0.3239  0.2402
 2491SOL    HW119106   1.306   4.537   5.808  1.4126  1.9112  0.8503
 2491SOL    HW219107   1.399   4.440   5.777 -0.3238  0.6709  1.3791
 2492SOL     OW19108   0.516   4.648   4.197 -0.1828  0.0750 -0.1886
 2492SOL    HW119109   0.583   4.592   4.235  1.2944  0.8924 -1.5805
 2492SOL    HW219110   0.541   4.650   4.105  1.2538 -2.0226  0.1590
 2493SOL     OW19111   0.572   4.080   0.274 -0.2397  0.0037  0.1784
 2493SOL    HW119112   0.588   4.144   0.205 -0.0786 -0.5438 -0.2869
 2493SOL    HW219113   0.493   4.034   0.249  0.8143 -2.3774  1.2019
 2494SOL     OW19114   2.963   4.449   1.383  0.1950  0.6030 -0.0557
 2494SOL    HW119115   2.904   4.497   1.326 -0.0881 -1.7219 -1.7499
 2494SOL    HW219116   3.046   4.457   1.335  0.6213 -1.2785  0.3576
 2495SOL     OW19117   0.161   0.993   7.309  0.0226 -0.4364  0.1757
 2495SOL    HW119118   0.091   1.000   7.374  0.4214 -0.1656  0.5759
 2495SOL    HW219119   0.133   1.053   7.241  1.7921 -0.2991 -0.4319
 2496SOL     OW19120   0.113   3.774  15.567 -0.1354  0.1394 -0.5927
 2496SOL    HW119121   0.178   3.840  15.541 -1.3784  1.2657 -0.8029
 2496SOL    HW219122   0.163   3.695  15.588 -1.8400 -1.3101 -2.0269
 2497SOL     OW19123   1.394   0.628  13.436  0.2885  0.2218 -0.3979
 2497SOL    HW119124   1.472   0.681  13.423 -0.1736  1.3701  1.4890
 2497SOL    HW219125   1.390   0.587  13.349 -0.9460 -1.7470  0.5819
 2498SOL     OW19126   1.787   0.748   6.587 -0.0236  0.0480  0.2077
 2498SOL    HW119127   1.830   0.704   6.660  0.1329  1.4695  0.9670
 2498SOL    HW219128   1.792   0.842   6.605 -3.8516  0.3055 -0.0845
 2499SOL     OW19129   1.241   2.688  15.009 -0.0632 -0.1191  0.9365
 2499SOL    HW119130   1.245   2.784  15.009 -0.1727 -0.1089  0.0611
 2499SOL    HW219131   1.149   2.681  15.032 -0.1908  0.3615  0.5842
 2500SOL     OW19132   1.264   3.398   2.670 -0.2017 -0.2506 -0.0601
 2500SOL    HW119133   1.327   3.405   2.742 -1.0817 -0.6316  0.7531
 2500SOL    HW219134   1.257   3.491   2.647  2.5295  0.0233  0.2621
 2501SOL     OW19135   1.325   0.353   6.968  0.7627 -0.2804 -0.3264
 2501SOL    HW119136   1.406   0.383   6.926  0.2226  3.1190  1.0747
 2501SOL    HW219137   1.361   0.306   7.043 -2.0030 -0.3203  0.9572
 2502SOL     OW19138   4.508   0.511   4.639 -0.2962 -0.3978  0.4745
 2502SOL    HW119139   4.556   0.571   4.583 -1.5438  0.2609  0.1196
 2502SOL    HW219140   4.450   0.475   4.572  0.0873  1.3114 -0.7610
 2503SOL     OW19141   0.513   1.720   3.987 -0.2123  0.5732  0.6608
 2503SOL    HW119142   0.452   1.658   3.947  1.6480 -0.8065 -0.0271
 2503SOL    HW219143   0.507   1.797   3.931  3.0102 -0.1177 -0.6395
 2504SOL     OW19144   1.909   1.805   9.438 -0.3917  0.5763 -0.3936
 2504SOL    HW119145   1.858   1.743   9.385 -1.0828  0.8838 -0.0847
 2504SOL    HW219146   1.937   1.878   9.384  0.7514  1.1205  0.9389
 2505SOL     OW19147   1.828   0.685   4.749 -0.2980  0.3015  1.7187
 2505SOL    HW119148   1.762   0.635   4.701  1.4761  1.5321 -1.9763
 2505SOL    HW219149   1.808   0.672   4.842  0.6841 -1.4689  1.6811
 2506SOL     OW19150   4.578   0.491   3.196  0.3337  0.2102 -0.6715
 2506SOL    HW119151   4.619   0.478   3.281 -1.3790  1.2782  0.3266
 2506SOL    HW219152   4.486   0.479   3.218  0.5352  2.2754  1.2483
 2507SOL     OW19153   4.430   3.857   9.388  0.1544 -0.8106  0.0857
 2507SOL    HW119154   4.379   3.852   9.307  0.0560  0.4888  0.0623
 2507SOL    HW219155   4.388   3.785   9.436  1.4050  0.4053  3.0205
 2508SOL     OW19156   3.138   3.743   2.065  0.0051 -0.2867  0.9783
 2508SOL    HW119157   3.118   3.783   2.149 -2.6406 -1.6564  0.9997
 2508SOL    HW219158   3.093   3.660   2.081  0.3734 -0.8449 -0.8730
 2509SOL     OW19159   3.326   2.469  15.684 -0.4389 -0.3078 -0.4220
 2509SOL    HW119160   3.420   2.468  15.702 -0.4392 -3.1930 -0.4983
 2509SOL    HW219161   3.302   2.382  15.717  0.3287 -0.6396 -0.7370
 2510SOL     OW19162   3.200   4.240   4.842 -0.0599  0.2706 -0.8373
 2510SOL    HW119163   3.215   4.195   4.759 -1.2048  1.8675 -1.9142
 2510SOL    HW219164   3.277   4.294   4.825 -0.9454  1.2181 -1.8327
 2511SOL     OW19165   2.626   0.618  13.623  0.0792 -0.4242  0.3162
 2511SOL    HW119166   2.567   0.671  13.676 -0.5661 -2.0748  1.2524
 2511SOL    HW219167   2.598   0.644  13.535 -0.8832  0.1802  0.8062
 2512SOL     OW19168   3.412   4.598   3.579 -0.6142 -0.5257  0.0508
 2512SOL    HW119169   3.413   4.526   3.516  0.7896 -0.6601  0.2299
 2512SOL    HW219170   3.466   4.659   3.528  0.9479 -2.3006 -0.4033
 2513SOL     OW19171   1.629   2.646   4.144 -0.6031 -0.2792 -0.2110
 2513SOL    HW119172   1.549   2.600   4.171  0.5201 -2.9526 -1.4054
 2513SOL    HW219173   1.605   2.738   4.141  0.9095  0.1314  0.3116
 2514SOL     OW19174   1.961   1.729   5.584 -0.0143  0.1103  0.1394
 2514SOL    HW119175   2.033   1.668   5.601 -0.2669 -0.5834 -1.3545
 2514SOL    HW219176   1.984   1.758   5.496 -3.0906 -2.3542 -1.4714
 2515SOL     OW19177   1.588   2.334   6.529 -0.5794  0.5545 -0.3609
 2515SOL    HW119178   1.614   2.251   6.570  0.7650  0.7803 -0.7769
 2515SOL    HW219179   1.604   2.396   6.600 -0.0479  0.8001 -0.7014
 2516SOL     OW19180   1.493   2.059   5.381 -0.4460 -0.7278 -0.1425
 2516SOL    HW119181   1.436   2.018   5.316  0.1053 -2.1447  0.2570
 2516SOL    HW219182   1.542   1.982   5.410  1.1782  0.6796  0.8653
 2517SOL     OW19183   2.742   3.535   8.582  0.0675 -0.3937 -0.2214
 2517SOL    HW119184   2.676   3.517   8.515 -0.3965 -3.0497  0.9530
 2517SOL    HW219185   2.735   3.459   8.640  0.0661 -1.1244 -1.1783
 2518SOL     OW19186   0.113   2.598   3.850 -0.4374 -0.0525  0.3160
 2518SOL    HW119187   0.156   2.684   3.849  0.1828 -0.3524  1.1725
 2518SOL    HW219188   0.049   2.606   3.920 -1.5865  0.1637 -0.7680
 2519SOL     OW19189   4.390   1.325   4.550 -0.3501 -0.0815  0.4748
 2519SOL    HW119190   4.484   1.320   4.562 -0.3150 -2.2754 -0.7238
 2519SOL    HW219191   4.380   1.284   4.464  1.0184  0.0539  0.2612
 2520SOL     OW19192   3.339   3.971   3.543  0.2042  0.2161 -0.8936
 2520SOL    HW119193   3.426   3.935   3.525  0.5322  2.2115 -3.3240
 2520SOL    HW219194   3.310   3.905   3.605 -1.6892  2.8675  1.0231
 2521SOL     OW19195   4.263   1.799   8.313  0.1476  0.2786 -0.1579
 2521SOL    HW119196   4.319   1.807   8.390 -0.7499  1.8224  0.3362
 2521SOL    HW219197   4.324   1.813   8.241 -1.6772  0.0544 -1.7649
 2522SOL     OW19198   3.228   2.801   5.678  0.2563 -0.0610 -0.5349
 2522SOL    HW119199   3.133   2.790   5.682  0.3727 -0.9314 -0.1078
 2522SOL    HW219200   3.223   2.864   5.607  0.6604  1.0888  0.4544
 2523SOL     OW19201   2.374   3.529   5.998 -0.1590  0.7501  0.5135
 2523SOL    HW119202   2.364   3.616   6.037  0.8906  0.7641  0.7401
 2523SOL    HW219203   2.370   3.552   5.905 -1.0238 -0.3552  0.2634
 2524SOL     OW19204   1.270   2.139   8.143  0.0464  0.0462 -0.4761
 2524SOL    HW119205   1.339   2.186   8.097 -1.0797  0.6769 -1.5019
 2524SOL    HW219206   1.198   2.199   8.123  0.1667  0.5383  0.5353
 2525SOL     OW19207   3.832   2.004   7.347  0.4097 -0.3495  0.3307
 2525SOL    HW119208   3.817   2.090   7.385 -0.6687  0.7411 -2.5447
 2525SOL    HW219209   3.902   1.980   7.408 -0.0071 -1.0026  0.5498
 2526SOL     OW19210   3.798   0.538   8.653 -0.0020  0.1841 -0.0442
 2526SOL    HW119211   3.742   0.595   8.706  0.7093  1.1161 -0.2918
 2526SOL    HW219212   3.737   0.476   8.615 -0.4991 -0.2680  1.4717
 2527SOL     OW19213   0.536   3.324   8.263 -0.7471  0.1840 -0.0633
 2527SOL    HW119214   0.531   3.259   8.193  2.6558 -0.3256  0.2053
 2527SOL    HW219215   0.504   3.265   8.332 -1.7783  2.5216  1.4488
 2528SOL     OW19216   2.931   2.870  12.215  0.2069  0.0221  0.3403
 2528SOL    HW119217   2.946   2.910  12.129 -1.6056 -0.3297 -0.1339
 2528SOL    HW219218   2.851   2.819  12.201  0.1334 -0.5754  2.9113
 2529SOL     OW19219   4.031   3.450   2.073  0.0182  0.2898 -0.1559
 2529SOL    HW119220   4.120   3.413   2.066  0.0141 -0.0977  2.0492
 2529SOL    HW219221   4.044   3.516   2.005 -0.1582  0.3891 -0.0904
 2530SOL     OW19222   4.300   3.382   7.753  0.0697 -0.1977 -0.1810
 2530SOL    HW119223   4.236   3.351   7.818  0.4983  0.0231  0.3427
 2530SOL    HW219224   4.380   3.390   7.805 -1.0786  0.1933  1.5302
 2531SOL     OW19225   2.794   4.541  14.929 -0.2788 -0.8598  0.4911
 2531SOL    HW119226   2.783   4.587  14.846  1.7749  0.5142  0.9524
 2531SOL    HW219227   2.706   4.535  14.965 -1.3244 -1.8393 -2.2405
 2532SOL     OW19228   2.560   2.760   5.454  0.2234 -0.3064  0.2105
 2532SOL    HW119229   2.586   2.843   5.414 -0.0688 -0.1438  0.3572
 2532SOL    HW219230   2.589   2.702   5.384 -1.1116 -0.2016 -0.4243
 2533SOL     OW19231   3.987   2.101  15.614 -0.0975 -0.3932 -0.0566
 2533SOL    HW119232   4.009   2.009  15.597  0.1560 -0.2473 -0.4958
 2533SOL    HW219233   4.059   2.145  15.570  0.7445 -4.4311 -2.6967
 2534SOL     OW19234   1.056   4.120   5.863 -0.5200 -0.0751 -0.7929
 2534SOL    HW119235   1.050   4.047   5.925  0.9580  0.1799 -0.3424
 2534SOL    HW219236   1.005   4.186   5.911  1.1022  0.4414  0.2341
 2535SOL     OW19237   4.655   4.215  14.637 -0.6173  0.4721 -0.6561
 2535SOL    HW119238   4.647   4.132  14.590  0.6479  0.4472 -0.8229
 2535SOL    HW219239   4.726   4.258  14.590 -2.0060  1.4540 -1.8269
 2536SOL     OW19240   4.221   3.934  11.019  0.2676  0.0320 -0.1635
 2536SOL    HW119241   4.226   3.843  11.047 -0.1282  0.7929  2.3119
 2536SOL    HW219242   4.281   3.928  10.944 -0.8846 -1.2646 -0.9937
 2537SOL     OW19243   1.325   0.667   6.315 -0.1047  0.0792 -0.1282
 2537SOL    HW119244   1.309   0.718   6.236 -0.7120 -1.6652 -1.1247
 2537SOL    HW219245   1.420   0.670   6.324 -0.1370  1.1631 -0.0494
 2538SOL     OW19246   2.466   0.314   2.488 -0.1753  0.0242 -0.0898
 2538SOL    HW119247   2.399   0.248   2.472 -0.4518  0.5793 -1.1868
 2538SOL    HW219248   2.430   0.357   2.566 -0.9007 -0.6437 -0.0600
 2539SOL     OW19249   3.693   2.880  14.344  0.0628  0.3499  0.0314
 2539SOL    HW119250   3.754   2.874  14.417  1.6312  1.4508 -1.1932
 2539SOL    HW219251   3.732   2.805  14.299 -0.1480 -0.0716  0.5547
 2540SOL     OW19252   1.730   1.732   2.073  0.5193  0.1778  0.0425
 2540SOL    HW119253   1.777   1.689   2.002 -2.3957  0.0114 -1.7664
 2540SOL    HW219254   1.671   1.789   2.025 -0.3670  0.4483  1.4409
 2541SOL     OW19255   1.535   3.447   9.432 -0.4462 -0.4732  0.3422
 2541SOL    HW119256   1.595   3.375   9.452  0.1950  0.2435  0.9802
 2541SOL    HW219257   1.543   3.446   9.337  1.2580 -1.6558  0.5065
 2542SOL     OW19258   0.910   3.240   8.277 -0.2087 -0.4196  0.8118
 2542SOL    HW119259   0.976   3.236   8.346  0.1164 -0.0525  0.5256
 2542SOL    HW219260   0.908   3.148   8.250  1.4454 -0.1186 -0.3264
 2543SOL     OW19261   3.123   4.093   0.683 -0.2413 -0.3863  0.3375
 2543SOL    HW119262   3.087   4.025   0.740  2.6428  1.1810  4.0095
 2543SOL    HW219263   3.215   4.105   0.709 -0.9643  1.5180  1.9626
 2544SOL     OW19264   4.678   1.259   8.651 -0.1746  0.9699  0.2961
 2544SOL    HW119265   4.615   1.189   8.637 -0.1233  0.7008  1.3985
 2544SOL    HW219266   4.670   1.275   8.745  0.6166 -0.2340  0.5545
 2545SOL     OW19267   3.477   3.920  14.062 -0.2003 -0.1069  0.5784
 2545SOL    HW119268   3.513   3.898  13.976  0.1747 -1.7542  1.1539
 2545SOL    HW219269   3.496   3.834  14.099  0.3436 -1.4600 -2.8358
 2546SOL     OW19270   1.454   0.522  15.765  0.0697  0.7064  0.4764
 2546SOL    HW119271   1.470   0.604  15.718 -1.2906 -0.3158 -1.8192
 2546SOL    HW219272   1.360   0.508  15.753  0.2115  0.1896 -0.0497
 2547SOL     OW19273   3.886   0.399   9.163 -0.4501 -0.1862  0.0264
 2547SOL    HW119274   3.934   0.317   9.166  1.8610  1.2070  0.8506
 2547SOL    HW219275   3.917   0.427   9.077 -0.1740  0.5419  0.3604
 2548SOL     OW19276   2.975   2.884  15.972 -0.0717 -0.1784 -0.0539
 2548SOL    HW119277   2.993   2.942  16.046  0.6452 -0.4918  0.0148
 2548SOL    HW219278   2.999   2.798  16.004 -0.1740  0.6941  2.3536
 2549SOL     OW19279   4.679   1.247   4.538 -0.0140  0.5889 -0.0886
 2549SOL    HW119280   4.725   1.318   4.583  0.7000 -0.8275  1.4378
 2549SOL    HW219281   0.004   1.195   4.491 -0.2192  0.5957 -0.3793
 2550SOL     OW19282   1.692   1.242   5.398  0.2765  0.0355 -0.0987
 2550SOL    HW119283   1.693   1.295   5.477 -1.5480 -0.9614  0.5810
 2550SOL    HW219284   1.725   1.157   5.426  2.3221  1.1724  0.9217
 2551SOL     OW19285   2.825   1.644   7.296 -0.0152  0.0036  0.1279
 2551SOL    HW119286   2.797   1.734   7.309  0.9442  0.3344 -0.0481
 2551SOL    HW219287   2.774   1.604   7.226  1.5805  0.5560 -1.3560
 2552SOL     OW19288   0.418   0.611   6.954 -0.0317  0.3696  0.2613
 2552SOL    HW119289   0.429   0.523   6.988  0.8442  0.2856 -0.2384
 2552SOL    HW219290   0.329   0.625   6.987  0.3732 -0.5431  1.7472
 2553SOL     OW19291   4.729   1.852   3.527  0.0979 -0.1846 -0.5643
 2553SOL    HW119292   0.047   1.841   3.452  0.8062  0.8188 -0.1600
 2553SOL    HW219293   4.706   1.766   3.563 -1.7769  0.2623 -0.6787
 2554SOL     OW19294   2.225   4.713  17.151  0.0631  0.5299  0.0417
 2554SOL    HW119295   2.210   0.067  17.166 -2.2512 -0.5337  4.3934
 2554SOL    HW219296   2.275   4.701  17.232  1.6463  1.8051 -0.7475
 2555SOL     OW19297   3.459   4.180   6.147  0.4625  1.0672 -0.1589
 2555SOL    HW119298   3.538   4.134   6.119 -1.1109 -1.2702 -0.7648
 2555SOL    HW219299   3.499   4.264   6.170  0.3454  0.9898  0.3087
 2556SOL     OW19300   4.663   0.072   3.171 -0.2994 -0.2010  0.3870
 2556SOL    HW119301   0.015   0.088   3.193 -0.7899  0.8839  1.6863
 2556SOL    HW219302   4.642   4.735   3.225  0.4201 -1.3395 -0.9729
 2557SOL     OW19303   1.660   4.628   6.535  0.3975  0.0479 -0.1150
 2557SOL    HW119304   1.678   4.549   6.586 -0.5669 -0.7922 -1.0711
 2557SOL    HW219305   1.649   4.597   6.445  0.5270  1.4246 -0.6033
 2558SOL     OW19306   1.786   2.990   3.286  0.3271  0.0400 -0.3392
 2558SOL    HW119307   1.859   2.994   3.224  1.3317 -0.3456  0.8148
 2558SOL    HW219308   1.723   3.032   3.228  2.3875  0.2414 -2.4289
 2559SOL     OW19309   0.837   1.024   6.585 -0.8777  0.7970  0.2579
 2559SOL    HW119310   0.846   1.043   6.678  1.2035 -2.7126  0.7668
 2559SOL    HW219311   0.891   0.945   6.580  0.4801  1.7806 -0.6138
 2560SOL     OW19312   0.903   3.371  13.291 -0.3343 -0.1081 -0.2103
 2560SOL    HW119313   0.884   3.303  13.356  0.1113 -0.4316 -0.4164
 2560SOL    HW219314   0.888   3.447  13.348 -2.2195 -0.0861 -0.7310
 2561SOL     OW19315   3.025   1.384   3.322  0.2796 -0.2079 -0.2237
 2561SOL    HW119316   2.982   1.337   3.393 -0.4962 -1.4851 -1.5331
 2561SOL    HW219317   3.110   1.408   3.360  0.5251  1.0595 -1.5665
 2562SOL     OW19318   2.040   0.392   2.398  0.2804  0.5764  0.3693
 2562SOL    HW119319   2.040   0.306   2.439  0.4573  1.7320  2.7819
 2562SOL    HW219320   1.950   0.418   2.416 -0.0836  1.2546 -2.3870
 2563SOL     OW19321   1.237   0.074   3.085 -0.6123 -0.4848 -0.3654
 2563SOL    HW119322   1.189   0.110   3.011 -0.7538  0.4898  0.2097
 2563SOL    HW219323   1.248   4.725   3.050  2.0707  0.3003 -1.4832
 2564SOL     OW19324   4.553   0.578   2.737  0.5209  0.0904 -0.1321
 2564SOL    HW119325   4.497   0.514   2.781  2.0845  0.0366  1.7974
 2564SOL    HW219326   4.506   0.659   2.756  1.5321  0.6115  0.1674
 2565SOL     OW19327   3.522   2.564   2.112 -0.1961  0.1090 -0.0581
 2565SOL    HW119328   3.601   2.531   2.156 -1.0992 -1.6826  0.2212
 2565SOL    HW219329   3.555   2.650   2.086  1.9645 -1.0349 -1.0839
 2566SOL     OW19330   2.661   4.424   3.283  0.2379  0.3433  0.1394
 2566SOL    HW119331   2.668   4.465   3.370 -1.6634  1.3479 -0.1712
 2566SOL    HW219332   2.602   4.349   3.291  1.1881 -0.6093 -2.0036
 2567SOL     OW19333   3.868   2.337  13.786  0.0485 -0.2727  0.4720
 2567SOL    HW119334   3.961   2.359  13.779  0.1491 -1.3652 -1.7133
 2567SOL    HW219335   3.820   2.406  13.740 -0.0183 -0.5334  0.1467
 2568SOL     OW19336   4.314   1.066   5.729 -0.1230 -0.6662  0.2549
 2568SOL    HW119337   4.369   1.139   5.756  0.4309 -0.7301 -0.6959
 2568SOL    HW219338   4.237   1.120   5.712  0.5006  0.0528 -0.2923
 2569SOL     OW19339   2.578   4.247   9.166  0.3529  0.1713  0.1561
 2569SOL    HW119340   2.526   4.188   9.112 -0.2392  0.8370 -0.0077
 2569SOL    HW219341   2.565   4.331   9.121  0.8742  0.4383  0.5048
 2570SOL     OW19342   1.474   2.457  10.627 -0.2106  0.0654 -0.0592
 2570SOL    HW119343   1.526   2.414  10.696 -0.1928  1.6608  0.9365
 2570SOL    HW219344   1.509   2.546  10.640  1.9009 -1.1531  2.6476
 2571SOL     OW19345   0.510   4.187   4.018  0.1005 -0.1970 -0.5166
 2571SOL    HW119346   0.509   4.142   3.934 -2.2989 -2.8187  0.9082
 2571SOL    HW219347   0.540   4.275   3.998 -1.1574 -0.0280 -1.6186
 2572SOL     OW19348   1.722   4.593   9.288 -0.1944  0.0106  0.1229
 2572SOL    HW119349   1.759   4.505   9.282 -0.2390  0.1043 -1.4161
 2572SOL    HW219350   1.632   4.572   9.266 -0.0278 -0.5089 -0.0652
 2573SOL     OW19351   0.949   0.046   0.452 -0.6676  0.3906  0.2451
 2573SOL    HW119352   1.032   4.739   0.438 -0.9304  0.6016 -2.0281
 2573SOL    HW219353   0.936   0.028   0.545  0.4152 -1.5915  0.0177
 2574SOL     OW19354   2.397   1.453   2.251  0.0145 -0.2278  0.0204
 2574SOL    HW119355   2.402   1.530   2.308  2.2382  0.1453 -0.6911
 2574SOL    HW219356   2.461   1.390   2.284  0.7761 -0.7955 -2.5461
 2575SOL     OW19357   0.629   2.635   4.718  0.2591 -0.0476 -0.0951
 2575SOL    HW119358   0.643   2.675   4.632  0.9648 -0.5915 -0.2353
 2575SOL    HW219359   0.715   2.598   4.734 -0.4976 -2.1950 -0.8761
 2576SOL     OW19360   0.560   1.264  10.632  0.3754  0.7008 -0.5003
 2576SOL    HW119361   0.529   1.317  10.559 -1.8869  1.7373  1.2108
 2576SOL    HW219362   0.643   1.232  10.596  0.5727  0.3521  0.2610
 2577SOL     OW19363   3.180   2.068  15.406 -0.4299  0.1672  0.2153
 2577SOL    HW119364   3.242   2.060  15.334 -1.7009 -2.4001 -0.5915
 2577SOL    HW219365   3.103   2.037  15.358  0.5849 -2.3415  0.2242
 2578SOL     OW19366   4.188   1.938   5.457  0.0799 -0.1147  0.1671
 2578SOL    HW119367   4.164   2.025   5.489 -2.0611  0.3583 -2.7115
 2578SOL    HW219368   4.109   1.885   5.470 -1.4580  2.2577  0.4035
 2579SOL     OW19369   4.256   3.323   2.801 -0.0465 -0.0774 -0.1769
 2579SOL    HW119370   4.285   3.235   2.826 -0.3975 -0.6766 -1.8212
 2579SOL    HW219371   4.181   3.339   2.858  0.7814 -0.2536  0.9485
 2580SOL     OW19372   2.369   1.550   6.356  0.4780 -0.3145 -0.6227
 2580SOL    HW119373   2.462   1.528   6.359  1.1775  2.9804  1.8907
 2580SOL    HW219374   2.351   1.595   6.438 -1.6317  1.8868 -2.2820
 2581SOL     OW19375   2.134   1.105   3.877  0.3025  0.1510 -0.4659
 2581SOL    HW119376   2.100   1.146   3.797  0.1126 -1.5589 -1.2606
 2581SOL    HW219377   2.150   1.015   3.849  1.0059 -0.5832  2.3278
 2582SOL     OW19378   1.639   2.041   2.836  0.2936  0.0535 -0.7653
 2582SOL    HW119379   1.576   2.031   2.907  0.1070  2.1038 -0.6325
 2582SOL    HW219380   1.651   2.136   2.838  1.4793 -0.0820 -0.9758
 2583SOL     OW19381   2.532   0.556   7.616  0.2893 -0.6293 -0.1350
 2583SOL    HW119382   2.467   0.626   7.608 -1.0226 -1.8000  0.2946
 2583SOL    HW219383   2.540   0.538   7.523 -1.4698 -3.9478  0.3810
 2584SOL     OW19384   3.769   3.726  10.033  0.3118 -0.2827 -0.2267
 2584SOL    HW119385   3.809   3.721   9.946 -2.3356 -0.0990 -1.4306
 2584SOL    HW219386   3.828   3.791  10.070  0.1222 -1.1206  1.5490
 2585SOL     OW19387   3.870   0.036   6.321  0.2226  0.5086 -0.0337
 2585SOL    HW119388   3.860   0.131   6.326 -1.0370  0.4544 -1.4556
 2585SOL    HW219389   3.788   0.020   6.274 -0.4978  1.4433  0.9020
 2586SOL     OW19390   4.085   2.210   5.555  0.1145  0.5225 -0.3107
 2586SOL    HW119391   4.068   2.294   5.597  0.3698 -0.1919  1.2232
 2586SOL    HW219392   4.110   2.245   5.470 -0.5941  0.9946 -0.3197
 2587SOL     OW19393   0.993   1.015   9.768  0.1573  0.4872  0.3542
 2587SOL    HW119394   0.977   1.049   9.680  0.6631 -1.8704 -0.6575
 2587SOL    HW219395   0.994   1.096   9.819  1.0226  0.3946  0.4778
 2588SOL     OW19396   4.252   1.170  12.505 -0.2286 -0.6465 -0.3957
 2588SOL    HW119397   4.288   1.216  12.430 -1.9115 -0.4160 -1.0618
 2588SOL    HW219398   4.194   1.239  12.538  0.1353  0.5828 -2.3593
 2589SOL     OW19399   2.515   0.677   8.330 -0.1963  0.4033  0.3992
 2589SOL    HW119400   2.493   0.585   8.345  0.5081 -0.0288 -1.1593
 2589SOL    HW219401   2.457   0.696   8.256 -0.7514  0.4305  0.8450
 2590SOL     OW19402   2.378   3.624   1.320 -0.5888  0.4019 -0.8415
 2590SOL    HW119403   2.343   3.537   1.341  1.8535  0.0344  1.7725
 2590SOL    HW219404   2.363   3.631   1.226 -0.3663  2.9491 -0.6772
 2591SOL     OW19405   1.536   0.432   6.476  0.2873  0.0216 -0.3693
 2591SOL    HW119406   1.599   0.482   6.424  0.6853  0.5748  0.6367
 2591SOL    HW219407   1.564   0.343   6.456 -1.9579 -1.3601  2.6612
 2592SOL     OW19408   3.739   3.528   1.144 -0.1754  0.4970 -0.1314
 2592SOL    HW119409   3.830   3.548   1.167 -0.0528 -0.8494  0.5347
 2592SOL    HW219410   3.720   3.470   1.217 -0.4899  0.7480 -0.0153
 2593SOL     OW19411   3.997   4.611   9.085  0.0843 -0.0990  0.3862
 2593SOL    HW119412   4.065   4.562   9.130 -1.2647 -0.7795  1.6890
 2593SOL    HW219413   4.020   4.697   9.120  2.2715 -0.3616 -0.4084
 2594SOL     OW19414   3.840   3.125  14.033 -0.1865  0.1933 -0.0832
 2594SOL    HW119415   3.870   3.203  14.079 -1.5427  0.0695  0.9783
 2594SOL    HW219416   3.876   3.142  13.946 -1.1079  2.6857  0.0481
 2595SOL     OW19417   3.565   3.007  10.566  0.4106  0.0235 -0.4440
 2595SOL    HW119418   3.644   3.062  10.563 -0.3735  1.0893 -1.5000
 2595SOL    HW219419   3.504   3.080  10.556 -1.0496 -1.0367  0.7711
 2596SOL     OW19420   3.142   1.312   0.756 -0.7270 -0.9595 -0.3848
 2596SOL    HW119421   3.123   1.350   0.842  2.1156  1.4104 -0.8027
 2596SOL    HW219422   3.223   1.263   0.771 -0.0762  0.0691 -0.5542
 2597SOL     OW19423   3.248   0.860   0.221 -0.4998 -0.3793 -0.4567
 2597SOL    HW119424   3.278   0.855   0.130  1.0733  1.4949 -0.0195
 2597SOL    HW219425   3.222   0.952   0.215 -1.3032 -0.5334  0.6336
 2598SOL     OW19426   1.759   4.529  10.145  0.2249  0.0395 -0.0671
 2598SOL    HW119427   1.679   4.515  10.094 -0.0528 -0.1937  0.4436
 2598SOL    HW219428   1.769   4.449  10.197 -1.4235 -0.1486 -0.0541
 2599SOL     OW19429   2.938   0.556   3.462  0.3594  0.6293 -0.0240
 2599SOL    HW119430   2.864   0.496   3.470  3.2551 -2.7029  1.6955
 2599SOL    HW219431   2.962   0.544   3.370 -0.7753 -2.5136  0.1020
 2600SOL     OW19432   4.236   2.326  16.433 -0.0421  0.1827 -0.0117
 2600SOL    HW119433   4.308   2.263  16.441  0.6918  0.8050 -1.5691
 2600SOL    HW219434   4.281   2.411  16.440 -0.0070  0.1087  0.6483
 2601SOL     OW19435   2.021   2.186  10.638 -0.1400  0.1888 -0.0376
 2601SOL    HW119436   1.945   2.128  10.648  1.3917 -2.5270 -4.4789
 2601SOL    HW219437   2.049   2.151  10.554 -2.3816 -0.6828 -0.4164
 2602SOL     OW19438   0.976   3.151   3.897 -0.3189  0.2582  0.0837
 2602SOL    HW119439   1.044   3.219   3.900  0.0251  0.0362 -2.7765
 2602SOL    HW219440   1.010   3.088   3.961 -1.9057  1.4390  2.0869
 2603SOL     OW19441   2.246   0.024   3.042  0.2796 -0.2014 -0.4724
 2603SOL    HW119442   2.311   4.703   3.077 -0.8980 -1.2429 -0.0594
 2603SOL    HW219443   2.301   0.099   3.020  2.1938 -1.3308  0.4518
 2604SOL     OW19444   0.739   0.149  16.668 -0.1091  0.0448  0.1644
 2604SOL    HW119445   0.794   0.074  16.644 -2.8830 -2.0501  0.3791
 2604SOL    HW219446   0.779   0.185  16.747 -0.2757 -1.2085  0.8100
 2605SOL     OW19447   2.446   0.016   4.913  0.6145  0.1911  0.6149
 2605SOL    HW119448   2.519   4.701   4.884  0.7699  1.2479 -0.9943
 2605SOL    HW219449   2.477   0.101   4.883  0.0454 -0.0422 -0.6544
 2606SOL     OW19450   3.889   3.381  14.110  0.2610  0.7359 -0.1713
 2606SOL    HW119451   3.831   3.396  14.185  0.9806 -0.1564  0.5653
 2606SOL    HW219452   3.918   3.468  14.082  0.1947  0.7339 -0.2448
 2607SOL     OW19453   3.550   4.426   7.897  0.3312 -0.0997 -0.0407
 2607SOL    HW119454   3.596   4.397   7.818 -0.2202  0.1373 -0.4553
 2607SOL    HW219455   3.558   4.337   7.930 -0.9168 -0.8983 -1.8799
 2608SOL     OW19456   1.076   2.184  17.092  0.0431  0.1683  0.3074
 2608SOL    HW119457   1.158   2.227  17.068  0.5178  0.1200  1.8175
 2608SOL    HW219458   1.042   2.241  17.161  3.4653  1.0476  1.2866
 2609SOL     OW19459   2.457   4.047   8.210 -0.2229 -0.3001 -0.1686
 2609SOL    HW119460   2.497   4.060   8.124  0.2057  1.5517  0.3132
 2609SOL    HW219461   2.457   3.951   8.214  0.7872 -0.2932 -0.0793
 2610SOL     OW19462   0.265   3.891   2.801 -0.7663 -0.1781  0.8436
 2610SOL    HW119463   0.210   3.827   2.756  0.2906 -0.4489 -0.0762
 2610SOL    HW219464   0.202   3.899   2.872 -0.2225 -1.4230  1.4760
 2611SOL     OW19465   1.701   3.904   5.973 -0.2759 -1.0563 -0.6325
 2611SOL    HW119466   1.642   3.980   5.968 -1.1720 -1.6698  0.4759
 2611SOL    HW219467   1.771   3.939   6.028  0.3180 -1.5942 -1.0542
 2612SOL     OW19468   2.816   0.490  17.089 -0.6130 -0.0685 -0.1027
 2612SOL    HW119469   2.747   0.556  17.087 -0.3771  0.1399 -1.0703
 2612SOL    HW219470   2.781   0.424  17.029 -2.7730 -0.6045  1.7225
 2613SOL     OW19471   3.448   1.843   7.469  0.6298 -0.2709  0.3301
 2613SOL    HW119472   3.496   1.826   7.388 -0.9973  0.0647 -0.7066
 2613SOL    HW219473   3.481   1.775   7.528  2.1946  0.2969  0.1081
 2614SOL     OW19474   3.832   3.800   8.610 -0.1703  0.5780 -0.2819
 2614SOL    HW119475   3.777   3.764   8.680  0.4577 -1.6088 -0.9332
 2614SOL    HW219476   3.898   3.733   8.597  1.1630  1.6809  0.8135
 2615SOL     OW19477   0.601   2.648   2.752  0.0855 -0.2972  0.1801
 2615SOL    HW119478   0.670   2.583   2.737  0.7873  0.4726  0.0794
 2615SOL    HW219479   0.637   2.718   2.699 -1.1911  0.0027 -0.2861
 2616SOL     OW19480   3.746   1.242   3.836 -0.3646 -0.1258 -0.1483
 2616SOL    HW119481   3.811   1.174   3.819 -1.2822 -1.4396  1.6436
 2616SOL    HW219482   3.697   1.247   3.754 -0.1534  0.3154 -0.2495
 2617SOL     OW19483   2.522   2.792  17.217 -0.5842  0.1516 -0.2282
 2617SOL    HW119484   2.438   2.802  17.172 -0.9774  0.2044  0.5211
 2617SOL    HW219485   2.550   2.882  17.202  1.4440 -0.7052 -1.4940
 2618SOL     OW19486   3.342   1.070   6.035 -0.6011 -0.2824  0.6980
 2618SOL    HW119487   3.422   1.034   6.074 -0.5781 -0.0432  0.8724
 2618SOL    HW219488   3.273   1.023   6.083 -0.0967 -0.9255  0.7863
 2619SOL     OW19489   2.690   2.773   4.921 -0.3871 -0.4959  0.0430
 2619SOL    HW119490   2.734   2.689   4.907  1.0528  0.1886  0.3722
 2619SOL    HW219491   2.615   2.753   4.977 -1.6196  0.2311 -1.3508
 2620SOL     OW19492   3.959   1.816   5.064  0.0529  0.2164  0.2322
 2620SOL    HW119493   3.893   1.788   5.128 -0.3946 -0.1893 -0.4023
 2620SOL    HW219494   3.972   1.729   5.025 -0.0328  1.2369 -2.0659
 2621SOL     OW19495   2.343   1.746   2.380 -0.0987 -0.3502 -0.6643
 2621SOL    HW119496   2.279   1.764   2.310  0.1952 -0.3190 -0.9256
 2621SOL    HW219497   2.404   1.820   2.373  2.4933 -2.5457 -1.2063
 2622SOL     OW19498   4.485   4.419   5.454  0.4222  0.0591  0.3779
 2622SOL    HW119499   4.472   4.331   5.490  1.4705 -0.6092 -0.8253
 2622SOL    HW219500   4.402   4.434   5.409  2.0080 -1.3357 -3.0296
 2623SOL     OW19501   3.087   3.745   1.023 -0.5779  0.0832  0.0445
 2623SOL    HW119502   3.059   3.708   1.107 -0.3833 -1.3827 -0.5210
 2623SOL    HW219503   3.097   3.673   0.960  2.1771 -0.8255  1.5569
 2624SOL     OW19504   2.416   2.733   6.454  0.2023 -0.5022 -0.2650
 2624SOL    HW119505   2.423   2.796   6.526  0.9857  0.0857 -0.8563
 2624SOL    HW219506   2.425   2.648   6.498 -1.8720 -0.3328  0.4525
 2625SOL     OW19507   0.865   3.077   5.480  0.2958 -0.0274 -0.0764
 2625SOL    HW119508   0.792   3.108   5.426 -0.8409 -1.1268  0.8356
 2625SOL    HW219509   0.864   2.984   5.458 -1.4980  0.2091 -0.9973
 2626SOL     OW19510   3.239   0.469   6.971  0.0712  0.5008  0.4096
 2626SOL    HW119511   3.315   0.414   6.950  0.8908  1.9290 -0.3647
 2626SOL    HW219512   3.265   0.508   7.055  1.9794  1.7242 -0.7411
 2627SOL     OW19513   2.599   0.048  11.373 -0.2160  0.3438 -0.7607
 2627SOL    HW119514   2.691   0.048  11.398 -0.9839 -1.0807  2.1563
 2627SOL    HW219515   2.580   0.134  11.411  3.6160  0.5059  0.8226
 2628SOL     OW19516   3.957   0.618  11.336 -0.1001  0.2115  0.2333
 2628SOL    HW119517   3.987   0.527  11.326 -0.3850 -0.1234  2.3874
 2628SOL    HW219518   3.913   0.629  11.251 -1.2307  1.2239  0.9560
 2629SOL     OW19519   1.772   4.319   8.105  0.2280 -0.0511  0.0340
 2629SOL    HW119520   1.862   4.326   8.138  0.1844 -1.1877  0.3973
 2629SOL    HW219521   1.783   4.371   8.026 -0.4729  0.9029  0.5639
 2630SOL     OW19522   1.750   4.122   2.615 -0.4131  0.4785 -0.6119
 2630SOL    HW119523   1.835   4.097   2.578  0.3174 -0.5151  1.7479
 2630SOL    HW219524   1.780   4.189   2.676  0.4069  0.3288 -0.8492
 2631SOL     OW19525   0.694   2.130   4.675 -0.5412 -0.3462  0.2957
 2631SOL    HW119526   0.639   2.054   4.658  0.9448 -1.7862  1.9189
 2631SOL    HW219527   0.624   2.194   4.692 -0.8761 -1.3329  2.6677
 2632SOL     OW19528   4.365   2.096  14.840 -0.5819  0.1218  0.1589
 2632SOL    HW119529   4.372   2.189  14.860 -0.2401 -0.1879  1.4422
 2632SOL    HW219530   4.352   2.056  14.926 -1.3079 -1.3235 -0.6277
 2633SOL     OW19531   2.631   1.210   0.553 -0.5747  0.2255 -0.8193
 2633SOL    HW119532   2.666   1.123   0.572 -1.3802  0.5396  2.0783
 2633SOL    HW219533   2.536   1.202   0.564 -0.8115 -0.5650 -3.5267
 2634SOL     OW19534   3.032   4.451   0.237 -0.5369  0.2253  0.0212
 2634SOL    HW119535   3.072   4.439   0.323 -1.1243  1.5432  0.4743
 2634SOL    HW219536   3.069   4.537   0.217 -0.2537  0.2200  0.5402
 2635SOL     OW19537   1.800   2.003  15.853 -0.5500 -0.6217  0.1843
 2635SOL    HW119538   1.872   2.063  15.833 -0.8818  0.0477  0.9828
 2635SOL    HW219539   1.772   2.044  15.935  0.3336  0.6472 -0.1416
 2636SOL     OW19540   1.041   2.443   7.388  0.1330 -0.2320 -0.0611
 2636SOL    HW119541   0.987   2.365   7.369  0.3743 -0.7780  1.5307
 2636SOL    HW219542   1.004   2.503   7.324  0.0351  0.0876  0.2985
 2637SOL     OW19543   1.237   1.755   8.444  0.5153  0.2220 -0.0841
 2637SOL    HW119544   1.156   1.707   8.427 -0.1932  1.3642  0.0525
 2637SOL    HW219545   1.210   1.842   8.412  0.8569 -0.6296 -2.7078
 2638SOL     OW19546   3.541   3.090   7.046 -0.4444 -0.1851 -0.4708
 2638SOL    HW119547   3.581   3.050   7.123 -0.1109  1.8679  0.3945
 2638SOL    HW219548   3.619   3.140   7.023 -0.1978 -1.3641 -2.1930
 2639SOL     OW19549   1.980   0.080  16.851  0.3481  0.0647 -0.4882
 2639SOL    HW119550   1.957   0.066  16.943  3.6851  0.6865  0.4295
 2639SOL    HW219551   2.073   0.057  16.849  1.1348  2.9080  3.3345
 2640SOL     OW19552   2.479   0.919  11.932  0.4374 -0.1569 -0.4153
 2640SOL    HW119553   2.512   0.916  11.842  1.1125  0.4836 -0.1820
 2640SOL    HW219554   2.404   0.860  11.923  1.6065 -1.5894 -0.8311
 2641SOL     OW19555   2.202   4.624   3.796 -0.1582  1.0307 -0.6895
 2641SOL    HW119556   2.186   4.671   3.714  3.0433  2.6672 -0.3612
 2641SOL    HW219557   2.118   4.579   3.804  1.7029 -2.8140 -2.7701
 2642SOL     OW19558   2.910   1.713  16.936  0.0497 -0.0037 -0.3208
 2642SOL    HW119559   2.982   1.734  16.996  0.3820 -2.1465  0.0554
 2642SOL    HW219560   2.878   1.802  16.924 -3.0463 -1.2011 -1.0314
 2643SOL     OW19561   2.221   0.646  12.457 -0.1609 -0.3162  0.3413
 2643SOL    HW119562   2.300   0.653  12.404 -0.5418 -0.2817 -0.2180
 2643SOL    HW219563   2.259   0.578  12.514  2.9058  0.1638 -1.1074
 2644SOL     OW19564   0.226   2.207   3.584 -0.1967 -0.0603  0.0191
 2644SOL    HW119565   0.146   2.180   3.540 -0.3750 -2.4389  1.8089
 2644SOL    HW219566   0.184   2.227   3.667 -1.4429  1.6549 -1.0218
 2645SOL     OW19567   4.647   0.976   6.636  0.3690  0.5629  0.3356
 2645SOL    HW119568   4.612   0.977   6.725 -0.4925 -0.2042  0.0105
 2645SOL    HW219569   4.644   0.883   6.614  1.6682  0.9554 -1.5303
 2646SOL     OW19570   3.294   1.027   4.668 -0.2550 -0.2052  0.0041
 2646SOL    HW119571   3.219   1.042   4.610 -0.6705 -1.7004  0.1663
 2646SOL    HW219572   3.320   0.937   4.648 -0.9103 -0.7084  1.3815
 2647SOL     OW19573   0.677   2.582   5.311  0.0155 -0.1396 -0.0210
 2647SOL    HW119574   0.585   2.580   5.335 -0.2890 -0.7002 -1.2334
 2647SOL    HW219575   0.679   2.511   5.247  0.0837  0.0338 -0.2140
 2648SOL     OW19576   2.666   4.442  17.663 -0.2032  0.0865 -0.1478
 2648SOL    HW119577   2.600   4.423  17.729  0.0502 -0.7883 -0.1511
 2648SOL    HW219578   2.624   4.409  17.584 -0.2104  0.8946 -0.4873
 2649SOL     OW19579   4.057   2.261  12.587  0.5900 -0.2960  0.0875
 2649SOL    HW119580   4.055   2.269  12.492 -0.1276  0.9523  0.2077
 2649SOL    HW219581   3.996   2.328  12.618  0.0155 -0.0888 -1.4670
 2650SOL     OW19582   3.689   1.639   2.281  0.4024  0.1212 -0.1634
 2650SOL    HW119583   3.677   1.603   2.369  1.0381  0.0228 -0.1182
 2650SOL    HW219584   3.780   1.610   2.268  0.1136 -0.5798 -0.6530
 2651SOL     OW19585   3.321   0.633   7.180 -0.3798 -0.2335 -0.1335
 2651SOL    HW119586   3.403   0.592   7.151 -1.1501  0.6015 -3.5190
 2651SOL    HW219587   3.330   0.722   7.146  0.1058 -1.6370 -3.6796
 2652SOL     OW19588   1.091   3.702  11.528 -0.1514  0.7983  0.1500
 2652SOL    HW119589   1.012   3.756  11.519 -1.1976 -0.5503  1.3880
 2652SOL    HW219590   1.073   3.694  11.621 -0.1739 -0.2456  0.0561
 2653SOL     OW19591   1.163   2.924   8.866 -0.2063  0.5113  0.6014
 2653SOL    HW119592   1.186   2.947   8.956 -1.0017 -0.2192  0.9883
 2653SOL    HW219593   1.169   3.006   8.817 -0.8143  0.8957  1.1654
 2654SOL     OW19594   3.977   0.925   5.105 -0.5879  0.7247 -0.0240
 2654SOL    HW119595   3.903   0.954   5.158  0.0347  1.1265  0.6084
 2654SOL    HW219596   4.036   1.000   5.109  1.1633 -0.7796  2.1425
 2655SOL     OW19597   3.620   0.730  14.958  0.2465  0.2965 -0.3992
 2655SOL    HW119598   3.541   0.781  14.940 -0.7946 -1.7397 -1.6820
 2655SOL    HW219599   3.677   0.774  14.895  0.3578 -0.8832 -1.1236
 2656SOL     OW19600   2.013   0.351  12.478 -0.3570 -0.2928 -0.0419
 2656SOL    HW119601   1.943   0.331  12.415 -1.1289  2.2970 -0.0384
 2656SOL    HW219602   1.953   0.396  12.538 -0.1809  1.4135 -1.1261
 2657SOL     OW19603   2.339   0.934   8.089 -0.3628 -0.1912 -0.8005
 2657SOL    HW119604   2.331   0.943   7.994  0.4407 -0.2382 -0.8720
 2657SOL    HW219605   2.320   1.022   8.122 -1.1079 -1.4536  2.0965
 2658SOL     OW19606   0.769   1.955   3.992  0.0722  0.0297  0.0615
 2658SOL    HW119607   0.709   1.982   3.923  1.1647 -0.9543 -1.2897
 2658SOL    HW219608   0.714   1.981   4.065  0.2956 -2.2243  1.0483
 2659SOL     OW19609   0.824   3.340  15.327  0.5038  0.5939  0.1020
 2659SOL    HW119610   0.744   3.387  15.305  0.7981  1.2847  0.5079
 2659SOL    HW219611   0.875   3.369  15.251  0.5052  1.7273  0.5284
 2660SOL     OW19612   3.275   2.540  17.219 -0.0809 -0.0868 -0.2911
 2660SOL    HW119613   3.214   2.595  17.268 -0.4617  0.5873 -1.5065
 2660SOL    HW219614   3.353   2.596  17.220 -0.9059  1.0760 -1.0509
 2661SOL     OW19615   1.536   2.920  14.847 -0.0563  0.0234 -0.0463
 2661SOL    HW119616   1.462   2.927  14.907  0.6061  3.0190  0.4178
 2661SOL    HW219617   1.532   2.829  14.818 -2.6753 -0.6339  2.4313
 2662SOL     OW19618   2.798   4.485   5.974  0.3366 -0.3319  0.0751
 2662SOL    HW119619   2.791   4.508   6.067 -0.0028  0.9282 -0.2601
 2662SOL    HW219620   2.710   4.464   5.943  0.7264 -2.8374  0.6661
 2663SOL     OW19621   1.718   1.138   4.605 -0.2241  0.0994 -0.1313
 2663SOL    HW119622   1.789   1.163   4.546 -0.6383  0.0701 -0.6419
 2663SOL    HW219623   1.696   1.054   4.565 -0.9233 -0.3100  1.1044
 2664SOL     OW19624   1.498   2.545   4.833 -0.0576 -0.2032 -0.0673
 2664SOL    HW119625   1.478   2.560   4.926  0.6017 -4.1691  0.7303
 2664SOL    HW219626   1.573   2.485   4.834  0.7050  0.7333 -0.4973
 2665SOL     OW19627   1.521   3.026   8.770 -0.2027  0.2590 -0.4395
 2665SOL    HW119628   1.534   3.098   8.832  0.7892  2.0909 -2.7748
 2665SOL    HW219629   1.473   3.069   8.699  1.1800  0.1593 -1.4261
 2666SOL     OW19630   1.311   0.191   2.150 -0.3194 -0.2793  0.0780
 2666SOL    HW119631   1.267   0.106   2.147 -0.4310 -0.2909  2.3003
 2666SOL    HW219632   1.240   0.236   2.104 -1.9558  0.5160  3.3748
 2667SOL     OW19633   2.824   4.039   6.663 -0.1520 -0.2403  0.2648
 2667SOL    HW119634   2.781   3.954   6.675 -3.0129  0.9859 -1.3305
 2667SOL    HW219635   2.875   4.010   6.586  1.4910 -0.3631  1.3950
 2668SOL     OW19636   0.796   3.554   5.143  0.2158 -1.1715  0.5505
 2668SOL    HW119637   0.713   3.509   5.134 -0.3274  0.5784 -2.8671
 2668SOL    HW219638   0.818   3.540   5.051 -0.8813 -0.8285  0.2406
 2669SOL     OW19639   1.262   2.305   4.457 -0.1226 -0.6378 -0.0257
 2669SOL    HW119640   1.215   2.259   4.527  0.1034 -0.0708  0.4937
 2669SOL    HW219641   1.285   2.387   4.501 -1.5920  0.1670 -0.7623
 2670SOL     OW19642   0.399   2.709   8.813 -0.1742 -0.1249  0.7141
 2670SOL    HW119643   0.399   2.644   8.883 -0.7844 -0.5998  0.2720
 2670SOL    HW219644   0.409   2.796   8.853  0.4187  0.2711 -0.2617
 2671SOL     OW19645   4.220   3.691   8.588  0.5795 -0.1084  0.0462
 2671SOL    HW119646   4.137   3.645   8.603 -0.1673 -0.0477 -3.8163
 2671SOL    HW219647   4.281   3.618   8.594  1.5670  0.7588  0.5205
 2672SOL     OW19648   0.952   4.067   9.135 -0.2397  0.1675  0.2408
 2672SOL    HW119649   1.033   4.026   9.165  0.9551  1.7021 -0.8469
 2672SOL    HW219650   0.931   4.128   9.205 -2.4158  0.0627 -0.3110
 2673SOL     OW19651   4.293   0.832   6.867 -0.1032  0.0056 -0.2354
 2673SOL    HW119652   4.301   0.817   6.773  1.0136  1.7408 -0.4141
 2673SOL    HW219653   4.199   0.844   6.884  0.0962  0.5567  0.4867
 2674SOL     OW19654   3.419   2.414   4.634  0.0178  0.0036 -0.4405
 2674SOL    HW119655   3.365   2.478   4.587 -0.0149  0.0697 -0.3115
 2674SOL    HW219656   3.431   2.355   4.559  0.0935  1.2114 -1.3764
 2675SOL     OW19657   0.860   1.616  17.702 -0.4763 -0.9912  0.2721
 2675SOL    HW119658   0.857   1.534  17.654  0.0823 -0.1924 -1.1185
 2675SOL    HW219659   0.835   1.590   0.034  0.5896 -0.6961  0.6510
 2676SOL     OW19660   2.561   1.164   6.028  0.0416 -0.4363 -0.0921
 2676SOL    HW119661   2.583   1.101   6.097 -0.5749  0.0158  0.5128
 2676SOL    HW219662   2.466   1.169   6.034  0.2371  1.6050  1.3623
 2677SOL     OW19663   1.035   0.511   2.503 -0.0615  0.5990  0.7092
 2677SOL    HW119664   1.084   0.576   2.453  0.1751 -0.7991 -0.8768
 2677SOL    HW219665   0.977   0.571   2.549  0.4046 -1.5473  4.1069
 2678SOL     OW19666   2.697   4.324   7.931  0.2694  0.1155 -0.0576
 2678SOL    HW119667   2.755   4.269   7.879  1.8796 -1.9917  3.9362
 2678SOL    HW219668   2.627   4.261   7.946  0.2925 -0.2319 -1.4465
 2679SOL     OW19669   4.180   2.878   5.318 -0.1932 -0.3390 -0.1275
 2679SOL    HW119670   4.261   2.898   5.272  0.6248 -0.4217  1.2599
 2679SOL    HW219671   4.140   2.819   5.254  0.6667 -0.6350 -0.3933
 2680SOL     OW19672   3.671   1.883   5.428 -0.1198  0.0929 -0.4359
 2680SOL    HW119673   3.622   1.804   5.448  2.3526 -1.0276  1.1767
 2680SOL    HW219674   3.648   1.896   5.335 -0.5843  0.1115 -0.3185
 2681SOL     OW19675   4.665   0.483   8.418  0.4139 -0.0640  0.0118
 2681SOL    HW119676   0.007   0.493   8.465  0.4818  0.9012 -0.3133
 2681SOL    HW219677   4.657   0.388   8.427 -0.7624 -0.1023 -1.4380
 2682SOL     OW19678   3.000   3.425   5.143  0.1558 -0.0111  0.2601
 2682SOL    HW119679   3.056   3.359   5.103 -2.0452 -1.5383 -0.3452
 2682SOL    HW219680   3.035   3.431   5.231 -1.0215 -0.5480  0.7683
 2683SOL     OW19681   2.669   0.382   6.940  0.1775 -0.6533 -0.0904
 2683SOL    HW119682   2.605   0.448   6.915  0.3549 -0.4534 -0.0148
 2683SOL    HW219683   2.730   0.401   6.868 -3.6103 -0.7796 -3.3362
 2684SOL     OW19684   3.768   3.678   4.107  0.1613  0.3587 -0.7312
 2684SOL    HW119685   3.802   3.595   4.140 -0.1214  0.4821 -0.1302
 2684SOL    HW219686   3.713   3.699   4.182  1.7282  0.2090  0.4604
 2685SOL     OW19687   0.422   1.734  14.058  1.0905  0.2007 -0.1227
 2685SOL    HW119688   0.404   1.643  14.034  0.3168  0.2026  0.4475
 2685SOL    HW219689   0.443   1.710  14.149 -0.6050 -1.7926 -0.2682
 2686SOL     OW19690   3.162   0.755  12.373 -0.1138  0.8095  0.2114
 2686SOL    HW119691   3.195   0.715  12.453 -0.0976 -2.6188 -1.4936
 2686SOL    HW219692   3.089   0.695  12.357 -0.4699  1.3720 -0.2797
 2687SOL     OW19693   1.052   1.813   0.649 -0.4807 -0.2988 -0.2400
 2687SOL    HW119694   1.145   1.834   0.650 -0.3968 -0.6941  0.7958
 2687SOL    HW219695   1.054   1.731   0.698  2.1179  0.2509  0.5364
 2688SOL     OW19696   3.100   2.170   8.416 -0.0893  0.3046 -0.5346
 2688SOL    HW119697   3.167   2.238   8.409 -0.8462  1.1032  0.0513
 2688SOL    HW219698   3.061   2.179   8.328 -1.7292  1.3907  0.2938
 2689SOL     OW19699   2.405   4.363   0.042  0.7323 -0.4202 -0.0531
 2689SOL    HW119700   2.321   4.408   0.043  0.5638 -0.7274 -0.0730
 2689SOL    HW219701   2.377   4.294   0.103  4.3904  0.4773  2.6214
 2690SOL     OW19702   0.470   2.091  10.883  0.1120 -0.2484 -0.2212
 2690SOL    HW119703   0.533   2.056  10.946 -2.0043 -1.3039  1.3510
 2690SOL    HW219704   0.391   2.043  10.910  0.5202 -1.0402 -0.4402
 2691SOL     OW19705   3.106   0.809   9.287  0.2924  0.2854 -0.1299
 2691SOL    HW119706   3.068   0.747   9.225 -3.1796  1.1429  1.1342
 2691SOL    HW219707   3.153   0.742   9.336 -1.4764  0.4857  1.8595
 2692SOL     OW19708   4.734   1.716   2.129 -0.0355 -0.4720  0.2188
 2692SOL    HW119709   0.070   1.678   2.173  0.3343  0.8127  0.6956
 2692SOL    HW219710   0.037   1.768   2.061 -0.9394  0.6521  0.5186
 2693SOL     OW19711   0.801   1.921   7.532  0.5907 -0.3990 -0.5136
 2693SOL    HW119712   0.889   1.895   7.505  0.0591 -1.3940 -1.2882
 2693SOL    HW219713   0.801   1.893   7.623 -0.8314 -1.5339 -0.8772
 2694SOL     OW19714   0.592   0.538   9.395 -0.3649 -0.7494 -0.2891
 2694SOL    HW119715   0.507   0.550   9.353 -0.0716 -1.4927 -1.0964
 2694SOL    HW219716   0.584   0.615   9.451 -2.3041 -1.0670 -0.1280
 2695SOL     OW19717   2.778   4.048   6.984 -0.2380 -0.1211  0.3446
 2695SOL    HW119718   2.728   4.012   6.911  0.9056 -1.3711  0.1665
 2695SOL    HW219719   2.853   3.989   6.974 -1.1116 -1.5745  2.4252
 2696SOL     OW19720   1.935   1.906   1.735 -0.0051  0.1346  0.0013
 2696SOL    HW119721   1.925   1.975   1.669 -0.2573 -1.5525 -1.7380
 2696SOL    HW219722   1.853   1.857   1.739  0.2141 -0.2370 -0.0913
 2697SOL     OW19723   2.021   4.230  15.208  0.4556 -0.3043  0.3973
 2697SOL    HW119724   2.055   4.319  15.217  0.4343 -0.4991  2.4222
 2697SOL    HW219725   2.105   4.193  15.182 -0.0360 -1.7813  0.9230
 2698SOL     OW19726   1.969   0.610   7.814 -0.5729 -0.0128  0.0811
 2698SOL    HW119727   2.008   0.645   7.894 -0.9348 -0.4806  0.4589
 2698SOL    HW219728   1.987   0.673   7.744 -0.6588 -0.4427 -0.3326
 2699SOL     OW19729   0.695   1.362   6.296  0.5667 -0.5945 -0.1331
 2699SOL    HW119730   0.773   1.400   6.337 -0.1360  0.5081  0.1883
 2699SOL    HW219731   0.620   1.402   6.341  0.6447  0.6813 -1.1358
 2700SOL     OW19732   0.969   1.908   9.401 -0.0272  0.3039  0.1313
 2700SOL    HW119733   1.010   1.882   9.483  1.1346  0.1925 -0.4871
 2700SOL    HW219734   1.047   1.935   9.353  0.2741 -1.9449 -0.6492
 2701SOL     OW19735   2.323   2.735   1.678  0.0941 -0.2238  0.1132
 2701SOL    HW119736   2.285   2.660   1.723  0.5891 -0.3019  0.4078
 2701SOL    HW219737   2.377   2.762   1.753 -0.1150  1.2233 -0.2591
 2702SOL     OW19738   0.061   4.067   8.612 -0.2338  0.0114  0.5041
 2702SOL    HW119739   0.099   4.154   8.598 -2.0549  0.3790 -2.0264
 2702SOL    HW219740   0.069   4.016   8.532 -0.1938  0.3730  0.2754
 2703SOL     OW19741   0.107   4.434   2.760 -0.1757  0.3482  0.8894
 2703SOL    HW119742   0.074   4.345   2.760 -1.8523  0.9610 -0.1342
 2703SOL    HW219743   0.187   4.429   2.707  0.2328 -1.0073  1.6329
 2704SOL     OW19744   2.191   4.110   8.263 -0.1195 -0.1789 -0.6091
 2704SOL    HW119745   2.281   4.091   8.239  0.5205 -0.4920  2.0586
 2704SOL    HW219746   2.200   4.168   8.338  0.5794  0.9271 -1.5516
 2705SOL     OW19747   2.487   4.157  10.257 -0.3396 -0.5801 -0.0130
 2705SOL    HW119748   2.445   4.198  10.181  2.1446  1.1165 -0.4279
 2705SOL    HW219749   2.464   4.215  10.329  0.7745  2.4507 -2.1392
 2706SOL     OW19750   3.196   0.092  12.742 -0.3605  0.1999 -0.4959
 2706SOL    HW119751   3.205   0.009  12.789  0.4651  0.3937 -0.3054
 2706SOL    HW219752   3.157   0.142  12.814  1.8736 -0.5987  1.2800
 2707SOL     OW19753   3.549   0.497  16.140  0.5547 -0.3890  0.6782
 2707SOL    HW119754   3.470   0.502  16.194 -0.5309  2.9921 -1.2745
 2707SOL    HW219755   3.556   0.588  16.112  2.7233 -0.6157  0.4724
 2708SOL     OW19756   4.542   1.395   4.291  0.4776  0.0254 -0.5925
 2708SOL    HW119757   4.610   1.329   4.302 -1.0526 -1.3854  0.3451
 2708SOL    HW219758   4.483   1.361   4.224 -1.0029  1.8568 -0.2348
 2709SOL     OW19759   1.488   1.040   7.474 -0.3075  0.6314 -0.0427
 2709SOL    HW119760   1.518   0.951   7.493 -0.2602  0.7045  0.2228
 2709SOL    HW219761   1.477   1.035   7.379  0.3810  2.0393 -0.1903
 2710SOL     OW19762   3.537   3.328  13.221 -0.1905  0.4748  0.3859
 2710SOL    HW119763   3.621   3.360  13.253  0.7486  0.0748 -1.7143
 2710SOL    HW219764   3.520   3.386  13.147  2.6990  2.4291  1.2746
 2711SOL     OW19765   2.678   4.671   4.075  0.2784  0.4018  0.3018
 2711SOL    HW119766   2.667   4.713   4.161 -0.7039  0.6731  0.0460
 2711SOL    HW219767   2.699   0.009   4.024  1.9609 -1.1494 -1.3142
 2712SOL     OW19768   2.541   3.320   6.528 -0.5649  0.1042  0.1178
 2712SOL    HW119769   2.568   3.401   6.485  0.3545  0.4765  1.4055
 2712SOL    HW219770   2.449   3.308   6.506  0.3256 -1.1898 -2.8316
 2713SOL     OW19771   2.676   3.658   2.042 -0.2332  0.8034  0.1894
 2713SOL    HW119772   2.753   3.656   2.098 -0.7319  0.9760  0.8716
 2713SOL    HW219773   2.669   3.750   2.019  1.0353  0.5665 -1.1880
 2714SOL     OW19774   1.944   0.766   6.871 -0.0667  0.4494  0.3031
 2714SOL    HW119775   2.012   0.780   6.804  1.9165 -0.0475  2.2197
 2714SOL    HW219776   1.967   0.839   6.928 -2.3401 -0.3430  2.2189
 2715SOL     OW19777   1.883   0.619   8.274 -0.1483  0.5599  0.2880
 2715SOL    HW119778   1.889   0.640   8.181  0.1645  1.3096  0.4779
 2715SOL    HW219779   1.904   0.526   8.282 -1.7514  0.1560 -0.1851
 2716SOL     OW19780   1.568   4.095  15.776  0.6500 -0.2858  0.0423
 2716SOL    HW119781   1.511   4.148  15.722 -1.9410 -2.2175  0.8878
 2716SOL    HW219782   1.566   4.136  15.863  0.6602  0.1440 -0.1590
 2717SOL     OW19783   4.708   3.794   4.462  0.1997 -0.2325 -0.1643
 2717SOL    HW119784   0.061   3.814   4.473  0.1908 -0.7981  1.0170
 2717SOL    HW219785   4.699   3.700   4.480  0.1697  0.1217  1.6842
 2718SOL     OW19786   4.389   4.665   4.003 -0.4690  0.3269 -0.2008
 2718SOL    HW119787   4.316   4.626   4.050  0.1103 -0.3559  0.1395
 2718SOL    HW219788   4.461   4.605   4.026  0.1790  0.9474 -0.6119
 2719SOL     OW19789   4.503   1.530   8.094  0.3628  0.1375  0.4296
 2719SOL    HW119790   4.557   1.598   8.053 -0.0150  0.7179  0.8838
 2719SOL    HW219791   4.516   1.555   8.186  2.1797  2.4991 -0.4371
 2720SOL     OW19792   2.424   2.103   4.824 -0.0138  0.0779  0.1320
 2720SOL    HW119793   2.465   2.101   4.737 -1.5208 -0.8349 -0.5468
 2720SOL    HW219794   2.494   2.134   4.881  0.4980  0.8159 -0.8968
 2721SOL     OW19795   4.532   1.524  13.180 -0.1907  0.1094  0.1756
 2721SOL    HW119796   4.437   1.513  13.187 -0.1716 -1.1778 -1.5965
 2721SOL    HW219797   4.557   1.432  13.183 -1.6230 -0.2410  1.5018
 2722SOL     OW19798   0.495   3.003   3.528  0.5027  0.7070 -0.5996
 2722SOL    HW119799   0.465   2.955   3.451  0.3450  0.7921 -0.5910
 2722SOL    HW219800   0.426   3.069   3.532  1.2185  1.4773 -0.9556
 2723SOL     OW19801   4.655   3.361   3.848 -0.1833 -0.2588 -0.1816
 2723SOL    HW119802   4.636   3.330   3.936  0.7313  1.3551  0.5794
 2723SOL    HW219803   4.582   3.321   3.799 -0.8098 -1.6602  1.8871
 2724SOL     OW19804   2.982   1.977   2.770 -0.8382 -0.1981  0.4732
 2724SOL    HW119805   3.031   2.040   2.823 -0.6396 -1.5753  1.9295
 2724SOL    HW219806   2.944   2.041   2.710  3.1690  1.2919 -0.4588
 2725SOL     OW19807   2.948   4.235  17.537  0.7161  0.0270 -0.6310
 2725SOL    HW119808   2.993   4.159  17.574 -2.0678 -0.7084  1.1704
 2725SOL    HW219809   2.948   4.297  17.610 -2.1915 -1.5873  0.7305
 2726SOL     OW19810   2.996   1.211   7.004  0.7229  0.4132 -0.1696
 2726SOL    HW119811   2.966   1.207   7.095  1.6119  0.6488  0.1326
 2726SOL    HW219812   3.036   1.297   6.993 -0.0760  0.9150  0.7799
 2727SOL     OW19813   0.347   4.250   3.746 -0.0741 -0.3726 -0.1652
 2727SOL    HW119814   0.337   4.313   3.817 -0.6095  0.0783 -0.6409
 2727SOL    HW219815   0.409   4.299   3.693  0.9214 -0.3307  1.0314
 2728SOL     OW19816   4.064   3.906   9.819  0.0805 -0.1651 -0.1211
 2728SOL    HW119817   3.999   3.843   9.788  1.1990 -1.6709  0.6078
 2728SOL    HW219818   4.079   3.869   9.906 -0.8702  1.7804  0.8642
 2729SOL     OW19819   0.337   1.861   9.853  0.2755 -1.0123 -0.3615
 2729SOL    HW119820   0.265   1.854   9.917  2.2450 -0.6755  1.8880
 2729SOL    HW219821   0.396   1.925   9.892 -1.1330  0.2478 -0.2862
 2730SOL     OW19822   4.296   1.853   7.600  0.1712 -0.3444 -0.0338
 2730SOL    HW119823   4.232   1.790   7.634  0.8236 -1.3270 -0.6440
 2730SOL    HW219824   4.296   1.818   7.511  1.8007 -3.3765  1.1601
 2731SOL     OW19825   1.809   0.593  10.301 -0.0848  0.0147 -0.0640
 2731SOL    HW119826   1.864   0.669  10.282  1.8579 -1.5916 -0.7954
 2731SOL    HW219827   1.855   0.538  10.238 -1.0743 -0.3718 -0.4491
 2732SOL     OW19828   3.085   1.605   6.099  0.5832  0.6634 -0.1365
 2732SOL    HW119829   3.047   1.692   6.112  0.4747  0.6136 -0.1227
 2732SOL    HW219830   3.168   1.625   6.055 -0.2476 -0.8213 -2.3937
 2733SOL     OW19831   4.463   2.209  11.895 -0.3590 -0.1066  0.1837
 2733SOL    HW119832   4.393   2.259  11.937 -1.3026  0.8479 -2.5175
 2733SOL    HW219833   4.467   2.128  11.946  0.9797 -1.3419 -1.9117
 2734SOL     OW19834   3.690   0.089   5.858 -0.3297 -0.2427  0.6658
 2734SOL    HW119835   3.680   4.738   5.831 -1.5791  0.1302 -0.1553
 2734SOL    HW219836   3.659   0.138   5.781  0.5134 -1.4547 -0.4376
 2735SOL     OW19837   2.634   2.306   7.086 -0.0118  0.5146  0.1558
 2735SOL    HW119838   2.609   2.257   7.164  1.1375  2.1409  1.5357
 2735SOL    HW219839   2.589   2.389   7.105  0.7060  0.5682  1.6085
 2736SOL     OW19840   0.490   4.740   2.486  0.0441 -0.4283  0.2415
 2736SOL    HW119841   0.398   4.731   2.509 -0.3674  1.6205 -0.5723
 2736SOL    HW219842   0.530   4.715   2.569 -0.9454  1.1122  1.1697
 2737SOL     OW19843   2.537   2.603   8.858  0.6561  0.1239  0.2595
 2737SOL    HW119844   2.472   2.566   8.918 -0.5998 -1.1255 -1.8477
 2737SOL    HW219845   2.556   2.683   8.906 -0.5529  0.6707 -0.1774
 2738SOL     OW19846   2.775   1.271   6.741  0.3501  1.2781  0.0303
 2738SOL    HW119847   2.799   1.239   6.828 -0.2337  0.6693 -0.0348
 2738SOL    HW219848   2.700   1.327   6.760 -0.3074  0.6576 -0.7326
 2739SOL     OW19849   0.052   1.094   2.736  0.5895 -0.1126 -0.3832
 2739SOL    HW119850   0.034   1.185   2.757 -1.6030 -0.1008 -2.3846
 2739SOL    HW219851   0.122   1.085   2.801  0.6662 -1.0571 -0.5874
 2740SOL     OW19852   3.041   3.330  10.748  0.2075 -0.4142 -0.2931
 2740SOL    HW119853   3.077   3.415  10.776 -0.8881 -0.5752  1.6097
 2740SOL    HW219854   3.012   3.289  10.829 -0.2591 -0.7047 -0.6035
 2741SOL     OW19855   3.289   1.621   5.539  0.3906  0.7326  0.5458
 2741SOL    HW119856   3.369   1.662   5.505 -0.3753  1.1486 -0.7603
 2741SOL    HW219857   3.299   1.532   5.507  1.6988  0.5929  1.3371
 2742SOL     OW19858   0.404   3.467  11.046  0.2162  0.4447 -0.3748
 2742SOL    HW119859   0.442   3.527  10.981  0.2550 -2.1392 -2.7404
 2742SOL    HW219860   0.472   3.485  11.111  1.2460  0.9441 -1.5655
 2743SOL     OW19861   3.689   2.807   0.020  0.3754  0.3349  0.3382
 2743SOL    HW119862   3.739   2.755   0.083 -2.3172 -0.2102  2.0287
 2743SOL    HW219863   3.608   2.823   0.068 -0.1073 -1.7364  0.2210
 2744SOL     OW19864   2.069   3.847   9.431 -0.1449 -0.5765 -0.1949
 2744SOL    HW119865   1.996   3.812   9.483 -0.5242  2.3080  1.1805
 2744SOL    HW219866   2.093   3.934   9.464 -0.9762 -0.6340  0.5493
 2745SOL     OW19867   2.574   4.320   4.849 -0.2179  0.7088 -0.3929
 2745SOL    HW119868   2.611   4.407   4.834 -0.0290  0.7958  0.5225
 2745SOL    HW219869   2.536   4.307   4.763  1.4142 -2.2863 -0.6529
 2746SOL     OW19870   0.987   1.057   7.403  0.7024  0.5909 -1.0204
 2746SOL    HW119871   1.063   1.080   7.456  1.2999  1.5012 -2.2530
 2746SOL    HW219872   0.962   1.136   7.353 -0.1000  0.6478 -0.5293
 2747SOL     OW19873   3.463   1.020   0.001  0.5928  0.2869 -0.2746
 2747SOL    HW119874   3.440   0.933  17.726  0.6219  0.1782  0.0076
 2747SOL    HW219875   3.538   1.004   0.058 -0.3870  0.7290  1.1250
 2748SOL     OW19876   0.014   1.601  17.299 -0.5477 -0.3930 -0.0164
 2748SOL    HW119877   0.033   1.583  17.207  0.9850 -1.3904  0.5053
 2748SOL    HW219878   0.089   1.654  17.325  0.3363 -0.7787 -1.7744
 2749SOL     OW19879   2.539   4.581   1.389 -0.3565  0.3700  0.2845
 2749SOL    HW119880   2.612   4.518   1.392 -1.4707 -0.8896  0.8705
 2749SOL    HW219881   2.510   4.578   1.298  0.2479 -1.1152  0.1373
 2750SOL     OW19882   1.545   4.136   8.548 -0.7204 -0.0478 -0.2089
 2750SOL    HW119883   1.539   4.227   8.579 -0.4741  0.2671 -1.1028
 2750SOL    HW219884   1.475   4.114   8.487  0.1120 -2.1661 -0.3779
 2751SOL     OW19885   1.049   4.467  14.801 -0.1773  0.0078 -0.5169
 2751SOL    HW119886   1.005   4.471  14.886  1.3977 -2.6219  0.4062
 2751SOL    HW219887   1.064   4.560  14.784  0.9627  0.4404  2.7555
 2752SOL     OW19888   1.593   1.969  12.765 -0.1814  0.1160 -0.1419
 2752SOL    HW119889   1.632   1.888  12.733 -0.4947  0.0847 -0.4451
 2752SOL    HW219890   1.505   1.940  12.790 -0.6555  0.0245 -1.9069
 2753SOL     OW19891   0.295   4.340  10.633  0.5404  0.3933  0.0670
 2753SOL    HW119892   0.360   4.401  10.599  1.9504 -0.9249  0.3912
 2753SOL    HW219893   0.232   4.323  10.563  2.9680 -2.5315 -1.3752
 2754SOL     OW19894   1.797   0.822   9.369 -0.2428 -0.1578 -0.2265
 2754SOL    HW119895   1.799   0.726   9.375  0.3810 -0.1477 -0.3281
 2754SOL    HW219896   1.788   0.844   9.277 -2.4717  2.7115  0.6619
 2755SOL     OW19897   4.729   0.341  14.088  0.2230  0.4313 -0.3035
 2755SOL    HW119898   4.708   0.383  14.005 -3.5280  0.8243  0.8482
 2755SOL    HW219899   0.059   0.280  14.065 -1.9643 -2.0345 -0.4511
 2756SOL     OW19900   0.067   1.263   7.203  0.1184  0.1394 -1.0350
 2756SOL    HW119901   0.036   1.345   7.242  0.3487 -1.0360  1.6182
 2756SOL    HW219902   0.049   1.281   7.111 -0.2730  0.1818 -0.9501
 2757SOL     OW19903   3.239   1.067   8.510  0.6472 -0.4099  0.3504
 2757SOL    HW119904   3.274   1.055   8.599  2.2344  2.8429  0.1521
 2757SOL    HW219905   3.246   0.974   8.490  1.9488 -0.5091  1.2400
 2758SOL     OW19906   1.821   2.956  12.668  0.0590 -0.3540  0.2836
 2758SOL    HW119907   1.842   2.902  12.744  0.8052 -0.8426 -0.2707
 2758SOL    HW219908   1.755   3.010  12.711 -0.7678  0.9905 -2.6775
 2759SOL     OW19909   3.901   4.110   2.794 -0.2897 -0.2731 -0.5098
 2759SOL    HW119910   3.858   4.184   2.838 -2.3965  0.8732 -4.4810
 2759SOL    HW219911   3.995   4.105   2.811 -1.0574 -2.8858  2.8662
 2760SOL     OW19912   3.633   0.523   1.170 -0.2024  0.3784  0.1379
 2760SOL    HW119913   3.600   0.461   1.235  1.0406 -1.2520 -0.7766
 2760SOL    HW219914   3.576   0.598   1.183 -0.8273 -0.6465  3.3569
 2761SOL     OW19915   2.795   4.500   6.859  0.3438 -0.0667 -0.4633
 2761SOL    HW119916   2.820   4.524   6.770 -0.5433 -0.1328 -0.7256
 2761SOL    HW219917   2.708   4.463   6.841  0.1005  1.1220 -1.7040
 2762SOL     OW19918   4.037   2.047  13.599 -0.1966 -0.0195 -0.0722
 2762SOL    HW119919   4.006   2.114  13.537 -1.2009 -0.0151  0.4326
 2762SOL    HW219920   4.124   2.083  13.616  0.4180 -1.5820  0.0403
 2763SOL     OW19921   3.331   1.253   1.824  0.4423  0.4526  0.1361
 2763SOL    HW119922   3.379   1.332   1.849  2.0828 -0.2794 -0.6709
 2763SOL    HW219923   3.243   1.267   1.858 -0.2759  1.9287 -2.3182
 2764SOL     OW19924   3.290   2.025   1.742 -0.1481 -0.0850  0.5085
 2764SOL    HW119925   3.284   1.949   1.800 -1.7521 -1.0828 -0.9428
 2764SOL    HW219926   3.238   1.990   1.669  0.9247  2.1165 -1.3078
 2765SOL     OW19927   1.475   2.865   2.914 -0.4032 -0.0496 -0.7419
 2765SOL    HW119928   1.546   2.827   2.863  0.7874 -0.3648  1.1705
 2765SOL    HW219929   1.478   2.954   2.877 -0.1275 -0.7820 -2.4592
 2766SOL     OW19930   1.976   3.978   8.452  0.4330  0.0534  0.1528
 2766SOL    HW119931   2.031   3.902   8.431  3.6178  2.6721 -1.0508
 2766SOL    HW219932   1.977   4.028   8.371 -1.1424 -1.1276 -0.5861
 2767SOL     OW19933   0.729   3.767  11.680  0.2704  0.5880  0.0050
 2767SOL    HW119934   0.698   3.698  11.622  0.6640  0.2229  0.2329
 2767SOL    HW219935   0.802   3.810  11.635 -0.0231  2.2113  1.0821
 2768SOL     OW19936   1.896   2.140   9.621 -0.3196 -0.4581 -0.0756
 2768SOL    HW119937   1.875   2.151   9.528 -0.0207 -2.3310 -0.3694
 2768SOL    HW219938   1.991   2.129   9.607 -0.1491  0.6899  0.1874
 2769SOL     OW19939   2.619   3.905   6.077  0.5404  0.1635 -0.6286
 2769SOL    HW119940   2.703   3.904   6.122 -1.4907  0.5536  3.1654
 2769SOL    HW219941   2.609   3.999   6.065  0.1887  0.1408 -0.5211
 2770SOL     OW19942   4.128   0.192   0.781  0.2593  0.5507 -0.1892
 2770SOL    HW119943   4.072   0.120   0.812 -0.2600  0.7665 -0.6245
 2770SOL    HW219944   4.101   0.250   0.852  3.6398  1.6982  0.1163
 2771SOL     OW19945   3.082   2.721  13.967 -0.0731  0.4423  0.4943
 2771SOL    HW119946   3.013   2.693  14.026 -0.5468 -0.4417 -0.4930
 2771SOL    HW219947   3.140   2.762  14.031 -3.0609 -1.2464  4.2074
 2772SOL     OW19948   2.896   3.448   8.246 -0.0312 -0.3848 -0.2050
 2772SOL    HW119949   2.881   3.533   8.203 -1.7756 -1.5661 -1.9414
 2772SOL    HW219950   2.825   3.399   8.206  0.4571  0.9947 -2.8207
 2773SOL     OW19951   1.719   1.418   4.137 -0.2385 -0.7740  0.1808
 2773SOL    HW119952   1.810   1.391   4.147 -0.2350 -0.7112  0.3220
 2773SOL    HW219953   1.698   1.445   4.227  0.1875  1.9652 -0.5412
 2774SOL     OW19954   2.476   1.616   9.397  0.0387 -0.3290 -0.1319
 2774SOL    HW119955   2.446   1.691   9.448 -0.0516 -0.3293 -0.1840
 2774SOL    HW219956   2.571   1.629   9.400  0.0122  0.1619 -1.4465
 2775SOL     OW19957   4.301   0.867   2.134 -0.4684  0.3206  0.3573
 2775SOL    HW119958   4.350   0.948   2.150 -1.2168  0.5484  1.5583
 2775SOL    HW219959   4.343   0.798   2.186  1.2890  2.5659  1.9247
 2776SOL     OW19960   1.471   3.044   9.167  0.1203  0.2229  0.1499
 2776SOL    HW119961   1.484   3.114   9.102 -0.5318  0.6743  0.5059
 2776SOL    HW219962   1.383   3.017   9.141 -0.3885  1.1904  0.8779
 2777SOL     OW19963   0.691   3.701   2.647  0.4385  0.0996 -0.0972
 2777SOL    HW119964   0.748   3.731   2.576 -0.2442  0.6503 -0.4140
 2777SOL    HW219965   0.653   3.624   2.604  0.4014  0.1656 -0.1828
 2778SOL     OW19966   2.039   0.797  12.370 -0.1351  0.3417 -0.4923
 2778SOL    HW119967   2.109   0.753  12.419 -0.7417 -1.1957 -1.0053
 2778SOL    HW219968   2.029   0.733  12.299  1.8760  0.6228 -1.0267
 2779SOL     OW19969   4.524   0.781   7.989 -0.2907  0.1043  0.0407
 2779SOL    HW119970   4.578   0.843   8.038  1.8062 -0.0026 -2.1242
 2779SOL    HW219971   4.583   0.723   7.941  1.2612  1.8418 -0.1209
 2780SOL     OW19972   1.516   1.325  10.021  0.2337 -0.4514  0.1574
 2780SOL    HW119973   1.505   1.406  10.069  1.2683 -0.3905  0.2992
 2780SOL    HW219974   1.450   1.270  10.063 -2.1345  1.6429 -0.7981
 2781SOL     OW19975   3.877   4.583   1.880 -0.1349 -0.5137 -0.0431
 2781SOL    HW119976   3.970   4.600   1.862  0.0060 -0.4771  0.7233
 2781SOL    HW219977   3.879   4.539   1.965 -0.5901 -0.1327  0.1643
 2782SOL     OW19978   0.106   1.341   2.234  0.5351 -0.3473 -0.0183
 2782SOL    HW119979   0.036   1.304   2.289 -0.4938 -0.1450 -1.1989
 2782SOL    HW219980   0.169   1.269   2.239  1.5742  0.7137  2.3709
 2783SOL     OW19981   1.467   4.152  12.630  0.6251  0.1587  0.1891
 2783SOL    HW119982   1.458   4.169  12.724  0.3985  1.5740 -0.0990
 2783SOL    HW219983   1.391   4.204  12.602  0.8529  0.9991  1.1342
 2784SOL     OW19984   0.307   1.642  11.723 -0.1399  0.0560  0.4766
 2784SOL    HW119985   0.389   1.690  11.734  0.2594 -0.7731  1.1650
 2784SOL    HW219986   0.334   1.578  11.656  0.4624  0.3112  0.4774
 2785SOL     OW19987   3.372   4.080   3.218 -0.3284  0.1637  0.3218
 2785SOL    HW119988   3.414   4.164   3.197  1.7301 -0.6112  1.3501
 2785SOL    HW219989   3.430   4.046   3.285 -1.0285  0.9188  1.3103
 2786SOL     OW19990   3.301   2.367   2.282 -0.0025  0.2006 -0.2645
 2786SOL    HW119991   3.334   2.281   2.254  1.1669  0.0658  1.5144
 2786SOL    HW219992   3.368   2.425   2.247 -0.7324  1.7740  0.9847
 2787SOL     OW19993   2.906   0.771  15.279 -0.1285 -0.4414 -0.1286
 2787SOL    HW119994   2.980   0.713  15.296 -0.4062 -0.2546  1.7110
 2787SOL    HW219995   2.849   0.707  15.236  1.4963 -1.7596 -0.2961
 2788SOL     OW19996   2.866   4.458   4.111 -0.2369  0.2731 -0.1779
 2788SOL    HW119997   2.807   4.533   4.103 -0.8502 -0.6009 -3.6203
 2788SOL    HW219998   2.849   4.403   4.035 -3.8574  1.9899 -0.6072
 2789SOL     OW19999   3.347   4.715  14.869  0.3233  0.5379  0.6630
 2789SOL    HW120000   3.263   4.732  14.912  1.4939  0.7947  2.8503
 2789SOL    HW220001   3.339   0.037  14.797  1.0038 -1.8180 -1.4001
 2790SOL     OW20002   1.203   4.499  10.973 -0.2826  0.4507 -0.2097
 2790SOL    HW120003   1.168   4.582  10.943 -2.3620 -0.3952 -0.1190
 2790SOL    HW220004   1.291   4.502  10.937 -0.7586 -2.5520 -1.5830
 2791SOL     OW20005   3.109   3.899   2.303 -0.0058  0.2834  0.2965
 2791SOL    HW120006   3.071   3.872   2.387  0.1044 -0.3959  0.1267
 2791SOL    HW220007   3.100   3.994   2.308 -1.0577  0.2234 -0.4183
 2792SOL     OW20008   0.997   2.689   2.144 -0.3916 -0.5331  1.0841
 2792SOL    HW120009   0.996   2.641   2.061 -2.3002  0.3479  0.6151
 2792SOL    HW220010   0.981   2.780   2.120  1.5624 -0.6277 -0.5762
 2793SOL     OW20011   1.875   4.543   8.894  0.0764 -0.0415 -0.2015
 2793SOL    HW120012   1.959   4.583   8.875 -0.6158  1.0570 -0.8984
 2793SOL    HW220013   1.811   4.613   8.883 -0.1125 -0.3074 -0.8056
 2794SOL     OW20014   3.348   0.977  15.610  0.3423 -0.6885 -0.0124
 2794SOL    HW120015   3.359   1.042  15.540 -0.6594 -1.6035 -1.0267
 2794SOL    HW220016   3.331   1.032  15.687  0.1448 -1.3320  0.3955
 2795SOL     OW20017   4.622   4.048   4.490 -0.1783  0.9704 -0.1050
 2795SOL    HW120018   4.642   3.955   4.482  2.6905  1.6643 -1.0003
 2795SOL    HW220019   4.684   4.086   4.428  1.9572  0.5416  1.7540
 2796SOL     OW20020   1.509   0.879   3.747 -0.1368  0.3604 -0.1205
 2796SOL    HW120021   1.470   0.800   3.711 -1.7647  1.1319 -0.0508
 2796SOL    HW220022   1.440   0.943   3.726 -0.0386  0.1400 -1.1299
 2797SOL     OW20023   1.424   3.402   1.369  0.0400 -0.2000 -0.2078
 2797SOL    HW120024   1.402   3.310   1.379 -0.8063  0.0134 -0.1343
 2797SOL    HW220025   1.420   3.413   1.274 -0.7115 -1.2899 -0.2962
 2798SOL     OW20026   0.186   2.874   1.706 -0.4485 -0.4118 -0.4136
 2798SOL    HW120027   0.163   2.819   1.782 -1.5731  1.0167  0.2877
 2798SOL    HW220028   0.150   2.823   1.633  1.8749 -0.5632 -1.4564
 2799SOL     OW20029   3.091   0.468   4.731  0.1797  0.0461  0.3641
 2799SOL    HW120030   3.169   0.481   4.678 -0.0449 -2.1644 -0.5119
 2799SOL    HW220031   3.030   0.509   4.670 -1.6909 -3.1826  0.0244
 2800SOL     OW20032   4.282   4.172   6.755 -0.1847 -0.1151  0.8017
 2800SOL    HW120033   4.358   4.113   6.758  1.9465  2.6228  1.0128
 2800SOL    HW220034   4.225   4.114   6.705 -1.4131 -0.3292  2.4331
 2801SOL     OW20035   3.227   4.593   2.379 -0.2177  0.3512 -0.3345
 2801SOL    HW120036   3.267   4.513   2.415  1.0334  0.7082 -0.9343
 2801SOL    HW220037   3.261   4.657   2.441 -0.2093  0.1420 -0.1242
 2802SOL     OW20038   0.851   0.332   0.555  0.7698 -0.1744 -0.1619
 2802SOL    HW120039   0.832   0.251   0.506  0.3880 -0.1475 -0.0567
 2802SOL    HW220040   0.826   0.397   0.490  0.9279 -0.3662 -0.4165
 2803SOL     OW20041   4.591   2.732   6.020  0.0006  0.0768  0.9923
 2803SOL    HW120042   4.609   2.823   6.045  2.0407 -0.4952  1.5210
 2803SOL    HW220043   4.496   2.744   6.020  0.1603  1.4589  0.1497
 2804SOL     OW20044   1.760   2.696   7.073 -0.3721  0.7689 -0.4600
 2804SOL    HW120045   1.719   2.673   7.157 -1.1211  1.6119 -0.5985
 2804SOL    HW220046   1.838   2.742   7.104  0.2458 -0.9448  0.5166
 2805SOL     OW20047   2.571   0.212   8.123  0.1381 -0.0678  0.4984
 2805SOL    HW120048   2.571   0.307   8.132 -1.8978  0.1095 -1.2021
 2805SOL    HW220049   2.489   0.192   8.167  0.5676  0.9541  1.7550
 2806SOL     OW20050   0.621   0.775   7.646 -0.5472 -0.0700 -0.2043
 2806SOL    HW120051   0.645   0.840   7.579 -0.0221  0.6392  0.6783
 2806SOL    HW220052   0.662   0.810   7.725  1.4723 -0.6111 -1.0121
 2807SOL     OW20053   1.167   0.647  17.342  0.0340  0.0156 -0.4163
 2807SOL    HW120054   1.094   0.659  17.281  0.2992  2.1584 -0.3264
 2807SOL    HW220055   1.209   0.732  17.330  0.3169  0.1131  1.2968
 2808SOL     OW20056   2.229   1.997  13.820  0.1809 -0.2615  0.4041
 2808SOL    HW120057   2.256   1.925  13.876  3.9681 -0.7924 -2.1523
 2808SOL    HW220058   2.160   2.041  13.871 -1.5850 -0.2491 -1.9655
 2809SOL     OW20059   0.309   1.569   0.178  0.6798  0.3516 -0.3755
 2809SOL    HW120060   0.242   1.634   0.197 -1.5897 -2.6837  1.9342
 2809SOL    HW220061   0.365   1.582   0.255  0.2741  1.3109 -0.2459
 2810SOL     OW20062   4.155   3.323   2.313  0.2824  0.0459  0.3684
 2810SOL    HW120063   4.090   3.262   2.348  0.4400 -0.4576 -0.2045
 2810SOL    HW220064   4.207   3.325   2.394  1.7929 -2.5277 -0.5148
 2811SOL     OW20065   1.379   2.577   7.838 -0.2685 -0.5186  0.1014
 2811SOL    HW120066   1.404   2.657   7.886 -0.8627  0.4387 -1.1898
 2811SOL    HW220067   1.305   2.602   7.783  1.6550 -0.5858 -2.4828
 2812SOL     OW20068   4.377   1.543   7.225 -0.5351  0.3358 -0.7405
 2812SOL    HW120069   4.465   1.576   7.243 -0.9745  0.6678  0.7804
 2812SOL    HW220070   4.329   1.599   7.286  0.4886  1.5586 -1.0453
 2813SOL     OW20071   3.660   0.529  17.444 -0.0467  0.3742  0.7727
 2813SOL    HW120072   3.656   0.443  17.485  0.3668 -1.5752 -3.2567
 2813SOL    HW220073   3.588   0.523  17.381 -0.5287 -0.8492  1.4619
 2814SOL     OW20074   3.690   2.281  14.122 -0.2849  0.2823  0.0988
 2814SOL    HW120075   3.600   2.312  14.122 -0.0039  1.0901  0.8116
 2814SOL    HW220076   3.700   2.284  14.027 -0.0981 -1.5715  0.0628
 2815SOL     OW20077   0.061   3.122   3.097 -0.5659  0.0882 -0.7438
 2815SOL    HW120078   0.122   3.173   3.044  1.5240 -0.6442  0.9912
 2815SOL    HW220079   0.053   3.180   3.172  0.6318  0.0275 -0.5746
 2816SOL     OW20080   2.457   4.139   3.058 -0.6005 -0.2783  0.2583
 2816SOL    HW120081   2.552   4.131   3.044 -0.5155  1.5740 -0.3093
 2816SOL    HW220082   2.440   4.093   3.140  1.5007 -0.0379  0.8533
 2817SOL     OW20083   0.706   2.977   6.155 -0.1041  0.0856 -0.1103
 2817SOL    HW120084   0.700   2.930   6.238  0.4741 -0.3140 -0.2934
 2817SOL    HW220085   0.623   2.955   6.112 -0.0560  0.6021 -0.4665
 2818SOL     OW20086   1.009   2.084  13.221  0.0517 -0.3484 -0.6192
 2818SOL    HW120087   0.924   2.041  13.231 -1.7972  3.8175  1.9644
 2818SOL    HW220088   0.994   2.137  13.143 -0.0043  0.2753 -0.1857
 2819SOL     OW20089   0.815   3.020   4.644 -0.3633  0.4936 -0.3354
 2819SOL    HW120090   0.777   2.991   4.727 -0.5416 -3.1736 -1.7275
 2819SOL    HW220091   0.858   3.103   4.666  1.1358 -0.8230  1.6654
 2820SOL     OW20092   1.261   3.010   2.603  0.2866  0.1920  0.2067
 2820SOL    HW120093   1.282   2.917   2.594 -1.0170 -0.1592  0.7041
 2820SOL    HW220094   1.193   3.002   2.670  1.1158  1.8621  1.2400
 2821SOL     OW20095   3.554   2.907   4.391  0.3403  0.1035  0.2024
 2821SOL    HW120096   3.568   2.978   4.328  0.5211 -2.2749 -2.4487
 2821SOL    HW220097   3.489   2.847   4.355 -0.1207 -0.4074  1.8803
 2822SOL     OW20098   0.035   4.041  16.267 -0.4163  0.0405  0.2876
 2822SOL    HW120099   4.686   4.015  16.293  0.3511 -3.2439 -0.3972
 2822SOL    HW220100   0.063   4.116  16.320  1.8981  0.5637 -1.7027
 2823SOL     OW20101   1.007   1.608   8.447  0.3771  0.0049  0.0226
 2823SOL    HW120102   1.010   1.563   8.532 -0.6630 -0.5760 -0.2416
 2823SOL    HW220103   0.989   1.534   8.388  0.4619 -0.0471  0.0627
 2824SOL     OW20104   1.738   4.720   1.876  0.2893 -0.4110  0.2468
 2824SOL    HW120105   1.715   0.037   1.802  1.5120 -2.8004 -1.9926
 2824SOL    HW220106   1.809   0.029   1.917  0.0871  0.5379 -0.5438
 2825SOL     OW20107   0.720   3.845   4.930 -0.0303  0.0883 -0.4286
 2825SOL    HW120108   0.770   3.844   5.011 -0.1423  1.3197 -0.3472
 2825SOL    HW220109   0.633   3.853   4.969  0.5724 -1.5875  1.2449
 2826SOL     OW20110   2.682   3.871   9.081 -0.2877  0.2498  1.0764
 2826SOL    HW120111   2.730   3.953   9.088 -2.5069  1.5900  0.4208
 2826SOL    HW220112   2.679   3.857   8.986 -0.2357 -2.5756  1.4869
 2827SOL     OW20113   1.301   2.468  11.551  0.5458 -0.2602  0.5441
 2827SOL    HW120114   1.360   2.396  11.527  1.6080  0.8918 -0.3455
 2827SOL    HW220115   1.227   2.456  11.492 -0.2674  1.4976  1.2151
 2828SOL     OW20116   0.280   2.491   3.330  0.5135 -0.3668  0.2625
 2828SOL    HW120117   0.374   2.472   3.338  0.7674  0.6628 -0.2028
 2828SOL    HW220118   0.240   2.409   3.356 -1.1164  0.2637 -0.2725
 2829SOL     OW20119   2.440   4.571   1.661  0.1382 -0.1519  0.0378
 2829SOL    HW120120   2.446   4.567   1.565  1.7983  0.0359  0.1360
 2829SOL    HW220121   2.346   4.580   1.673  0.1525  0.3115 -0.1867
 2830SOL     OW20122   3.762   0.789   8.392  0.0522  0.5064 -0.4862
 2830SOL    HW120123   3.762   0.695   8.412  0.3960  0.6133  0.0131
 2830SOL    HW220124   3.779   0.800   8.298  0.9500 -4.0753 -0.8756
 2831SOL     OW20125   4.457   2.088   3.518  0.2217 -0.3058  0.6561
 2831SOL    HW120126   4.379   2.038   3.495  0.7351 -1.0116  0.4293
 2831SOL    HW220127   4.467   2.134   3.435  2.0270 -1.0325  0.4589
 2832SOL     OW20128   1.214   0.681   3.172  0.0686  0.0486  0.0020
 2832SOL    HW120129   1.217   0.750   3.106  1.2623 -1.7217 -1.7984
 2832SOL    HW220130   1.188   0.606   3.119 -0.4401  1.8328 -2.2849
 2833SOL     OW20131   3.846   3.574   4.468 -0.1125 -0.1319  0.4803
 2833SOL    HW120132   3.851   3.572   4.563  0.7068 -0.7855  0.4255
 2833SOL    HW220133   3.935   3.596   4.441 -1.2299  2.8777 -0.8368
 2834SOL     OW20134   0.786   3.047   7.999 -0.1036 -0.1577  0.0393
 2834SOL    HW120135   0.818   3.025   8.087 -1.9534  0.3641  0.8333
 2834SOL    HW220136   0.843   3.121   7.978 -1.4250  0.5891 -0.8733
 2835SOL     OW20137   2.947   2.062   1.854  0.1908  0.2870 -0.1218
 2835SOL    HW120138   3.022   2.122   1.851  0.6918 -0.4414 -2.0466
 2835SOL    HW220139   2.887   2.117   1.906 -0.4472 -0.0709 -0.4834
 2836SOL     OW20140   3.202   3.016  15.691  0.2489 -0.0535 -0.6561
 2836SOL    HW120141   3.112   3.026  15.722  1.6366  1.6883  2.8235
 2836SOL    HW220142   3.260   3.062  15.752 -1.2291 -1.7268  1.9829
 2837SOL     OW20143   1.359   1.525  10.140  0.1783  0.0813  0.2196
 2837SOL    HW120144   1.382   1.560  10.226  2.5443 -0.5449 -0.1787
 2837SOL    HW220145   1.264   1.518  10.132  0.3999  0.9798 -3.0462
 2838SOL     OW20146   3.800   1.674  12.138 -0.3497 -0.2354 -0.3831
 2838SOL    HW120147   3.713   1.634  12.150  0.5789 -1.9987  0.4828
 2838SOL    HW220148   3.815   1.706  12.227  0.9605 -0.4531 -0.5284
 2839SOL     OW20149   3.874   2.908   7.362 -0.1021  0.3992 -0.6234
 2839SOL    HW120150   3.877   2.878   7.453 -3.4589 -1.7089 -1.1920
 2839SOL    HW220151   3.897   2.999   7.377 -0.3539  0.7309 -2.2732
 2840SOL     OW20152   4.652   1.610   2.810  0.1836 -0.1910  0.4513
 2840SOL    HW120153   4.698   1.679   2.858 -2.0677  1.2033  0.5876
 2840SOL    HW220154   4.562   1.642   2.802  0.8464  1.3850 -0.7054
 2841SOL     OW20155   1.357   0.554   8.929  0.1223 -0.6597  0.1794
 2841SOL    HW120156   1.446   0.520   8.922  0.7506  1.3849 -1.7010
 2841SOL    HW220157   1.366   0.586   9.019 -1.5489  1.3033 -0.3725
 2842SOL     OW20158   3.426   4.680   6.253  0.1573  0.0820 -0.3201
 2842SOL    HW120159   3.335   4.670   6.225  0.1389 -0.2222 -0.1504
 2842SOL    HW220160   3.417   0.003   6.325  0.9398 -0.1078 -0.0632
 2843SOL     OW20161   1.682   4.152   9.367  0.1196  0.4229  0.4458
 2843SOL    HW120162   1.604   4.162   9.311  0.4226 -0.0675 -0.0735
 2843SOL    HW220163   1.641   4.145   9.453 -0.8316 -1.9100 -0.1904
 2844SOL     OW20164   0.536   1.572   7.070 -0.3352 -0.1969  0.4256
 2844SOL    HW120165   0.454   1.529   7.047  0.4586 -0.8110 -1.2804
 2844SOL    HW220166   0.501   1.656   7.101  1.1458  1.3497 -2.0601
 2845SOL     OW20167   0.773   2.461   2.705 -0.3341  0.4019 -0.1921
 2845SOL    HW120168   0.831   2.388   2.731 -0.1780  0.7885  0.5427
 2845SOL    HW220169   0.738   2.424   2.624  0.3821 -1.0093  0.1356
 2846SOL     OW20170   3.803   4.290   9.593 -0.1953  0.2176 -0.2377
 2846SOL    HW120171   3.873   4.236   9.628 -1.2085 -1.1079 -0.2585
 2846SOL    HW220172   3.803   4.259   9.502 -0.7730 -3.1216  0.9094
 2847SOL     OW20173   3.495   3.143  15.969 -0.4781 -0.7294 -0.1468
 2847SOL    HW120174   3.457   3.203  16.033  0.2948 -0.3983  0.0090
 2847SOL    HW220175   3.517   3.065  16.019  2.4399  1.0465  1.3410
 2848SOL     OW20176   0.549   1.009   3.598  0.4299 -0.4876  0.4981
 2848SOL    HW120177   0.515   1.099   3.597 -1.4009 -1.1958 -0.7393
 2848SOL    HW220178   0.644   1.017   3.586  0.3556  1.1630  0.9906
 2849SOL     OW20179   2.763   3.457   4.395  0.5058  0.4803  0.6717
 2849SOL    HW120180   2.686   3.464   4.339 -0.1519 -3.4397  1.1201
 2849SOL    HW220181   2.721   3.434   4.478 -2.3162  1.1794 -0.5946
 2850SOL     OW20182   2.925   2.702  13.680 -0.2230 -0.1368  0.3005
 2850SOL    HW120183   3.019   2.684  13.686 -0.0802  0.6118  0.2816
 2850SOL    HW220184   2.906   2.725  13.589 -2.2664 -1.4977  0.3764
 2851SOL     OW20185   0.152   3.929   6.262  0.1977 -0.1624 -0.0322
 2851SOL    HW120186   0.216   3.933   6.191  0.7776 -0.8706  0.4543
 2851SOL    HW220187   0.169   4.018   6.292 -0.5142 -0.3547  0.9360
 2852SOL     OW20188   0.777   2.726   3.333 -0.3431  0.0301 -0.7039
 2852SOL    HW120189   0.862   2.715   3.292  0.2032 -0.5889  0.5975
 2852SOL    HW220190   0.775   2.822   3.330 -0.8565  0.1238  2.3937
 2853SOL     OW20191   1.087   0.458   6.072 -0.1618 -0.1032 -0.4776
 2853SOL    HW120192   1.116   0.540   6.113 -0.7712  0.4755 -1.2096
 2853SOL    HW220193   1.019   0.433   6.134  0.4701  3.2092  1.5474
 2854SOL     OW20194   3.623   1.249   1.359 -0.5299  0.0221 -0.4088
 2854SOL    HW120195   3.698   1.228   1.414 -0.5894 -1.6384 -0.9829
 2854SOL    HW220196   3.587   1.323   1.408  0.2720  0.2260 -0.1368
 2855SOL     OW20197   4.613   3.793   3.772 -0.5222  0.2415  0.2463
 2855SOL    HW120198   4.641   3.884   3.781 -1.6191  0.6022 -0.0025
 2855SOL    HW220199   4.682   3.749   3.823 -1.6006 -2.4233 -0.6014
 2856SOL     OW20200   2.623   1.500   7.573 -0.5084 -0.5130  0.8320
 2856SOL    HW120201   2.550   1.459   7.619 -1.0009  1.8652  2.1698
 2856SOL    HW220202   2.592   1.585   7.541 -0.7643 -0.9191 -0.0011
 2857SOL     OW20203   1.572   3.679   8.532 -0.1111 -0.0633  0.6504
 2857SOL    HW120204   1.634   3.728   8.476  0.2190 -2.1817 -0.8236
 2857SOL    HW220205   1.591   3.589   8.506  2.9595  0.9190 -0.5315
 2858SOL     OW20206   4.019   1.030   7.512  0.0455  0.6406  0.6533
 2858SOL    HW120207   3.961   1.025   7.435  0.8276  1.1954  0.0242
 2858SOL    HW220208   4.107   1.035   7.475 -0.0989  0.3384  0.2607
 2859SOL     OW20209   0.712   3.221   5.678  0.3707 -0.2072  0.2544
 2859SOL    HW120210   0.708   3.145   5.736  2.6288  1.1134  2.1541
 2859SOL    HW220211   0.793   3.201   5.630  0.5472  1.2919 -0.0924
 2860SOL     OW20212   0.684   3.056   1.831  0.1789  0.4025  0.1609
 2860SOL    HW120213   0.641   3.118   1.889 -1.5887 -1.6172  0.9879
 2860SOL    HW220214   0.664   3.108   1.753 -0.9623 -0.1785  0.0618
 2861SOL     OW20215   0.885   4.724   8.790  0.0137  0.2127 -0.2426
 2861SOL    HW120216   0.865   4.672   8.868 -1.7947  0.0112 -0.8315
 2861SOL    HW220217   0.821   4.691   8.726 -1.7597 -0.2388  1.7686
 2862SOL     OW20218   2.667   1.564   7.063  0.1095 -0.2146 -0.7503
 2862SOL    HW120219   2.675   1.473   7.036 -4.6796 -0.7896 -0.0668
 2862SOL    HW220220   2.587   1.600   7.024 -0.9385 -0.8715  0.8061
 2863SOL     OW20221   1.534   3.708   8.040 -0.6393  0.5287  0.0597
 2863SOL    HW120222   1.599   3.772   8.011 -1.1016  0.8100 -0.3764
 2863SOL    HW220223   1.456   3.759   8.064 -0.7229  1.0589 -1.3093
 2864SOL     OW20224   3.522   3.718   3.416  0.4660 -0.2112 -0.0871
 2864SOL    HW120225   3.597   3.691   3.363  0.9610 -0.0457  0.5319
 2864SOL    HW220226   3.550   3.784   3.480  1.3463 -0.9316  0.2637
 2865SOL     OW20227   2.122   0.809   1.808 -0.0685  0.2719 -0.1455
 2865SOL    HW120228   2.085   0.832   1.893 -2.9424  0.6477 -1.4777
 2865SOL    HW220229   2.189   0.745   1.832  1.8043  1.5273 -2.0531
 2866SOL     OW20230   1.730   1.755  12.679 -0.3321 -0.1332  0.2109
 2866SOL    HW120231   1.814   1.715  12.657  0.9197  3.1386 -1.0024
 2866SOL    HW220232   1.711   1.780  12.588  0.3105  0.2777  0.1879
 2867SOL     OW20233   3.430   3.091   9.874  0.6844 -0.3589  0.5242
 2867SOL    HW120234   3.523   3.070   9.865  0.4938 -1.3136  0.7855
 2867SOL    HW220235   3.433   3.178   9.914  1.9441  0.9150 -2.3133
 2868SOL     OW20236   2.948   2.193   4.662  0.2224  0.2584  0.1302
 2868SOL    HW120237   2.936   2.105   4.626 -1.0367  1.5506 -2.6240
 2868SOL    HW220238   3.041   2.209   4.680 -0.1282  1.3569  0.9496
 2869SOL     OW20239   0.555   3.630  13.027 -0.1048  0.3811  0.2801
 2869SOL    HW120240   0.528   3.538  13.026  0.6127  0.1586  0.8493
 2869SOL    HW220241   0.607   3.627  13.108  2.1626  0.4675 -1.1815
 2870SOL     OW20242   0.473   3.234   1.448  0.2291 -0.1351  0.3549
 2870SOL    HW120243   0.463   3.259   1.540  0.0514  2.7644 -0.4655
 2870SOL    HW220244   0.386   3.254   1.413  0.9823  1.4398 -0.6098
 2871SOL     OW20245   1.212   1.928   7.793  0.6028 -0.2963 -0.2101
 2871SOL    HW120246   1.138   1.877   7.824 -0.6136  0.9784 -1.0411
 2871SOL    HW220247   1.268   1.926   7.871 -0.4287  1.0221  0.5494
 2872SOL     OW20248   1.175   4.179   7.685  0.2010  0.6969 -0.3183
 2872SOL    HW120249   1.161   4.186   7.591  1.1543 -0.8227 -0.5722
 2872SOL    HW220250   1.260   4.136   7.692 -0.1932 -0.1027 -0.4129
 2873SOL     OW20251   3.242   0.276  11.966  0.0260  0.1703  0.7953
 2873SOL    HW120252   3.331   0.308  11.980  0.5818 -0.4077 -1.5424
 2873SOL    HW220253   3.205   0.304  12.050  3.5989  1.7003  1.8326
 2874SOL     OW20254   0.919   2.979  10.864  0.1384 -1.0510 -0.2257
 2874SOL    HW120255   0.978   3.032  10.917 -1.1967 -0.3012  0.5265
 2874SOL    HW220256   0.887   2.915  10.927 -2.0398  0.3456  0.1133
 2875SOL     OW20257   1.501   0.618   5.673  0.0192  0.2958 -0.4452
 2875SOL    HW120258   1.428   0.660   5.720  0.7816  1.0948  0.0388
 2875SOL    HW220259   1.494   0.647   5.582  2.2303  0.3201 -0.6031
 2876SOL     OW20260   0.701   3.861   4.642 -0.1416  0.0477 -0.5642
 2876SOL    HW120261   0.776   3.801   4.642 -0.2096 -0.0365 -1.1686
 2876SOL    HW220262   0.719   3.906   4.724 -1.6558 -0.3997  0.0142
 2877SOL     OW20263   1.905   3.960   4.442 -0.1858  0.4006  0.6275
 2877SOL    HW120264   1.995   3.992   4.441  0.0536 -0.2835 -0.2839
 2877SOL    HW220265   1.867   4.020   4.506 -1.1510  1.3801 -0.8592
 2878SOL     OW20266   4.472   3.591   0.220  0.1552  0.1869  0.0337
 2878SOL    HW120267   4.498   3.660   0.282  1.8807 -0.2019 -0.2546
 2878SOL    HW220268   4.479   3.515   0.278 -2.3178 -0.9490 -1.2027
 2879SOL     OW20269   1.214   1.699  12.051 -0.0084  0.1397 -0.6381
 2879SOL    HW120270   1.183   1.715  11.962 -0.6229  0.2394 -0.4017
 2879SOL    HW220271   1.175   1.773  12.097 -0.2054  0.3826 -1.1942
 2880SOL     OW20272   1.278   1.238   3.512 -0.3366  0.2471 -0.2828
 2880SOL    HW120273   1.352   1.297   3.528  0.8257 -1.2074 -0.3378
 2880SOL    HW220274   1.306   1.184   3.438 -2.6777  1.4348 -2.0522
 2881SOL     OW20275   4.285   1.553   3.572 -1.0242 -0.0177  0.0083
 2881SOL    HW120276   4.347   1.480   3.578  3.7009  4.0271  0.5974
 2881SOL    HW220277   4.334   1.610   3.512 -0.2575 -0.9286 -0.2278
 2882SOL     OW20278   0.876   2.443   4.345 -0.0602  0.1016  0.1586
 2882SOL    HW120279   0.934   2.481   4.411 -0.3838 -0.4979  0.8016
 2882SOL    HW220280   0.940   2.409   4.283 -0.9279  0.2498 -0.8088
 2883SOL     OW20281   4.020   2.646   2.903  0.0724  0.0782 -0.2295
 2883SOL    HW120282   4.059   2.638   2.990 -2.6068 -1.2425  0.8425
 2883SOL    HW220283   4.102   2.672   2.860  1.1515  0.1786  1.8593
 2884SOL     OW20284   4.255   3.669   9.517  0.0640 -0.2775 -0.3608
 2884SOL    HW120285   4.187   3.603   9.505  0.8732 -0.7043 -2.5988
 2884SOL    HW220286   4.199   3.745   9.501 -1.3766 -1.7216 -2.2112
 2885SOL     OW20287   1.782   1.712  10.318 -0.9578 -0.0256 -0.3766
 2885SOL    HW120288   1.869   1.741  10.293 -0.9973  0.3984 -0.0455
 2885SOL    HW220289   1.799   1.707  10.412  0.9268 -0.4311 -0.7444
 2886SOL     OW20290   2.746   2.660   6.458 -0.3576 -0.0229  0.7558
 2886SOL    HW120291   2.688   2.603   6.409  1.1990 -1.1091  0.1942
 2886SOL    HW220292   2.739   2.626   6.547  0.3237 -2.0219  0.0416
 2887SOL     OW20293   1.266   2.752   4.323  0.3538  0.4998 -0.5907
 2887SOL    HW120294   1.224   2.753   4.237 -0.4247 -1.9535 -0.2534
 2887SOL    HW220295   1.353   2.788   4.307  0.5344  0.4293  0.2239
 2888SOL     OW20296   1.910   1.665  12.503  0.1981 -0.3648  0.3566
 2888SOL    HW120297   1.911   1.570  12.497 -1.8676 -0.5916  3.5377
 2888SOL    HW220298   2.003   1.680  12.485 -0.4228  3.9565  0.7823
 2889SOL     OW20299   0.554   0.262  16.527 -0.0475 -0.5871 -0.0916
 2889SOL    HW120300   0.508   0.331  16.576 -0.1543  0.2577 -1.3715
 2889SOL    HW220301   0.630   0.244  16.582  1.2056  0.6156 -1.4124
 2890SOL     OW20302   2.059   0.363   1.643  0.1774 -0.2909  0.1921
 2890SOL    HW120303   2.004   0.362   1.721 -0.0386 -0.5934  0.0354
 2890SOL    HW220304   2.015   0.435   1.598  0.4711 -0.0957  0.2157
 2891SOL     OW20305   1.129   0.385   9.520  0.0090 -0.2611 -0.4347
 2891SOL    HW120306   1.040   0.404   9.491  0.4824  2.6118 -0.0115
 2891SOL    HW220307   1.163   0.325   9.454  0.1842  0.5931 -1.1264
 2892SOL     OW20308   0.692   4.487  15.704  0.8147  0.2470  0.1727
 2892SOL    HW120309   0.693   4.461  15.796 -2.2123 -0.2628  0.0584
 2892SOL    HW220310   0.603   4.464  15.678  1.5488 -0.8142 -1.3781
 2893SOL     OW20311   0.399   0.289   7.530 -0.4600  0.1352 -0.2131
 2893SOL    HW120312   0.451   0.316   7.605 -0.5816 -1.1158  0.3277
 2893SOL    HW220313   0.464   0.249   7.472 -1.0544  1.9743 -2.1665
 2894SOL     OW20314   2.624   1.200   8.126  0.2414  0.1643  0.0370
 2894SOL    HW120315   2.647   1.151   8.205 -0.3124 -0.0011  0.0967
 2894SOL    HW220316   2.710   1.188   8.086  1.4744  1.8375  2.1693
 2895SOL     OW20317   4.288   0.364   9.321  0.1314  0.5130  0.2458
 2895SOL    HW120318   4.320   0.329   9.237  1.4044 -1.4265  1.5525
 2895SOL    HW220319   4.231   0.289   9.338 -0.4229  0.3527 -2.2448
 2896SOL     OW20320   2.702   4.157  11.752 -0.1433 -0.0904  0.7091
 2896SOL    HW120321   2.656   4.075  11.768 -2.1259  0.8659 -0.0663
 2896SOL    HW220322   2.740   4.181  11.837  1.2895 -0.5701  0.2081
 2897SOL     OW20323   0.748   2.964   1.089  0.6579 -0.2026 -0.5268
 2897SOL    HW120324   0.778   2.874   1.077  0.4499 -0.4745  0.9510
 2897SOL    HW220325   0.797   2.974   1.171  0.0986 -0.8938 -0.1072
 2898SOL     OW20326   0.895   3.801   4.156  0.0967 -0.1425 -0.1828
 2898SOL    HW120327   0.850   3.722   4.185  0.9934  0.4867  2.9000
 2898SOL    HW220328   0.823   3.863   4.147  0.6252  0.5791  0.5951
 2899SOL     OW20329   4.552   4.332  16.361 -0.3126 -0.0011 -0.3777
 2899SOL    HW120330   4.462   4.360  16.345  0.0074  2.3219  1.9226
 2899SOL    HW220331   4.533   4.275  16.436  0.8272 -2.2346 -1.7950
 2900SOL     OW20332   0.755   0.068   9.267  0.3730  0.4560 -0.0402
 2900SOL    HW120333   0.749   4.728   9.319 -1.0561 -0.6450 -1.8893
 2900SOL    HW220334   0.663   0.097   9.270  0.2982  0.0535  1.8094
 2901SOL     OW20335   4.611   1.915  10.974 -0.1716  0.4539  0.9105
 2901SOL    HW120336   4.581   1.966  11.049 -3.2634  0.7651 -0.5561
 2901SOL    HW220337   4.619   1.973  10.898 -1.9580  0.4348  0.7233
 2902SOL     OW20338   0.914   4.209   6.606 -0.2147 -0.7292  0.4006
 2902SOL    HW120339   0.965   4.201   6.687 -0.8877  0.7511  0.9754
 2902SOL    HW220340   0.911   4.304   6.597 -1.7595 -0.6245  1.9005
 2903SOL     OW20341   1.419   0.831   4.611 -0.1403  0.1526  0.2265
 2903SOL    HW120342   1.406   0.925   4.624 -0.6751  0.3460 -1.7499
 2903SOL    HW220343   1.501   0.842   4.563 -0.4152 -1.3663 -0.5926
 2904SOL     OW20344   4.321   2.324   6.130  0.1411  0.5537  0.7052
 2904SOL    HW120345   4.290   2.234   6.124  1.1248  0.4390 -2.5384
 2904SOL    HW220346   4.378   2.309   6.205 -0.3263  1.7188  1.3066
 2905SOL     OW20347   1.466   1.876  11.976  0.1174  0.2372  0.4959
 2905SOL    HW120348   1.528   1.821  11.928 -0.2420  0.8178 -0.6539
 2905SOL    HW220349   1.459   1.943  11.908  0.0672  1.1927  1.4441
 2906SOL     OW20350   0.771   4.252  16.586  0.1559 -0.2636 -0.2134
 2906SOL    HW120351   0.767   4.169  16.632  0.6985 -0.3113 -0.2443
 2906SOL    HW220352   0.779   4.229  16.493  0.2838 -0.1355 -0.2356
 2907SOL     OW20353   0.019   0.396  10.430 -0.1176 -0.0644 -0.5191
 2907SOL    HW120354   4.718   0.383  10.515 -1.0616  0.0808 -0.9411
 2907SOL    HW220355   0.112   0.399  10.451 -0.3810  1.5840  0.4038
 2908SOL     OW20356   1.129   4.121   1.329 -0.2580  0.3450 -0.3224
 2908SOL    HW120357   1.163   4.192   1.384  0.0435  0.2360 -0.3636
 2908SOL    HW220358   1.113   4.062   1.403 -0.5813  1.5843  0.5995
 2909SOL     OW20359   2.175   4.374   6.897 -0.0605  0.2346 -0.3210
 2909SOL    HW120360   2.103   4.341   6.951  0.0084 -0.0539 -0.4066
 2909SOL    HW220361   2.231   4.408   6.968  0.3931  0.3306 -0.7268
 2910SOL     OW20362   0.943   2.339   9.795 -0.2131  0.4794 -0.0987
 2910SOL    HW120363   0.941   2.368   9.704 -1.5039 -0.3612 -0.3466
 2910SOL    HW220364   0.986   2.416   9.832  0.3108  0.7061 -1.1695
 2911SOL     OW20365   0.329   1.275   4.335  0.4282 -0.5693  0.2356
 2911SOL    HW120366   0.386   1.234   4.269 -0.9815 -3.0948  0.5653
 2911SOL    HW220367   0.269   1.200   4.340 -1.5505  0.9848 -0.6520
 2912SOL     OW20368   0.690   4.625   8.065 -0.1128 -0.6211  0.1484
 2912SOL    HW120369   0.646   4.691   8.013 -0.2714 -2.7952 -2.5157
 2912SOL    HW220370   0.661   4.543   8.025  0.2167 -0.1181 -1.1053
 2913SOL     OW20371   0.757   0.895   9.907  0.4691  0.1212 -0.0540
 2913SOL    HW120372   0.749   0.948   9.828  0.7774  1.3344  0.7230
 2913SOL    HW220373   0.788   0.953   9.976  1.5341 -2.6918  1.8468
 2914SOL     OW20374   4.130   0.901   4.056 -0.1534 -0.3875 -0.4167
 2914SOL    HW120375   4.152   0.923   3.966  0.8771 -1.9269 -0.5436
 2914SOL    HW220376   4.101   0.987   4.085 -2.4526 -1.5061  0.5832
 2915SOL     OW20377   0.144   1.182   4.068  1.0159  0.2109 -0.2722
 2915SOL    HW120378   0.163   1.274   4.053  0.2158  0.9260  3.0207
 2915SOL    HW220379   0.201   1.144   4.001  1.0780  0.0298 -0.1169
 2916SOL     OW20380   3.418   2.477  11.784 -0.1360 -0.3701 -0.4042
 2916SOL    HW120381   3.337   2.484  11.834  1.0702  0.3436  1.4342
 2916SOL    HW220382   3.440   2.391  11.820  0.1340 -0.5585 -1.0162
 2917SOL     OW20383   4.597   3.273   9.728 -0.4435 -0.1019 -0.1854
 2917SOL    HW120384   4.573   3.183   9.747 -0.7378  0.1162  0.4621
 2917SOL    HW220385   4.686   3.259   9.760  1.0387  0.6361 -3.9660
 2918SOL     OW20386   2.358   1.896   7.180 -0.0328 -0.5836 -0.0456
 2918SOL    HW120387   2.353   1.803   7.202  0.2034 -0.6389 -0.2239
 2918SOL    HW220388   2.270   1.917   7.149  0.3116  0.1146 -0.5390
 2919SOL     OW20389   3.473   3.666   3.829 -0.0914  0.6444  0.2243
 2919SOL    HW120390   3.535   3.738   3.833 -0.9111  1.3136  1.0376
 2919SOL    HW220391   3.405   3.703   3.772 -1.3932  0.3603  1.5696
 2920SOL     OW20392   2.748   3.555   3.320 -0.5510 -0.4978 -0.1676
 2920SOL    HW120393   2.667   3.519   3.355 -0.3318 -0.5128  0.3249
 2920SOL    HW220394   2.819   3.497   3.347  0.7546  1.3462  0.3583
 2921SOL     OW20395   3.160   3.662   6.942 -0.3540  0.4616  0.1690
 2921SOL    HW120396   3.197   3.580   6.973 -0.2095  1.0397  1.5338
 2921SOL    HW220397   3.202   3.716   7.009 -1.5438  2.1306 -0.4109
 2922SOL     OW20398   1.080   4.563   6.000 -0.7921  0.3598  0.6762
 2922SOL    HW120399   1.101   4.626   6.068 -0.1610  1.3267 -0.4265
 2922SOL    HW220400   1.016   4.617   5.953 -1.0117  1.7283  2.5199
 2923SOL     OW20401   2.365   4.222   2.709  0.6341 -0.2114  0.0607
 2923SOL    HW120402   2.375   4.312   2.740  1.5251  0.1129 -1.1612
 2923SOL    HW220403   2.434   4.214   2.644 -0.0383 -0.5713 -0.6115
 2924SOL     OW20404   1.378   2.651  15.321 -0.3702  0.5988 -0.0215
 2924SOL    HW120405   1.364   2.746  15.316 -0.6213  0.4419 -2.4896
 2924SOL    HW220406   1.381   2.633  15.414 -0.8201 -0.7894 -0.2734
 2925SOL     OW20407   1.530   3.209   2.563 -0.6541 -0.2423  0.4081
 2925SOL    HW120408   1.458   3.205   2.501  0.1383 -0.5325 -0.5016
 2925SOL    HW220409   1.490   3.169   2.640  0.9101 -0.6007  1.0287
 2926SOL     OW20410   0.659   2.249   9.612  0.5336 -0.0630  0.1081
 2926SOL    HW120411   0.568   2.248   9.582  0.8466 -1.4798 -0.7612
 2926SOL    HW220412   0.707   2.230   9.532  2.2558  1.4746  0.7737
 2927SOL     OW20413   4.255   4.153   2.401 -0.5472  0.4328  0.4959
 2927SOL    HW120414   4.239   4.135   2.308 -0.9630  0.7203  0.5075
 2927SOL    HW220415   4.202   4.082   2.436  0.7871 -0.9871 -0.3844
 2928SOL     OW20416   3.881   0.312  10.795 -0.0728 -0.4242 -0.1669
 2928SOL    HW120417   3.929   0.395  10.786  0.1536 -0.2786  2.3366
 2928SOL    HW220418   3.794   0.347  10.817 -0.5301 -0.5696 -1.7426
 2929SOL     OW20419   2.898   0.752   2.822 -0.0417  0.2358 -0.0647
 2929SOL    HW120420   2.825   0.804   2.789  0.7138  0.3170 -1.6183
 2929SOL    HW220421   2.952   0.830   2.829 -0.6032  0.5625  0.6225
 2930SOL     OW20422   2.438   0.040   5.867 -0.1793 -0.4668  0.4847
 2930SOL    HW120423   2.461   4.702   5.817  3.6377  2.2688 -2.0294
 2930SOL    HW220424   2.375   0.089   5.814 -0.7695 -3.2598 -1.3995
 2931SOL     OW20425   4.605   3.764   1.635  0.8212 -0.0851 -0.4685
 2931SOL    HW120426   4.680   3.731   1.586 -0.9701 -3.1754 -1.1342
 2931SOL    HW220427   4.643   3.745   1.721  0.7439  0.1855 -0.3756
 2932SOL     OW20428   1.690   1.143  14.498 -0.5782 -0.0161 -0.0491
 2932SOL    HW120429   1.662   1.233  14.480  1.6637  0.7143  0.2034
 2932SOL    HW220430   1.785   1.155  14.494 -0.5688  0.3974  1.6926
 2933SOL     OW20431   1.005   0.674   8.351  0.0032 -0.1159 -0.2764
 2933SOL    HW120432   1.039   0.708   8.433  4.2637 -0.7359 -1.8035
 2933SOL    HW220433   1.041   0.586   8.341 -3.0031 -1.4472  0.5914
 2934SOL     OW20434   1.780   0.703   3.499  0.3408 -0.7848 -0.1192
 2934SOL    HW120435   1.712   0.638   3.481  1.2579 -2.1011  1.1912
 2934SOL    HW220436   1.836   0.689   3.422  1.2271  2.8981 -0.1384
 2935SOL     OW20437   4.219   1.866   4.619 -0.3821  0.0668  0.4798
 2935SOL    HW120438   4.170   1.795   4.578  0.0226 -0.3658  0.7525
 2935SOL    HW220439   4.175   1.943   4.581  1.0951  1.2069  1.0817
 2936SOL     OW20440   3.575   2.184  13.769  0.7210 -0.2549  0.0630
 2936SOL    HW120441   3.559   2.132  13.690  0.1839  1.8397 -1.1905
 2936SOL    HW220442   3.656   2.144  13.800  0.0050  0.7198  3.2755
 2937SOL     OW20443   2.661   0.009  11.781 -0.1334  0.1040 -0.3232
 2937SOL    HW120444   2.739   0.010  11.837 -0.6891 -0.1221  0.4526
 2937SOL    HW220445   2.698   0.075  11.723 -0.6519  0.0560 -0.7010
 2938SOL     OW20446   4.450   4.405  14.475  0.4867  0.0755  0.1840
 2938SOL    HW120447   4.493   4.342  14.532  0.0177  0.9944  1.5638
 2938SOL    HW220448   4.412   4.470  14.535  1.3458 -1.2091  2.1109
 2939SOL     OW20449   0.962   2.723  14.108  0.3775 -0.2863  0.7493
 2939SOL    HW120450   0.918   2.808  14.110 -0.0172 -0.5590  3.2559
 2939SOL    HW220451   0.964   2.706  14.014  2.0578  0.9007  0.5672
 2940SOL     OW20452   4.180   3.070  14.901  0.5584 -0.0823  0.1317
 2940SOL    HW120453   4.100   3.113  14.932  0.6015 -0.0379  0.1804
 2940SOL    HW220454   4.243   3.141  14.891 -1.8985  1.7487 -2.1888
 2941SOL     OW20455   0.576   0.236   5.375  0.2147 -0.2559 -0.1163
 2941SOL    HW120456   0.649   0.212   5.432  0.1573  1.7840  0.8041
 2941SOL    HW220457   0.562   0.149   5.337 -0.4240 -0.4049  0.4652
 2942SOL     OW20458   4.361   2.279   7.884  0.5368 -0.4149  0.1783
 2942SOL    HW120459   4.338   2.207   7.826 -2.5220  1.0974 -0.4735
 2942SOL    HW220460   4.368   2.229   7.966 -0.1468 -0.0558  0.4570
 2943SOL     OW20461   1.283   1.403   7.286 -0.3720  0.3011 -0.9061
 2943SOL    HW120462   1.212   1.369   7.340  2.0203 -1.8942  0.9105
 2943SOL    HW220463   1.364   1.396   7.338 -1.2288  0.5645  0.4466
 2944SOL     OW20464   3.879   1.057   8.612  0.2343  0.3303 -0.5230
 2944SOL    HW120465   3.795   1.015   8.634  0.2485  1.0610  0.9421
 2944SOL    HW220466   3.936   0.984   8.585 -1.1269  0.1531 -2.9226
 2945SOL     OW20467   4.479   2.559   3.463 -0.0204  0.2687  0.4019
 2945SOL    HW120468   4.570   2.551   3.491  0.3439 -0.2104 -0.9055
 2945SOL    HW220469   4.496   2.582   3.371  3.1918 -3.3975  0.0842
 2946SOL     OW20470   3.523   1.573   3.293  0.2744 -0.4884  0.2822
 2946SOL    HW120471   3.504   1.656   3.338  0.7554  0.2673 -0.9128
 2946SOL    HW220472   3.538   1.605   3.204  2.6923  1.7519  1.4832
 2947SOL     OW20473   0.053   0.456   5.534 -0.2446  0.1272  0.3528
 2947SOL    HW120474   0.045   0.491   5.446  0.8724  1.3392  0.7351
 2947SOL    HW220475   0.109   0.380   5.516 -1.1583 -0.6791  0.8773
 2948SOL     OW20476   3.590   3.524   1.943  0.2612  0.2074 -0.2740
 2948SOL    HW120477   3.568   3.491   1.856 -0.0183 -0.9277  0.2307
 2948SOL    HW220478   3.555   3.613   1.941  1.3759  0.6896  2.4137
 2949SOL     OW20479   4.001   0.228   4.651 -0.9663 -0.0083 -0.0555
 2949SOL    HW120480   3.995   0.283   4.729 -0.6422  0.8120 -0.6139
 2949SOL    HW220481   4.093   0.203   4.661 -0.7917  0.1783 -1.2083
 2950SOL     OW20482   2.584   4.711   5.381  0.0913 -0.1949  0.1725
 2950SOL    HW120483   2.588   0.054   5.331 -0.8349 -0.9100 -1.0863
 2950SOL    HW220484   2.598   4.659   5.302  0.4394  0.3853 -0.1557
 2951SOL     OW20485   0.508   4.127   2.477  0.4045  0.3625 -0.5356
 2951SOL    HW120486   0.464   4.160   2.556  1.5968  0.4268  0.1004
 2951SOL    HW220487   0.562   4.056   2.509  0.8204  1.2672  0.8041
 2952SOL     OW20488   2.808   3.346   5.970 -0.0585  0.0220  0.2382
 2952SOL    HW120489   2.745   3.281   5.940 -1.8556  0.6746  2.6524
 2952SOL    HW220490   2.771   3.407   5.906 -0.1543 -1.4380 -1.1085
 2953SOL     OW20491   1.427   3.411   1.043  0.0114 -0.1110 -0.0740
 2953SOL    HW120492   1.402   3.474   0.975  0.0829 -0.5223 -0.4787
 2953SOL    HW220493   1.341   3.391   1.080 -0.4094  0.6388 -0.6303
 2954SOL     OW20494   4.242   2.640   2.316 -0.6226  0.7014  0.4961
 2954SOL    HW120495   4.221   2.727   2.282 -0.0014  0.0914 -1.4742
 2954SOL    HW220496   4.242   2.585   2.237 -1.8383 -0.8433  1.5878
 2955SOL     OW20497   0.861   2.812   1.795 -0.4189 -0.4144 -0.3521
 2955SOL    HW120498   0.772   2.818   1.760  0.0126 -0.3709 -1.4311
 2955SOL    HW220499   0.877   2.904   1.816 -0.8898 -0.7395  1.3925
 2956SOL     OW20500   1.044   0.705   0.571 -0.0495 -0.2327  0.5799
 2956SOL    HW120501   0.979   0.730   0.506 -0.4514  0.2397  1.1560
 2956SOL    HW220502   0.983   0.686   0.643 -1.9216  0.2018 -0.9051
 2957SOL     OW20503   4.094   3.233   7.288  0.7232 -0.6668 -0.4902
 2957SOL    HW120504   4.098   3.175   7.213  1.7990 -1.0814 -0.1114
 2957SOL    HW220505   4.140   3.181   7.354  1.3627  0.1908 -0.2615
 2958SOL     OW20506   2.213   3.854  11.580 -0.2367 -0.3346  0.3844
 2958SOL    HW120507   2.142   3.906  11.542 -2.0881 -1.8259  1.7451
 2958SOL    HW220508   2.224   3.901  11.663 -2.5863  0.9482 -0.0224
 2959SOL     OW20509   1.496   1.537   0.175 -0.3343  0.1827 -0.1903
 2959SOL    HW120510   1.448   1.565   0.253  1.4109  0.4698  0.7803
 2959SOL    HW220511   1.570   1.597   0.184 -0.4356  0.1559  0.7724
 2960SOL     OW20512   2.997   2.871   8.960  0.0897  0.3330 -0.2062
 2960SOL    HW120513   2.933   2.815   9.004  0.5914 -1.6489 -2.0224
 2960SOL    HW220514   3.078   2.854   9.008  1.8734  0.3795 -3.2632
 2961SOL     OW20515   2.336   1.615   9.150 -0.2713  0.0945 -0.2555
 2961SOL    HW120516   2.367   1.646   9.235  1.7743 -0.3614 -0.8526
 2961SOL    HW220517   2.357   1.523   9.163  0.2313  0.2341 -0.0780
 2962SOL     OW20518   0.200   2.187   5.977  0.1745  0.0138 -0.3015
 2962SOL    HW120519   0.199   2.211   5.885 -1.3203 -1.5666 -0.7019
 2962SOL    HW220520   0.159   2.101   5.965 -0.3520  0.3561 -0.9613
 2963SOL     OW20521   1.487   0.729   4.179 -0.6280 -0.1547 -0.1724
 2963SOL    HW120522   1.429   0.800   4.205 -0.9346 -0.0520 -1.1496
 2963SOL    HW220523   1.556   0.775   4.130 -0.7157  1.9748  1.7245
 2964SOL     OW20524   1.492   0.602   7.147 -0.6557  0.6947 -0.2499
 2964SOL    HW120525   1.471   0.510   7.130 -0.5576  0.6572 -0.1651
 2964SOL    HW220526   1.513   0.598   7.240  2.0502  0.3616 -0.8717
 2965SOL     OW20527   0.951   0.096   7.507  0.2535 -0.0721  0.0375
 2965SOL    HW120528   0.904   0.171   7.471 -0.6627  0.8521  3.2207
 2965SOL    HW220529   0.887   0.059   7.569 -1.8349 -0.5409 -2.3892
 2966SOL     OW20530   2.674   0.837   5.735  0.2804  0.1177 -0.0896
 2966SOL    HW120531   2.629   0.814   5.654 -0.6689 -1.4948  0.9008
 2966SOL    HW220532   2.760   0.862   5.699  0.4115 -1.7009 -1.0091
 2967SOL     OW20533   2.497   2.685   8.435 -0.4241  0.8410 -0.2674
 2967SOL    HW120534   2.434   2.639   8.490 -1.1448 -0.1591 -1.9107
 2967SOL    HW220535   2.542   2.740   8.499 -2.5488  1.1000  1.0134
 2968SOL     OW20536   1.771   4.400   9.643  0.4391 -0.1816 -0.7879
 2968SOL    HW120537   1.815   4.388   9.727 -1.6765 -1.1474  0.1754
 2968SOL    HW220538   1.786   4.324   9.588 -2.1015 -0.9910 -0.3638
 2969SOL     OW20539   4.467   2.294   9.890  0.1561 -0.0197  0.1348
 2969SOL    HW120540   4.407   2.241   9.838  0.3352  0.7420 -0.8363
 2969SOL    HW220541   4.555   2.262   9.871 -0.5200 -0.6356 -1.9423
 2970SOL     OW20542   4.168   3.507  10.818 -0.3678 -0.0413  0.5363
 2970SOL    HW120543   4.109   3.431  10.815  0.2389 -0.5638  1.6648
 2970SOL    HW220544   4.252   3.467  10.795 -0.3955  0.4780 -0.4560
 2971SOL     OW20545   4.731   2.122   3.478 -0.4114  0.3606 -0.3584
 2971SOL    HW120546   0.007   2.028   3.485 -1.0420  0.3806  1.2056
 2971SOL    HW220547   4.646   2.121   3.523  0.7002 -0.7108  1.7241
 2972SOL     OW20548   0.345   0.995   8.961  0.0093  0.2139  0.2361
 2972SOL    HW120549   0.355   0.938   8.885 -1.4960 -1.2828  1.1583
 2972SOL    HW220550   0.402   0.951   9.023  1.2419 -0.0852 -1.1177
 2973SOL     OW20551   4.500   1.126   3.349 -0.4090  0.4788  0.5376
 2973SOL    HW120552   4.566   1.058   3.331  1.2953  2.0298  0.9981
 2973SOL    HW220553   4.438   1.095   3.283  0.9429  1.8068 -1.3682
 2974SOL     OW20554   1.442   1.857   2.243  0.5152 -0.1725  0.7881
 2974SOL    HW120555   1.422   1.933   2.188 -1.3227  0.7862  2.7398
 2974SOL    HW220556   1.363   1.856   2.298  0.3734 -0.8758  0.5636
 2975SOL     OW20557   3.451   4.633   3.048 -0.5248  0.0791 -0.3783
 2975SOL    HW120558   3.410   4.556   3.011  2.2831 -0.8474 -1.5600
 2975SOL    HW220559   3.538   4.633   3.008 -1.0615 -0.0364 -1.5479
 2976SOL     OW20560   4.652   2.234   7.371 -0.0329 -0.4799  0.5319
 2976SOL    HW120561   4.696   2.319   7.371  0.6232 -0.8202 -0.3440
 2976SOL    HW220562   4.578   2.259   7.427 -0.3603  2.0997 -1.0231
 2977SOL     OW20563   1.092   4.331   2.968  0.0679  0.4257  0.3158
 2977SOL    HW120564   1.010   4.281   2.974 -0.8781  2.2320  2.3973
 2977SOL    HW220565   1.099   4.350   2.875 -0.4872 -0.8993 -0.0052
 2978SOL     OW20566   1.185   4.162   8.184 -0.4660 -0.3181 -0.1068
 2978SOL    HW120567   1.198   4.217   8.107  0.9216  0.5203  0.7215
 2978SOL    HW220568   1.100   4.119   8.174 -0.4855 -0.4303  0.5127
 2979SOL     OW20569   1.559   0.734   8.552 -0.0419 -0.4585 -0.1062
 2979SOL    HW120570   1.579   0.655   8.602 -1.8768 -0.6715  0.2729
 2979SOL    HW220571   1.646   0.773   8.539 -0.2172  0.0228  0.1583
 2980SOL     OW20572   1.499   4.444   1.080  0.5779 -0.1097 -0.4627
 2980SOL    HW120573   1.547   4.400   1.010  0.1423 -0.0392 -0.8020
 2980SOL    HW220574   1.426   4.484   1.032 -0.4946 -1.5372 -0.0229
 2981SOL     OW20575   0.835   1.049   7.134 -0.1641 -0.5702  0.7902
 2981SOL    HW120576   0.865   1.124   7.185  0.2843 -1.6703  2.1432
 2981SOL    HW220577   0.858   0.981   7.198 -0.2949 -0.1746  1.2569
 2982SOL     OW20578   4.364   3.491   2.962  0.0681  0.2438 -0.2873
 2982SOL    HW120579   4.277   3.493   3.002  0.2775  1.0462  0.1343
 2982SOL    HW220580   4.341   3.451   2.878 -2.9074  2.5909 -0.5875
 2983SOL     OW20581   2.234   1.049   3.021  0.3255  0.0286 -0.0752
 2983SOL    HW120582   2.215   1.073   2.930 -2.7156 -2.4836 -0.0797
 2983SOL    HW220583   2.253   1.138   3.052  1.5795 -0.0695 -0.5691
 2984SOL     OW20584   1.729   1.469   5.893 -0.2572  0.2302  0.3793
 2984SOL    HW120585   1.694   1.410   5.960 -1.9124  1.4047  0.5563
 2984SOL    HW220586   1.650   1.504   5.852  0.1932 -0.7371 -1.3047
 2985SOL     OW20587   3.035   0.312   8.957  0.4704  0.5630 -0.2529
 2985SOL    HW120588   3.029   0.336   9.049  1.0256  1.3764 -0.4277
 2985SOL    HW220589   3.023   0.218   8.969  1.5381  0.4092 -0.3919
 2986SOL     OW20590   1.555   3.706   4.504 -0.1926  0.4617 -0.2393
 2986SOL    HW120591   1.493   3.674   4.438 -2.1013 -1.2486  2.4157
 2986SOL    HW220592   1.571   3.636   4.568  0.0648  3.7289  3.2624
 2987SOL     OW20593   0.464   4.605   6.061  0.3147 -0.3775 -0.0964
 2987SOL    HW120594   0.446   4.679   6.003 -0.2229  0.3159  0.9519
 2987SOL    HW220595   0.400   4.627   6.130 -0.2815 -0.9522 -0.4615
 2988SOL     OW20596   2.356   2.391  16.297 -0.5213  0.2794 -0.2325
 2988SOL    HW120597   2.445   2.425  16.296 -0.2687 -0.3306  1.7029
 2988SOL    HW220598   2.318   2.478  16.312 -0.8406 -0.0171  0.6472
 2989SOL     OW20599   1.125   1.352   2.252  0.2282  0.4911  0.0371
 2989SOL    HW120600   1.060   1.288   2.226  1.2994 -0.8442  0.6713
 2989SOL    HW220601   1.153   1.377   2.164 -2.0158  0.6229 -0.6422
 2990SOL     OW20602   4.028   0.200   3.723  0.2914  0.0828  0.0862
 2990SOL    HW120603   4.010   0.106   3.724 -2.5310  0.6159 -1.2848
 2990SOL    HW220604   4.124   0.203   3.719  0.4166 -1.1306  2.5698
 2991SOL     OW20605   1.993   4.305   6.635 -0.0054  0.0101 -0.4179
 2991SOL    HW120606   1.939   4.253   6.695 -0.5735 -0.4328 -1.2982
 2991SOL    HW220607   2.020   4.237   6.573 -0.1777 -2.0945  1.8142
 2992SOL     OW20608   3.466   2.439   6.756  0.0430 -0.0941 -0.2265
 2992SOL    HW120609   3.379   2.419   6.790 -0.3073 -1.9854 -2.2001
 2992SOL    HW220610   3.447   2.437   6.662  1.4179 -2.2755 -0.4724
 2993SOL     OW20611   2.151   4.493  10.629  0.4339 -0.2551  0.2825
 2993SOL    HW120612   2.231   4.517  10.583 -1.6175  1.8454 -2.2076
 2993SOL    HW220613   2.103   4.455  10.555  0.7248  0.0436 -0.0529
 2994SOL     OW20614   0.920   3.705   5.345 -0.2514 -0.2508 -0.4985
 2994SOL    HW120615   0.864   3.667   5.277 -1.6022 -1.5742  1.3706
 2994SOL    HW220616   0.977   3.632   5.369  1.2985  0.9832 -0.4298
 2995SOL     OW20617   0.349   4.259   8.048  0.2293 -0.1691  0.6108
 2995SOL    HW120618   0.302   4.273   7.966  0.0971 -0.8828  0.5625
 2995SOL    HW220619   0.331   4.338   8.099 -1.5744  0.7248 -1.3955
 2996SOL     OW20620   2.525   1.005   2.978 -0.2701 -0.0444  0.0616
 2996SOL    HW120621   2.554   1.073   3.040 -1.3936 -0.2444  0.7983
 2996SOL    HW220622   2.478   0.945   3.036 -1.6971 -2.7770 -3.9672
 2997SOL     OW20623   1.004   0.192   3.829  0.0122 -0.3978  0.9187
 2997SOL    HW120624   1.090   0.230   3.811 -0.9961  0.3287 -2.3698
 2997SOL    HW220625   0.977   0.232   3.913 -0.6524 -0.2106  0.6230
 2998SOL     OW20626   3.341   1.785   6.253  0.3886 -0.4357 -0.3826
 2998SOL    HW120627   3.389   1.848   6.199  1.1196 -0.6512  0.0177
 2998SOL    HW220628   3.258   1.828   6.271  1.1279  0.6333  0.4321
 2999SOL     OW20629   4.471   4.424   2.617  0.1349 -0.4178  0.3434
 2999SOL    HW120630   4.562   4.451   2.604 -0.9012  1.3126 -3.0284
 2999SOL    HW220631   4.453   4.473   2.697  1.0003 -0.3721  0.5108
 3000SOL     OW20632   4.112   1.773  10.379 -0.1483  0.6706 -0.7206
 3000SOL    HW120633   4.053   1.721  10.434 -0.7578 -1.3265 -3.2591
 3000SOL    HW220634   4.161   1.816  10.449 -1.5338 -1.2413  1.4353
 3001SOL     OW20635   3.474   0.967   6.387  0.1485 -0.2145  0.3374
 3001SOL    HW120636   3.495   0.974   6.294 -1.6989 -0.9671 -0.1418
 3001SOL    HW220637   3.494   1.057   6.413 -3.6341  0.2354  1.6076
 3002SOL     OW20638   0.776   2.817   6.540 -0.5336  0.8618 -0.1167
 3002SOL    HW120639   0.743   2.891   6.590 -1.1239 -0.8906  2.1151
 3002SOL    HW220640   0.710   2.750   6.559 -0.7287  1.3106  0.7453
 3003SOL     OW20641   4.055   0.045   5.029  0.1562 -0.0366 -0.5043
 3003SOL    HW120642   4.149   0.045   5.017  0.2481 -0.6729  0.1993
 3003SOL    HW220643   4.048   0.031   5.123 -1.7471 -0.2832 -0.6793
 3004SOL     OW20644   4.042   4.395   0.849 -0.6215 -0.0119  0.1581
 3004SOL    HW120645   4.126   4.436   0.868 -0.7613  0.7276 -0.8171
 3004SOL    HW220646   4.041   4.399   0.753 -0.4006 -0.4325  0.1375
 3005SOL     OW20647   2.212   3.403  13.556 -0.1312  0.1290  0.0444
 3005SOL    HW120648   2.186   3.387  13.647  2.5781 -1.8424  0.4674
 3005SOL    HW220649   2.180   3.326  13.511 -2.0958  1.1598 -0.3351
 3006SOL     OW20650   0.267   2.430   1.876  0.0354  0.1786 -0.3955
 3006SOL    HW120651   0.233   2.355   1.925  1.9236  0.4629  1.3249
 3006SOL    HW220652   0.343   2.461   1.923  0.2628  0.2343 -0.7962
 3007SOL     OW20653   4.427   2.171   5.174 -0.1694  0.3284  1.3225
 3007SOL    HW120654   4.348   2.144   5.127 -0.4805  2.4664  0.5968
 3007SOL    HW220655   4.493   2.128   5.121 -0.2963 -0.3210  1.6965
 3008SOL     OW20656   2.777   2.891   4.681  0.0051  0.0522 -0.2114
 3008SOL    HW120657   2.778   2.985   4.702 -1.9557  0.3479 -1.4632
 3008SOL    HW220658   2.744   2.855   4.763  1.3110  1.3204  0.8780
 3009SOL     OW20659   3.054   2.805   4.936 -0.1534 -0.0956  1.1259
 3009SOL    HW120660   3.145   2.827   4.953  0.0338  1.0054 -1.3089
 3009SOL    HW220661   3.054   2.724   4.988 -0.1056 -0.7024  0.1802
 3010SOL     OW20662   1.110   2.236   1.947 -0.4072 -0.3743  0.0671
 3010SOL    HW120663   1.153   2.311   1.907 -3.5221  1.2424 -0.2871
 3010SOL    HW220664   1.076   2.192   1.869  1.9942 -0.0232 -1.1776
 3011SOL     OW20665   1.609   0.439   8.908  0.1966  0.2318 -0.4743
 3011SOL    HW120666   1.672   0.416   8.977 -2.1034  0.3609  1.6577
 3011SOL    HW220667   1.622   0.360   8.855  2.1341  0.3431 -0.1873
 3012SOL     OW20668   4.384   2.000   9.117  0.4264 -0.3503  0.0009
 3012SOL    HW120669   4.307   2.030   9.070  1.2175 -0.9804 -1.7131
 3012SOL    HW220670   4.402   1.927   9.058 -3.4913 -0.0090 -1.6257
 3013SOL     OW20671   1.615   0.234   7.496  0.0438 -1.1089  0.6843
 3013SOL    HW120672   1.561   0.261   7.570 -1.7877 -1.3228 -0.5990
 3013SOL    HW220673   1.598   0.140   7.489  0.9267 -1.4957  3.4534
 3014SOL     OW20674   3.523   1.815   7.102 -0.0415  0.4085  0.3431
 3014SOL    HW120675   3.565   1.805   7.187 -0.1657  0.5664  0.4231
 3014SOL    HW220676   3.592   1.791   7.040  0.2160  0.7864  0.4839
 3015SOL     OW20677   3.699   4.101   1.755  0.1519  0.6092  0.0017
 3015SOL    HW120678   3.654   4.092   1.839 -1.8412  3.0615 -0.7963
 3015SOL    HW220679   3.683   4.191   1.725 -0.0293  0.5008 -0.2278
 3016SOL     OW20680   4.732   2.348   5.355 -0.0972 -0.0237  0.4461
 3016SOL    HW120681   4.639   2.358   5.376 -0.2012 -2.8389  1.2885
 3016SOL    HW220682   0.032   2.392   5.430 -1.7781  2.2144  0.0289
 3017SOL     OW20683   0.281   2.234   3.979  0.2262 -0.0329  0.4801
 3017SOL    HW120684   0.206   2.216   3.922  0.0029 -1.8223  1.3225
 3017SOL    HW220685   0.359   2.229   3.925 -1.5498  0.5961 -2.1408
 3018SOL     OW20686   1.771   0.468   9.354  0.0353  0.5543 -0.0057
 3018SOL    HW120687   1.684   0.429   9.366  1.0048 -2.4890 -2.6719
 3018SOL    HW220688   1.826   0.393   9.378 -0.2090  0.8322  1.4037
 3019SOL     OW20689   2.273   1.131  13.549 -0.6476  0.0378  0.2679
 3019SOL    HW120690   2.178   1.128  13.552 -0.7186  0.5137 -1.4596
 3019SOL    HW220691   2.300   1.040  13.562  0.6835  0.3932  0.0890
 3020SOL     OW20692   4.216   2.498   7.999  0.0920 -0.9605  0.2965
 3020SOL    HW120693   4.258   2.447   7.930  0.4909 -1.1918  0.7095
 3020SOL    HW220694   4.234   2.449   8.079 -0.4905  3.0366  2.8810
 3021SOL     OW20695   2.690   3.995   1.882  0.1442 -0.4583 -0.2876
 3021SOL    HW120696   2.598   4.025   1.883 -0.0813 -1.1823  0.5588
 3021SOL    HW220697   2.711   4.003   1.975 -0.3278  2.3849 -0.4100
 3022SOL     OW20698   0.794   2.963   5.783 -0.3999 -0.2557  0.2146
 3022SOL    HW120699   0.872   2.949   5.836 -0.9724 -1.6868  0.6760
 3022SOL    HW220700   0.813   2.896   5.717  0.8337  1.6435 -1.3910
 3023SOL     OW20701   0.764   4.273   3.015 -0.7631  0.4800  0.0765
 3023SOL    HW120702   0.680   4.228   3.005 -0.1019 -1.2007  2.2583
 3023SOL    HW220703   0.779   4.248   3.106  0.4524 -0.7239 -0.4677
 3024SOL     OW20704   0.422   3.204   7.097  0.7385 -0.0138  0.0407
 3024SOL    HW120705   0.493   3.264   7.073  0.7135 -0.9277 -2.2646
 3024SOL    HW220706   0.398   3.238   7.183  1.2530 -1.9126  0.9437
 3025SOL     OW20707   2.374   4.009  17.001 -0.3729 -0.7206 -0.4286
 3025SOL    HW120708   2.461   4.020  17.041 -0.2936  0.2570 -0.8678
 3025SOL    HW220709   2.377   3.914  16.999 -5.0410 -0.8018 -2.7805
 3026SOL     OW20710   1.586   1.851   2.540  0.7990  0.3173 -0.2997
 3026SOL    HW120711   1.608   1.782   2.477  0.8007  1.9349 -2.0503
 3026SOL    HW220712   1.674   1.889   2.548  0.7395  0.0764  1.5249
 3027SOL     OW20713   1.229   3.807   6.310  0.0819  0.3369  0.5162
 3027SOL    HW120714   1.278   3.844   6.237  0.1757  0.3182  0.5697
 3027SOL    HW220715   1.242   3.876   6.375  2.5129 -0.2709  0.6806
 3028SOL     OW20716   0.039   2.853   6.975  0.0003  0.5502  0.5027
 3028SOL    HW120717   0.119   2.874   6.927 -0.0923 -1.0096 -0.3271
 3028SOL    HW220718   4.721   2.843   6.900  1.5529 -2.7806 -0.2440
 3029SOL     OW20719   0.134   3.994  15.874 -0.1181 -0.1454  0.0960
 3029SOL    HW120720   0.059   4.051  15.886  0.6759  0.4467  2.3018
 3029SOL    HW220721   0.204   4.058  15.891 -0.0329 -0.0668 -0.5351
 3030SOL     OW20722   2.677   4.233   3.975  0.0631  0.4712 -0.0890
 3030SOL    HW120723   2.636   4.310   4.012 -2.1742  0.3570 -2.3553
 3030SOL    HW220724   2.632   4.223   3.891  0.4321  2.1291 -0.4709
 3031SOL     OW20725   4.670   1.586   4.005  0.2063  0.0539 -0.0889
 3031SOL    HW120726   4.734   1.567   4.074 -0.5627 -1.5608  0.1969
 3031SOL    HW220727   4.715   1.593   3.921  0.3089  0.2832 -0.0126
 3032SOL     OW20728   3.688   4.321  15.062  0.2230 -0.6677 -0.0566
 3032SOL    HW120729   3.657   4.343  14.974 -1.4613 -0.4360  0.5952
 3032SOL    HW220730   3.774   4.361  15.075 -0.3536  0.3396  0.6193
 3033SOL     OW20731   0.442   4.052   7.133 -0.3732 -0.6776  0.0625
 3033SOL    HW120732   0.498   3.986   7.174  1.3580  0.2742 -0.7719
 3033SOL    HW220733   0.353   4.021   7.148 -1.1199  0.3902 -2.1121
 3034SOL     OW20734   3.280   2.273   4.366 -0.0084 -0.3887  0.1797
 3034SOL    HW120735   3.208   2.316   4.321 -0.7475 -0.6533  1.1011
 3034SOL    HW220736   3.242   2.245   4.449 -2.4761 -0.8540 -1.1166
 3035SOL     OW20737   1.438   4.184   4.575 -0.3940  0.5093  0.4113
 3035SOL    HW120738   1.524   4.213   4.605 -0.7238  1.7562  0.1225
 3035SOL    HW220739   1.469   4.104   4.531  0.3709  1.1441 -0.2035
 3036SOL     OW20740   1.972   3.845   3.556  0.0831 -0.2383 -0.1478
 3036SOL    HW120741   2.023   3.821   3.478 -2.4737 -1.7079 -1.3475
 3036SOL    HW220742   2.047   3.857   3.614 -1.2260  1.2447  1.2299
 3037SOL     OW20743   2.835   2.473   8.450  0.2401  0.8105  0.1700
 3037SOL    HW120744   2.840   2.516   8.536 -0.2130 -0.6965  0.9567
 3037SOL    HW220745   2.851   2.384   8.483 -0.8954  0.5030 -0.1131
 3038SOL     OW20746   3.398   0.975   1.910 -0.1667  0.1113 -0.1543
 3038SOL    HW120747   3.470   0.926   1.869  1.3398 -0.2357  2.8546
 3038SOL    HW220748   3.449   1.041   1.957 -0.3533  1.2112 -1.5086
 3039SOL     OW20749   0.152   4.145   3.957  0.3519  0.0806  0.0230
 3039SOL    HW120750   0.225   4.198   3.924 -0.9075 -0.1840 -3.2258
 3039SOL    HW220751   0.187   4.112   4.039 -0.7608  0.1445  0.5282
 3040SOL     OW20752   0.778   0.676   5.986 -0.0032  0.2607 -0.3296
 3040SOL    HW120753   0.783   0.601   5.927 -2.3325  0.7256 -1.0988
 3040SOL    HW220754   0.869   0.706   5.988  1.0867 -3.0322 -0.1770
 3041SOL     OW20755   0.311   0.972   8.440 -0.8195 -0.3358 -0.1007
 3041SOL    HW120756   0.272   0.915   8.373  0.8726 -0.5976 -0.8826
 3041SOL    HW220757   0.248   1.043   8.442  0.7801  1.0496  0.8905
 3042SOL     OW20758   1.445   4.162   2.359  0.2384  0.4188 -0.1226
 3042SOL    HW120759   1.518   4.100   2.360  0.6184  0.8738  0.8426
 3042SOL    HW220760   1.382   4.119   2.416 -1.6358  0.8877 -1.8585
 3043SOL     OW20761   3.256   2.132   8.187  0.1529 -0.3170  0.3409
 3043SOL    HW120762   3.277   2.203   8.249 -3.1759 -1.5398  2.8987
 3043SOL    HW220763   3.269   2.178   8.104  0.3683 -1.4544 -0.2483
 3044SOL     OW20764   1.473   1.922  12.255 -0.5233  0.3273 -0.1253
 3044SOL    HW120765   1.465   1.889  12.166 -1.1687 -0.5686  0.2637
 3044SOL    HW220766   1.507   2.008  12.232  0.3696  0.3962  1.3954
 3045SOL     OW20767   4.283   3.330   2.064  0.6099  0.4401  1.0667
 3045SOL    HW120768   4.236   3.303   2.143  0.1963 -3.8016 -0.6293
 3045SOL    HW220769   4.265   3.264   1.997 -3.4645  0.1044  2.5346
 3046SOL     OW20770   1.372   4.538  14.228 -0.1178 -0.3232  0.5168
 3046SOL    HW120771   1.318   4.601  14.181  0.4206 -0.9663 -0.9662
 3046SOL    HW220772   1.399   4.492  14.148 -0.1061 -2.5706  1.8168
 3047SOL     OW20773   3.375   4.635   4.482  0.0002 -0.4140 -0.0211
 3047SOL    HW120774   3.354   4.700   4.414  1.9789  0.2337 -0.0150
 3047SOL    HW220775   3.470   4.631   4.476  0.0650  0.2936  0.4779
 3048SOL     OW20776   0.131   4.613   0.519  0.4923 -0.5053  0.1834
 3048SOL    HW120777   0.044   4.619   0.560  1.3212 -3.1856  2.3052
 3048SOL    HW220778   0.194   4.616   0.590 -0.6809  0.1050  1.1962
 3049SOL     OW20779   1.983   2.034   6.557  0.9504 -0.1927  0.4885
 3049SOL    HW120780   1.979   1.943   6.586 -0.1986 -0.2994  0.0255
 3049SOL    HW220781   2.077   2.037   6.543  1.3542 -1.5164  2.9464
 3050SOL     OW20782   3.988   1.194   2.059  0.4594 -0.3055  0.0928
 3050SOL    HW120783   4.039   1.251   2.116  0.3029 -0.7871  0.7092
 3050SOL    HW220784   4.023   1.107   2.078  0.7253  0.0657  1.3229
 3051SOL     OW20785   1.358   0.192   5.714  0.1024 -0.0583  0.0597
 3051SOL    HW120786   1.337   0.261   5.777  0.4005 -0.3811  0.5208
 3051SOL    HW220787   1.371   0.123   5.779 -2.8809  0.4549  1.2046
 3052SOL     OW20788   3.921   2.656   4.146  0.2556  0.6055 -0.0148
 3052SOL    HW120789   3.953   2.684   4.231  1.3375 -0.1356 -0.1816
 3052SOL    HW220790   3.885   2.568   4.159  1.2792  0.6188  2.8457
 3053SOL     OW20791   2.706   1.676   5.331  0.1355 -0.5578 -0.5943
 3053SOL    HW120792   2.732   1.768   5.335  0.3382 -0.6444  0.0893
 3053SOL    HW220793   2.789   1.629   5.334  0.8538  0.7403  0.0635
 3054SOL     OW20794   0.223   4.002   6.865 -0.4541 -0.0027  0.2046
 3054SOL    HW120795   0.177   3.942   6.807  0.6478 -0.9806  0.3479
 3054SOL    HW220796   0.302   4.012   6.813 -0.3052 -1.2455  0.1925
 3055SOL     OW20797   0.712   4.083  16.096  1.0060  0.4469 -0.3262
 3055SOL    HW120798   0.755   4.008  16.137 -1.0134 -1.1518 -1.1306
 3055SOL    HW220799   0.718   4.143  16.170 -0.9756 -0.6763  0.7386
 3056SOL     OW20800   4.352   3.270   9.327  0.2136 -0.4467 -0.0500
 3056SOL    HW120801   4.372   3.228   9.411 -0.6423  0.9773  0.8756
 3056SOL    HW220802   4.404   3.214   9.269 -1.0322 -1.4219 -0.2256
 3057SOL     OW20803   0.303   0.555   6.224 -0.1361 -0.1719 -0.3513
 3057SOL    HW120804   0.251   0.475   6.225  1.8051 -1.3790  4.0031
 3057SOL    HW220805   0.350   0.532   6.145  0.6229  0.1182  0.0147
 3058SOL     OW20806   2.792   1.307   6.173  0.3357 -0.2973 -0.2225
 3058SOL    HW120807   2.862   1.256   6.215 -0.3743 -0.0140  1.3029
 3058SOL    HW220808   2.823   1.292   6.084  1.1058 -1.9768  0.3285
 3059SOL     OW20809   1.295   4.582   5.173 -0.4158 -0.0505  0.0037
 3059SOL    HW120810   1.234   4.537   5.114 -1.5410  1.0853  0.2961
 3059SOL    HW220811   1.374   4.538   5.144 -0.1231 -0.2264  1.1095
 3060SOL     OW20812   1.297   4.341   0.823 -0.2457  0.2231  0.1736
 3060SOL    HW120813   1.286   4.318   0.730 -1.1088  0.1749  0.2940
 3060SOL    HW220814   1.259   4.268   0.871 -1.3565  0.4527 -0.3637
 3061SOL     OW20815   3.120   1.156   5.639  0.0503 -0.3173  0.2472
 3061SOL    HW120816   3.176   1.078   5.647 -0.1913 -0.6435 -1.2982
 3061SOL    HW220817   3.093   1.151   5.731 -2.1676 -2.0274 -0.4878
 3062SOL     OW20818   4.150   3.032   8.804 -0.3016 -0.4730 -0.3804
 3062SOL    HW120819   4.229   3.008   8.756 -0.9778 -1.6062 -0.9233
 3062SOL    HW220820   4.142   3.126   8.789 -1.2547 -0.3550  0.8358
 3063SOL     OW20821   3.933   0.913  12.280 -0.3636 -0.5349 -0.2863
 3063SOL    HW120822   3.905   0.821  12.277 -0.2884 -0.5218 -1.4395
 3063SOL    HW220823   3.994   0.917  12.206  0.2549  1.4478  0.3346
 3064SOL     OW20824   0.947   2.517  14.295  0.3987  0.3717  0.6180
 3064SOL    HW120825   0.864   2.549  14.329 -0.9887 -3.3979  0.7041
 3064SOL    HW220826   0.976   2.594  14.246 -0.9556 -0.3564 -1.3060
 3065SOL     OW20827   0.510   3.381   5.522 -0.0628  0.5935 -0.0265
 3065SOL    HW120828   0.549   3.323   5.588 -2.6487  0.3089  1.2375
 3065SOL    HW220829   0.571   3.455   5.525 -0.3477  0.8097  0.5305
 3066SOL     OW20830   4.128   4.383  11.661 -0.1304 -0.9186  0.7050
 3066SOL    HW120831   4.202   4.336  11.624  0.4549  1.7408 -1.5499
 3066SOL    HW220832   4.057   4.339  11.614 -0.7346  1.3697 -0.5645
 3067SOL     OW20833   0.943   3.112  13.815 -0.0979  0.1435  0.5119
 3067SOL    HW120834   0.998   3.052  13.764 -0.3854 -0.7896  1.2940
 3067SOL    HW220835   0.858   3.088  13.776  0.7943  0.9605 -1.9557
 3068SOL     OW20836   1.719   2.645  10.456 -0.3135 -0.2592 -0.1957
 3068SOL    HW120837   1.727   2.724  10.509  1.0474 -1.8128  1.9438
 3068SOL    HW220838   1.806   2.609  10.474 -0.6292 -0.0473  1.8380
 3069SOL     OW20839   2.834   3.595   3.053  0.7599  0.1399 -0.2599
 3069SOL    HW120840   2.749   3.629   3.023  0.7754 -0.8001 -1.3543
 3069SOL    HW220841   2.811   3.560   3.139  2.5719  0.2817  0.2857
 3070SOL     OW20842   2.957   1.241  14.556 -0.3972  0.2849  0.5797
 3070SOL    HW120843   2.935   1.227  14.464 -1.0367  0.7594  0.6588
 3070SOL    HW220844   2.874   1.229  14.603 -0.2152 -1.3240  0.4842
 3071SOL     OW20845   2.736   3.365   7.492  0.7497  0.0642 -0.2993
 3071SOL    HW120846   2.678   3.301   7.450  0.9601  0.1232 -0.6798
 3071SOL    HW220847   2.773   3.391   7.408  0.6078 -0.7747 -0.6240
 3072SOL     OW20848   1.037   4.387   2.713  0.1788 -0.3120  0.1561
 3072SOL    HW120849   1.075   4.475   2.706  0.0420 -0.1140  2.0280
 3072SOL    HW220850   0.952   4.391   2.669  0.7658 -1.3116 -1.0829
 3073SOL     OW20851   3.659   2.638   5.925  0.3315  0.0732  0.5128
 3073SOL    HW120852   3.644   2.688   6.005  1.0628  1.8402 -0.4521
 3073SOL    HW220853   3.753   2.656   5.915  0.0498  0.8272 -0.7155
 3074SOL     OW20854   3.938   4.400   4.557 -0.3520  0.4997  0.3104
 3074SOL    HW120855   3.860   4.424   4.607 -0.4752  1.7634 -0.4817
 3074SOL    HW220856   3.991   4.358   4.624  0.1531  2.2244  0.9966
 3075SOL     OW20857   1.298   2.035   0.905 -0.0143  0.0034 -0.4654
 3075SOL    HW120858   1.241   2.074   0.839  2.6505  2.2139 -1.4680
 3075SOL    HW220859   1.325   1.958   0.855  0.1763  1.1027 -2.0665
 3076SOL     OW20860   4.166   0.204   7.044  0.1927 -0.1526 -0.3048
 3076SOL    HW120861   4.168   0.267   7.117  3.7529  0.7295 -1.1373
 3076SOL    HW220862   4.156   0.259   6.966 -1.7459 -0.8045 -0.5102
 3077SOL     OW20863   3.413   1.216   3.370  0.1922 -0.1528 -0.0928
 3077SOL    HW120864   3.440   1.224   3.278 -0.4664 -0.6022 -0.3281
 3077SOL    HW220865   3.473   1.155   3.412 -0.0327  1.7523  2.9865
 3078SOL     OW20866   4.023   0.037   2.896 -0.1762  0.1561 -0.2933
 3078SOL    HW120867   4.040   4.717   2.969 -1.5155  0.9976  0.6972
 3078SOL    HW220868   4.015   4.716   2.822  0.2311 -3.3682  2.5664
 3079SOL     OW20869   0.386   0.765   7.887 -0.2622  0.3602  0.3473
 3079SOL    HW120870   0.466   0.731   7.928 -0.2605 -0.9362 -0.7527
 3079SOL    HW220871   0.406   0.771   7.794 -3.1348  3.9191 -0.0540
 3080SOL     OW20872   0.699   3.107   4.399 -0.0068  0.1152  0.0706
 3080SOL    HW120873   0.757   3.127   4.325 -1.5236  0.9534 -0.8930
 3080SOL    HW220874   0.760   3.064   4.459  1.0274 -0.1591 -1.1592
 3081SOL     OW20875   0.999   3.368  14.029  0.2098  0.5352 -0.2029
 3081SOL    HW120876   1.004   3.309  14.104  1.0128  1.1682  0.2310
 3081SOL    HW220877   0.975   3.306  13.960  0.0607  2.2918 -1.7163
 3082SOL     OW20878   1.407   4.649   9.447  0.0355  0.1070  0.5702
 3082SOL    HW120879   1.446   4.576   9.495  1.8178 -0.9027 -2.4282
 3082SOL    HW220880   1.448   4.720   9.496 -1.0093  0.3800  1.0463
 3083SOL     OW20881   2.998   4.420   6.268  0.2043  0.0315  0.1198
 3083SOL    HW120882   3.070   4.386   6.322 -0.0404 -1.0336 -0.2220
 3083SOL    HW220883   3.001   4.357   6.196 -1.3852  0.1061 -0.0155
 3084SOL     OW20884   0.857   3.971   2.747  0.1188 -0.1995  0.0086
 3084SOL    HW120885   0.921   3.988   2.817  0.9882  1.2591 -1.1443
 3084SOL    HW220886   0.825   3.891   2.790 -0.7055  0.3461  0.4172
 3085SOL     OW20887   0.635   4.682   4.530  0.0471  0.9689 -0.1078
 3085SOL    HW120888   0.591   4.604   4.495 -2.0260  2.1783 -0.1814
 3085SOL    HW220889   0.570   4.739   4.571 -0.0849  1.0945 -0.4932
 3086SOL     OW20890   1.600   2.037   8.246 -0.4538  0.4820 -0.2046
 3086SOL    HW120891   1.609   2.124   8.285 -0.6200  1.4173 -2.2411
 3086SOL    HW220892   1.601   1.994   8.332  2.3832  1.9392  0.4651
 3087SOL     OW20893   3.739   0.125   0.880 -0.6789  0.6480  0.2621
 3087SOL    HW120894   3.667   0.155   0.824 -0.0177  0.2859 -0.7767
 3087SOL    HW220895   3.703   0.040   0.907  0.0051  0.7208  1.4035
 3088SOL     OW20896   3.692   1.782  13.820 -0.2302 -0.2011 -0.7117
 3088SOL    HW120897   3.782   1.753  13.808  0.6160  1.7822  0.7563
 3088SOL    HW220898   3.703   1.873  13.848 -0.1980 -0.2407 -0.5979
 3089SOL     OW20899   3.267   2.728   7.661  0.4954  0.2055 -0.3721
 3089SOL    HW120900   3.237   2.774   7.739  0.5498 -3.2184  1.6814
 3089SOL    HW220901   3.299   2.653   7.712 -0.3158  0.1373  0.0493
 3090SOL     OW20902   2.635   1.564   4.509 -0.0108 -0.0762  0.1571
 3090SOL    HW120903   2.700   1.617   4.556 -1.4680  3.0438 -1.3185
 3090SOL    HW220904   2.640   1.610   4.425 -2.0265  1.5356  0.9050
 3091SOL     OW20905   1.276   0.430   2.820  0.0150 -0.5675  0.1914
 3091SOL    HW120906   1.231   0.346   2.812 -0.9917  0.1119 -1.0716
 3091SOL    HW220907   1.204   0.490   2.840  1.4647  1.6034 -1.1561
 3092SOL     OW20908   1.779   4.438   8.584 -0.0556 -0.2922  0.1749
 3092SOL    HW120909   1.765   4.487   8.666  1.5746  0.0572  0.2475
 3092SOL    HW220910   1.686   4.416   8.581 -0.2817  0.3497  2.0954
 3093SOL     OW20911   3.918   4.689   7.415 -0.3053 -0.2590  0.1370
 3093SOL    HW120912   3.872   4.729   7.341 -1.2943 -0.6447  0.5428
 3093SOL    HW220913   3.844   4.652   7.463  0.3647 -0.5198  0.9480
 3094SOL     OW20914   1.611   1.408  14.495  0.0258  0.0214 -0.0206
 3094SOL    HW120915   1.682   1.436  14.437  0.3763 -1.1072 -0.1347
 3094SOL    HW220916   1.654   1.422  14.580  0.8037  2.2490 -0.7875
 3095SOL     OW20917   0.272   2.393   5.179  0.0604 -0.2085 -0.2616
 3095SOL    HW120918   0.304   2.346   5.102 -1.8085 -0.5027 -0.8489
 3095SOL    HW220919   0.224   2.317   5.212  2.6030 -1.8189 -0.2478
 3096SOL     OW20920   4.705   0.231  13.674  0.2949 -0.0135 -0.2738
 3096SOL    HW120921   0.060   0.218  13.678  0.6112  1.9665 -1.2031
 3096SOL    HW220922   4.697   0.299  13.741  1.1980 -1.5290  1.3728
 3097SOL     OW20923   0.546   2.664   3.487  0.7953 -0.3268  0.2749
 3097SOL    HW120924   0.635   2.680   3.457  1.0745 -2.1356  0.1596
 3097SOL    HW220925   0.531   2.579   3.447 -3.8814  0.4070  0.4153
 3098SOL     OW20926   4.116   2.536   6.701 -0.5830 -0.6469 -0.1391
 3098SOL    HW120927   4.094   2.580   6.783 -0.7353  0.3453 -0.6998
 3098SOL    HW220928   4.204   2.571   6.687  0.0032 -1.2217  2.1094
 3099SOL     OW20929   2.674   0.592   5.316 -0.1443 -0.0378  0.0747
 3099SOL    HW120930   2.762   0.627   5.330  1.0111 -3.0568  0.4756
 3099SOL    HW220931   2.669   0.526   5.386 -1.2270  0.6032  0.5994
 3100SOL     OW20932   3.622   4.550   7.426  0.3423  0.8409 -0.3378
 3100SOL    HW120933   3.636   4.500   7.346 -1.8301 -1.8429  0.9542
 3100SOL    HW220934   3.538   4.511   7.451  1.2005 -0.5927  0.2903
 3101SOL     OW20935   3.205   4.537   8.450 -0.1138  0.1477 -0.3492
 3101SOL    HW120936   3.241   4.626   8.453 -0.0825  0.0520  2.3277
 3101SOL    HW220937   3.249   4.497   8.525 -0.7573 -1.2401 -0.7105
 3102SOL     OW20938   3.554   2.840   3.043  0.1141  0.3566 -0.4268
 3102SOL    HW120939   3.548   2.759   3.093  2.1614  0.7141  0.4269
 3102SOL    HW220940   3.648   2.844   3.023 -0.0727  4.1093 -0.5641
 3103SOL     OW20941   0.172   4.410  14.186 -0.3563 -0.1929 -0.3134
 3103SOL    HW120942   0.184   4.397  14.280  1.4748 -0.4464 -0.5815
 3103SOL    HW220943   0.261   4.423  14.153 -0.3033 -1.8807 -0.8373
 3104SOL     OW20944   2.992   0.383   2.055 -0.5136  0.2064  1.2359
 3104SOL    HW120945   3.053   0.373   1.982 -1.0868  0.1341  0.7585
 3104SOL    HW220946   2.998   0.295   2.092 -1.9095 -0.0168  0.9594
 3105SOL     OW20947   1.654   1.007   8.277 -0.1002 -0.3546 -0.6791
 3105SOL    HW120948   1.732   1.059   8.296 -1.7528  1.1618  2.0364
 3105SOL    HW220949   1.654   0.936   8.341 -0.7800  2.4914  2.4737
 3106SOL     OW20950   2.056   2.050  16.489 -0.2451 -0.2836 -0.7288
 3106SOL    HW120951   2.085   2.140  16.478 -1.4763 -0.0838 -2.3507
 3106SOL    HW220952   2.133   2.010  16.529 -0.8236 -0.8430 -0.1438
 3107SOL     OW20953   2.588   3.546   6.351  0.3427  0.0196 -0.6565
 3107SOL    HW120954   2.545   3.631   6.343 -0.9632 -0.3802  1.9580
 3107SOL    HW220955   2.680   3.572   6.352  0.6396 -1.0204 -0.7098
 3108SOL     OW20956   3.523   1.849   5.219 -0.6473 -0.0912 -0.3224
 3108SOL    HW120957   3.475   1.880   5.296  1.7725  0.2260  1.0830
 3108SOL    HW220958   3.454   1.827   5.157 -1.0910 -0.9840  0.4898
 3109SOL     OW20959   4.730   1.574   6.534 -0.2371 -0.3606  0.0125
 3109SOL    HW120960   0.034   1.649   6.493  0.4474 -0.9713 -0.3782
 3109SOL    HW220961   4.652   1.563   6.481  0.8348  1.7950 -2.0547
 3110SOL     OW20962   4.387   2.240   5.885 -0.5084  0.1056 -0.8065
 3110SOL    HW120963   4.347   2.316   5.927  0.7175 -0.6417  1.6622
 3110SOL    HW220964   4.395   2.184   5.962  0.7739 -0.0718 -1.0762
 3111SOL     OW20965   3.301   0.505   0.680 -0.0462 -0.0445  0.3042
 3111SOL    HW120966   3.311   0.475   0.771 -0.2482  1.1550  0.7276
 3111SOL    HW220967   3.250   0.582   0.705 -0.2584  0.1081 -0.6222
 3112SOL     OW20968   2.113   2.481   6.235  0.4895 -0.4679 -0.0434
 3112SOL    HW120969   2.167   2.544   6.186  3.4272 -2.7492  0.2721
 3112SOL    HW220970   2.159   2.471   6.318 -0.5659  4.0944  1.1112
 3113SOL     OW20971   3.054   0.726   4.095 -0.1093  0.8864 -0.1891
 3113SOL    HW120972   3.064   0.669   4.018 -0.3187 -0.1912  0.5870
 3113SOL    HW220973   2.968   0.762   4.074  0.1379  1.5426 -0.0715
 3114SOL     OW20974   4.313   0.375   3.226 -0.4590  0.0886 -0.1723
 3114SOL    HW120975   4.307   0.308   3.159 -0.3132 -0.1915  0.0972
 3114SOL    HW220976   4.280   0.457   3.189  0.5432  0.3846 -0.3888
 3115SOL     OW20977   2.709   1.513   9.175  0.2508 -0.1455 -0.1668
 3115SOL    HW120978   2.653   1.499   9.099 -0.9469 -4.0388  1.4362
 3115SOL    HW220979   2.739   1.423   9.183 -1.6430 -0.9733 -2.3314
 3116SOL     OW20980   2.778   1.298   8.409 -0.2324 -0.1767 -0.0995
 3116SOL    HW120981   2.740   1.215   8.380 -1.2956 -0.0479  0.9506
 3116SOL    HW220982   2.868   1.276   8.433  0.8141  1.3955 -2.4845
 3117SOL     OW20983   1.952   4.635   4.824  0.2652  0.1872 -0.3264
 3117SOL    HW120984   2.038   4.674   4.809  1.3176 -2.0296 -0.0033
 3117SOL    HW220985   1.891   4.686   4.771 -2.2184  0.8309  3.1243
 3118SOL     OW20986   2.123   2.737   4.712 -0.2679  0.4435 -0.2253
 3118SOL    HW120987   2.152   2.716   4.623 -3.1144  0.9439 -1.2564
 3118SOL    HW220988   2.134   2.831   4.700 -1.2439  0.1547 -3.3405
 3119SOL     OW20989   1.128   4.539  15.815 -0.8938 -0.3194 -0.6513
 3119SOL    HW120990   1.038   4.534  15.782 -1.1408  0.3261 -0.0765
 3119SOL    HW220991   1.176   4.525  15.733  1.5380  0.6891  0.6099
 3120SOL     OW20992   4.620   2.134   7.869  0.2868  0.5115  0.6834
 3120SOL    HW120993   4.582   2.209   7.914 -1.3927 -0.7865  1.4385
 3120SOL    HW220994   4.644   2.086   7.949  0.3230 -1.9270 -0.7866
 3121SOL     OW20995   3.957   3.796  12.153 -0.8779  0.0638  0.2000
 3121SOL    HW120996   3.957   3.891  12.139 -1.3376 -0.6017 -4.4223
 3121SOL    HW220997   3.998   3.772  12.070 -1.5343  0.1421 -0.1501
 3122SOL     OW20998   2.371   4.270   0.941 -0.1912  0.4477  0.1951
 3122SOL    HW120999   2.330   4.356   0.932 -0.8365  0.0974 -0.2178
 3122SOL    HW221000   2.306   4.213   0.901  1.0721 -0.7276 -0.1791
 3123SOL     OW21001   1.998   1.145   3.635  0.2759  0.4350  0.1762
 3123SOL    HW121002   2.017   1.053   3.650  1.3402  0.5708 -0.3362
 3123SOL    HW221003   1.974   1.150   3.542 -1.1628  2.5994  0.6450
 3124SOL     OW21004   3.995   4.223   1.533 -0.2963 -0.0400 -0.4151
 3124SOL    HW121005   4.057   4.272   1.586  1.0494 -0.2586 -1.7921
 3124SOL    HW221006   3.994   4.141   1.583  0.7797 -0.0228 -0.3550
 3125SOL     OW21007   2.338   0.789  11.397 -0.5883 -0.2240 -0.1016
 3125SOL    HW121008   2.419   0.775  11.348  0.4658  0.4849  1.4232
 3125SOL    HW221009   2.301   0.862  11.348 -0.6390 -2.4053 -3.2427
 3126SOL     OW21010   4.195   4.058   2.153 -0.5270  0.0231 -0.0583
 3126SOL    HW121011   4.201   3.984   2.093  0.3387 -1.3239  1.6713
 3126SOL    HW221012   4.107   4.096   2.148  0.9417  3.8023  2.4866
 3127SOL     OW21013   2.192   1.800   4.137 -0.1571 -0.2199  0.5893
 3127SOL    HW121014   2.274   1.848   4.128  1.4077 -2.5682  2.5509
 3127SOL    HW221015   2.132   1.867   4.103 -0.3648 -1.4390 -1.4655
 3128SOL     OW21016   3.703   0.844   6.993  0.2196  0.0892  0.3366
 3128SOL    HW121017   3.790   0.804   7.001 -0.0373 -0.5481 -0.0786
 3128SOL    HW221018   3.658   0.815   7.072  0.0894 -1.1538 -0.1881
 3129SOL     OW21019   2.054   1.484  10.521 -0.1955  0.2621 -0.3930
 3129SOL    HW121020   2.082   1.477  10.612  0.9894 -0.9846 -0.8560
 3129SOL    HW221021   1.970   1.527  10.537  1.7087  2.8107  2.8783
 3130SOL     OW21022   3.843   3.533   1.758  0.2114  0.1082  0.4113
 3130SOL    HW121023   3.753   3.503   1.753 -0.0298  0.6569  1.3833
 3130SOL    HW221024   3.856   3.583   1.678 -0.3954  0.7937  0.7388
 3131SOL     OW21025   3.915   3.330   5.674  0.1744 -0.7961 -0.3376
 3131SOL    HW121026   3.926   3.393   5.746  0.0603 -0.4771 -0.5963
 3131SOL    HW221027   3.993   3.353   5.625 -1.5477 -0.1469 -2.7838
 3132SOL     OW21028   2.275   2.297  11.373 -0.5655  0.0199 -0.4730
 3132SOL    HW121029   2.358   2.259  11.344 -0.2786  0.5454 -0.3569
 3132SOL    HW221030   2.263   2.329  11.284  1.9592 -0.3386 -0.9298
 3133SOL     OW21031   1.380   2.768   8.177 -0.3578 -0.3892  0.1939
 3133SOL    HW121032   1.359   2.812   8.095  0.3446  0.5926  0.5320
 3133SOL    HW221033   1.289   2.755   8.206 -0.0291 -1.4096  0.7571
 3134SOL     OW21034   1.644   2.383   2.771  0.1805  0.4539 -0.8047
 3134SOL    HW121035   1.561   2.365   2.726  0.6170  2.4218 -2.3647
 3134SOL    HW221036   1.606   2.410   2.855 -0.0722 -2.2365 -0.0632
 3135SOL     OW21037   3.342   3.520   4.036  0.0767  0.2006 -0.5472
 3135SOL    HW121038   3.407   3.571   3.988  1.5856  0.1813  1.5135
 3135SOL    HW221039   3.276   3.585   4.061 -0.3309 -0.0721 -0.8997
 3136SOL     OW21040   2.744   3.875   5.347 -0.3237 -0.3090  0.5682
 3136SOL    HW121041   2.656   3.906   5.324  0.6839  1.7926 -0.4827
 3136SOL    HW221042   2.721   3.832   5.429  1.8039 -2.2368  0.1624
 3137SOL     OW21043   1.197   1.789   6.855 -0.0754  0.3872 -0.2998
 3137SOL    HW121044   1.177   1.874   6.816 -0.4791 -0.5000 -1.9950
 3137SOL    HW221045   1.116   1.741   6.840  0.0249  0.2869 -0.5173
 3138SOL     OW21046   1.223   2.797  15.886  0.2232  0.7090 -0.1121
 3138SOL    HW121047   1.242   2.825  15.975 -0.0079  0.4535  0.0161
 3138SOL    HW221048   1.155   2.730  15.889  1.3086 -0.3902 -0.3883
 3139SOL     OW21049   2.175   2.062   1.060  0.4869  0.2402 -0.0645
 3139SOL    HW121050   2.182   2.055   0.965 -0.3412  0.4525 -0.1404
 3139SOL    HW221051   2.081   2.077   1.061  0.6076  0.7928  2.4753
 3140SOL     OW21052   0.082   0.418   0.579  0.0323 -0.6184  0.3307
 3140SOL    HW121053   0.102   0.493   0.524  1.0374 -0.8807  0.3404
 3140SOL    HW221054   0.020   0.462   0.638 -0.2330 -0.5529  0.0022
 3141SOL     OW21055   1.019   0.911   6.407  0.3513  0.6142 -0.2578
 3141SOL    HW121056   0.956   0.961   6.356 -1.3323 -1.3328 -0.0894
 3141SOL    HW221057   0.980   0.824   6.400  0.3284  0.4690  1.6141
 3142SOL     OW21058   2.643   1.033  16.413 -0.0418 -0.6181  0.1674
 3142SOL    HW121059   2.734   1.033  16.381  0.3003 -0.5461  1.1261
 3142SOL    HW221060   2.627   0.938  16.412  2.6650 -1.1041 -0.0036
 3143SOL     OW21061   0.348   1.274   9.470 -0.1919  0.0492  0.2502
 3143SOL    HW121062   0.424   1.266   9.413 -0.8025 -2.1249 -0.2308
 3143SOL    HW221063   0.315   1.185   9.481 -0.6397  0.4246  2.0612
 3144SOL     OW21064   3.610   0.868   1.780  0.3048 -0.5231  0.3807
 3144SOL    HW121065   3.643   0.785   1.745 -0.3521 -0.5518 -0.1720
 3144SOL    HW221066   3.674   0.887   1.848  0.8578  0.6622 -0.4615
 3145SOL     OW21067   4.464   1.008   2.448  0.2841  0.0103  0.3819
 3145SOL    HW121068   4.456   1.038   2.357 -0.0228  0.9219  0.7139
 3145SOL    HW221069   4.395   1.062   2.485  0.2828  0.5792 -0.4421
 3146SOL     OW21070   0.526   3.387   6.814 -0.0345  0.9879 -0.6180
 3146SOL    HW121071   0.512   3.480   6.828  1.1359  0.9220  1.0319
 3146SOL    HW221072   0.589   3.371   6.885 -1.6726 -0.2178  0.5822
 3147SOL     OW21073   4.230   1.655   1.401  0.1618 -0.5435  0.0852
 3147SOL    HW121074   4.196   1.721   1.461 -0.3224  0.4473 -1.2782
 3147SOL    HW221075   4.194   1.576   1.441 -0.0336 -1.9567 -2.9294
 3148SOL     OW21076   4.692   0.552   3.712  0.0762 -0.2649  0.3730
 3148SOL    HW121077   0.043   0.520   3.715 -0.1124 -0.9691 -1.8982
 3148SOL    HW221078   4.704   0.642   3.744 -1.7868  0.8736 -2.1503
 3149SOL     OW21079   3.156   4.424   2.065 -0.1001 -0.0340  0.1485
 3149SOL    HW121080   3.079   4.459   2.021 -1.0547 -3.4583 -0.9544
 3149SOL    HW221081   3.126   4.381   2.145  0.5318 -1.7484 -0.5187
 3150SOL     OW21082   3.274   2.619   4.464  0.0364  0.5812  0.1211
 3150SOL    HW121083   3.273   2.662   4.379  0.0882  0.2258 -0.0585
 3150SOL    HW221084   3.186   2.643   4.495  0.4477  1.2717  0.7661
 3151SOL     OW21085   2.549   4.353  17.419  0.0678  0.5215 -0.4688
 3151SOL    HW121086   2.579   4.405  17.345  0.5445  0.3195 -0.4214
 3151SOL    HW221087   2.595   4.270  17.405  1.2544  0.6888  2.4069
 3152SOL     OW21088   3.708   3.724   8.359 -0.0471 -0.2609 -0.4930
 3152SOL    HW121089   3.662   3.644   8.383 -1.4894  0.3357 -1.3057
 3152SOL    HW221090   3.727   3.748   8.450 -1.4261 -2.6131  0.4237
 3153SOL     OW21091   2.021   2.781   5.387 -0.1918  0.0988  0.2674
 3153SOL    HW121092   2.065   2.711   5.339 -1.5300 -0.8409  0.4288
 3153SOL    HW221093   1.998   2.731   5.465 -1.4961 -0.7982 -0.7134
 3154SOL     OW21094   1.295   3.060   5.574  0.9913 -0.3680 -0.4677
 3154SOL    HW121095   1.297   3.075   5.668 -0.0686 -1.3260 -0.2881
 3154SOL    HW221096   1.315   2.967   5.566  1.1251 -0.3860  0.0701
 3155SOL     OW21097   2.390   0.422   8.413 -0.2910  0.2631  0.4782
 3155SOL    HW121098   2.302   0.437   8.448 -0.8169  0.5335 -0.9424
 3155SOL    HW221099   2.380   0.341   8.362 -1.7986  0.2043  0.8553
 3156SOL     OW21100   1.648   0.481   4.644  0.2662  0.0037  0.2462
 3156SOL    HW121101   1.568   0.432   4.622 -0.5617  0.8024  1.4767
 3156SOL    HW221102   1.723   0.436   4.605  0.6576 -1.0750  2.2302
 3157SOL     OW21103   0.306   0.351  16.122  0.0440  0.6829  0.3545
 3157SOL    HW121104   0.303   0.367  16.028 -1.2893 -1.5849  0.0142
 3157SOL    HW221105   0.378   0.288  16.126 -1.3701 -1.0017 -0.7654
 3158SOL     OW21106   4.156   4.478   0.570  0.3111  0.1137 -0.4016
 3158SOL    HW121107   4.204   4.464   0.652  1.6566  1.5528 -0.9396
 3158SOL    HW221108   4.195   4.560   0.540 -1.4386  0.6242 -1.2462
 3159SOL     OW21109   2.190   4.145   7.323  0.1970 -1.0609 -0.1446
 3159SOL    HW121110   2.226   4.061   7.295 -1.5354 -1.8977  0.1119
 3159SOL    HW221111   2.265   4.203   7.311 -1.5206  1.3352  0.5731
 3160SOL     OW21112   3.656   4.327  11.819  0.1706 -0.1890  0.0912
 3160SOL    HW121113   3.631   4.348  11.909  0.5799  1.0241 -0.0731
 3160SOL    HW221114   3.597   4.378  11.763  0.7021  1.8803  1.4154
 3161SOL     OW21115   0.555   4.253   9.663  0.0686  0.0985  0.3657
 3161SOL    HW121116   0.579   4.161   9.655 -0.3283  0.1213 -1.1733
 3161SOL    HW221117   0.534   4.252   9.757  1.7236 -0.5526  0.7241
 3162SOL     OW21118   0.081   0.562  14.268  0.0630  0.0896 -0.2292
 3162SOL    HW121119   0.070   0.474  14.232  1.7430 -0.5462  0.8053
 3162SOL    HW221120   0.032   0.545  14.348  0.1066 -0.1324 -0.2488
 3163SOL     OW21121   1.441   0.378   4.471 -0.0660  0.4526 -0.2463
 3163SOL    HW121122   1.352   0.404   4.447 -0.8984 -1.9771  0.1588
 3163SOL    HW221123   1.469   0.327   4.395 -0.8962  1.1267 -1.0045
 3164SOL     OW21124   1.395   3.720  12.254 -0.0615 -0.1496  0.2730
 3164SOL    HW121125   1.310   3.691  12.222 -0.6023  3.7198 -1.7887
 3164SOL    HW221126   1.374   3.718  12.348 -2.4596 -1.0240 -0.2908
 3165SOL     OW21127   4.730   0.457   4.157 -0.5017 -0.6410 -0.0011
 3165SOL    HW121128   4.719   0.399   4.082  2.1991 -0.2410 -0.7325
 3165SOL    HW221129   0.002   0.393   4.227 -3.2602 -0.3426  0.7299
 3166SOL     OW21130   4.365   3.028  12.920  0.4355 -0.3802 -0.3067
 3166SOL    HW121131   4.447   3.077  12.919  1.1682 -1.5950  2.2287
 3166SOL    HW221132   4.401   2.940  12.930  1.6126  0.1703  0.3049
 3167SOL     OW21133   2.909   0.278   7.415  0.3791  0.3116  0.1242
 3167SOL    HW121134   2.988   0.224   7.412 -0.6832 -1.3664  2.7297
 3167SOL    HW221135   2.847   0.221   7.459  0.4675  0.0851 -0.0484
 3168SOL     OW21136   4.018   0.685   6.168 -0.2795  0.2789 -0.0561
 3168SOL    HW121137   4.089   0.738   6.204 -1.6777  0.8073  1.8933
 3168SOL    HW221138   4.031   0.692   6.074  1.1311 -2.1397 -0.0541
 3169SOL     OW21139   0.739   4.117   8.658 -0.3581  0.5686 -0.3560
 3169SOL    HW121140   0.793   4.158   8.725 -0.4435 -1.5096  0.9761
 3169SOL    HW221141   0.713   4.040   8.708 -0.1290  0.0768 -0.9834
 3170SOL     OW21142   4.634   0.651   2.310  0.1692 -0.3756  0.1578
 3170SOL    HW121143   4.539   0.642   2.300 -0.0100  1.6256  0.0463
 3170SOL    HW221144   4.656   0.567   2.349  0.5477  0.5818  1.9909
 3171SOL     OW21145   4.586   1.347  16.959  0.1641  0.0000  0.0974
 3171SOL    HW121146   4.589   1.438  16.929  0.8369 -0.3394 -0.8499
 3171SOL    HW221147   4.666   1.336  17.011  0.2265 -0.2099 -0.0457
 3172SOL     OW21148   3.023   0.176  17.341  0.7254  0.1095 -0.0447
 3172SOL    HW121149   3.006   0.217  17.425 -0.1707  1.3286 -0.8176
 3172SOL    HW221150   3.067   0.253  17.306 -1.1856  0.8285 -0.8553
 3173SOL     OW21151   2.991   2.015  15.217 -0.0061 -0.2252 -0.5445
 3173SOL    HW121152   3.045   2.005  15.139 -0.6549  1.9873 -1.2787
 3173SOL    HW221153   2.936   2.089  15.192 -1.8787 -0.7850  1.9145
 3174SOL     OW21154   0.886   0.425  10.964 -0.4696  0.4240 -0.0966
 3174SOL    HW121155   0.979   0.430  10.941 -1.3352  1.4605 -3.3685
 3174SOL    HW221156   0.883   0.329  10.973 -0.0087  0.3312 -0.9234
 3175SOL     OW21157   0.955   4.389   8.713  0.0070 -0.0027  0.0338
 3175SOL    HW121158   0.879   4.415   8.662  0.5322  1.0681 -0.1926
 3175SOL    HW221159   0.930   4.329   8.784  0.8306  0.8667  1.0607
 3176SOL     OW21160   3.343   1.913   1.143 -0.7053 -0.2420  0.3583
 3176SOL    HW121161   3.323   1.946   1.055 -0.4196  0.3362  0.5084
 3176SOL    HW221162   3.335   1.819   1.129 -0.3105 -0.6198  2.5789
 3177SOL     OW21163   1.848   4.140   4.660  0.0232 -0.0986 -0.3930
 3177SOL    HW121164   1.760   4.167   4.633 -0.2792 -0.9217 -0.2469
 3177SOL    HW221165   1.878   4.209   4.719 -0.5168 -0.9818  0.9153
 3178SOL     OW21166   1.911   4.060   9.214  0.1460 -0.3676 -0.1169
 3178SOL    HW121167   1.841   4.111   9.256 -1.6654 -1.9480 -1.2093
 3178SOL    HW221168   1.976   4.065   9.284  3.1271 -1.3458 -2.8648
 3179SOL     OW21169   1.992   0.506   3.510  0.2151 -0.3503 -0.2814
 3179SOL    HW121170   2.076   0.550   3.500 -0.4109  0.3322 -2.3665
 3179SOL    HW221171   2.018   0.415   3.498  0.1918 -0.2770 -0.8710
 3180SOL     OW21172   0.095   3.439   7.982  0.0928  0.1717 -0.0929
 3180SOL    HW121173   0.174   3.385   7.994  0.2281  0.5582  0.7157
 3180SOL    HW221174   0.124   3.496   7.911  0.5390  0.4497  0.3129
 3181SOL     OW21175   4.106   3.570   1.847 -0.7342  0.8327 -0.0004
 3181SOL    HW121176   4.148   3.488   1.824 -2.3760 -0.2123  0.7572
 3181SOL    HW221177   4.013   3.553   1.833 -0.3056  1.4292 -3.4057
 3182SOL     OW21178   1.148   2.149   3.839  0.0059  0.2136 -0.1027
 3182SOL    HW121179   1.236   2.178   3.816 -0.6478  1.1452 -1.4116
 3182SOL    HW221180   1.116   2.238   3.851  0.4402  0.1631  1.3380
 3183SOL     OW21181   0.686   0.056   7.151 -0.1405 -0.4981  0.2905
 3183SOL    HW121182   0.735   4.724   7.110 -0.0119 -0.5969  0.6152
 3183SOL    HW221183   0.728   0.126   7.101 -0.5851  0.5901  1.4694
 3184SOL     OW21184   1.230   1.292  17.199  0.2273 -0.1439  0.0887
 3184SOL    HW121185   1.295   1.237  17.154 -0.6296  0.0553 -1.3952
 3184SOL    HW221186   1.292   1.344  17.251 -0.5149 -0.8595  1.6947
 3185SOL     OW21187   2.903   2.591   2.439 -0.0143  0.6834 -0.0644
 3185SOL    HW121188   2.827   2.647   2.423  1.5416  2.8676  0.1884
 3185SOL    HW221189   2.859   2.515   2.477 -0.7485  1.1855  0.0842
 3186SOL     OW21190   2.226   1.480   6.602  0.3476 -0.5865 -0.3080
 3186SOL    HW121191   2.315   1.497   6.633  0.9056 -3.0496 -0.5755
 3186SOL    HW221192   2.198   1.568   6.578  3.7545  1.0226  1.5919
 3187SOL     OW21193   2.853   1.341  15.664  0.4003 -0.0891  0.1038
 3187SOL    HW121194   2.815   1.290  15.592 -1.1895 -0.3683  1.1504
 3187SOL    HW221195   2.814   1.427  15.651  1.6400  0.3130 -1.0121
 3188SOL     OW21196   2.744   2.231   1.986 -0.0318 -0.0662  0.0413
 3188SOL    HW121197   2.719   2.307   1.934  0.3984 -0.1405 -0.2722
 3188SOL    HW221198   2.731   2.267   2.074  0.4023  0.8667 -0.2849
 3189SOL     OW21199   4.299   2.227  11.328 -0.4814 -0.0895  0.4549
 3189SOL    HW121200   4.311   2.155  11.390 -0.3987 -0.8307 -0.4216
 3189SOL    HW221201   4.381   2.276  11.343  0.8579 -1.8773 -1.0465
 3190SOL     OW21202   2.820   1.305   2.443  0.1413 -0.0572  0.5902
 3190SOL    HW121203   2.734   1.278   2.412 -1.5609  3.8853  1.9301
 3190SOL    HW221204   2.848   1.371   2.379 -2.9608 -0.4757 -1.1621
 3191SOL     OW21205   2.659   2.823   3.478  0.0400 -0.0723 -0.2978
 3191SOL    HW121206   2.625   2.870   3.402 -1.2633 -0.1224  0.2537
 3191SOL    HW221207   2.620   2.737   3.463 -0.0010  0.1168 -1.3068
 3192SOL     OW21208   2.894   4.681   1.604 -0.6805 -0.1752  0.0606
 3192SOL    HW121209   2.916   4.601   1.557  2.9902  1.0068 -0.2549
 3192SOL    HW221210   2.866   0.004   1.537  2.5619  0.7900 -0.4025
 3193SOL     OW21211   3.746   2.078  11.288  0.6485  0.7224 -0.0308
 3193SOL    HW121212   3.734   1.985  11.268  0.5124  1.1839 -2.0512
 3193SOL    HW221213   3.681   2.094  11.357 -0.1375 -2.2377 -0.0532
 3194SOL     OW21214   1.820   0.627   4.030  0.0373 -0.1036 -0.2453
 3194SOL    HW121215   1.818   0.549   4.085  0.3880  0.8431  1.1183
 3194SOL    HW221216   1.816   0.596   3.939 -0.7742 -0.7161 -0.0018
 3195SOL     OW21217   2.068   2.285   2.170 -0.2295  0.1523  0.0457
 3195SOL    HW121218   2.026   2.335   2.240  2.7409 -0.4017  2.2552
 3195SOL    HW221219   2.031   2.318   2.088  0.6288 -1.3897 -0.9610
 3196SOL     OW21220   0.568   2.229  10.667 -0.1369  0.2222 -0.3575
 3196SOL    HW121221   0.587   2.309  10.717 -0.8307  1.6772 -2.4028
 3196SOL    HW221222   0.531   2.180  10.740  1.2365  1.3912  1.1237
 3197SOL     OW21223   2.175   3.307   6.674 -0.2826  0.1150 -0.5944
 3197SOL    HW121224   2.118   3.260   6.614 -1.5902 -0.0275  0.7422
 3197SOL    HW221225   2.223   3.232   6.711  0.4474  0.7778 -0.1972
 3198SOL     OW21226   0.320   4.497   9.444 -0.2974  0.5072  0.1488
 3198SOL    HW121227   0.270   4.505   9.363 -1.1990  0.3549  0.6840
 3198SOL    HW221228   0.313   4.586   9.478  1.5676  0.8011 -0.2453
 3199SOL     OW21229   4.257   3.054   2.866 -0.1267 -0.2768  0.3941
 3199SOL    HW121230   4.291   3.036   2.954 -0.0945  0.9970  0.6366
 3199SOL    HW221231   4.238   2.965   2.837  1.1001 -0.4380  0.0781
 3200SOL     OW21232   3.391   2.902   1.926 -0.1401 -0.5690 -0.3649
 3200SOL    HW121233   3.312   2.867   1.885 -0.8783  1.3294 -0.5510
 3200SOL    HW221234   3.385   2.997   1.916  1.9623 -0.4083 -0.2201
 3201SOL     OW21235   4.584   3.071   5.387  0.1439  0.2101 -0.2230
 3201SOL    HW121236   4.526   2.998   5.407  0.7170 -0.4007 -0.7822
 3201SOL    HW221237   4.670   3.047   5.423  0.2495 -0.9257 -1.2116
 3202SOL     OW21238   4.419   3.816   0.618 -0.1915  0.4829 -0.3309
 3202SOL    HW121239   4.375   3.731   0.614 -1.5416  1.2615 -2.0912
 3202SOL    HW221240   4.341   3.859   0.655  2.4978  2.9181  2.5417
 3203SOL     OW21241   1.602   4.511   6.839  0.3691  0.0583 -0.2716
 3203SOL    HW121242   1.527   4.570   6.831 -0.1734 -0.7557 -1.2048
 3203SOL    HW221243   1.674   4.573   6.852  2.3304 -2.4099  0.5972
 3204SOL     OW21244   2.563   1.058  15.985 -0.7354  0.5363 -0.3877
 3204SOL    HW121245   2.589   1.149  16.001 -4.0888  1.8496 -2.3827
 3204SOL    HW221246   2.468   1.066  15.985 -0.8929 -1.2703  0.1484
 3205SOL     OW21247   0.312   4.736   2.157  0.6532 -0.4642  0.5353
 3205SOL    HW121248   0.309   4.713   2.250 -1.2928  1.2423  0.8726
 3205SOL    HW221249   0.222   4.713   2.135  0.4044  0.4482  0.6249
 3206SOL     OW21250   0.635   4.721   2.052  0.3531 -0.1979  0.1662
 3206SOL    HW121251   0.597   4.678   2.128 -1.0639  0.3144 -0.2523
 3206SOL    HW221252   0.564   0.040   2.024  2.3830  0.9490 -2.5333
 3207SOL     OW21253   3.257   0.228   7.138  0.5276 -0.2202 -0.3210
 3207SOL    HW121254   3.266   0.169   7.063 -0.8434  0.0589 -0.7017
 3207SOL    HW221255   3.189   0.287   7.105 -0.7923 -0.1485  2.5842
 3208SOL     OW21256   3.556   3.789   1.900 -0.5825  0.5206 -0.1702
 3208SOL    HW121257   3.495   3.850   1.858 -1.4541  0.2799  0.7362
 3208SOL    HW221258   3.638   3.819   1.861  1.2462 -0.6747  2.7817
 3209SOL     OW21259   3.318   0.257   7.937  0.1050 -0.1531  0.6096
 3209SOL    HW121260   3.391   0.308   7.972 -1.9246  0.8503  3.3424
 3209SOL    HW221261   3.322   0.285   7.845  0.4677 -0.1020  0.6433
 3210SOL     OW21262   4.247   1.741   7.346  0.0524  1.1565  0.1779
 3210SOL    HW121263   4.182   1.675   7.369  0.4052  1.3151  1.6703
 3210SOL    HW221264   4.223   1.766   7.257 -2.3318 -1.4365  0.1125
 3211SOL     OW21265   4.286   3.393   3.561  0.2943  0.0130 -0.1656
 3211SOL    HW121266   4.359   3.342   3.596 -1.0988 -0.2182  2.3645
 3211SOL    HW221267   4.220   3.382   3.629 -1.3023  0.7362 -1.5713
 3212SOL     OW21268   4.136   2.369   5.351 -0.4338 -0.0112 -0.6973
 3212SOL    HW121269   4.183   2.451   5.368  0.9921 -0.4625 -2.5415
 3212SOL    HW221270   4.178   2.338   5.271  0.3065  0.6881 -0.5797
 3213SOL     OW21271   0.530   0.002   7.380  0.1727  0.2846  0.0338
 3213SOL    HW121272   0.586   0.011   7.303  0.1583 -0.0230 -0.0150
 3213SOL    HW221273   0.520   4.646   7.377 -0.6238  0.4114 -1.6436
 3214SOL     OW21274   2.203   3.354   5.731 -0.9101  0.2954  0.2902
 3214SOL    HW121275   2.170   3.312   5.810 -2.7280  3.1099  1.0256
 3214SOL    HW221276   2.219   3.277   5.676  0.6427 -0.6361  2.0635
 3215SOL     OW21277   2.707   3.509   5.733 -0.0501 -0.0069 -0.0047
 3215SOL    HW121278   2.684   3.586   5.785  0.3716 -0.8824  1.4842
 3215SOL    HW221279   2.620   3.472   5.718 -0.0709  0.4643 -1.0607
 3216SOL     OW21280   0.843   2.178   6.788 -0.2127  0.0029  0.1295
 3216SOL    HW121281   0.810   2.208   6.872  1.3109  0.3311  0.6145
 3216SOL    HW221282   0.873   2.260   6.751  0.4778 -0.3803 -0.1627
 3217SOL     OW21283   1.478   0.516   7.668 -0.8645 -0.1260 -0.3183
 3217SOL    HW121284   1.545   0.512   7.736  0.5641 -0.4390 -1.7498
 3217SOL    HW221285   1.427   0.438   7.692  0.9713 -1.7766 -1.7716
 3218SOL     OW21286   0.930   2.381  15.825 -0.2974 -0.0163  0.3762
 3218SOL    HW121287   0.944   2.334  15.743  1.3352  1.4420 -0.1635
 3218SOL    HW221288   0.921   2.303  15.881  1.2574 -0.4703  0.0009
 3219SOL     OW21289   0.386   2.842   2.633 -0.5837 -0.6518  0.1931
 3219SOL    HW121290   0.476   2.809   2.625 -0.3427  0.7276 -2.4634
 3219SOL    HW221291   0.394   2.909   2.701  0.3201 -0.3941 -0.1697
 3220SOL     OW21292   1.564   3.089   9.762  0.1962 -0.4354 -0.0676
 3220SOL    HW121293   1.495   3.050   9.707 -0.4543 -0.2161  0.5885
 3220SOL    HW221294   1.588   3.013   9.816 -0.7474 -0.2834  0.5676
 3221SOL     OW21295   1.367   1.103   1.232 -0.1261 -0.1433 -0.1387
 3221SOL    HW121296   1.336   1.028   1.181  0.0536  1.1707 -2.1747
 3221SOL    HW221297   1.370   1.064   1.319  2.0852 -1.6652 -0.8587
 3222SOL     OW21298   2.951   3.936  11.352  0.0454 -0.0174 -0.1212
 3222SOL    HW121299   3.014   3.888  11.405  0.3649 -0.9407 -1.3516
 3222SOL    HW221300   2.879   3.944  11.414 -0.1954 -0.6034 -0.3260
 3223SOL     OW21301   1.392   4.343  10.244  0.7242 -0.0054 -0.5129
 3223SOL    HW121302   1.465   4.297  10.287  0.7212 -0.1810 -0.6931
 3223SOL    HW221303   1.445   4.412  10.204  1.5803 -0.3665 -0.0137
 3224SOL     OW21304   1.192   2.043   8.412  0.3808 -0.5264  0.0151
 3224SOL    HW121305   1.112   2.081   8.450 -0.4003 -0.3224 -1.8037
 3224SOL    HW221306   1.195   2.098   8.334 -1.1164  0.0936  0.3718
 3225SOL     OW21307   2.552   3.524   4.199 -0.4099  0.2836 -0.1483
 3225SOL    HW121308   2.588   3.484   4.120  2.0613  0.1127  1.0784
 3225SOL    HW221309   2.479   3.467   4.223 -0.0971 -0.4541 -0.9958
 3226SOL     OW21310   2.774   0.035   1.838  0.2465 -0.2024  0.0117
 3226SOL    HW121311   2.786   0.124   1.803 -1.7997  0.4924  1.0392
 3226SOL    HW221312   2.822   4.722   1.774  0.6266 -1.4852  1.3540
 3227SOL     OW21313   3.492   2.301   1.028  0.0238  0.8025 -0.1103
 3227SOL    HW121314   3.513   2.238   0.959 -0.9240  0.5345 -0.1421
 3227SOL    HW221315   3.580   2.296   1.067 -0.1411 -0.4270  0.0982
 3228SOL     OW21316   4.665   1.694  12.987 -0.0731 -0.2755 -0.5107
 3228SOL    HW121317   4.629   1.640  13.057  0.6970 -0.6579 -0.4109
 3228SOL    HW221318   4.727   1.735  13.047 -0.8790  0.2161 -0.0233
 3229SOL     OW21319   4.545   4.200   6.472 -0.4250  0.4278  0.2424
 3229SOL    HW121320   4.571   4.194   6.380  0.1259  0.5356  0.3899
 3229SOL    HW221321   4.542   4.106   6.488  0.7057  0.5070  1.0083
 3230SOL     OW21322   0.987   0.419  10.206  0.2387 -0.2024  0.0485
 3230SOL    HW121323   1.019   0.449  10.121  0.3404 -0.7030 -0.0892
 3230SOL    HW221324   0.976   0.501  10.255 -2.0526 -1.1833  1.1677
 3231SOL     OW21325   3.716   3.326   7.249  0.0726  0.6005 -0.2308
 3231SOL    HW121326   3.734   3.250   7.304 -2.9632  0.9032  1.1871
 3231SOL    HW221327   3.778   3.388   7.288  0.1740 -0.0167  0.6005
 3232SOL     OW21328   4.114   3.959   2.498  0.0038 -0.0180 -0.0916
 3232SOL    HW121329   4.107   3.906   2.578 -1.7370 -0.2056 -0.3664
 3232SOL    HW221330   4.130   3.882   2.444  2.0269 -0.2165  0.8195
 3233SOL     OW21331   3.095   1.315   3.665  0.0912  0.4567  0.5620
 3233SOL    HW121332   3.141   1.371   3.603 -0.3549  0.2267  0.0191
 3233SOL    HW221333   3.109   1.227   3.629  1.6427  0.9333 -0.0189
 3234SOL     OW21334   3.533   0.468   6.568 -0.3824 -0.0861 -0.0980
 3234SOL    HW121335   3.476   0.506   6.500 -0.2965 -0.1688 -0.2145
 3234SOL    HW221336   3.516   0.380   6.535 -0.3345 -0.6602  1.4030
 3235SOL     OW21337   0.939   1.189   2.711 -0.5407 -0.3131  0.1516
 3235SOL    HW121338   0.846   1.170   2.727 -0.7099 -0.2943 -0.8098
 3235SOL    HW221339   0.937   1.275   2.671  0.7618 -0.4919 -0.2967
 3236SOL     OW21340   1.444   1.108   4.173  0.5541 -0.0973  0.1746
 3236SOL    HW121341   1.377   1.088   4.108  1.6252 -1.8147 -0.3889
 3236SOL    HW221342   1.463   1.199   4.150 -0.9249  0.0149 -0.6221
 3237SOL     OW21343   0.168   0.533   7.927  0.0118  0.1013 -0.3770
 3237SOL    HW121344   0.219   0.550   8.006 -0.7682  0.2589  0.0878
 3237SOL    HW221345   0.162   0.620   7.887 -1.0947 -0.4132 -1.3102
 3238SOL     OW21346   0.088   1.813  16.965 -0.3996  0.4333  0.0376
 3238SOL    HW121347   0.134   1.740  17.007 -0.5713 -0.0455 -0.6050
 3238SOL    HW221348   0.144   1.889  16.979  0.1559 -0.3880  2.2581
 3239SOL     OW21349   1.091   4.135   4.256 -0.1542  0.5344  0.3214
 3239SOL    HW121350   1.157   4.066   4.252 -0.5388  0.1841  0.0675
 3239SOL    HW221351   1.030   4.093   4.316  1.4265 -1.5350  0.4763
 3240SOL     OW21352   1.637   2.717  14.453  0.2005  0.0372 -0.2654
 3240SOL    HW121353   1.588   2.715  14.370 -0.3519  0.3535  0.0525
 3240SOL    HW221354   1.585   2.660  14.509  1.8876  0.5412  1.7881
 3241SOL     OW21355   0.977   4.667   3.688  0.2644 -0.5936  1.0221
 3241SOL    HW121356   0.952   4.738   3.747  0.3802  0.1897  0.1408
 3241SOL    HW221357   1.057   4.639   3.733  1.6600  2.9225  0.7196
 3242SOL     OW21358   4.723   0.192  16.844 -0.4280  0.0239  0.5651
 3242SOL    HW121359   0.075   0.218  16.839 -0.4874  0.0993 -0.1247
 3242SOL    HW221360   4.678   0.239  16.774  0.4810 -1.0348 -0.7287
 3243SOL     OW21361   1.411   4.700   7.154 -0.0870  0.6433 -0.4170
 3243SOL    HW121362   1.418   4.693   7.059 -1.1324  0.4245 -0.4794
 3243SOL    HW221363   1.325   4.660   7.168  1.0896 -1.8747 -0.4102
 3244SOL     OW21364   1.486   2.815   5.904 -0.3122 -0.0247 -0.5968
 3244SOL    HW121365   1.526   2.765   5.833 -2.1302 -1.1063 -0.8499
 3244SOL    HW221366   1.490   2.750   5.973  2.4839  0.8128  0.0624
 3245SOL     OW21367   4.499   1.889  12.917 -0.1775 -0.1194  0.2420
 3245SOL    HW121368   4.562   1.824  12.949 -3.0538 -1.6890  2.6986
 3245SOL    HW221369   4.556   1.951  12.870 -3.1474  1.0661 -1.7652
 3246SOL     OW21370   4.603   3.915  12.870  0.2912  0.4005  0.0433
 3246SOL    HW121371   4.662   3.989  12.862 -2.3686  2.4276 -0.9530
 3246SOL    HW221372   4.580   3.926  12.962 -0.9771 -0.3398 -0.1759
 3247SOL     OW21373   0.350   1.597  11.277 -0.1335 -0.0618 -0.0778
 3247SOL    HW121374   0.263   1.591  11.317 -0.1808 -0.8650 -0.3065
 3247SOL    HW221375   0.410   1.541  11.325  2.1672  0.1556 -2.7329
 3248SOL     OW21376   0.417   4.388  15.644 -0.1803 -0.6854 -0.5238
 3248SOL    HW121377   0.332   4.398  15.688  0.1039  0.3134 -0.1985
 3248SOL    HW221378   0.429   4.296  15.666  0.4842 -0.4733  0.0115
 3249SOL     OW21379   0.797   0.528   8.129  0.0225  0.3337 -0.0443
 3249SOL    HW121380   0.882   0.569   8.114  0.6574 -0.7939  0.5812
 3249SOL    HW221381   0.809   0.434   8.116 -0.4632  0.6427 -2.8009
 3250SOL     OW21382   3.917   0.562   6.806 -0.2675  1.0216  0.2509
 3250SOL    HW121383   3.842   0.513   6.837 -0.7323  1.9425  0.5801
 3250SOL    HW221384   3.899   0.588   6.716 -3.1209 -0.1802  0.4833
 3251SOL     OW21385   3.840   2.197   6.955 -0.3136 -0.2638 -0.4463
 3251SOL    HW121386   3.770   2.177   6.893  0.8855 -0.2406 -1.7927
 3251SOL    HW221387   3.895   2.259   6.908  0.9016 -1.3545 -0.4438
 3252SOL     OW21388   1.659   3.770   6.832 -0.1810 -0.2978 -0.1988
 3252SOL    HW121389   1.571   3.804   6.817  0.6736  1.7906 -0.4869
 3252SOL    HW221390   1.672   3.783   6.926 -0.6837 -0.0685 -0.1609
 3253SOL     OW21391   2.862   0.398   6.570 -0.3472  0.5289 -0.1645
 3253SOL    HW121392   2.875   0.309   6.536 -0.0528 -0.5850  2.8684
 3253SOL    HW221393   2.897   0.381   6.657  0.1449 -2.0839 -0.8806
 3254SOL     OW21394   1.517   0.726   1.166 -0.0814 -0.3143  0.2766
 3254SOL    HW121395   1.597   0.759   1.125  0.4884 -2.4252 -0.3143
 3254SOL    HW221396   1.518   0.639   1.125  1.0308 -0.2083  0.0595
 3255SOL     OW21397   3.520   0.263   0.755 -0.8470 -0.3421 -0.7818
 3255SOL    HW121398   3.506   0.290   0.665 -1.4105 -3.6857 -1.7005
 3255SOL    HW221399   3.539   0.348   0.795 -2.3296 -0.5271  0.3295
 3256SOL     OW21400   3.630   2.906   7.225 -0.5822 -0.0105 -0.0622
 3256SOL    HW121401   3.606   2.841   7.291 -0.0473 -0.0559  0.0859
 3256SOL    HW221402   3.711   2.939   7.265 -1.4807  1.1497  0.8004
 3257SOL     OW21403   0.926   3.126   2.996  0.7842 -0.3647  0.2097
 3257SOL    HW121404   0.948   3.136   3.089  2.3613 -1.0773 -0.0931
 3257SOL    HW221405   1.015   3.099   2.973  0.4241 -1.2799 -0.0854
 3258SOL     OW21406   4.015   4.179   6.264 -0.3348 -0.0095  0.1669
 3258SOL    HW121407   4.013   4.257   6.207 -1.3230 -0.5645 -0.5563
 3258SOL    HW221408   4.110   4.169   6.272 -0.6082 -0.6318  2.3303
 3259SOL     OW21409   3.419   4.111   5.009 -1.4924 -0.8172 -0.3020
 3259SOL    HW121410   3.363   4.111   4.932 -0.0706 -0.2014 -1.3281
 3259SOL    HW221411   3.459   4.024   5.007 -1.5449 -0.8500  0.0184
 3260SOL     OW21412   4.177   1.702   8.715 -0.3502 -1.0734  0.0205
 3260SOL    HW121413   4.234   1.680   8.641 -1.4900  1.3415 -1.5824
 3260SOL    HW221414   4.107   1.649   8.677 -1.3971  0.6239 -0.4542
 3261SOL     OW21415   3.374   2.535   1.898 -0.6436  0.1188 -0.3504
 3261SOL    HW121416   3.402   2.447   1.873 -0.9601  0.0925 -0.6051
 3261SOL    HW221417   3.435   2.543   1.972 -1.3256  2.3173 -0.0318
 3262SOL     OW21418   4.344   2.254   3.702  0.1988  0.6602  0.2836
 3262SOL    HW121419   4.393   2.196   3.645 -1.6415  0.8979 -1.5214
 3262SOL    HW221420   4.322   2.198   3.777  1.6077 -1.3072 -0.7974
 3263SOL     OW21421   2.411   2.473   5.576 -0.2797 -0.3139 -0.8629
 3263SOL    HW121422   2.430   2.434   5.661 -0.7320  2.1303  0.3341
 3263SOL    HW221423   2.316   2.462   5.568 -0.4031  1.2172 -1.4427
 3264SOL     OW21424   1.381   2.675   7.051 -0.1148  0.1034  0.2850
 3264SOL    HW121425   1.312   2.676   7.117  1.3582 -0.8919  1.8347
 3264SOL    HW221426   1.398   2.581   7.046  0.5502  0.2904 -1.2071
 3265SOL     OW21427   0.594   2.806   1.716 -0.5553  0.1165  0.0772
 3265SOL    HW121428   0.557   2.749   1.783 -1.7028  2.2733  1.2692
 3265SOL    HW221429   0.568   2.889   1.756 -0.6176  0.5049 -0.7763
 3266SOL     OW21430   3.928   4.057   5.952 -0.0705 -0.0061  0.3573
 3266SOL    HW121431   3.938   3.995   5.879  0.3006  0.4846 -0.0056
 3266SOL    HW221432   4.018   4.055   5.982 -0.1489  0.0988  0.6014
 3267SOL     OW21433   3.192   3.909   5.206  0.0057  0.4828 -0.2427
 3267SOL    HW121434   3.122   3.894   5.270 -0.0537  1.1218 -0.1528
 3267SOL    HW221435   3.145   3.951   5.134  0.1136 -0.0203 -0.5997
 3268SOL     OW21436   2.950   4.423  17.730 -0.2966  0.2172 -0.2091
 3268SOL    HW121437   2.974   4.438   0.065 -1.9624 -1.2997  0.4792
 3268SOL    HW221438   2.855   4.426  17.723 -0.1843  0.5162 -1.5351
 3269SOL     OW21439   1.720   4.406   2.418  0.8261 -0.7507 -0.2579
 3269SOL    HW121440   1.646   4.408   2.358  0.3180  0.7629  0.4212
 3269SOL    HW221441   1.680   4.406   2.505  0.3794  1.7536 -0.4713
 3270SOL     OW21442   1.813   3.121   0.174 -0.5602 -0.1579 -0.2955
 3270SOL    HW121443   1.798   3.204   0.129 -0.7073 -0.6050 -1.0687
 3270SOL    HW221444   1.876   3.142   0.242 -0.7304  1.6757 -0.7018
 3271SOL     OW21445   2.521   4.453   4.084  0.1407  0.6447  0.1490
 3271SOL    HW121446   2.571   4.535   4.079  0.4219  0.3634 -1.9620
 3271SOL    HW221447   2.469   4.462   4.164 -0.0359  0.9817 -0.0033
 3272SOL     OW21448   1.711   2.441   8.136  0.0469 -0.1217 -0.2174
 3272SOL    HW121449   1.694   2.391   8.057  2.6539 -0.2324 -0.7124
 3272SOL    HW221450   1.774   2.510   8.114  0.7735 -0.5173  0.5982
 3273SOL     OW21451   1.509   0.329  13.291  0.0327 -0.5493  0.1340
 3273SOL    HW121452   1.472   0.387  13.224 -1.3529  1.7715  2.9336
 3273SOL    HW221453   1.564   0.382  13.348  1.2114 -0.0311 -1.4730
 3274SOL     OW21454   2.007   4.679  10.086 -0.2270  0.0317 -0.3420
 3274SOL    HW121455   1.920   4.649  10.113 -0.0573  1.1693  1.4987
 3274SOL    HW221456   2.034   4.611  10.024  2.3316  0.0169  0.7890
 3275SOL     OW21457   4.282   2.181  12.714 -0.2720  0.7784  0.5521
 3275SOL    HW121458   4.191   2.198  12.690  0.0602  2.5872  0.6104
 3275SOL    HW221459   4.283   2.089  12.742  1.2889  0.0063 -2.0542
 3276SOL     OW21460   2.916   4.067  10.093  0.2615 -0.0495  0.1224
 3276SOL    HW121461   2.981   3.997  10.107 -0.1081 -0.3818  0.1605
 3276SOL    HW221462   2.854   4.039  10.160  1.7522  2.6809  2.6425
 3277SOL     OW21463   3.939   0.584   4.019  0.2133  0.5650 -0.4142
 3277SOL    HW121464   3.882   0.508   4.026  0.2253  0.6293  0.3162
 3277SOL    HW221465   3.955   0.603   4.111  0.7199  1.2700 -0.6453
 3278SOL     OW21466   1.513   1.636  17.109  0.0121  0.2500 -0.5414
 3278SOL    HW121467   1.590   1.667  17.062  2.6555 -0.8450  3.0187
 3278SOL    HW221468   1.447   1.704  17.098  0.3696  0.5914 -0.5691
 3279SOL     OW21469   1.958   4.408  10.434 -0.0981 -0.4298  0.3210
 3279SOL    HW121470   1.992   4.323  10.404  0.5423  0.1101 -0.4630
 3279SOL    HW221471   1.864   4.396  10.424 -0.2926  2.8103 -1.4113
 3280SOL     OW21472   0.111   4.188  14.442 -0.4231  0.3378  0.1316
 3280SOL    HW121473   0.077   4.182  14.353  1.4903 -0.3210 -0.5707
 3280SOL    HW221474   0.121   4.281  14.463 -0.7953  0.3428  0.2761
 3281SOL     OW21475   2.213   4.280   7.962  0.0820  0.5507  0.5180
 3281SOL    HW121476   2.198   4.189   7.990 -0.1827  0.4244 -0.0428
 3281SOL    HW221477   2.252   4.262   7.876  2.3327  0.8607  1.4562
 3282SOL     OW21478   0.424   1.079   2.654 -0.7997  0.3612 -0.4644
 3282SOL    HW121479   0.413   1.062   2.747  1.3421 -0.5501 -0.3814
 3282SOL    HW221480   0.342   1.046   2.616 -1.3898 -0.0498  1.1885
 3283SOL     OW21481   3.618   1.786   8.355  0.5140 -0.0970 -0.1869
 3283SOL    HW121482   3.653   1.778   8.266  0.6028 -0.4873 -0.1130
 3283SOL    HW221483   3.662   1.712   8.396  0.3228 -0.9862 -1.5870
 3284SOL     OW21484   0.863   0.705   8.802  0.1995  0.2017 -0.8863
 3284SOL    HW121485   0.902   0.714   8.890 -0.7183 -0.6655 -0.3857
 3284SOL    HW221486   0.945   0.724   8.757 -0.4441  1.8273 -1.3429
 3285SOL     OW21487   1.491   4.473   2.916 -0.0655 -0.3473 -0.5770
 3285SOL    HW121488   1.549   4.403   2.946  0.1772  0.1081  0.0169
 3285SOL    HW221489   1.545   4.550   2.898 -1.2963  1.2352  2.4322
 3286SOL     OW21490   3.236   2.005   2.115 -0.2283  0.0611 -0.1613
 3286SOL    HW121491   3.307   2.059   2.152 -0.5666  0.3657  0.0425
 3286SOL    HW221492   3.294   1.958   2.055  1.1109 -0.9910  1.9445
 3287SOL     OW21493   0.701   2.909  17.432 -0.6206 -0.0323  0.1299
 3287SOL    HW121494   0.790   2.879  17.453 -0.7475  1.1455  2.2924
 3287SOL    HW221495   0.665   2.950  17.510  0.3677  2.2524 -0.6116
 3288SOL     OW21496   0.341   2.332   6.579 -0.0400 -0.5059  0.6987
 3288SOL    HW121497   0.385   2.271   6.519 -0.4991 -0.7411  0.6043
 3288SOL    HW221498   0.284   2.374   6.516  3.2645  3.0985  0.1228
 3289SOL     OW21499   1.393   2.691   1.214 -0.1727  0.8360  0.1280
 3289SOL    HW121500   1.300   2.668   1.219 -0.1693  1.2973  2.5922
 3289SOL    HW221501   1.408   2.684   1.120 -1.2810  2.6719 -0.1863
 3290SOL     OW21502   4.393   2.571  13.761 -0.2033 -0.1349 -0.8011
 3290SOL    HW121503   4.401   2.664  13.785  0.6118 -0.2141 -0.7604
 3290SOL    HW221504   4.439   2.538  13.838 -1.6989  0.9396  0.5516
 3291SOL     OW21505   1.738   3.981   9.887  0.3278  0.6708  0.5865
 3291SOL    HW121506   1.773   4.011   9.971 -0.6616  0.5445  1.0485
 3291SOL    HW221507   1.649   3.954   9.910 -0.5498  3.3591  0.3340
 3292SOL     OW21508   2.216   1.918   3.798  0.1988 -0.4557 -0.2339
 3292SOL    HW121509   2.283   1.879   3.854  0.2621  0.0019  0.0125
 3292SOL    HW221510   2.168   1.978   3.855  1.3827  1.2863 -1.0373
 3293SOL     OW21511   2.389   0.006   6.993  0.4598 -0.2798  0.1800
 3293SOL    HW121512   2.473   0.052   6.985  0.1543  0.6953  2.7054
 3293SOL    HW221513   2.395   4.685   6.919 -1.2454  2.0658 -1.8971
 3294SOL     OW21514   4.228   0.380   3.481  0.1504  0.9467  0.0343
 3294SOL    HW121515   4.262   0.359   3.394 -1.8359 -1.4431 -0.1667
 3294SOL    HW221516   4.136   0.356   3.471  0.7177 -1.6291  0.7208
 3295SOL     OW21517   3.945   2.738   4.407  0.0926  0.6370 -0.1296
 3295SOL    HW121518   3.912   2.652   4.431 -0.7752  0.8222 -0.6529
 3295SOL    HW221519   3.862   2.785   4.403 -0.5702 -0.5516 -0.2042
 3296SOL     OW21520   2.433   1.412   4.599 -0.1621 -0.2335  0.2933
 3296SOL    HW121521   2.376   1.486   4.620 -1.0052 -0.6202 -0.6258
 3296SOL    HW221522   2.522   1.445   4.592  1.0048 -3.0704  2.0318
 3297SOL     OW21523   0.020   3.069   4.176 -0.2369 -0.2337 -0.7695
 3297SOL    HW121524   0.006   3.084   4.270 -0.0591  0.4228 -0.8443
 3297SOL    HW221525   0.115   3.071   4.168 -0.2971 -2.1783 -1.8744
 3298SOL     OW21526   3.835   0.520  14.957 -0.3288 -0.7040  0.0538
 3298SOL    HW121527   3.777   0.596  14.966  1.6598  0.9610 -1.3608
 3298SOL    HW221528   3.780   0.468  15.015  0.6366  0.0716  1.6638
 3299SOL     OW21529   3.682   2.047   5.092 -0.2326  0.1542  0.3539
 3299SOL    HW121530   3.660   2.072   5.002  2.7806  1.9369  0.1356
 3299SOL    HW221531   3.623   1.972   5.101 -0.5926  0.4738  0.6567
 3300SOL     OW21532   0.566   3.442   5.092  0.2142  0.0843  0.2302
 3300SOL    HW121533   0.515   3.369   5.127  0.3977  0.3678  1.0906
 3300SOL    HW221534   0.527   3.451   5.005  0.2273 -1.2267  0.0812
 3301SOL     OW21535   1.826   3.662  15.603  0.3149  0.7819 -0.1586
 3301SOL    HW121536   1.791   3.742  15.641 -1.2202 -0.9720  2.1416
 3301SOL    HW221537   1.751   3.626  15.556  0.1137 -0.2980  0.9726
 3302SOL     OW21538   1.107   0.072  15.973 -0.1212  0.8273  0.1278
 3302SOL    HW121539   1.104   4.733  15.919  2.5327 -0.1198  1.3757
 3302SOL    HW221540   1.117   0.149  15.916  2.3547  0.8434  0.5865
 3303SOL     OW21541   3.735   1.705   5.165 -0.0061  0.3534  0.5222
 3303SOL    HW121542   3.661   1.756   5.197 -1.1286  0.5564 -2.4196
 3303SOL    HW221543   3.740   1.628   5.223  0.4463 -1.6837 -2.1987
 3304SOL     OW21544   1.939   1.277  14.462  0.1267  0.3678 -0.3603
 3304SOL    HW121545   1.975   1.202  14.509 -1.9230  0.4883  1.3960
 3304SOL    HW221546   1.951   1.342  14.530  0.2388  2.2979 -2.2109
 3305SOL     OW21547   0.518   0.083  15.995  0.2445 -0.0961 -0.4570
 3305SOL    HW121548   0.467   0.084  15.914  2.5119 -0.0041 -1.8750
 3305SOL    HW221549   0.550   4.733  15.993  1.8488  0.4668  0.1987
 3306SOL     OW21550   3.955   4.356   4.110 -0.3177  0.1744  0.4339
 3306SOL    HW121551   3.993   4.424   4.165  0.9179  1.1267 -1.5822
 3306SOL    HW221552   3.869   4.347   4.151 -0.5274 -0.5347 -0.1721
 3307SOL     OW21553   4.063   4.407   3.546 -0.3080  0.1451  0.1173
 3307SOL    HW121554   4.066   4.321   3.504  0.4919  0.4831 -0.5078
 3307SOL    HW221555   4.056   4.388   3.640 -2.2524 -0.1310 -0.0678
 3308SOL     OW21556   1.892   2.759  13.297  0.2270  0.0196 -0.0324
 3308SOL    HW121557   1.826   2.788  13.234 -0.0620  0.9497  0.7111
 3308SOL    HW221558   1.971   2.743  13.244 -0.3392 -2.3682 -0.1730
 3309SOL     OW21559   1.168   1.978   4.600  0.1978 -0.0857  0.0958
 3309SOL    HW121560   1.246   2.022   4.635  0.2254 -0.0361 -0.0288
 3309SOL    HW221561   1.095   2.032   4.631  0.1488  0.6238 -1.2575
 3310SOL     OW21562   1.990   1.084  14.661  0.8790 -0.1976 -0.4148
 3310SOL    HW121563   1.929   1.101  14.733  2.5650 -1.6977  1.3798
 3310SOL    HW221564   2.040   1.009  14.694  0.5498 -0.3361 -0.2340
 3311SOL     OW21565   1.893   3.418   6.780  0.1477  0.1620  0.5060
 3311SOL    HW121566   1.890   3.479   6.706 -1.0781  0.2137  0.5977
 3311SOL    HW221567   1.974   3.370   6.761  1.2114  2.4004 -0.6819
 3312SOL     OW21568   2.986   0.242  16.991  0.0085 -0.0853  0.0483
 3312SOL    HW121569   2.945   0.282  16.915  0.4449  3.2789  1.5657
 3312SOL    HW221570   2.950   0.292  17.065 -0.6672 -2.5618  1.3827
 3313SOL     OW21571   3.658   3.685  14.069 -0.4122 -0.2753  0.0087
 3313SOL    HW121572   3.742   3.656  14.034 -1.3200 -3.1832  0.1877
 3313SOL    HW221573   3.688   3.740  14.141  2.6444 -1.3620 -0.4671
 3314SOL     OW21574   4.413   1.326   2.699  0.4228  0.1985  0.3672
 3314SOL    HW121575   4.487   1.317   2.759  1.8392 -1.8145 -1.6642
 3314SOL    HW221576   4.444   1.385   2.630  0.1238 -0.4315 -0.3174
 3315SOL     OW21577   1.043   2.599  15.938 -0.2312  0.7834  0.2375
 3315SOL    HW121578   0.968   2.624  15.992  1.4875  3.8805  1.1968
 3315SOL    HW221579   1.018   2.512  15.906 -4.4106  1.6029  1.2816
 3316SOL     OW21580   1.593   0.357   5.717  0.0855 -0.5014 -0.6729
 3316SOL    HW121581   1.513   0.304   5.715  0.2775 -0.7671 -1.2499
 3316SOL    HW221582   1.558   0.446   5.720  0.9080 -0.2614  2.3203
 3317SOL     OW21583   1.429   3.704  16.875 -0.0198 -0.2953 -0.4340
 3317SOL    HW121584   1.373   3.640  16.830 -0.0686  0.0709 -0.8968
 3317SOL    HW221585   1.469   3.649  16.942  0.5169  2.1071  1.1950
 3318SOL     OW21586   2.402   1.537   8.341  0.3082 -0.6112  0.1700
 3318SOL    HW121587   2.442   1.486   8.410 -0.0872 -0.9215  0.1717
 3318SOL    HW221588   2.433   1.622   8.372 -0.5624  1.1261 -3.6956
 3319SOL     OW21589   0.865   3.590   8.908  0.3202  0.4934  0.2826
 3319SOL    HW121590   0.827   3.673   8.936 -3.4847 -0.9986 -0.4461
 3319SOL    HW221591   0.898   3.623   8.824  0.8622 -0.2443  0.2098
 3320SOL     OW21592   1.734   0.878   9.118 -0.7097 -0.0517 -0.0880
 3320SOL    HW121593   1.704   0.842   9.034 -2.2675 -0.8976  0.8373
 3320SOL    HW221594   1.686   0.961   9.122  2.9126  2.1430 -1.8329
 3321SOL     OW21595   3.675   0.098   6.774 -0.3721 -0.1148  0.0383
 3321SOL    HW121596   3.748   0.062   6.824 -0.1870  1.9834  1.2686
 3321SOL    HW221597   3.612   0.026   6.781 -0.0189 -0.3105  1.2756
 3322SOL     OW21598   1.958   3.698   2.083 -0.0353  0.1659 -0.2255
 3322SOL    HW121599   1.983   3.622   2.135 -1.1522 -0.0487 -0.0114
 3322SOL    HW221600   1.991   3.767   2.141 -1.2940 -0.0159  0.7008
 3323SOL     OW21601   1.567   2.299   4.715 -0.3812 -0.1961  0.1112
 3323SOL    HW121602   1.575   2.286   4.810  1.8861 -2.3781 -0.3728
 3323SOL    HW221603   1.658   2.314   4.691 -0.3743  1.5893  1.2371
 3324SOL     OW21604   0.488   1.244   2.220 -0.5426  0.0505 -0.1183
 3324SOL    HW121605   0.431   1.268   2.146 -1.3296  2.0935  1.1673
 3324SOL    HW221606   0.419   1.192   2.262  0.0421 -0.7593 -0.1643
 3325SOL     OW21607   2.899   4.232  14.110  0.1014 -0.3382  0.0179
 3325SOL    HW121608   2.899   4.140  14.087 -3.3320  0.5279 -3.4028
 3325SOL    HW221609   2.808   4.259  14.093 -0.0429 -1.6358 -1.1975
 3326SOL     OW21610   1.183   3.769   3.144  0.5119  0.0819 -0.3828
 3326SOL    HW121611   1.269   3.804   3.168 -0.7918  0.3830  4.0001
 3326SOL    HW221612   1.179   3.804   3.055 -2.4591  2.0024  0.5093
 3327SOL     OW21613   0.788   2.944   9.028  0.7383 -0.7096 -0.1693
 3327SOL    HW121614   0.850   2.991   9.084  0.5546 -0.0438 -0.5261
 3327SOL    HW221615   0.747   2.888   9.095 -0.7619 -0.9017 -1.2451
 3328SOL     OW21616   0.285   3.408   3.894  0.0309  0.0895  0.4414
 3328SOL    HW121617   0.279   3.503   3.888  0.3686  0.0990  0.2963
 3328SOL    HW221618   0.248   3.400   3.982  0.6749 -1.6327  0.5591
 3329SOL     OW21619   4.129   0.159   2.344  0.8399 -0.0631  0.0971
 3329SOL    HW121620   4.086   0.102   2.280 -0.5971  0.7363  0.3561
 3329SOL    HW221621   4.062   0.227   2.352  1.6499  0.4807  2.2563
 3330SOL     OW21622   0.697   3.728   9.377  0.0632 -0.4118  0.0313
 3330SOL    HW121623   0.714   3.779   9.456  0.4970  0.4573 -0.6237
 3330SOL    HW221624   0.621   3.673   9.398  0.9872 -1.2920  1.0682
 3331SOL     OW21625   4.233   2.945   3.202 -0.1163  0.3256 -0.3148
 3331SOL    HW121626   4.319   2.934   3.242 -0.7236 -1.2954  0.5428
 3331SOL    HW221627   4.233   3.039   3.186  0.4179 -0.1975 -3.3940
 3332SOL     OW21628   0.851   2.865   7.455 -0.5317 -0.1292 -0.1855
 3332SOL    HW121629   0.839   2.956   7.482  0.8689 -0.7278  2.3862
 3332SOL    HW221630   0.772   2.858   7.400 -0.5639  0.0013 -0.1554
 3333SOL     OW21631   3.310   2.968   6.165  0.6886 -0.5294  0.5654
 3333SOL    HW121632   3.287   3.061   6.167 -0.0905 -0.6545 -1.7981
 3333SOL    HW221633   3.280   2.934   6.080 -0.0699  3.6316 -0.8361
 3334SOL     OW21634   3.314   2.967  16.350  0.4433 -0.0978 -0.1459
 3334SOL    HW121635   3.387   2.931  16.299  0.9490  1.6058 -0.6516
 3334SOL    HW221636   3.340   2.947  16.440  1.4524 -0.7715 -0.5842
 3335SOL     OW21637   2.606   3.671   5.539  0.4883 -0.3724 -0.2095
 3335SOL    HW121638   2.650   3.590   5.565  1.0188 -0.5053 -1.5377
 3335SOL    HW221639   2.642   3.742   5.592 -1.0165  1.2209 -1.3510
 3336SOL     OW21640   4.692   1.247  11.485  0.1636 -0.5366  0.0428
 3336SOL    HW121641   0.005   1.184  11.534  0.4188 -0.0877  0.3456
 3336SOL    HW221642   4.687   1.207  11.398 -0.2872  0.0494 -0.2008
 3337SOL     OW21643   2.969   4.482   8.554  0.7254  0.4715 -0.2158
 3337SOL    HW121644   2.906   4.542   8.514  2.0662  2.7262  1.0700
 3337SOL    HW221645   3.050   4.503   8.507  0.9594 -0.8822 -0.4062
 3338SOL     OW21646   0.262   1.348   2.544  0.1212  0.3037  0.0366
 3338SOL    HW121647   0.302   1.421   2.591 -1.0449 -0.3411  2.0331
 3338SOL    HW221648   0.336   1.287   2.537  0.3816  0.3706  2.1737
 3339SOL     OW21649   3.391   2.049   4.530 -0.4259  0.1731 -0.2041
 3339SOL    HW121650   3.337   2.051   4.608 -0.3609 -1.6583 -0.1152
 3339SOL    HW221651   3.342   1.986   4.476 -1.3905  0.1460  0.7130
 3340SOL     OW21652   2.465   1.309   1.202  0.4823  0.5946  0.1327
 3340SOL    HW121653   2.506   1.374   1.145  0.9908 -0.6887 -0.9547
 3340SOL    HW221654   2.390   1.355   1.239  0.0558 -0.2753  0.3613
 3341SOL     OW21655   2.937   0.685   8.540 -0.4624 -0.2631 -0.0321
 3341SOL    HW121656   3.020   0.679   8.588 -0.6453  1.6011  0.5411
 3341SOL    HW221657   2.928   0.592   8.521 -1.5429 -0.3223  0.7700
 3342SOL     OW21658   4.554   1.418   2.406  0.0408  0.2005 -1.0330
 3342SOL    HW121659   4.613   1.477   2.454 -2.0742 -0.0530  1.8636
 3342SOL    HW221660   4.601   1.335   2.411  0.7480  0.7277  0.8282
 3343SOL     OW21661   4.209   4.189   4.042  0.2966 -0.1318 -0.9811
 3343SOL    HW121662   4.125   4.231   4.065 -0.3302 -0.9477 -1.7685
 3343SOL    HW221663   4.244   4.156   4.124 -1.2680 -0.0094 -0.2493
 3344SOL     OW21664   0.905   1.198   2.148  0.2014  0.3825 -0.0413
 3344SOL    HW121665   0.885   1.244   2.067  1.7640 -0.0866 -0.6949
 3344SOL    HW221666   0.819   1.159   2.159  0.3794  0.4767  1.7995
 3345SOL     OW21667   3.933   2.666   3.795  0.0810  0.2540  0.0030
 3345SOL    HW121668   4.001   2.629   3.851  0.5464  2.9868  1.2156
 3345SOL    HW221669   3.931   2.600   3.725 -0.3451  0.4552 -0.1741
 3346SOL     OW21670   4.568   3.519   9.623  0.3078  0.1052 -0.2158
 3346SOL    HW121671   4.563   3.436   9.671  2.0795  0.5050  0.6559
 3346SOL    HW221672   4.639   3.495   9.563  1.5068  5.1991 -0.8277
 3347SOL     OW21673   1.747   0.199  10.855 -0.4208  0.2221 -0.6471
 3347SOL    HW121674   1.748   0.139  10.929 -0.3821 -0.3563 -1.1163
 3347SOL    HW221675   1.702   0.277  10.887 -1.4097 -0.3066 -0.7679
 3348SOL     OW21676   3.848   4.057  15.353  0.3491 -0.6971  0.1190
 3348SOL    HW121677   3.812   3.979  15.310 -1.0684  0.1955 -0.3280
 3348SOL    HW221678   3.823   4.047  15.445  2.3990 -2.5282  0.4690
 3349SOL     OW21679   0.161   2.379  15.318  0.1707  0.0164  0.0855
 3349SOL    HW121680   0.231   2.379  15.253  1.1585  1.4974  1.1525
 3349SOL    HW221681   0.165   2.473  15.335  0.8364  0.2920 -1.6899
 3350SOL     OW21682   4.013   2.431  10.888 -0.2341 -0.0092 -0.0805
 3350SOL    HW121683   3.970   2.367  10.944  0.3705  2.4654  3.1554
 3350SOL    HW221684   3.987   2.516  10.923 -0.3595 -0.7599  1.6337
 3351SOL     OW21685   3.066   4.503   9.359  0.0934  0.3298  0.2086
 3351SOL    HW121686   2.999   4.443   9.391  0.0184  0.7903  0.9146
 3351SOL    HW221687   3.043   4.492   9.266  0.8864 -1.3960  0.2157
 3352SOL     OW21688   2.360   1.837   3.023 -0.5697  0.4787 -0.0878
 3352SOL    HW121689   2.363   1.756   3.075 -1.4311 -0.9777 -2.2955
 3352SOL    HW221690   2.454   1.855   3.014 -0.1918 -1.0473  0.8162
 3353SOL     OW21691   1.778   4.035   8.160  0.7634  0.1928  0.3677
 3353SOL    HW121692   1.718   3.986   8.103  0.0383 -0.3376  1.6067
 3353SOL    HW221693   1.780   4.126   8.131  0.9026  0.0563 -0.0594
 3354SOL     OW21694   0.632   0.167  10.648  0.0300 -0.8846  0.6142
 3354SOL    HW121695   0.631   0.183  10.554 -0.5620 -0.6998  0.6551
 3354SOL    HW221696   0.727   0.157  10.657  0.2606  0.3690 -0.4735
 3355SOL     OW21697   1.648   1.486   5.211 -0.2828 -0.2720 -0.0482
 3355SOL    HW121698   1.705   1.491   5.134  0.1303 -2.0622  0.1419
 3355SOL    HW221699   1.694   1.426   5.269 -1.4677 -0.2170  0.9356
 3356SOL     OW21700   0.934   3.367   5.492  0.7220  0.7614  0.2316
 3356SOL    HW121701   0.929   3.409   5.577 -2.3591  1.0135 -0.0925
 3356SOL    HW221702   0.985   3.286   5.496  0.5906  0.7290  1.0367
 3357SOL     OW21703   1.244   4.212   0.598  0.3828 -0.2749  0.0764
 3357SOL    HW121704   1.281   4.131   0.564  2.4744  0.0242  1.6566
 3357SOL    HW221705   1.156   4.204   0.561  0.6821 -1.3100 -0.4167
 3358SOL     OW21706   4.131   2.711   4.758  0.1945  0.5297 -0.0813
 3358SOL    HW121707   4.138   2.636   4.816 -0.6648  0.4385 -0.0922
 3358SOL    HW221708   4.133   2.786   4.817 -1.3538 -0.1943  0.8830
 3359SOL     OW21709   3.306   4.229   7.193  0.4336  0.4212  0.0108
 3359SOL    HW121710   3.230   4.226   7.251  1.2241  1.8421  1.1219
 3359SOL    HW221711   3.274   4.164   7.130  5.3957 -1.4394 -0.5602
 3360SOL     OW21712   3.395   1.536   6.165 -0.4055  0.7464 -0.7655
 3360SOL    HW121713   3.480   1.568   6.137 -0.6457  0.9689 -1.2456
 3360SOL    HW221714   3.366   1.618   6.205 -1.7825 -0.8935  1.6005
 3361SOL     OW21715   4.034   2.310  12.302  0.1101 -0.2589 -0.1603
 3361SOL    HW121716   4.032   2.401  12.332 -0.7176  0.0396 -1.1506
 3361SOL    HW221717   3.997   2.323  12.215  0.7773 -1.9759 -0.6983
 3362SOL     OW21718   2.808   4.016   8.086 -0.0081  0.1647  0.0813
 3362SOL    HW121719   2.861   3.975   8.155  1.4131 -1.5116 -1.9846
 3362SOL    HW221720   2.853   4.101   8.081  2.7135 -1.2581  0.2566
 3363SOL     OW21721   3.045   4.089   2.033  0.6214  0.2994  0.4878
 3363SOL    HW121722   2.992   4.104   1.954  1.1516  1.7162  0.3943
 3363SOL    HW221723   2.973   4.068   2.092 -0.5630  0.9113 -0.7399
 3364SOL     OW21724   2.934   0.198   3.137  0.0870 -0.0726  0.1324
 3364SOL    HW121725   2.944   0.126   3.198  0.8470 -1.3878 -1.5418
 3364SOL    HW221726   2.966   0.172   3.050 -1.2637 -2.0310  0.2339
 3365SOL     OW21727   1.051   0.411   8.589 -0.5388 -0.0951 -0.1666
 3365SOL    HW121728   1.095   0.393   8.506 -0.4516 -2.0749  0.2868
 3365SOL    HW221729   1.095   0.495   8.604 -1.2438  0.2323  0.0363
 3366SOL     OW21730   3.194   0.271   6.385 -0.5693  0.0240  0.2702
 3366SOL    HW121731   3.202   0.286   6.291 -0.9660 -0.4260  0.1628
 3366SOL    HW221732   3.230   0.347   6.431  0.8646 -1.3896  1.4757
 3367SOL     OW21733   1.933   0.957   8.078 -0.2601 -0.4690  0.2507
 3367SOL    HW121734   1.840   0.958   8.054  0.3472  1.2278 -2.0342
 3367SOL    HW221735   1.954   1.051   8.082  3.1048 -1.2035  0.0203
 3368SOL     OW21736   3.447   1.417   8.530 -0.2075  0.6602  0.0184
 3368SOL    HW121737   3.466   1.323   8.535 -0.8059  0.6194  1.4482
 3368SOL    HW221738   3.517   1.455   8.475 -0.8371 -1.0162 -1.9578
 3369SOL     OW21739   1.619   1.170   4.839  0.4785  0.2949  0.1950
 3369SOL    HW121740   1.648   1.159   4.748 -2.4316 -1.9225 -0.4740
 3369SOL    HW221741   1.530   1.134   4.840  0.5214  0.2369  1.6780
 3370SOL     OW21742   2.273   3.651   2.052 -0.0189 -0.2372 -0.5837
 3370SOL    HW121743   2.326   3.668   1.974 -2.7731  1.7187 -2.0353
 3370SOL    HW221744   2.195   3.617   2.008 -0.9939  3.0004 -1.3333
 3371SOL     OW21745   1.697   2.593  17.656  0.0541  0.6958  0.1750
 3371SOL    HW121746   1.784   2.631  17.657  0.7064 -0.8576  2.4260
 3371SOL    HW221747   1.720   2.502  17.674  1.3216  1.5986  3.1610
 3372SOL     OW21748   3.747   0.593   1.777  0.3133  0.6066  0.4326
 3372SOL    HW121749   3.840   0.577   1.793  0.3520 -0.0455 -0.5013
 3372SOL    HW221750   3.737   0.534   1.703  1.6066  1.8777 -0.7333
 3373SOL     OW21751   4.710   2.808   8.121 -0.3356 -0.2896  0.2269
 3373SOL    HW121752   4.718   2.753   8.199 -1.9648  0.1268  0.7042
 3373SOL    HW221753   0.063   2.821   8.106 -1.0552  0.7893 -3.4249
 3374SOL     OW21754   2.730   3.249   3.071  0.2271  0.0183 -0.3586
 3374SOL    HW121755   2.765   3.267   3.158 -0.7989 -2.5923  0.6165
 3374SOL    HW221756   2.805   3.257   3.013 -0.1604 -0.1344 -0.8784
 3375SOL     OW21757   2.789   1.076  12.296 -0.3569  0.1880  0.0424
 3375SOL    HW121758   2.885   1.075  12.296 -0.3410  2.4372  2.7094
 3375SOL    HW221759   2.765   1.166  12.273 -1.1282  0.5817  2.4619
 3376SOL     OW21760   4.242   2.469   2.708  0.0828  0.6228  0.0964
 3376SOL    HW121761   4.199   2.526   2.644  1.0431  1.4108  0.1493
 3376SOL    HW221762   4.333   2.490   2.684 -0.0811 -1.2862 -2.2191
 3377SOL     OW21763   3.510   0.849   2.339 -0.2570  0.0726  0.3570
 3377SOL    HW121764   3.425   0.889   2.320  0.3853  0.8285 -0.9164
 3377SOL    HW221765   3.483   0.802   2.418  1.5450 -1.7220 -0.0988
 3378SOL     OW21766   2.707   3.927  14.886 -0.8865  0.1181 -0.3848
 3378SOL    HW121767   2.618   3.961  14.893 -0.5029  1.4848 -2.0678
 3378SOL    HW221768   2.763   4.004  14.897  0.9627 -1.3506  0.5168
 3379SOL     OW21769   0.677   1.976   1.609 -0.2954 -0.4492  0.7346
 3379SOL    HW121770   0.686   1.965   1.704 -2.3173 -1.6034  0.7958
 3379SOL    HW221771   0.713   1.897   1.570  0.5267 -0.2834  1.1682
 3380SOL     OW21772   2.924   2.158  14.856 -0.2723  0.0761 -0.3968
 3380SOL    HW121773   3.001   2.112  14.823 -1.1841 -1.3829 -0.5097
 3380SOL    HW221774   2.954   2.247  14.873  1.8006 -0.7183  0.1512
 3381SOL     OW21775   0.493   4.443   4.579  0.0583  0.0234 -0.1015
 3381SOL    HW121776   0.553   4.387   4.629  0.2359  0.4832  0.1926
 3381SOL    HW221777   0.447   4.377   4.527  0.6216 -1.0607  0.7774
 3382SOL     OW21778   0.805   1.730  10.127  0.2947 -0.2976 -0.1558
 3382SOL    HW121779   0.808   1.762  10.217  0.0062 -0.5959 -0.0437
 3382SOL    HW221780   0.854   1.802  10.087  0.6474  0.8152  2.2601
 3383SOL     OW21781   2.048   1.775   3.623  0.6702  0.7006 -0.0961
 3383SOL    HW121782   1.976   1.833   3.600 -0.7512 -0.9995  0.0480
 3383SOL    HW221783   2.105   1.830   3.677  0.7405  1.4082 -0.8866
 3384SOL     OW21784   3.730   3.103  13.174 -0.5048  0.1456  0.3501
 3384SOL    HW121785   3.712   3.176  13.233 -2.1711  0.5416 -0.6545
 3384SOL    HW221786   3.658   3.120  13.113 -0.2951  1.2104  0.4080
 3385SOL     OW21787   3.606   4.100  13.127 -0.1638  0.5488  0.3420
 3385SOL    HW121788   3.637   4.016  13.160 -1.1182 -0.3904 -1.1704
 3385SOL    HW221789   3.523   4.109  13.174 -0.0144 -2.2183  1.1279
 3386SOL     OW21790   1.524   3.231   5.132 -0.2954  0.0961 -0.4401
 3386SOL    HW121791   1.529   3.136   5.149  0.2123  0.2421  0.2522
 3386SOL    HW221792   1.452   3.248   5.192  0.7233  0.4672  0.6816
 3387SOL     OW21793   3.604   4.022   4.306 -0.4714  0.1527 -0.1092
 3387SOL    HW121794   3.609   3.929   4.330 -2.0484 -0.2316 -1.2736
 3387SOL    HW221795   3.694   4.054   4.315 -0.6518  0.4939  0.4331
 3388SOL     OW21796   2.733   1.569   9.501 -0.3541  0.0004  0.2647
 3388SOL    HW121797   2.685   1.492   9.469  2.0112 -1.7679  0.9253
 3388SOL    HW221798   2.735   1.559   9.596  0.9668  0.4355  0.2825
 3389SOL     OW21799   3.151   0.066   1.672 -0.5236 -0.1711  0.4369
 3389SOL    HW121800   3.068   0.025   1.647  0.4959 -1.7070 -0.4402
 3389SOL    HW221801   3.183   0.001   1.734 -0.6447 -0.3051  0.3596
 3390SOL     OW21802   4.100   0.130  10.713  0.4184  0.4590 -0.3804
 3390SOL    HW121803   4.034   0.193  10.741  1.5084  0.7961  1.3807
 3390SOL    HW221804   4.061   0.043  10.718  2.3993 -0.3953  0.2545
 3391SOL     OW21805   0.744   1.501   9.614  0.1108 -0.4342  0.2611
 3391SOL    HW121806   0.780   1.520   9.700  2.0387  0.3474 -0.7136
 3391SOL    HW221807   0.815   1.449   9.576  0.3683 -1.1764  1.7564
 3392SOL     OW21808   2.604   0.293  12.318 -0.2143 -0.1353  0.2513
 3392SOL    HW121809   2.522   0.246  12.333 -0.1721  0.6091  2.9072
 3392SOL    HW221810   2.674   0.237  12.353 -0.0516  0.4003  0.7888
 3393SOL     OW21811   0.848   3.842   7.815 -0.5618  0.3152  0.1674
 3393SOL    HW121812   0.758   3.870   7.836 -0.6732  0.3565 -0.3721
 3393SOL    HW221813   0.853   3.884   7.729 -1.4958 -0.0560 -0.0752
 3394SOL     OW21814   2.612   4.077  17.420 -0.2528 -0.1771 -0.0195
 3394SOL    HW121815   2.601   4.071  17.326  1.3017 -1.6814 -0.1047
 3394SOL    HW221816   2.662   3.997  17.440 -0.2079  0.4199  2.3286
 3395SOL     OW21817   0.503   4.137   9.195 -0.0011  0.2311 -0.6982
 3395SOL    HW121818   0.446   4.124   9.270 -1.2749  0.7423 -1.5801
 3395SOL    HW221819   0.516   4.232   9.195 -0.0293  0.2337 -0.4464
 3396SOL     OW21820   3.697   3.842  13.189 -0.2332 -0.3204 -0.0833
 3396SOL    HW121821   3.687   3.821  13.282 -1.2415 -0.9398 -0.3248
 3396SOL    HW221822   3.776   3.793  13.168 -1.7846 -2.0557 -1.9143
 3397SOL     OW21823   2.646   0.266   3.062  0.1929 -0.1069  0.1739
 3397SOL    HW121824   2.614   0.231   3.146  0.0286 -2.1491 -0.7363
 3397SOL    HW221825   2.725   0.317   3.076  0.5757 -0.2456 -1.5242
 3398SOL     OW21826   1.544   1.852   4.652 -0.3325 -0.2831 -0.1943
 3398SOL    HW121827   1.512   1.887   4.735 -0.0759  1.2837 -0.7514
 3398SOL    HW221828   1.638   1.857   4.673  0.0649  0.5993 -2.1852
 3399SOL     OW21829   1.183   0.549  13.983  0.4022  0.1813 -0.0278
 3399SOL    HW121830   1.155   0.478  14.040  2.2230 -1.0412 -0.6535
 3399SOL    HW221831   1.142   0.619  14.034 -0.0801 -0.3903  0.3711
 3400SOL     OW21832   1.491   0.680  11.830 -0.0601 -0.7205 -0.2947
 3400SOL    HW121833   1.409   0.714  11.864  1.3744  2.2966  0.1593
 3400SOL    HW221834   1.543   0.713  11.904 -0.2144  0.6090 -0.7835
 3401SOL     OW21835   4.061   2.511   8.868 -0.5836 -0.1299 -0.7626
 3401SOL    HW121836   4.040   2.597   8.830  1.4402 -1.5694 -5.1516
 3401SOL    HW221837   3.970   2.484   8.882 -0.4090 -0.8858 -1.0757
 3402SOL     OW21838   3.316   1.281  15.449 -0.2275  0.7489 -0.1846
 3402SOL    HW121839   3.238   1.285  15.504 -0.7136 -0.1141 -0.8157
 3402SOL    HW221840   3.274   1.263  15.365 -0.4452 -2.0631  0.5372
 3403SOL     OW21841   1.056   2.675   9.481  0.7094  0.0344 -0.1100
 3403SOL    HW121842   1.124   2.609   9.470  1.3224  0.3386  1.8604
 3403SOL    HW221843   1.087   2.727   9.555  0.5639 -1.3850  0.9333
 3404SOL     OW21844   2.218   2.740   3.966 -0.1000 -1.0152  0.4101
 3404SOL    HW121845   2.122   2.746   3.965 -0.0880 -0.7738  1.1581
 3404SOL    HW221846   2.245   2.787   4.044 -0.0224  0.7840 -0.7131
 3405SOL     OW21847   2.171   2.274  16.657  0.1283  0.6661 -0.0683
 3405SOL    HW121848   2.171   2.270  16.562 -0.9513  0.2811 -0.0604
 3405SOL    HW221849   2.254   2.322  16.651 -0.3498  1.4640 -0.3188
 3406SOL     OW21850   3.925   3.705   7.168  0.7247  0.2892 -0.0469
 3406SOL    HW121851   3.958   3.795   7.173  1.5568  0.0237 -0.9761
 3406SOL    HW221852   3.976   3.668   7.096  0.5951  1.5760 -0.8055
 3407SOL     OW21853   0.566   2.461   2.312  0.2219  0.0755  0.2190
 3407SOL    HW121854   0.496   2.465   2.247  1.2963  0.3366 -0.9242
 3407SOL    HW221855   0.539   2.378   2.350 -0.2990  0.4294  0.6229
 3408SOL     OW21856   1.246   3.680   2.626  0.0711 -0.0630  0.1754
 3408SOL    HW121857   1.207   3.759   2.590  0.9558  0.3404  0.1254
 3408SOL    HW221858   1.330   3.711   2.659 -1.4631  2.0966  2.0869
 3409SOL     OW21859   2.128   1.853  12.520  0.4653 -0.2067  0.1066
 3409SOL    HW121860   2.214   1.883  12.550 -0.1426  1.4174  0.2263
 3409SOL    HW221861   2.077   1.904  12.582  0.6346  1.1230 -0.8565
 3410SOL     OW21862   4.653   0.407   0.146  0.4126 -0.6000  0.0505
 3410SOL    HW121863   4.609   0.392   0.063  1.5083  1.9360 -0.9740
 3410SOL    HW221864   0.003   0.407   0.112 -0.2145 -0.1158 -1.5847
 3411SOL     OW21865   1.398   2.308   9.305 -0.5477 -0.0774 -0.1366
 3411SOL    HW121866   1.488   2.332   9.285 -0.2420  1.2680  2.7457
 3411SOL    HW221867   1.393   2.229   9.251  2.4219  0.6523 -1.4805
 3412SOL     OW21868   2.973   1.479   0.651 -0.1342 -0.0008  0.0110
 3412SOL    HW121869   3.026   1.557   0.634  0.6616 -0.3339  0.9930
 3412SOL    HW221870   3.040   1.428   0.696  2.1305  1.7883 -1.3345
 3413SOL     OW21871   4.287   1.071   7.383  0.0675  0.5553  0.3257
 3413SOL    HW121872   4.329   1.092   7.466  1.6453 -0.9938 -0.0728
 3413SOL    HW221873   4.322   1.138   7.324  1.0497  0.0854  0.3797
 3414SOL     OW21874   2.713   3.696   9.303  0.0541  0.2278  0.2281
 3414SOL    HW121875   2.694   3.776   9.254  1.3347 -0.1666 -0.9187
 3414SOL    HW221876   2.626   3.701   9.343  0.9429 -0.2374  2.2292
 3415SOL     OW21877   2.404   2.113  13.616  0.1355 -0.7787 -0.6849
 3415SOL    HW121878   2.351   2.075  13.686  1.1600  1.3423  1.2682
 3415SOL    HW221879   2.390   2.072  13.531  0.9450  0.5153 -1.4488
 3416SOL     OW21880   0.179   1.469   4.159  0.3079 -0.3117 -0.8157
 3416SOL    HW121881   0.234   1.458   4.237  0.5731 -0.4547 -1.0212
 3416SOL    HW221882   0.253   1.467   4.098  0.7742 -0.4959 -0.2471
 3417SOL     OW21883   3.558   2.896   3.512  0.3328  0.4748  0.0779
 3417SOL    HW121884   3.626   2.828   3.512 -1.1613 -1.0269  1.4240
 3417SOL    HW221885   3.508   2.873   3.590  1.8510  0.8144  1.1509
 3418SOL     OW21886   2.785   0.123   3.912  0.1935  0.3075 -0.4205
 3418SOL    HW121887   2.856   0.160   3.860  1.5623 -0.8193  0.6183
 3418SOL    HW221888   2.712   0.164   3.866  0.7995  0.9998 -0.7554
 3419SOL     OW21889   4.616   2.682  16.860 -0.2671 -0.1084 -0.5625
 3419SOL    HW121890   4.561   2.743  16.810  0.9896  0.5016 -1.2133
 3419SOL    HW221891   4.661   2.647  16.783  0.7427 -1.0434  0.4652
 3420SOL     OW21892   2.996   1.182   8.509 -0.1514  0.0919  0.4851
 3420SOL    HW121893   3.083   1.141   8.501 -1.0604 -1.8482  0.5165
 3420SOL    HW221894   3.014   1.243   8.581 -0.1791 -0.9582  1.3879
 3421SOL     OW21895   4.153   0.384   7.255 -0.5105 -0.3257  0.2378
 3421SOL    HW121896   4.226   0.446   7.252 -1.0034  0.2619  0.2682
 3421SOL    HW221897   4.127   0.385   7.347 -0.6407  1.0557  0.1881
 3422SOL     OW21898   3.704   1.773   5.857  0.0486  0.3034  0.2653
 3422SOL    HW121899   3.655   1.806   5.932 -0.9757 -1.8448  0.5442
 3422SOL    HW221900   3.790   1.807   5.880  0.5187  0.8417 -2.2657
 3423SOL     OW21901   3.921   2.492   3.580  0.1580  0.2087  0.0274
 3423SOL    HW121902   3.958   2.406   3.600 -0.8044 -0.0294  0.7428
 3423SOL    HW221903   3.956   2.502   3.491 -0.1379  0.4617 -0.0588
 3424SOL     OW21904   2.331   4.029  10.793 -0.3180 -0.1394  0.0840
 3424SOL    HW121905   2.279   3.972  10.850  1.6475 -1.9218  0.0828
 3424SOL    HW221906   2.373   3.969  10.732 -1.3568 -1.0819  0.3021
 3425SOL     OW21907   3.951   1.067  17.675 -0.3830 -0.3580 -0.4003
 3425SOL    HW121908   3.966   1.101  17.587 -1.4989 -1.0789 -0.8691
 3425SOL    HW221909   4.041   1.071  17.709 -0.0169  0.1325 -1.4388
 3426SOL     OW21910   4.206   4.212   7.467  0.1889  0.4019 -0.1488
 3426SOL    HW121911   4.184   4.256   7.385 -1.1334  1.3210  0.6902
 3426SOL    HW221912   4.301   4.211   7.465  0.1259 -4.1817  0.4180
 3427SOL     OW21913   0.940   0.199   2.332  0.0822  0.2355 -0.4816
 3427SOL    HW121914   0.994   0.129   2.367 -0.5503 -0.8531 -1.6627
 3427SOL    HW221915   0.964   0.266   2.396  0.4154 -0.5185  0.1896
 3428SOL     OW21916   4.008   1.069   6.761 -0.2835 -0.0173  0.0470
 3428SOL    HW121917   4.033   0.994   6.815 -0.3395 -0.1091 -0.0546
 3428SOL    HW221918   4.007   1.143   6.821  2.1446 -0.7953  1.0645
 3429SOL     OW21919   1.851   1.037   6.713 -0.1015  0.9632  0.2537
 3429SOL    HW121920   1.843   1.025   6.808 -0.0688  0.5594  0.2026
 3429SOL    HW221921   1.780   1.098   6.695 -0.0762  0.6280 -0.9398
 3430SOL     OW21922   2.452   2.969  15.593 -0.4951 -0.0693 -0.5609
 3430SOL    HW121923   2.431   3.024  15.668 -1.6168 -2.9657  1.2369
 3430SOL    HW221924   2.408   2.887  15.616 -1.0263  0.2971 -0.2734
 3431SOL     OW21925   2.362   4.059   4.787  0.3970 -0.3101  0.2915
 3431SOL    HW121926   2.394   4.124   4.849 -0.4479  0.1633  0.2398
 3431SOL    HW221927   2.406   4.074   4.703  0.5622 -1.1861  0.2217
 3432SOL     OW21928   3.825   0.029  13.590 -0.3780 -0.0043 -0.3791
 3432SOL    HW121929   3.796   0.079  13.513  3.6264 -0.9658 -2.4605
 3432SOL    HW221930   3.743   4.725  13.611 -0.3181  0.4273  0.7376
 3433SOL     OW21931   0.746   2.229   5.621 -0.2865 -0.2739 -0.2799
 3433SOL    HW121932   0.694   2.152   5.597 -1.4977  1.1129 -2.0470
 3433SOL    HW221933   0.675   2.290   5.602 -0.0040  0.3765  0.7729
 3434SOL     OW21934   1.922   3.556   8.892 -0.2242  0.0660 -0.1558
 3434SOL    HW121935   1.960   3.623   8.835 -2.3973  2.1045  0.8366
 3434SOL    HW221936   1.848   3.596   8.938 -1.2775 -1.7467 -0.2495
 3435SOL     OW21937   3.134   0.606   2.919  0.0200 -0.2879 -0.1232
 3435SOL    HW121938   3.073   0.632   2.851  0.8037  1.6563 -0.0854
 3435SOL    HW221939   3.096   0.605   3.007  0.5481  1.5632  0.1247
 3436SOL     OW21940   0.114   1.402   6.276  0.3702 -0.4685 -0.1506
 3436SOL    HW121941   0.069   1.432   6.197  1.5265 -1.0615 -1.0272
 3436SOL    HW221942   0.040   1.414   6.336  1.1883 -3.3886  1.4263
 3437SOL     OW21943   1.271   3.862   1.640 -0.5717 -0.5052  0.0409
 3437SOL    HW121944   1.336   3.854   1.570 -2.0719 -0.1952 -1.3779
 3437SOL    HW221945   1.196   3.895   1.591 -0.4288 -0.4029 -0.1073
 3438SOL     OW21946   0.213   1.727   3.091 -0.7631  0.1065  0.3075
 3438SOL    HW121947   0.262   1.804   3.121  1.2217 -0.2968 -1.8583
 3438SOL    HW221948   0.128   1.762   3.118 -1.5357  0.2099 -2.3163
 3439SOL     OW21949   0.899   2.964   8.278  0.2641 -0.5384 -0.5975
 3439SOL    HW121950   0.836   2.941   8.347  0.5123 -1.6735 -0.7576
 3439SOL    HW221951   0.959   2.890   8.278  0.4840 -0.3594 -0.8893
 3440SOL     OW21952   3.287   3.956   0.019  0.4102  0.0296 -0.2938
 3440SOL    HW121953   3.317   3.959  17.685  1.9640  0.7847  0.2413
 3440SOL    HW221954   3.345   4.023   0.055 -0.4221  0.3728  0.4075
 3441SOL     OW21955   1.186   1.013   2.074  0.3056 -0.0981 -0.2635
 3441SOL    HW121956   1.236   0.934   2.097  0.3312 -1.1626 -3.8767
 3441SOL    HW221957   1.165   0.993   1.982 -2.1897  0.4678  0.1917
 3442SOL     OW21958   3.308   1.066   8.789 -0.0550 -0.2892 -0.0957
 3442SOL    HW121959   3.268   1.123   8.855 -0.7032 -1.9539  0.9452
 3442SOL    HW221960   3.375   1.030   8.847 -0.4184 -0.6107  0.1267
 3443SOL     OW21961   1.813   1.272   3.244  0.2152  0.0082  0.8418
 3443SOL    HW121962   1.746   1.211   3.213  1.5148 -0.5281 -0.9367
 3443SOL    HW221963   1.870   1.296   3.170 -1.3594 -1.0664 -0.7248
 3444SOL     OW21964   1.596   2.338  10.848 -0.0321 -0.4358 -0.6098
 3444SOL    HW121965   1.596   2.242  10.851 -0.7788 -0.4156  0.2208
 3444SOL    HW221966   1.656   2.370  10.915 -0.9739  2.6289 -1.2228
 3445SOL     OW21967   1.968   3.054   8.863  0.2257 -0.4963 -0.1869
 3445SOL    HW121968   1.953   3.148   8.856  1.6404 -0.1488  1.3672
 3445SOL    HW221969   2.015   3.040   8.945  0.7484  0.1575 -0.3817
 3446SOL     OW21970   3.482   2.682   3.296  0.3916 -1.0660 -0.2326
 3446SOL    HW121971   3.502   2.615   3.361 -2.2577 -1.9573 -0.3630
 3446SOL    HW221972   3.392   2.702   3.322  0.1697 -4.4184  1.5847
 3447SOL     OW21973   4.704   2.249  15.092  0.4467 -0.6365 -0.2197
 3447SOL    HW121974   0.024   2.315  15.126  0.7548 -0.1477 -1.6789
 3447SOL    HW221975   0.005   2.169  15.123  2.9437 -0.1391 -2.1614
 3448SOL     OW21976   1.616   0.658  16.811 -0.5889  0.2215 -0.1741
 3448SOL    HW121977   1.639   0.572  16.845  0.7795 -0.0207 -1.7642
 3448SOL    HW221978   1.544   0.674  16.874 -2.1709  1.3813 -2.2793
 3449SOL     OW21979   0.516   3.790   6.419  0.5295 -0.0809  0.6066
 3449SOL    HW121980   0.468   3.728   6.364 -1.1135 -0.5436  2.5406
 3449SOL    HW221981   0.465   3.871   6.411  0.7874  0.0614  0.4461
 3450SOL     OW21982   3.920   3.794  15.478 -0.0203  0.2059 -0.2627
 3450SOL    HW121983   4.002   3.801  15.528 -0.6075 -0.2353  0.7678
 3450SOL    HW221984   3.867   3.855  15.531  0.5517  1.5924 -1.2799
 3451SOL     OW21985   3.126   2.150   6.555  0.7683 -0.0325 -0.1068
 3451SOL    HW121986   3.060   2.178   6.491  0.4923  0.5740  0.4430
 3451SOL    HW221987   3.106   2.057   6.562 -1.1074  0.2435 -1.8203
 3452SOL     OW21988   3.144   0.953  10.715  0.2607  0.3092 -0.1710
 3452SOL    HW121989   3.177   1.039  10.738 -0.2798  0.4864 -0.0664
 3452SOL    HW221990   3.064   0.978  10.668 -0.8007 -1.2581  0.7725
 3453SOL     OW21991   2.009   4.495   9.352 -0.2609  0.6717  0.5943
 3453SOL    HW121992   2.088   4.460   9.309  0.6201  2.0665  1.0981
 3453SOL    HW221993   1.947   4.458   9.289  0.3435 -1.1398  1.0567
 3454SOL     OW21994   1.265   1.774  16.663 -0.2193  0.0831 -0.9945
 3454SOL    HW121995   1.226   1.813  16.585 -0.8702  4.1715  1.3772
 3454SOL    HW221996   1.337   1.836  16.678  1.8664 -2.7631  0.8794
 3455SOL     OW21997   3.834   3.323   6.497  0.1321 -0.1442  0.9245
 3455SOL    HW121998   3.788   3.400   6.465 -0.6082 -1.0391 -0.1475
 3455SOL    HW221999   3.824   3.265   6.422  0.2720  0.1245  0.6984
 3456SOL     OW22000   3.423   2.230  11.464 -0.4548 -0.0705 -0.1686
 3456SOL    HW122001   3.431   2.163  11.532  0.2184 -2.3718 -2.5297
 3456SOL    HW222002   3.405   2.183  11.383  2.6422 -1.6383  0.0463
 3457SOL     OW22003   3.559   3.810   3.061  0.5245  0.6304  0.3392
 3457SOL    HW122004   3.610   3.752   3.119 -0.4312 -1.0162 -0.4695
 3457SOL    HW222005   3.478   3.798   3.111  0.5143  1.3659  0.4928
 3458SOL     OW22006   2.325   4.261  10.075  0.1615  0.3858  0.2170
 3458SOL    HW122007   2.313   4.356  10.083 -0.3592  0.4112 -0.7704
 3458SOL    HW222008   2.314   4.235   9.983  0.0535  1.8434 -0.1925
 3459SOL     OW22009   2.938   4.122   1.067  0.4004 -0.4531  0.1909
 3459SOL    HW122010   3.030   4.147   1.057  0.7096 -2.1935 -1.2802
 3459SOL    HW222011   2.951   4.086   1.155 -1.8486  1.4607  1.2910
 3460SOL     OW22012   4.447   0.446   6.283 -0.8253  0.2278  0.2626
 3460SOL    HW122013   4.428   0.538   6.264 -0.0148  0.2853 -0.2713
 3460SOL    HW222014   4.457   0.436   6.378  1.5841 -0.3657 -0.0425
 3461SOL     OW22015   1.962   0.376  14.377  0.0907 -0.4855 -0.0326
 3461SOL    HW122016   1.874   0.339  14.383 -0.0524 -0.4146 -1.5891
 3461SOL    HW222017   1.978   0.406  14.466 -1.0519 -1.6447  0.5539
 3462SOL     OW22018   0.779   2.965   2.834 -0.0203 -0.2620 -0.2164
 3462SOL    HW122019   0.704   2.944   2.890 -0.3316  0.7633 -0.2570
 3462SOL    HW222020   0.820   3.027   2.893  2.4477 -0.7167 -1.4617
 3463SOL     OW22021   1.840   2.455   3.978  0.2524 -1.0576 -1.1717
 3463SOL    HW122022   1.791   2.496   3.907 -1.4098  0.9722  1.1551
 3463SOL    HW222023   1.779   2.395   4.019 -1.0867  1.7917  0.9501
 3464SOL     OW22024   0.158   0.658   1.787 -0.0300  0.2611  0.1468
 3464SOL    HW122025   0.133   0.732   1.843  3.0765  2.2743 -1.1010
 3464SOL    HW222026   0.245   0.627   1.812  0.9320  1.5893 -1.5045
 3465SOL     OW22027   1.567   1.081   9.160  0.1041  0.2005  0.1037
 3465SOL    HW122028   1.561   1.168   9.120 -1.3151  1.0407  2.1405
 3465SOL    HW222029   1.489   1.091   9.215  1.1924  0.2152  1.6357
 3466SOL     OW22030   1.408   3.764   5.618  0.3218 -0.5744  0.4637
 3466SOL    HW122031   1.370   3.782   5.532  0.8246 -0.9248  0.1691
 3466SOL    HW222032   1.412   3.668   5.612  2.5301 -0.4394 -0.2152
 3467SOL     OW22033   4.620   0.479   3.466 -0.1959 -0.6943  0.3976
 3467SOL    HW122034   4.658   0.480   3.554 -1.1769  0.0548  0.8073
 3467SOL    HW222035   4.560   0.405   3.465 -0.1856 -0.6818 -1.3687
 3468SOL     OW22036   1.560   4.343   6.653 -0.6080  0.3477  0.3545
 3468SOL    HW122037   1.591   4.393   6.729 -0.9482  0.2711  0.5467
 3468SOL    HW222038   1.585   4.256   6.685 -1.7416  0.2540  1.0154
 3469SOL     OW22039   2.277   0.087   2.475 -0.5669  0.5794 -0.1821
 3469SOL    HW122040   2.203   0.130   2.433 -0.5516  1.1713  0.3902
 3469SOL    HW222041   2.270   4.735   2.449  0.6700  0.7253 -1.0494
 3470SOL     OW22042   3.730   0.986   4.831 -0.3062  0.3387 -0.3423
 3470SOL    HW122043   3.822   0.960   4.826  0.7965  3.3884  3.8263
 3470SOL    HW222044   3.695   0.939   4.756 -1.4215  1.5885 -0.5938
 3471SOL     OW22045   1.961   1.769   2.396 -0.7933  0.3445 -0.0856
 3471SOL    HW122046   2.017   1.772   2.318 -0.8987  1.1498 -0.1291
 3471SOL    HW222047   2.018   1.720   2.455 -0.8502 -1.3157 -1.3921
 3472SOL     OW22048   3.378   2.943   7.991  0.1627  0.0733 -0.0528
 3472SOL    HW122049   3.298   2.890   7.983  0.2475 -0.2358  1.1109
 3472SOL    HW222050   3.435   2.890   7.935 -0.4238 -0.6372  0.0163
 3473SOL     OW22051   3.939   1.461  17.095  0.1129 -0.0756  0.5227
 3473SOL    HW122052   3.876   1.452  17.167 -2.3900 -0.7807 -1.7547
 3473SOL    HW222053   3.913   1.392  17.034  1.3022 -0.3215  0.2987
 3474SOL     OW22054   0.391   3.030   2.815  0.8272 -0.2441 -0.5881
 3474SOL    HW122055   0.425   3.119   2.813 -0.2607  0.1348 -2.6895
 3474SOL    HW222056   0.380   3.028   2.910  1.2400  1.5856 -0.5090
 3475SOL     OW22057   2.440   3.825  13.996  0.0581  0.2931  0.4943
 3475SOL    HW122058   2.493   3.889  13.948  1.2972 -0.3813  0.9535
 3475SOL    HW222059   2.423   3.772  13.918  0.6217  0.8784 -0.0302
 3476SOL     OW22060   3.188   0.678  10.624  0.0571  0.1427 -0.1903
 3476SOL    HW122061   3.192   0.773  10.623  0.6458  0.1190 -0.4283
 3476SOL    HW222062   3.156   0.667  10.713  0.8703  1.7955  0.2889
 3477SOL     OW22063   0.301   0.348  10.482 -0.3326 -0.1800  0.7218
 3477SOL    HW122064   0.330   0.283  10.546 -1.9245  0.2120  1.8292
 3477SOL    HW222065   0.368   0.415  10.495 -0.0852 -0.2074 -0.3915
 3478SOL     OW22066   3.442   3.726   8.617 -0.0367  0.6063 -0.5452
 3478SOL    HW122067   3.509   3.706   8.682 -0.7561 -0.1852 -0.0468
 3478SOL    HW222068   3.365   3.680   8.649 -0.6200  1.9562 -0.0040
 3479SOL     OW22069   2.359   4.616   6.711  0.0704 -0.2906 -0.1634
 3479SOL    HW122070   2.284   4.569   6.674  0.3933  0.2031 -1.4587
 3479SOL    HW222071   2.322   4.704   6.719  0.6193 -0.1829  1.2650
 3480SOL     OW22072   1.183   0.522  15.752  0.3493  0.1909  0.0165
 3480SOL    HW122073   1.172   0.515  15.847 -1.8756  0.3303 -0.2139
 3480SOL    HW222074   1.127   0.600  15.751  0.8328  0.5828  3.1491
 3481SOL     OW22075   3.261   0.558   5.876 -0.3052 -0.0939  0.4251
 3481SOL    HW122076   3.166   0.545   5.869 -0.4245  1.1822 -0.2279
 3481SOL    HW222077   3.262   0.521   5.964 -0.1442  0.3230  0.5980
 3482SOL     OW22078   1.555   2.349  11.532  0.5849 -0.0158  0.1952
 3482SOL    HW122079   1.621   2.352  11.463 -0.5718 -0.5503 -0.9254
 3482SOL    HW222080   1.589   2.277  11.586  0.2387  0.1432  0.6311
 3483SOL     OW22081   4.124   3.686  16.416  0.4399 -0.3000 -0.0209
 3483SOL    HW122082   4.120   3.772  16.374 -1.9039 -0.9422 -1.1769
 3483SOL    HW222083   4.201   3.694  16.472 -0.0459 -1.8726  0.8684
 3484SOL     OW22084   3.572   1.665   2.931  0.2463  0.6998 -0.6749
 3484SOL    HW122085   3.630   1.704   2.997  0.9121 -0.2142 -0.7220
 3484SOL    HW222086   3.621   1.583   2.924 -1.4591 -0.5889  2.8499
 3485SOL     OW22087   2.182   1.125   4.241  0.0116  0.3481  0.2196
 3485SOL    HW122088   2.221   1.187   4.303  1.9848 -1.7178  1.0319
 3485SOL    HW222089   2.148   1.051   4.291  1.8582 -1.0880 -0.6506
 3486SOL     OW22090   2.313   0.748   6.711  0.0940  0.1264  0.2566
 3486SOL    HW122091   2.346   0.752   6.621  1.8440  1.1097  0.9517
 3486SOL    HW222092   2.254   0.823   6.712  1.8590  1.5404 -0.3285
 3487SOL     OW22093   1.802   4.708   9.510  1.0551 -0.1866  0.2270
 3487SOL    HW122094   1.771   4.685   9.423 -0.9374 -0.2599  0.9492
 3487SOL    HW222095   1.796   4.622   9.552 -0.1162 -1.7848 -3.2167
 3488SOL     OW22096   0.967   0.736  11.764 -0.2125  0.0057  0.3005
 3488SOL    HW122097   1.037   0.682  11.800 -0.3023 -0.6738 -0.5526
 3488SOL    HW222098   0.931   0.697  11.685  1.3916  0.0456 -0.4396
 3489SOL     OW22099   1.535   0.223   8.769  0.1717  0.0600  0.0182
 3489SOL    HW122100   1.456   0.222   8.824 -0.3335  1.6281 -0.6801
 3489SOL    HW222101   1.483   0.211   8.689 -0.7055  2.2520  0.2559
 3490SOL     OW22102   4.516   4.288   0.300  0.1091 -0.1714 -0.2841
 3490SOL    HW122103   4.521   4.342   0.221  1.3925  0.4054  0.1926
 3490SOL    HW222104   4.528   4.202   0.260 -2.2651 -0.4210 -0.4761
 3491SOL     OW22105   1.647   4.114   6.398 -0.0269 -0.8575 -0.1728
 3491SOL    HW122106   1.617   4.156   6.479 -1.5961 -0.2944 -1.0348
 3491SOL    HW222107   1.608   4.172   6.333 -0.0009 -0.0378  0.5392
 3492SOL     OW22108   2.310   3.013  11.472 -0.2263  0.5248 -0.4302
 3492SOL    HW122109   2.368   3.061  11.532  0.3102  0.1158 -0.6200
 3492SOL    HW222110   2.282   2.935  11.519 -1.7866  1.5120  0.2467
 3493SOL     OW22111   1.437   4.036   8.987 -0.2240 -0.2562  0.2220
 3493SOL    HW122112   1.524   4.004   9.008  0.4129  1.1856 -0.2203
 3493SOL    HW222113   1.405   3.968   8.927  1.5750 -1.6191  0.8111
 3494SOL     OW22114   0.152   4.684   0.093  0.2790  0.5916 -0.3976
 3494SOL    HW122115   0.167   0.037   0.114  0.2085 -0.1558  2.9800
 3494SOL    HW222116   0.239   4.650   0.117  0.9039  2.0913 -0.4830
 3495SOL     OW22117   2.146   0.154  14.042  0.5129  0.0563 -0.7605
 3495SOL    HW122118   2.081   0.091  14.012 -0.5158  1.3738 -1.3243
 3495SOL    HW222119   2.086   0.229  14.036  0.2311 -0.1616 -0.6724
 3496SOL     OW22120   3.546   1.499  14.855  0.3123  0.4204 -0.0554
 3496SOL    HW122121   3.623   1.468  14.807 -1.2809  0.1129 -2.4530
 3496SOL    HW222122   3.567   1.478  14.946  0.0081  0.4460  0.0219
 3497SOL     OW22123   4.367   4.164   4.355  0.3782  0.9287  0.5081
 3497SOL    HW122124   4.440   4.129   4.408  1.3503  1.0459 -0.7557
 3497SOL    HW222125   4.409   4.233   4.305 -1.8192  0.2970 -2.1643
 3498SOL     OW22126   4.268   2.952   3.947  0.1212  0.3293 -0.2969
 3498SOL    HW122127   4.192   2.989   3.991 -0.9807  0.0358 -1.9520
 3498SOL    HW222128   4.297   3.036   3.911 -2.1107 -0.5256 -4.0162
 3499SOL     OW22129   4.275   1.192  11.487 -0.5548  0.6729  0.1897
 3499SOL    HW122130   4.224   1.257  11.440 -0.4006  1.4251  1.0741
 3499SOL    HW222131   4.323   1.146  11.418 -3.1708 -0.9990 -0.4742
 3500SOL     OW22132   1.923   3.577   6.569 -0.4689  0.8165  0.1480
 3500SOL    HW122133   1.920   3.673   6.566  0.8914  0.7943 -1.8196
 3500SOL    HW222134   1.938   3.556   6.477  4.1290  0.2094  1.0526
 3501SOL     OW22135   2.102   4.558   7.415  0.9185  0.2207 -0.4549
 3501SOL    HW122136   2.125   4.619   7.344 -0.5447  1.0951 -0.1662
 3501SOL    HW222137   2.173   4.582   7.475  0.8089  1.6704 -0.9156
 3502SOL     OW22138   1.657   2.416   6.772 -0.2358  0.0002 -0.5821
 3502SOL    HW122139   1.712   2.354   6.819 -2.0922  0.0977  1.7432
 3502SOL    HW222140   1.689   2.499   6.808 -2.2827 -0.1050  1.4713
 3503SOL     OW22141   0.976   1.224   3.524  0.2087 -0.1805 -0.4272
 3503SOL    HW122142   1.063   1.200   3.493  0.6716 -1.8596  2.1432
 3503SOL    HW222143   0.984   1.247   3.617  0.1252 -2.3943  0.1343
 3504SOL     OW22144   2.831   0.628  12.819 -0.0684 -0.0795  0.1400
 3504SOL    HW122145   2.884   0.598  12.745 -0.2950  1.8079 -0.7700
 3504SOL    HW222146   2.828   0.719  12.792 -1.5217  0.1332  0.9925
 3505SOL     OW22147   0.208   4.404   6.242 -0.5909  0.1889  0.6767
 3505SOL    HW122148   0.268   4.472   6.212 -1.2494 -0.4972 -2.2340
 3505SOL    HW222149   0.179   4.445   6.324  5.3368  1.4539  2.1189
 3506SOL     OW22150   1.736   0.515   6.252 -0.9567  0.2766 -0.2053
 3506SOL    HW122151   1.730   0.502   6.158  0.4884  0.8832 -0.3708
 3506SOL    HW222152   1.776   0.432   6.277 -1.6836 -0.6525 -2.1321
 3507SOL     OW22153   4.623   3.092  17.647 -0.0644  0.7624  0.0755
 3507SOL    HW122154   4.650   3.174  17.605  0.1891  1.5203  1.7250
 3507SOL    HW222155   4.529   3.109  17.656 -0.4316 -1.0712 -0.4331
 3508SOL     OW22156   2.149   0.021   9.778 -0.0136  0.1991  0.0517
 3508SOL    HW122157   2.188   0.082   9.841 -0.4221 -2.2830  2.7190
 3508SOL    HW222158   2.145   4.680   9.829 -2.1698  0.1832 -0.1242
 3509SOL     OW22159   4.437   0.737   1.524 -0.4070  0.1340  0.1356
 3509SOL    HW122160   4.441   0.739   1.428  0.5740  1.4708  0.2189
 3509SOL    HW222161   4.504   0.800   1.548  0.9585 -1.4321  0.4883
 3510SOL     OW22162   1.823   0.285   6.412 -1.0373  0.1642 -0.5443
 3510SOL    HW122163   1.758   0.251   6.473  1.2567 -2.7722  0.3250
 3510SOL    HW222164   1.821   0.228   6.336 -0.7587  0.2305 -0.6043
 3511SOL     OW22165   3.055   2.199   8.783  0.5013 -0.1836  0.1166
 3511SOL    HW122166   3.119   2.194   8.713  2.4994 -2.4645  2.1075
 3511SOL    HW222167   3.052   2.295   8.786 -0.7727 -0.2904  2.2502
 3512SOL     OW22168   0.520   4.613   2.757  0.4602  0.1344  0.2321
 3512SOL    HW122169   0.523   4.676   2.829 -1.5946  0.4507  0.0443
 3512SOL    HW222170   0.485   4.542   2.811  1.7113 -1.0840 -0.5757
 3513SOL     OW22171   4.468   1.648   6.564 -0.1856  0.5028  0.0026
 3513SOL    HW122172   4.527   1.658   6.639  0.2651 -0.2930 -0.2459
 3513SOL    HW222173   4.511   1.683   6.486 -3.0225  2.5206 -0.6507
 3514SOL     OW22174   2.041   4.175   5.723  0.3782 -0.2217 -0.3547
 3514SOL    HW122175   2.003   4.218   5.646 -1.2894  0.1623  0.6981
 3514SOL    HW222176   1.967   4.180   5.783 -0.7526  0.8050 -1.8129
 3515SOL     OW22177   3.012   3.368   0.126  0.2696  0.1604  0.0869
 3515SOL    HW122178   2.959   3.382   0.204  0.2291 -2.3608  0.4924
 3515SOL    HW222179   2.961   3.297   0.087  1.4355  0.3497 -1.8073
 3516SOL     OW22180   2.139   1.806   2.167 -0.0207  0.3559  0.5451
 3516SOL    HW122181   2.182   1.781   2.086 -0.4681 -2.7531  1.2759
 3516SOL    HW222182   2.080   1.876   2.137  1.6146  2.2265  1.7002
 3517SOL     OW22183   1.214   1.354   4.267 -0.4499  0.2876  0.3283
 3517SOL    HW122184   1.294   1.370   4.219  0.2997 -2.0241  0.7841
 3517SOL    HW222185   1.238   1.388   4.353  3.2559  0.2266 -0.6992
 3518SOL     OW22186   2.150   0.617   5.335  0.4654 -0.0263 -0.1286
 3518SOL    HW122187   2.239   0.593   5.363 -0.0547 -1.9042 -0.0972
 3518SOL    HW222188   2.159   0.708   5.363 -0.1937  0.0853 -0.2876
 3519SOL     OW22189   4.279   4.356  16.267  0.2527 -0.2040 -0.8201
 3519SOL    HW122190   4.226   4.278  16.251 -0.2512 -0.6105  2.7761
 3519SOL    HW222191   4.280   4.406  16.186 -1.6389  1.5342  0.2323
 3520SOL     OW22192   1.027   0.685   5.706 -0.2741  0.6414 -0.0736
 3520SOL    HW122193   0.997   0.667   5.616  0.1783  2.5994 -0.6189
 3520SOL    HW222194   1.121   0.675   5.695 -0.2542  1.9030 -1.0073
 3521SOL     OW22195   2.379   2.391  10.066 -0.2000  0.2982  0.1582
 3521SOL    HW122196   2.410   2.301  10.078 -0.0736  0.2265 -0.6967
 3521SOL    HW222197   2.450   2.426  10.120  0.8611 -1.8382  0.1421
 3522SOL     OW22198   2.199   1.413   2.966  0.3684 -0.3033 -0.1116
 3522SOL    HW122199   2.109   1.445   2.952  0.3703  0.2713  1.2197
 3522SOL    HW222200   2.224   1.455   3.048 -1.1769  2.9753 -1.2969
 3523SOL     OW22201   1.129   1.721  17.297 -0.3075  0.5802 -0.3900
 3523SOL    HW122202   1.060   1.660  17.272 -0.9738  0.2135  2.3528
 3523SOL    HW222203   1.130   1.706  17.391  1.1014  1.0078 -0.3353
 3524SOL     OW22204   1.359   3.967  15.359  0.9920  0.4660 -0.1639
 3524SOL    HW122205   1.450   3.953  15.386  1.5273  1.3732 -1.4900
 3524SOL    HW222206   1.336   3.887  15.312  1.1057  0.2433  0.1577
 3525SOL     OW22207   0.619   4.260   1.788 -0.5303  0.3148  0.6026
 3525SOL    HW122208   0.552   4.327   1.774  0.6202  1.3423  0.1429
 3525SOL    HW222209   0.694   4.319   1.783  0.0026 -0.3363  0.9490
 3526SOL     OW22210   1.692   4.525   7.117  0.1846 -0.3244 -0.1858
 3526SOL    HW122211   1.641   4.513   7.037 -0.9302  1.0731  0.3307
 3526SOL    HW222212   1.763   4.581   7.084  1.0124  0.0172  2.2001
 3527SOL     OW22213   4.253   1.799   0.861 -0.3713  0.3405  0.1570
 3527SOL    HW122214   4.252   1.868   0.795  0.4090  0.7457  0.5747
 3527SOL    HW222215   4.223   1.728   0.804 -1.1104  1.9072 -1.4065
 3528SOL     OW22216   1.046   3.717   8.680  0.4919  0.1281  0.2965
 3528SOL    HW122217   1.132   3.680   8.662  0.1908 -1.1538  1.4211
 3528SOL    HW222218   0.995   3.655   8.627  0.1981 -1.0029  1.8788
 3529SOL     OW22219   3.160   0.477  17.240 -0.8010 -0.6027  0.0096
 3529SOL    HW122220   3.166   0.471  17.145  0.9641  0.6009  0.0458
 3529SOL    HW222221   3.248   0.481  17.278 -1.4855  2.3907  1.2181
 3530SOL     OW22222   1.900   2.470   9.464 -0.1487 -0.0319 -0.1262
 3530SOL    HW122223   1.809   2.495   9.444 -0.8067  0.1506  3.1767
 3530SOL    HW222224   1.917   2.403   9.397 -1.1574  1.5297 -1.9665
 3531SOL     OW22225   2.299   1.129   6.334  0.7686 -0.0847  0.4954
 3531SOL    HW122226   2.289   1.040   6.299  2.4476 -0.5919  1.2901
 3531SOL    HW222227   2.221   1.145   6.387  0.9171 -0.1238  0.7225
 3532SOL     OW22228   1.426   3.761   9.372  0.4511  0.3589 -0.1083
 3532SOL    HW122229   1.476   3.682   9.390 -1.4369 -0.5768  1.0367
 3532SOL    HW222230   1.500   3.818   9.350 -0.6697  1.4836 -1.0124
 3533SOL     OW22231   2.933   0.823   4.967 -0.2821 -0.0697  0.7114
 3533SOL    HW122232   2.865   0.864   4.912 -2.7074 -2.7360  1.7367
 3533SOL    HW222233   2.890   0.840   5.051  0.0878  0.4082  0.8065
 3534SOL     OW22234   4.308   3.303  14.845  0.5295 -0.1284  0.9576
 3534SOL    HW122235   4.380   3.296  14.908  2.6818  0.2826 -1.4511
 3534SOL    HW222236   4.316   3.395  14.818 -1.1421 -0.6022 -1.1974
 3535SOL     OW22237   2.385   2.423   5.228  0.3143 -0.6471  0.2373
 3535SOL    HW122238   2.308   2.477   5.246 -0.2930 -0.7742 -1.9804
 3535SOL    HW222239   2.440   2.445   5.304 -0.6527  1.8994  0.1894
 3536SOL     OW22240   3.334   3.704   4.692 -0.0140  0.4003 -0.1286
 3536SOL    HW122241   3.256   3.703   4.637  0.8892  0.1070 -1.4014
 3536SOL    HW222242   3.329   3.616   4.730 -3.5361  0.9229  0.6610
 3537SOL     OW22243   0.450   1.210  11.496  0.1145 -0.0228 -0.2580
 3537SOL    HW122244   0.542   1.228  11.518 -0.6039  1.0067  1.8675
 3537SOL    HW222245   0.451   1.152  11.420  3.0349 -1.2026  0.6650
 3538SOL     OW22246   2.557   0.446   0.312  0.2435  0.2173 -0.5346
 3538SOL    HW122247   2.569   0.537   0.341 -0.7525  0.4640 -0.8786
 3538SOL    HW222248   2.631   0.407   0.358  0.7779 -0.2528 -1.7772
 3539SOL     OW22249   3.789   0.884   2.554  0.5896  0.1621  0.3477
 3539SOL    HW122250   3.880   0.858   2.572  0.3489 -1.7509 -1.2182
 3539SOL    HW222251   3.737   0.828   2.611  0.9544 -0.8125 -0.2803
 3540SOL     OW22252   1.599   1.081   3.531  0.4982 -0.3716 -0.1884
 3540SOL    HW122253   1.593   1.028   3.611 -0.2218  0.9259  0.6221
 3540SOL    HW222254   1.521   1.053   3.483 -0.9078  2.0474  0.6941
 3541SOL     OW22255   2.314   3.119   1.692 -0.2442 -0.2203  0.0331
 3541SOL    HW122256   2.246   3.177   1.659  1.2728  0.7973 -1.2962
 3541SOL    HW222257   2.353   3.086   1.610 -1.8957 -2.1687  0.0281
 3542SOL     OW22258   2.496   0.013   4.610 -0.9987  0.3199 -0.8323
 3542SOL    HW122259   2.590   0.002   4.624 -0.5703  2.1733 -2.2345
 3542SOL    HW222260   2.476   4.660   4.603  2.6111 -0.5056 -0.2042
 3543SOL     OW22261   0.078   1.927   3.827 -0.4742 -0.1541 -0.4676
 3543SOL    HW122262   0.058   1.900   3.737  1.0978 -0.8146 -0.6155
 3543SOL    HW222263   0.153   1.878   3.859 -1.2698 -0.2153  1.2769
 3544SOL     OW22264   1.203   1.486   5.196  0.0609 -0.1202 -0.1228
 3544SOL    HW122265   1.271   1.552   5.186 -0.2322 -0.1739 -2.5337
 3544SOL    HW222266   1.144   1.513   5.126 -0.6927  0.4551  0.7358
 3545SOL     OW22267   3.302   3.755   6.702 -0.6091  0.4440  0.7045
 3545SOL    HW122268   3.262   3.755   6.789  0.4483  0.9894  1.1910
 3545SOL    HW222269   3.373   3.694   6.723 -2.5659 -2.0056  0.2290
 3546SOL     OW22270   3.904   1.556   4.323 -0.3393 -0.0942 -0.0145
 3546SOL    HW122271   3.961   1.534   4.249  1.0904 -0.8621  1.3160
 3546SOL    HW222272   3.862   1.470   4.335  0.3347 -0.4238 -0.0387
 3547SOL     OW22273   2.465   0.418   3.550  0.1467 -0.1796 -0.7192
 3547SOL    HW122274   2.497   0.343   3.602  1.2513  0.0157 -1.1184
 3547SOL    HW222275   2.539   0.478   3.557  0.1045 -0.1183 -0.8072
 3548SOL     OW22276   1.471   4.363   0.499  0.1915  0.5322  0.1792
 3548SOL    HW122277   1.475   4.420   0.575  1.6306  0.8147 -0.1102
 3548SOL    HW222278   1.419   4.416   0.439 -0.0852  0.2806  0.1953
 3549SOL     OW22279   3.093   1.873   3.597 -1.3096  0.0040  0.1333
 3549SOL    HW122280   3.066   1.814   3.527 -0.2749 -0.6764  0.3119
 3549SOL    HW222281   3.158   1.810   3.629 -0.6689  0.6941  0.1788
 3550SOL     OW22282   4.285   3.329   4.774 -0.0901 -0.3649  0.0758
 3550SOL    HW122283   4.354   3.341   4.710 -1.0530  0.7146 -0.7522
 3550SOL    HW222284   4.290   3.235   4.790 -0.1463 -0.1969  1.1146
 3551SOL     OW22285   1.576   2.877   9.911 -0.2380  0.0513 -0.1022
 3551SOL    HW122286   1.489   2.881   9.950 -0.2342 -2.0332  0.1342
 3551SOL    HW222287   1.628   2.815   9.962  1.5620  0.7717 -1.0530
 3552SOL     OW22288   3.468   4.069   6.559  0.3547 -0.0555  0.0950
 3552SOL    HW122289   3.541   4.025   6.516  0.7083  0.1935  0.4350
 3552SOL    HW222290   3.497   4.156   6.585 -0.5019  0.9042 -2.2211
 3553SOL     OW22291   3.828   2.341   4.273  0.6758  0.1571 -0.2126
 3553SOL    HW122292   3.790   2.393   4.344 -0.6437  1.1241 -1.6367
 3553SOL    HW222293   3.763   2.272   4.262  2.2373 -0.9900 -2.1624
 3554SOL     OW22294   3.878   4.729  10.296 -0.6137 -0.2297  0.0404
 3554SOL    HW122295   3.871   0.080  10.328 -2.5726 -0.7287  1.0645
 3554SOL    HW222296   3.957   4.701  10.341 -0.6109 -1.4790 -0.7562
 3555SOL     OW22297   0.605   2.004   5.540  0.4688  0.1587 -0.0331
 3555SOL    HW122298   0.636   1.914   5.550 -0.0229  0.0146  0.1898
 3555SOL    HW222299   0.521   1.992   5.496  0.1892 -0.8748  0.7944
 3556SOL     OW22300   3.207   1.956  15.048  0.1012 -0.5986 -0.0821
 3556SOL    HW122301   3.278   2.013  15.078 -1.5064  0.3870  1.8827
 3556SOL    HW222302   3.219   1.870  15.087 -1.8682 -0.8072  0.0570
 3557SOL     OW22303   4.061   4.591   1.081  0.1263  0.5661  0.1166
 3557SOL    HW122304   4.156   4.602   1.069  0.4249  0.2747  2.2743
 3557SOL    HW222305   4.048   4.523   1.147  1.4515  0.4235  0.2269
 3558SOL     OW22306   1.974   4.201   3.930 -0.1959 -0.1246 -0.6885
 3558SOL    HW122307   1.966   4.183   4.024  0.2228 -1.2760 -0.8732
 3558SOL    HW222308   1.899   4.149   3.901  1.1717 -2.4225 -0.0656
 3559SOL     OW22309   3.654   3.246   0.490 -0.3364 -0.2609 -0.0985
 3559SOL    HW122310   3.736   3.202   0.510 -0.7988 -0.9645  0.2369
 3559SOL    HW222311   3.657   3.275   0.399  0.1034 -1.4799 -0.4657
 3560SOL     OW22312   3.568   3.008   7.677  0.0056  0.3345 -0.1327
 3560SOL    HW122313   3.617   3.089   7.692 -0.5185  0.5971  0.1842
 3560SOL    HW222314   3.498   3.045   7.623  1.0915 -0.0891 -1.8273
 3561SOL     OW22315   0.971   3.485   1.334  0.0178 -0.1010  0.5552
 3561SOL    HW122316   0.895   3.442   1.293 -0.7138  0.5427  1.2356
 3561SOL    HW222317   0.944   3.477   1.425 -3.6724 -1.2490 -0.6207
 3562SOL     OW22318   0.287   4.259   9.555 -0.0937  0.2207 -0.3160
 3562SOL    HW122319   0.292   4.339   9.504  2.2433  0.7635  0.7875
 3562SOL    HW222320   0.365   4.266   9.610 -0.0842  0.9131 -0.4202
 3563SOL     OW22321   0.707   3.820   5.522 -0.0803  0.2581  0.0571
 3563SOL    HW122322   0.655   3.893   5.490 -3.1349 -0.6244  2.9565
 3563SOL    HW222323   0.766   3.808   5.448  1.7022  1.7009  1.2460
 3564SOL     OW22324   3.662   2.330  13.182 -0.0992 -1.0639 -0.5958
 3564SOL    HW122325   3.653   2.275  13.260 -0.1823 -4.0135 -2.6827
 3564SOL    HW222326   3.576   2.374  13.184  0.8489  0.6412  2.5108
 3565SOL     OW22327   0.785   2.211  11.654 -0.2261 -0.0844 -0.3750
 3565SOL    HW122328   0.773   2.273  11.582 -0.7211 -0.4054 -0.5718
 3565SOL    HW222329   0.737   2.246  11.729  1.0590 -0.4399  0.5933
 3566SOL     OW22330   3.216   0.290   5.783 -0.1302  0.1219  0.2557
 3566SOL    HW122331   3.252   0.229   5.847  0.7921  0.2118 -0.1650
 3566SOL    HW222332   3.252   0.377   5.802  1.8709 -0.6572  0.0264
 3567SOL     OW22333   3.866   4.173   8.328  0.1910 -0.7003 -0.0078
 3567SOL    HW122334   3.845   4.119   8.404  0.3301 -0.0624  0.4843
 3567SOL    HW222335   3.791   4.233   8.337  0.2267 -0.1872 -3.1750
 3568SOL     OW22336   1.895   1.049   3.388 -0.2087  0.7129  0.2451
 3568SOL    HW122337   1.869   1.130   3.343 -0.8112  0.4626  0.1495
 3568SOL    HW222338   1.811   1.004   3.391 -0.4789  1.1956 -0.1737
 3569SOL     OW22339   1.797   1.255   1.983 -0.4156 -0.5179 -0.7660
 3569SOL    HW122340   1.880   1.227   2.022 -2.1645 -1.3792  2.3440
 3569SOL    HW222341   1.824   1.306   1.907  1.9850  1.9517  1.7338
 3570SOL     OW22342   4.469   4.049   5.798 -0.6680  0.0037 -0.2627
 3570SOL    HW122343   4.530   3.978   5.777  0.1320  0.2202  1.2922
 3570SOL    HW222344   4.515   4.102   5.863  0.2550 -1.6563  0.4347
 3571SOL     OW22345   2.166   1.625   1.463 -0.4151  0.3451  0.0165
 3571SOL    HW122346   2.206   1.712   1.468 -3.1615  1.4750  2.0361
 3571SOL    HW222347   2.184   1.582   1.546 -1.3794  0.9207  0.5246
 3572SOL     OW22348   3.353   0.598  11.065 -0.0694  0.6518 -0.1800
 3572SOL    HW122349   3.370   0.658  11.138 -0.8238  1.0108 -0.2971
 3572SOL    HW222350   3.441   0.582  11.032 -0.5480 -1.2267 -0.5342
 3573SOL     OW22351   1.577   1.675   1.638  0.0335  0.0193 -0.1021
 3573SOL    HW122352   1.495   1.653   1.595 -0.2640 -0.1844  0.5747
 3573SOL    HW222353   1.625   1.714   1.564  1.7147 -3.0097 -0.6166
 3574SOL     OW22354   0.680   0.617   0.112 -0.2703  0.2904 -0.4488
 3574SOL    HW122355   0.593   0.635   0.076  0.0602  1.0754 -0.8678
 3574SOL    HW222356   0.732   0.691   0.079 -1.5351  0.2118 -2.5932
 3575SOL     OW22357   1.868   2.234   2.807 -0.2453 -0.0936 -0.0693
 3575SOL    HW122358   1.796   2.295   2.794  0.4020  0.3972 -1.4138
 3575SOL    HW222359   1.853   2.200   2.895 -0.4730 -0.8114 -0.3930
 3576SOL     OW22360   2.486   3.444   9.598  0.2573 -0.3514  0.2183
 3576SOL    HW122361   2.411   3.400   9.557  2.7663 -1.0523 -3.5423
 3576SOL    HW222362   2.563   3.398   9.564  0.7463  1.4127 -1.0547
 3577SOL     OW22363   2.146   2.271   8.037 -0.1489  0.2509  0.1291
 3577SOL    HW122364   2.163   2.290   8.130 -0.7173  1.7173 -0.0631
 3577SOL    HW222365   2.203   2.197   8.018 -0.9211 -0.0308 -1.0780
 3578SOL     OW22366   1.990   4.116   0.064 -0.0971 -0.8074 -0.2136
 3578SOL    HW122367   1.995   4.163   0.147 -0.7065 -0.5182 -0.3489
 3578SOL    HW222368   2.073   4.148   0.027  1.4013 -1.3696  2.6541
 3579SOL     OW22369   0.740   3.676   7.386  0.1992 -0.2244  0.5741
 3579SOL    HW122370   0.653   3.677   7.425  0.6007 -1.3306  1.5179
 3579SOL    HW222371   0.744   3.581   7.376  0.2137 -0.0812 -0.7766
 3580SOL     OW22372   1.919   1.539   3.363 -0.1225  0.9529  0.2668
 3580SOL    HW122373   1.994   1.534   3.423 -0.2468  2.2591  0.5411
 3580SOL    HW222374   1.884   1.451   3.379  1.7431  0.7166  3.2505
 3581SOL     OW22375   3.290   3.183   3.840  0.3376 -0.2437 -0.1371
 3581SOL    HW122376   3.291   3.228   3.925 -0.1457 -0.1155 -0.1954
 3581SOL    HW222377   3.296   3.258   3.782  3.6423 -0.2810  0.1794
 3582SOL     OW22378   4.163   2.659   6.938 -0.0170 -0.0586 -0.0070
 3582SOL    HW122379   4.248   2.663   6.894  1.1136 -0.2508  2.1683
 3582SOL    HW222380   4.174   2.715   7.015 -0.1372 -0.9575  0.6586
 3583SOL     OW22381   0.816   4.441  13.467  0.8073 -0.0743 -0.2428
 3583SOL    HW122382   0.729   4.478  13.452  0.4608 -0.5717  0.5389
 3583SOL    HW222383   0.797   4.375  13.533 -0.0969  0.3006 -0.1233
 3584SOL     OW22384   1.765   2.848  10.825  0.4526  0.2381  0.3021
 3584SOL    HW122385   1.781   2.754  10.827 -0.4815  0.0668 -0.0354
 3584SOL    HW222386   1.850   2.880  10.853  1.3263 -2.7953  1.1172
 3585SOL     OW22387   3.071   2.152   4.082  0.2638  0.6338 -0.2415
 3585SOL    HW122388   3.148   2.195   4.044  1.6513 -1.1386  0.6065
 3585SOL    HW222389   3.103   2.063   4.095 -0.6756  0.3702  0.2838
 3586SOL     OW22390   3.446   0.371  17.575  0.2107 -0.1414 -0.5717
 3586SOL    HW122391   3.455   0.311  17.501  0.0404 -1.4882  0.5045
 3586SOL    HW222392   3.351   0.371  17.583  0.2025 -0.6249 -0.6793
 3587SOL     OW22393   3.700   4.341   4.198  0.4368 -0.2153  0.1409
 3587SOL    HW122394   3.652   4.272   4.152 -3.9417  1.4760  2.1892
 3587SOL    HW222395   3.637   4.348   4.269 -0.1439 -0.7202 -0.3289
 3588SOL     OW22396   1.129   0.961   4.697  0.2102 -0.3892  0.0770
 3588SOL    HW122397   1.181   1.016   4.756 -0.0476  1.3239 -1.2943
 3588SOL    HW222398   1.088   1.031   4.646 -0.1631 -0.1702  0.6774
 3589SOL     OW22399   1.705   0.415  14.192 -0.1419  0.4035 -0.3602
 3589SOL    HW122400   1.621   0.458  14.202  0.9559  2.8568 -1.6946
 3589SOL    HW222401   1.690   0.344  14.255  1.6242 -0.5465 -0.9755
 3590SOL     OW22402   4.644   3.903   3.418  0.2944  0.0063  0.7372
 3590SOL    HW122403   4.592   3.887   3.497 -2.0822 -1.7251 -1.1721
 3590SOL    HW222404   4.712   3.836   3.429 -0.6795 -1.1143 -0.0234
 3591SOL     OW22405   4.035   3.093   2.389  0.5441  0.4436  0.2198
 3591SOL    HW122406   4.005   3.015   2.342 -0.0495  0.8547 -0.0844
 3591SOL    HW222407   3.971   3.114   2.457 -0.4258  1.5809 -1.0516
 3592SOL     OW22408   1.260   0.702   1.715 -0.3115 -0.2339  0.3415
 3592SOL    HW122409   1.271   0.659   1.631 -4.3745  1.3738 -0.9803
 3592SOL    HW222410   1.239   0.791   1.687  0.8605  0.1593  0.7015
 3593SOL     OW22411   2.013   2.379  16.150  0.3401 -0.2783 -0.0330
 3593SOL    HW122412   1.923   2.375  16.118  0.6190 -2.0884 -0.6031
 3593SOL    HW222413   2.027   2.473  16.160  0.3423 -0.1786 -0.9937
 3594SOL     OW22414   4.481   2.267   6.341 -0.2335  0.1826  0.1960
 3594SOL    HW122415   4.563   2.225   6.368  0.1498  0.0609 -1.1431
 3594SOL    HW222416   4.458   2.305   6.425  0.2277  2.9824 -0.9461
 3595SOL     OW22417   0.905   4.558   7.909  0.1383 -0.4230 -0.0118
 3595SOL    HW122418   0.861   4.558   7.993  3.1770  0.2078  1.5889
 3595SOL    HW222419   0.949   4.473   7.917  0.9669  0.0870  0.8245
 3596SOL     OW22420   2.933   1.916   1.634 -0.1230 -0.3221  0.3740
 3596SOL    HW122421   2.930   1.987   1.699  3.6387  1.0744 -1.0146
 3596SOL    HW222422   2.955   1.834   1.678  3.0828 -0.8311 -2.2352
 3597SOL     OW22423   3.838   4.367  13.335  0.2109  0.1010 -0.4817
 3597SOL    HW122424   3.853   4.301  13.402  1.3804 -1.7001 -2.5277
 3597SOL    HW222425   3.744   4.380  13.351  0.7374  0.0934  2.6852
 3598SOL     OW22426   2.451   3.261   7.230  0.0356 -0.1755 -0.8643
 3598SOL    HW122427   2.371   3.246   7.181 -0.9618 -0.7377  0.9138
 3598SOL    HW222428   2.510   3.234   7.160  1.1671  0.8546 -0.3129
 3599SOL     OW22429   0.003   0.748   2.071 -0.1295 -0.0578  0.2156
 3599SOL    HW122430   4.669   0.742   2.011 -0.3732 -0.2193  0.5309
 3599SOL    HW222431   4.699   0.703   2.144  1.0625  1.7332  2.0333
 3600SOL     OW22432   1.669   1.305   8.472  0.1367  0.5561  0.2648
 3600SOL    HW122433   1.613   1.312   8.395  0.4162  2.8037  0.2694
 3600SOL    HW222434   1.730   1.234   8.450 -0.8858 -0.2980  0.1759
 3601SOL     OW22435   1.061   3.709  13.892  0.2822 -0.3056 -0.1782
 3601SOL    HW122436   1.104   3.637  13.845  0.0594  0.9763 -2.3452
 3601SOL    HW222437   1.135   3.745  13.941  0.7065  0.9434 -1.7110
 3602SOL     OW22438   4.326   2.741   6.087 -0.1318 -0.3022 -0.0479
 3602SOL    HW122439   4.305   2.726   6.180  0.0661  0.5524  0.1311
 3602SOL    HW222440   4.293   2.828   6.065  0.3878 -0.2368 -0.5723
 3603SOL     OW22441   1.082   4.250  14.631 -0.2411 -0.1166  0.3845
 3603SOL    HW122442   1.044   4.317  14.690 -0.7306 -0.4510  0.4516
 3603SOL    HW222443   1.139   4.204  14.693  0.0227 -1.1501 -0.6392
 3604SOL     OW22444   4.130   3.783  15.642 -0.3892  0.4598 -0.2976
 3604SOL    HW122445   4.195   3.803  15.709 -1.4835 -0.6969  1.1237
 3604SOL    HW222446   4.127   3.690  15.666  1.6564  0.8805  1.5668
 3605SOL     OW22447   3.481   1.445   7.380 -0.1385  0.0043 -0.2609
 3605SOL    HW122448   3.395   1.486   7.377  0.8930  2.2313  0.7630
 3605SOL    HW222449   3.469   1.361   7.335  0.4629  0.6545 -1.6207
 3606SOL     OW22450   3.031   3.640   3.229 -0.6593  0.1028 -0.0768
 3606SOL    HW122451   3.077   3.556   3.222  0.0590  0.5488 -0.6152
 3606SOL    HW222452   2.956   3.630   3.171 -1.0831 -1.1709  0.6913
 3607SOL     OW22453   1.905   2.061   1.053  0.2603  0.3654  0.2282
 3607SOL    HW122454   1.834   2.118   1.082 -0.3455  0.1646 -0.8621
 3607SOL    HW222455   1.857   2.014   0.985  1.4306  0.6067 -0.7681
 3608SOL     OW22456   4.130   2.105   8.998  0.2310 -0.2520 -0.5966
 3608SOL    HW122457   4.070   2.168   8.959  0.5643  1.0192  0.9352
 3608SOL    HW222458   4.136   2.045   8.923 -1.9447  0.0450 -0.9894
 3609SOL     OW22459   2.314   4.377   0.469  0.5101  0.5067  0.4150
 3609SOL    HW122460   2.408   4.373   0.455  0.2508 -3.4034 -0.2106
 3609SOL    HW222461   2.283   4.462   0.437 -2.5633 -0.0071  2.0041
 3610SOL     OW22462   3.955   3.646   2.983 -0.3873 -0.0073 -0.3819
 3610SOL    HW122463   3.875   3.670   2.935 -0.7212 -0.7560 -0.1990
 3610SOL    HW222464   3.934   3.564   3.027  0.6879  2.1238  4.0662
 3611SOL     OW22465   1.243   2.268  12.111 -0.5459  0.5134  0.2143
 3611SOL    HW122466   1.200   2.340  12.066  1.3832  1.9282  0.6313
 3611SOL    HW222467   1.197   2.262  12.195 -0.1323 -0.2123  0.3942
 3612SOL     OW22468   1.133   0.157   4.301  0.2793 -0.0184 -0.6627
 3612SOL    HW122469   1.064   0.125   4.359  0.6759  0.1766 -0.0846
 3612SOL    HW222470   1.074   0.203   4.241  0.6748 -0.1591 -1.1551
 3613SOL     OW22471   0.280   3.471   8.441  0.0869 -0.2261  0.0446
 3613SOL    HW122472   0.223   3.546   8.421 -0.7476 -0.6314  0.8803
 3613SOL    HW222473   0.332   3.508   8.512 -0.2555 -0.6663  0.5272
 3614SOL     OW22474   1.700   2.444   8.632  0.0628 -0.2899 -0.1625
 3614SOL    HW122475   1.734   2.361   8.664 -0.1268 -0.6726 -0.9499
 3614SOL    HW222476   1.742   2.446   8.546  0.5880  1.0717  0.1157
 3615SOL     OW22477   2.040   0.471  12.853 -0.0784  0.4085 -0.5695
 3615SOL    HW122478   1.976   0.453  12.784  3.5752  1.1820 -4.1965
 3615SOL    HW222479   2.084   0.387  12.870  1.0982  1.1255 -0.0378
 3616SOL     OW22480   1.549   4.075   7.104  0.3363  0.5272  0.3319
 3616SOL    HW122481   1.585   4.058   7.191  0.5396 -1.0838 -0.0568
 3616SOL    HW222482   1.580   4.005   7.045 -1.9764  0.8289 -1.2466
 3617SOL     OW22483   2.001   1.002   7.751  0.6286 -0.5040  0.0473
 3617SOL    HW122484   1.928   1.049   7.712  0.3620 -2.1692 -1.4489
 3617SOL    HW222485   1.952   0.926   7.783  0.1834  0.7632  2.3904
 3618SOL     OW22486   2.319   4.097  11.357  0.0127 -0.1460 -0.2525
 3618SOL    HW122487   2.354   4.095  11.446  1.8069  1.1067 -0.9231
 3618SOL    HW222488   2.399   4.125  11.312  1.0761 -1.1170  1.0616
 3619SOL     OW22489   4.054   4.314   9.387 -0.1546  0.1524 -0.7649
 3619SOL    HW122490   4.142   4.302   9.351  0.8197 -1.3723  2.0353
 3619SOL    HW222491   4.075   4.309   9.481  1.1440  0.5582 -1.0417
 3620SOL     OW22492   4.203   4.669   8.640  0.4954 -0.3624 -0.2525
 3620SOL    HW122493   4.123   4.708   8.604  1.9895  2.2903 -0.6848
 3620SOL    HW222494   4.263   0.002   8.626  0.7278 -0.3898  0.5938
 3621SOL     OW22495   4.007   3.592   8.256 -0.4465  0.0703 -0.4678
 3621SOL    HW122496   3.959   3.510   8.273 -0.3284  0.2777  0.8509
 3621SOL    HW222497   3.934   3.649   8.281  1.1674  1.9690 -0.1145
 3622SOL     OW22498   4.458   2.556  14.033  0.0394  0.0563 -0.3392
 3622SOL    HW122499   4.399   2.520  14.099  0.1580  1.9611  0.8053
 3622SOL    HW222500   4.471   2.640  14.078  1.9146 -0.8382  0.7711
 3623SOL     OW22501   2.895   3.835  10.403 -0.2230  0.3935 -0.4616
 3623SOL    HW122502   2.833   3.873  10.342  0.0783  2.9309  0.8294
 3623SOL    HW222503   2.968   3.813  10.345  1.3649 -0.6115  1.9081
 3624SOL     OW22504   4.648   1.236   5.447 -0.2992  0.1403 -0.3001
 3624SOL    HW122505   0.001   1.213   5.449 -0.3963 -0.2028  0.2957
 3624SOL    HW222506   4.624   1.227   5.539 -2.2298 -0.7158 -0.8931
 3625SOL     OW22507   0.510   1.448  13.693 -0.4896 -0.0455 -0.9367
 3625SOL    HW122508   0.447   1.436  13.621 -1.3347 -0.3276 -0.1446
 3625SOL    HW222509   0.528   1.542  13.691  2.7161 -0.5870  2.3843
 3626SOL     OW22510   3.763   0.424   5.686 -0.5776  0.0313 -0.0455
 3626SOL    HW122511   3.857   0.443   5.687 -0.3456 -1.0053 -1.7119
 3626SOL    HW222512   3.756   0.386   5.598 -3.3174 -0.5047  0.4187
 3627SOL     OW22513   4.702   4.468   4.541  0.4983  0.1053 -0.6948
 3627SOL    HW122514   0.003   4.393   4.585  0.5120  1.3405  1.3930
 3627SOL    HW222515   0.014   4.483   4.462  0.8876 -0.1943 -0.4963
 3628SOL     OW22516   2.645   1.033  14.340 -0.0004 -0.2040 -0.2635
 3628SOL    HW122517   2.581   1.089  14.385 -1.0597 -1.3913 -0.3164
 3628SOL    HW222518   2.720   1.091  14.325  1.2248 -1.8147 -0.2981
 3629SOL     OW22519   3.582   3.694  10.981  0.6002 -0.3234 -0.8193
 3629SOL    HW122520   3.574   3.613  11.030  1.4871  0.1628  0.1159
 3629SOL    HW222521   3.648   3.661  10.920  2.4882  1.4694  0.2459
 3630SOL     OW22522   0.149   3.918   4.971  0.0699  0.0840 -0.7747
 3630SOL    HW122523   0.158   3.903   5.065 -1.2509  4.1487 -0.0173
 3630SOL    HW222524   0.190   3.837   4.942 -1.2083 -0.1133 -2.0098
 3631SOL     OW22525   2.020   1.514   2.060 -0.6109  0.1339 -0.5278
 3631SOL    HW122526   2.058   1.574   1.996  0.3990 -0.3985 -0.4304
 3631SOL    HW222527   1.951   1.571   2.094 -0.5515  0.2562 -0.6137
 3632SOL     OW22528   3.140   3.612   4.961 -0.0244 -0.0320 -0.0679
 3632SOL    HW122529   3.075   3.563   5.012  0.6019  1.2597  1.9754
 3632SOL    HW222530   3.187   3.656   5.031 -1.8293  0.9572  0.5142
 3633SOL     OW22531   0.211   1.760   8.936 -0.1052  0.0603 -0.3048
 3633SOL    HW122532   0.203   1.731   9.026 -0.6793  1.5591  0.1280
 3633SOL    HW222533   0.297   1.723   8.916  0.3825  0.7677  0.5233
 3634SOL     OW22534   3.282   1.714   9.881  0.1785  0.0425 -0.1670
 3634SOL    HW122535   3.335   1.636   9.867 -0.5870 -0.5178  0.0382
 3634SOL    HW222536   3.205   1.693   9.828 -0.0309 -1.5674  0.7812
 3635SOL     OW22537   2.993   0.422   4.084  0.3985  0.0519  0.6089
 3635SOL    HW122538   3.086   0.444   4.090  0.9937 -2.5025  0.6578
 3635SOL    HW222539   2.998   0.327   4.096  0.5373  0.3600  3.1016
 3636SOL     OW22540   2.557   1.351   1.946 -0.2287  0.4060  0.2409
 3636SOL    HW122541   2.602   1.299   2.012  0.4547  0.0064 -0.5462
 3636SOL    HW222542   2.612   1.427   1.926  0.6008 -0.4380 -0.6436
 3637SOL     OW22543   1.057   4.031   2.968 -0.4034 -0.0370  0.6552
 3637SOL    HW122544   1.115   4.079   2.909  2.2265 -1.0962  2.3993
 3637SOL    HW222545   1.091   3.947   2.939 -2.4971 -1.2084  1.5725
 3638SOL     OW22546   1.483   0.205   8.024 -0.7993 -0.4617  0.2939
 3638SOL    HW122547   1.429   0.282   8.043  1.3305  0.6313  1.8737
 3638SOL    HW222548   1.492   0.153   8.104 -0.8997  1.9547  1.8512
 3639SOL     OW22549   3.441   1.507  10.702  0.2301 -0.2304 -0.5553
 3639SOL    HW122550   3.521   1.549  10.670 -0.6610  1.9853  0.1807
 3639SOL    HW222551   3.484   1.430  10.739  0.4948  0.0533 -0.2756
 3640SOL     OW22552   3.789   4.247   3.428  0.1259  0.4757 -0.0033
 3640SOL    HW122553   3.845   4.325   3.430 -0.1808  0.6941  0.0871
 3640SOL    HW222554   3.826   4.191   3.496  0.2792  0.8876  0.2545
 3641SOL     OW22555   0.558   4.559   2.272  0.0754 -0.3063 -0.0094
 3641SOL    HW122556   0.553   4.619   2.347  0.0443  2.2467 -2.0700
 3641SOL    HW222557   0.477   4.509   2.263  1.0165 -1.4767 -1.9772
 3642SOL     OW22558   1.811   2.546   5.863  0.3195  0.3898 -0.3837
 3642SOL    HW122559   1.798   2.456   5.831 -0.8625  0.6155 -0.5507
 3642SOL    HW222560   1.869   2.534   5.938  0.2676 -1.8233 -0.6905
 3643SOL     OW22561   2.540   1.800   9.720 -0.2904  0.0649  0.1172
 3643SOL    HW122562   2.460   1.755   9.748 -0.2621 -0.3658 -0.5062
 3643SOL    HW222563   2.502   1.856   9.653  1.6159 -0.1757 -1.1304
 3644SOL     OW22564   2.842   1.171   1.525 -0.5780 -0.4552  0.9252
 3644SOL    HW122565   2.840   1.130   1.611 -0.5857 -1.2271  0.5587
 3644SOL    HW222566   2.904   1.242   1.539  1.6789 -2.1243 -0.5422
 3645SOL     OW22567   3.811   4.079   3.900 -0.1610  0.1709 -0.1941
 3645SOL    HW122568   3.822   4.076   3.995  2.2937  1.1961 -0.4445
 3645SOL    HW222569   3.784   3.989   3.881  1.3987  0.2059 -2.4953
 3646SOL     OW22570   2.790   1.701   8.184  0.1256  0.3864  0.3814
 3646SOL    HW122571   2.808   1.779   8.237 -0.7463  2.0651 -1.8415
 3646SOL    HW222572   2.745   1.650   8.251 -0.2130 -0.1415 -0.2524
 3647SOL     OW22573   1.623   4.497  11.150  0.8057  0.0288  0.2047
 3647SOL    HW122574   1.718   4.510  11.151  0.9547 -1.1874  3.1751
 3647SOL    HW222575   1.620   4.401  11.151 -2.2907  0.1606  1.4149
 3648SOL     OW22576   2.293   4.216   5.814  0.5591  0.3289  0.4700
 3648SOL    HW122577   2.344   4.285   5.771 -1.3759  0.6861 -1.1857
 3648SOL    HW222578   2.209   4.210   5.770  0.7459  0.8476  0.0476
 3649SOL     OW22579   2.119   1.965   6.226 -0.5766 -0.0359 -0.1686
 3649SOL    HW122580   2.108   2.059   6.215  0.2577  0.0114 -0.5700
 3649SOL    HW222581   2.181   1.944   6.156 -1.1557 -1.1767 -0.3422
 3650SOL     OW22582   0.792   2.845  12.355 -0.3660  0.5589  0.4522
 3650SOL    HW122583   0.789   2.898  12.275 -2.7457  0.8650  0.7524
 3650SOL    HW222584   0.723   2.785  12.327  0.4260  0.2758 -0.9255
 3651SOL     OW22585   4.052   2.243   7.853 -0.3058  0.1070 -0.2266
 3651SOL    HW122586   4.117   2.199   7.798 -1.0734  0.8061 -1.6927
 3651SOL    HW222587   4.000   2.287   7.785 -0.4324  0.8850  0.3843
 3652SOL     OW22588   4.053   0.073  13.357 -0.1879 -0.2529 -0.4232
 3652SOL    HW122589   3.985   0.016  13.321  1.0127 -1.7299 -0.3963
 3652SOL    HW222590   4.048   0.154  13.308 -1.0253 -0.2553 -0.3443
 3653SOL     OW22591   0.710   4.562  10.035  0.9816  0.6538 -0.7940
 3653SOL    HW122592   0.676   4.621  10.102  2.1770 -1.2482  1.5438
 3653SOL    HW222593   0.643   4.574   9.969  0.3809 -0.8546 -0.4678
 3654SOL     OW22594   0.860   1.970   6.218 -0.0335  0.3166 -0.7919
 3654SOL    HW122595   0.935   1.996   6.271 -0.1399 -1.2848  0.1313
 3654SOL    HW222596   0.889   1.881   6.198  2.8178  0.6471  1.8456
 3655SOL     OW22597   0.391   0.408   4.249 -0.2819 -0.5602  0.2052
 3655SOL    HW122598   0.400   0.425   4.155  0.9605 -0.5836  0.3275
 3655SOL    HW222599   0.404   0.313   4.253  3.3345 -0.0717 -0.4136
 3656SOL     OW22600   1.200   2.959   9.151 -0.7077  0.4944  0.3083
 3656SOL    HW122601   1.222   2.907   9.227  0.0452 -0.4433 -0.5472
 3656SOL    HW222602   1.126   3.015   9.172 -3.7016 -3.1844 -0.5784
 3657SOL     OW22603   0.165   1.663   8.427  0.6217  0.4803 -0.1513
 3657SOL    HW122604   0.232   1.594   8.436  0.7617  0.3628 -2.0403
 3657SOL    HW222605   0.177   1.695   8.338  1.6898  0.0708 -0.1586
 3658SOL     OW22606   1.718   0.507   8.644 -0.0729 -0.0468 -0.0842
 3658SOL    HW122607   1.760   0.454   8.575  1.9875  0.7114  0.5837
 3658SOL    HW222608   1.667   0.434   8.678 -2.7068  1.6930 -0.3229
 3659SOL     OW22609   3.890   4.470  17.252 -0.2609 -0.2142  0.2483
 3659SOL    HW122610   3.931   4.547  17.214  1.0643  0.3708  2.8585
 3659SOL    HW222611   3.799   4.499  17.246 -0.2436 -0.1148  0.5100
 3660SOL     OW22612   2.592   0.742  15.975  0.0032  0.3489  0.0317
 3660SOL    HW122613   2.497   0.745  15.962 -0.1488  1.4758  1.4284
 3660SOL    HW222614   2.625   0.811  15.917 -0.8195 -0.0249 -0.8717
 3661SOL     OW22615   3.576   1.610   8.923 -0.1188 -0.1838 -0.5257
 3661SOL    HW122616   3.510   1.540   8.921 -1.4123  1.0085  0.5219
 3661SOL    HW222617   3.605   1.630   8.834 -0.2056  0.7633 -0.3401
 3662SOL     OW22618   3.399   1.214  16.756  0.5609  0.7773  0.6260
 3662SOL    HW122619   3.413   1.297  16.802  1.3749  1.9092 -1.6154
 3662SOL    HW222620   3.414   1.242  16.665  1.3580 -1.2276  0.1484
 3663SOL     OW22621   0.704   3.949   6.189  0.6893 -0.5630 -0.3557
 3663SOL    HW122622   0.753   4.027   6.214 -1.9472  0.4987  1.5537
 3663SOL    HW222623   0.742   3.887   6.251  0.3253 -0.6753 -0.2404
 3664SOL     OW22624   1.431   3.892   2.100  0.2779 -0.1402  0.2430
 3664SOL    HW122625   1.400   3.885   2.010  2.1626 -1.0855 -0.3328
 3664SOL    HW222626   1.497   3.960   2.098 -2.3004  2.2956 -1.7577
 3665SOL     OW22627   2.759   0.151  17.241 -0.5303  0.1448 -0.4093
 3665SOL    HW122628   2.730   0.229  17.288 -0.7209 -1.5143  2.1935
 3665SOL    HW222629   2.849   0.145  17.274  0.3178  1.0253 -2.5086
 3666SOL     OW22630   3.287   3.171  15.479 -0.4681  0.7479  0.1590
 3666SOL    HW122631   3.283   3.242  15.543 -1.5007 -0.0980  1.0286
 3666SOL    HW222632   3.258   3.098  15.534 -0.7754 -0.1905 -1.2461
 3667SOL     OW22633   2.418   1.055   2.486 -0.2559 -0.5233 -0.0695
 3667SOL    HW122634   2.375   1.043   2.571 -0.7815 -1.2746 -0.4347
 3667SOL    HW222635   2.350   1.046   2.419 -0.0747  0.8229 -0.4226
 3668SOL     OW22636   3.262   1.643   4.155  0.2627  0.0340  0.7173
 3668SOL    HW122637   3.331   1.709   4.155  0.2289  0.0715 -0.4013
 3668SOL    HW222638   3.297   1.602   4.234 -2.5476  0.2916  2.0822
 3669SOL     OW22639   2.058   2.050   5.431 -0.3600 -0.0047  0.2736
 3669SOL    HW122640   1.987   2.036   5.368  0.1271  0.3086 -0.3410
 3669SOL    HW222641   2.134   1.998   5.407 -1.1612 -0.3883 -1.4607
 3670SOL     OW22642   1.937   0.053   9.184 -0.1476 -0.2075  0.0408
 3670SOL    HW122643   1.889   4.714   9.208 -0.4193 -0.0112  0.1414
 3670SOL    HW222644   1.949   0.042   9.090 -0.3832 -1.0949  0.1136
 3671SOL     OW22645   2.160   1.292   1.070  0.6008 -0.0492 -0.8701
 3671SOL    HW122646   2.172   1.369   1.125 -0.0531  0.4590 -1.4437
 3671SOL    HW222647   2.233   1.304   1.010 -0.6141  0.9294 -2.1466
 3672SOL     OW22648   4.483   1.754   4.112  0.4489  0.3141  0.4583
 3672SOL    HW122649   4.542   1.692   4.070 -2.9748 -2.0035 -0.8910
 3672SOL    HW222650   4.537   1.833   4.127  0.0067  1.2972 -3.2791
 3673SOL     OW22651   0.909   4.638   1.460 -0.0918 -0.3564 -0.1136
 3673SOL    HW122652   0.831   4.600   1.501 -0.1307  1.0337  1.1266
 3673SOL    HW222653   0.923   4.702   1.530 -0.3139 -0.5379  0.1002
 3674SOL     OW22654   2.535   4.493   9.032  0.7827 -0.5817  1.4347
 3674SOL    HW122655   2.499   4.462   8.948  2.5400  1.8497 -0.1921
 3674SOL    HW222656   2.509   4.584   9.024 -2.4115 -1.5077  1.0908
 3675SOL     OW22657   1.143   4.433  16.063 -0.3158 -0.3130  0.0312
 3675SOL    HW122658   1.200   4.488  16.117 -1.0734  2.1070 -1.5969
 3675SOL    HW222659   1.168   4.458  15.973 -0.0244 -1.9340 -0.3348
 3676SOL     OW22660   0.849   4.547   9.324 -0.8040 -0.4188  0.4725
 3676SOL    HW122661   0.896   4.576   9.402  0.2521 -2.0850  0.4641
 3676SOL    HW222662   0.758   4.524   9.344 -0.6026 -0.1536  1.6983
 3677SOL     OW22663   1.025   1.833   6.545 -0.0787  0.0344  0.0438
 3677SOL    HW122664   1.018   1.739   6.530  0.2903  0.4173 -2.5081
 3677SOL    HW222665   0.934   1.864   6.541 -0.4912 -1.2673 -0.5102
 3678SOL     OW22666   3.921   0.033   3.261  0.2079  0.2252  1.2278
 3678SOL    HW122667   3.918   4.714   3.337 -0.4027 -0.5086  0.6380
 3678SOL    HW222668   4.012   0.028   3.231 -0.2484 -1.5044  0.1327
 3679SOL     OW22669   3.270   1.037   3.907 -0.1091 -0.0217  0.2866
 3679SOL    HW122670   3.196   1.052   3.965 -0.0049  2.1113 -0.1362
 3679SOL    HW222671   3.213   1.040   3.830  1.3003 -0.2376 -0.7758
 3680SOL     OW22672   4.017   3.576  16.743 -0.1678 -0.0904  0.0906
 3680SOL    HW122673   3.985   3.660  16.774 -0.8194 -0.3031 -0.0023
 3680SOL    HW222674   3.978   3.572  16.655  0.4018  0.2556 -0.1724
 3681SOL     OW22675   3.599   3.290   0.238 -0.6033 -0.0070  0.3937
 3681SOL    HW122676   3.563   3.373   0.268 -0.2708  0.7178 -1.2019
 3681SOL    HW222677   3.622   3.306   0.146 -0.7507 -2.4720 -0.0811
 3682SOL     OW22678   4.705   1.725   9.513 -0.0957 -0.0780 -0.2146
 3682SOL    HW122679   0.057   1.743   9.536  0.1449 -2.1440  0.5097
 3682SOL    HW222680   4.696   1.661   9.584  0.7872  1.2250  1.0743
 3683SOL     OW22681   2.775   4.204   6.238 -0.0486 -0.3962  0.6014
 3683SOL    HW122682   2.857   4.176   6.198  0.9020  0.0623  2.2471
 3683SOL    HW222683   2.788   4.299   6.243  0.3607 -0.4720  0.9422
 3684SOL     OW22684   1.765   0.410   2.061 -0.3333  0.3696  0.0485
 3684SOL    HW122685   1.729   0.459   1.987 -1.1706  0.9397  0.8354
 3684SOL    HW222686   1.856   0.438   2.055  0.0031 -0.3093  1.9952
 3685SOL     OW22687   0.120   0.669   1.245  0.4401 -0.0963  0.5653
 3685SOL    HW122688   0.140   0.632   1.331 -0.2641 -1.0320  0.3287
 3685SOL    HW222689   0.158   0.754   1.268  1.1202 -0.6831  1.5764
 3686SOL     OW22690   2.796   4.572   7.389 -0.2311  0.3080  0.1612
 3686SOL    HW122691   2.787   4.645   7.328 -0.6241 -0.6741 -0.9823
 3686SOL    HW222692   2.723   4.590   7.448  0.1274  0.0235  0.6896
 3687SOL     OW22693   4.551   2.623   3.172  0.1873 -0.5921 -0.3770
 3687SOL    HW122694   4.623   2.681   3.149 -0.3333  0.3384  0.3338
 3687SOL    HW222695   4.595   2.540   3.150 -1.6096 -1.7388  0.3655
 3688SOL     OW22696   4.515   4.189  16.605  0.2531 -0.1699 -0.2116
 3688SOL    HW122697   4.558   4.205  16.688  0.1505 -1.1971  0.0449
 3688SOL    HW222698   4.428   4.170  16.640  0.3744  0.8501  0.6409
 3689SOL     OW22699   0.429   1.065   0.245 -0.1663  0.0262 -0.0763
 3689SOL    HW122700   0.419   1.098   0.335 -1.2473  0.2698 -0.2805
 3689SOL    HW222701   0.411   1.146   0.198 -0.6280  0.2216  0.4293
 3690SOL     OW22702   3.929   0.291   6.453  0.0974  0.4184 -0.1287
 3690SOL    HW122703   3.919   0.266   6.545 -0.2868  1.4485  0.1128
 3690SOL    HW222704   3.882   0.374   6.448 -0.5836 -0.0200 -1.0891
 3691SOL     OW22705   3.824   3.849  16.063 -0.1787 -0.8175  0.0401
 3691SOL    HW122706   3.861   3.881  16.145  0.1678  0.9330 -0.7963
 3691SOL    HW222707   3.745   3.808  16.099 -1.0082 -0.1894 -1.0757
 3692SOL     OW22708   4.319   3.650   7.920 -0.4619 -0.3711 -0.3198
 3692SOL    HW122709   4.330   3.686   8.008 -2.0935 -0.9305  0.1155
 3692SOL    HW222710   4.225   3.639   7.910 -0.7572  2.3255 -0.6265
 3693SOL     OW22711   4.337   3.846  11.771  0.0857 -0.3216 -0.1641
 3693SOL    HW122712   4.384   3.774  11.811 -1.9775 -1.2643  0.5784
 3693SOL    HW222713   4.324   3.828  11.678  2.7688 -2.5827 -0.0870
 3694SOL     OW22714   2.261   3.241   3.370  0.0705 -0.1939 -0.3134
 3694SOL    HW122715   2.318   3.208   3.439 -0.9483  0.7086  0.9701
 3694SOL    HW222716   2.186   3.261   3.426  1.2906  0.1671  1.1944
 3695SOL     OW22717   2.720   2.629   6.129 -0.3250  0.1684  0.2244
 3695SOL    HW122718   2.794   2.689   6.127 -0.1432 -0.1072 -0.9406
 3695SOL    HW222719   2.644   2.686   6.118 -0.6265 -0.1453  0.6906
 3696SOL     OW22720   1.014   3.995   8.657  0.3233  0.2073  0.0617
 3696SOL    HW122721   1.005   3.902   8.678  0.0078 -0.5104 -3.2269
 3696SOL    HW222722   0.993   4.002   8.564  0.2871 -0.9415 -0.0094
 3697SOL     OW22723   1.227   4.470   9.698  0.1971  0.2803 -0.4105
 3697SOL    HW122724   1.284   4.432   9.765 -0.6975  0.0829  0.2436
 3697SOL    HW222725   1.264   4.448   9.612 -0.8726  0.7795 -0.9945
 3698SOL     OW22726   3.819   0.525   4.817 -0.1422 -0.1062  0.1706
 3698SOL    HW122727   3.850   0.444   4.857  0.4863 -1.5832 -3.3181
 3698SOL    HW222728   3.829   0.591   4.885  0.0312  1.5009 -1.4020
 3699SOL     OW22729   4.475   2.047  15.689  0.0692  0.2266 -0.4795
 3699SOL    HW122730   4.559   2.015  15.721 -0.0968  1.2401  0.9406
 3699SOL    HW222731   4.425   1.969  15.715  0.3472 -0.1798 -1.1654
 3700SOL     OW22732   4.490   0.396   3.797  1.2710  0.6936 -0.3991
 3700SOL    HW122733   4.567   0.444   3.766  0.6962  1.9170  0.0931
 3700SOL    HW222734   4.517   0.373   3.886 -0.2846  0.7689  0.0806
 3701SOL     OW22735   3.753   4.511   7.099 -0.0407 -0.4367  0.0189
 3701SOL    HW122736   3.765   4.443   7.166  0.3244 -1.3898 -1.0243
 3701SOL    HW222737   3.735   4.456   7.023 -0.4723  1.0674 -0.9531
 3702SOL     OW22738   2.797   2.099   6.940 -0.3217  0.2293  0.1873
 3702SOL    HW122739   2.746   2.021   6.964 -0.3218 -0.3265 -1.6040
 3702SOL    HW222740   2.732   2.151   6.988  0.6297  3.2803 -1.8397
 3703SOL     OW22741   1.435   3.605   5.978  0.2910 -0.1583  0.1539
 3703SOL    HW122742   1.351   3.598   5.934  1.3304 -1.5080 -1.5936
 3703SOL    HW222743   1.490   3.584   5.903  1.8703  0.2020  1.1925
 3704SOL     OW22744   1.895   0.095   4.364  0.0974 -0.0703 -0.0563
 3704SOL    HW122745   1.824   0.044   4.402 -1.5062  1.5287 -0.8836
 3704SOL    HW222746   1.884   0.078   4.270  2.7197  1.5698 -0.6889
 3705SOL     OW22747   2.764   3.729   8.832 -0.4994  0.5104  0.5516
 3705SOL    HW122748   2.824   3.662   8.866  0.1273  1.2325  0.8687
 3705SOL    HW222749   2.704   3.680   8.775  1.7520 -0.6580 -0.8237
 3706SOL     OW22750   2.959   1.147   0.593  0.5757  0.2225  0.9562
 3706SOL    HW122751   3.005   1.224   0.625 -0.4750  2.1752 -2.2888
 3706SOL    HW222752   2.993   1.144   0.503 -1.0068 -1.3859  0.4060
 3707SOL     OW22753   3.775   0.320   3.778  0.4634 -0.1395  0.1906
 3707SOL    HW122754   3.855   0.270   3.758  0.2384 -0.2826 -0.3569
 3707SOL    HW222755   3.820   0.402   3.756  3.1917 -1.4387  0.8915
 3708SOL     OW22756   4.484   3.017   2.590 -0.3284  0.0396 -0.3830
 3708SOL    HW122757   4.462   3.108   2.572  0.3750  0.6576  1.8701
 3708SOL    HW222758   4.392   2.992   2.582 -0.1294 -0.5638 -0.8138
 3709SOL     OW22759   1.703   2.063   2.257 -0.2011 -0.6437 -0.3650
 3709SOL    HW122760   1.633   2.107   2.305  0.7269  0.5299 -0.0730
 3709SOL    HW222761   1.669   1.976   2.236  0.0268 -0.2853 -2.2244
 3710SOL     OW22762   3.381   0.084   8.789  0.3866  0.2217  0.0976
 3710SOL    HW122763   3.426   0.098   8.872  1.0558 -1.4229  0.0073
 3710SOL    HW222764   3.434   0.021   8.741 -1.5372 -0.4662 -1.1336
 3711SOL     OW22765   0.158   0.433   8.768  0.7630 -0.2416 -0.0821
 3711SOL    HW122766   0.224   0.392   8.713 -0.2479 -1.8596 -0.0958
 3711SOL    HW222767   0.153   0.368   8.838 -1.2110  1.0415  1.0023
 3712SOL     OW22768   2.271   0.390  17.500 -0.2118  0.9249 -0.0735
 3712SOL    HW122769   2.339   0.390  17.567  0.3489 -0.3830 -0.6523
 3712SOL    HW222770   2.205   0.445  17.543  0.2779  1.0063  0.5665
 3713SOL     OW22771   2.729   0.763   1.408 -0.1799  0.0298  0.3557
 3713SOL    HW122772   2.796   0.804   1.354 -0.3590 -2.8454 -2.0164
 3713SOL    HW222773   2.766   0.676   1.423 -2.0862 -0.6682  1.1026
 3714SOL     OW22774   4.340   2.053   3.905  0.3719 -0.2333  0.0346
 3714SOL    HW122775   4.410   2.023   3.964 -1.1253 -2.7651  0.5345
 3714SOL    HW222776   4.268   2.005   3.946  1.0018  0.2702  1.7724
 3715SOL     OW22777   4.045   4.728  17.154 -0.3510 -0.3429 -0.0915
 3715SOL    HW122778   3.987   0.023  17.086 -2.0449  1.3971  2.2395
 3715SOL    HW222779   4.034   0.051  17.226  1.5890 -1.4881  1.1967
 3716SOL     OW22780   0.433   0.613   8.534  0.0146 -0.1921 -0.1096
 3716SOL    HW122781   0.428   0.529   8.580 -0.0806 -1.1855 -1.9483
 3716SOL    HW222782   0.488   0.605   8.457 -0.0947  0.7622 -0.2954
 3717SOL     OW22783   1.238   4.247   6.990 -0.0590  0.5600 -0.0272
 3717SOL    HW122784   1.242   4.224   7.082 -2.7997 -0.5456 -0.1856
 3717SOL    HW222785   1.317   4.209   6.952 -0.0149  1.2691 -0.6572
 3718SOL     OW22786   0.049   4.552   4.288 -0.1893  0.1587 -0.0448
 3718SOL    HW122787   0.057   4.469   4.242  1.7336 -0.8089  2.0282
 3718SOL    HW222788   0.124   4.603   4.256  0.3820 -1.6873 -1.6775
 3719SOL     OW22789   4.262   1.039   6.034 -0.0438 -0.9190 -0.2628
 3719SOL    HW122790   4.332   1.009   5.976  0.8638 -2.1936  1.4837
 3719SOL    HW222791   4.187   1.029   5.976  0.3679  1.8694 -1.2554
 3720SOL     OW22792   3.405   2.554   3.861 -0.1023  0.0503  0.0572
 3720SOL    HW122793   3.456   2.632   3.837 -0.8246  0.8364  1.0687
 3720SOL    HW222794   3.478   2.493   3.845 -2.2265 -2.1370 -1.2207
 3721SOL     OW22795   4.329   0.453  11.297  0.2893  0.5065  0.1887
 3721SOL    HW122796   4.401   0.509  11.268  0.1893  1.4122  1.6615
 3721SOL    HW222797   4.359   0.428  11.384  1.5572  1.4824  0.0377
 3722SOL     OW22798   0.489   2.165   7.852 -0.7339  0.1665 -0.0461
 3722SOL    HW122799   0.556   2.234   7.855 -1.6385  1.1197 -1.6826
 3722SOL    HW222800   0.412   2.218   7.829 -0.7422  0.3216  0.3361
 3723SOL     OW22801   1.636   2.019   3.256 -0.2034 -0.0033  0.3386
 3723SOL    HW122802   1.634   1.924   3.265  2.5164 -0.1763 -0.9783
 3723SOL    HW222803   1.572   2.050   3.320 -2.0747 -2.3160 -0.4323
 3724SOL     OW22804   1.647   4.734   3.213 -0.0529  0.6475 -0.4997
 3724SOL    HW122805   1.683   4.646   3.216 -0.1640  0.6306  0.2422
 3724SOL    HW222806   1.599   0.003   3.130 -0.8124 -0.2102 -0.1474
 3725SOL     OW22807   0.070   2.679   4.180 -0.2348 -0.4081 -0.4581
 3725SOL    HW122808   4.726   2.670   4.136 -0.3962  0.6658 -0.3843
 3725SOL    HW222809   0.108   2.750   4.128  0.7967 -1.3790 -1.0299
 3726SOL     OW22810   0.548   2.594   3.774  0.5554 -0.0985  0.7728
 3726SOL    HW122811   0.551   2.619   3.681 -3.3833 -2.6117 -0.0254
 3726SOL    HW222812   0.494   2.516   3.766  1.5178 -0.5772 -1.1201
 3727SOL     OW22813   0.597   3.950   3.615  0.0672 -1.0340  0.9981
 3727SOL    HW122814   0.584   4.010   3.688 -1.6192  0.0576 -0.2001
 3727SOL    HW222815   0.506   3.927   3.595  0.2075 -0.9604  0.2629
 3728SOL     OW22816   3.058   4.326   3.759  0.3083  0.1819 -0.1948
 3728SOL    HW122817   3.080   4.399   3.701 -1.3122 -0.4366 -1.5912
 3728SOL    HW222818   3.146   4.290   3.748  0.2687 -0.2173  0.8648
 3729SOL     OW22819   2.365   0.303   6.933  0.1651  0.7117  0.0431
 3729SOL    HW122820   2.378   0.394   6.905  0.8166  0.3419 -0.8303
 3729SOL    HW222821   2.356   0.271   6.844 -0.4839  1.1188 -0.0354
 3730SOL     OW22822   4.618   2.982   0.536 -0.0864 -0.4880 -0.3099
 3730SOL    HW122823   4.571   3.059   0.568  0.6578 -1.0248  2.0440
 3730SOL    HW222824   4.591   2.920   0.604 -0.4429 -2.4389 -2.2053
 3731SOL     OW22825   0.751   0.948  14.701 -0.9609  0.1109  0.6859
 3731SOL    HW122826   0.803   0.943  14.620  1.2199 -3.4836  2.2572
 3731SOL    HW222827   0.795   1.010  14.759 -0.0247  0.4029 -0.3383
 3732SOL     OW22828   0.975   2.357  13.103  0.0248  0.0359  0.3540
 3732SOL    HW122829   0.890   2.319  13.124 -0.5958  1.3220  0.1707
 3732SOL    HW222830   0.964   2.382  13.012  0.7849 -3.0228 -0.5624
 3733SOL     OW22831   1.808   3.481  11.735  0.2257 -0.0903 -0.2446
 3733SOL    HW122832   1.757   3.408  11.771 -0.6233  1.2458  1.2858
 3733SOL    HW222833   1.801   3.541  11.809  0.3208 -0.9049  0.4293
 3734SOL     OW22834   2.706   4.505   6.223 -0.6035 -0.5829 -0.1652
 3734SOL    HW122835   2.655   4.553   6.288  0.9517 -2.0612  2.1458
 3734SOL    HW222836   2.635   4.470   6.170 -1.3268 -0.4038  0.6945
 3735SOL     OW22837   3.064   0.472  14.855 -0.0218  0.2161 -0.5037
 3735SOL    HW122838   3.124   0.428  14.795 -0.7156  2.8098 -3.1063
 3735SOL    HW222839   3.116   0.492  14.933 -2.7373  0.4914  1.2586
 3736SOL     OW22840   2.745   2.750   2.002 -0.3681  0.4383 -0.1213
 3736SOL    HW122841   2.774   2.840   2.017 -0.4841 -0.1883  3.8244
 3736SOL    HW222842   2.819   2.698   2.034 -0.1258  0.6203 -0.3975
 3737SOL     OW22843   2.798   3.245  10.637 -0.2614 -0.0441  0.3557
 3737SOL    HW122844   2.825   3.305  10.568  0.0260 -0.3258  0.2232
 3737SOL    HW222845   2.881   3.235  10.685  0.2505  1.5384 -0.1879
 3738SOL     OW22846   4.000   0.444   8.920 -0.0861 -0.3866 -0.4891
 3738SOL    HW122847   3.943   0.377   8.883 -2.1748 -0.5203  2.9152
 3738SOL    HW222848   4.066   0.458   8.852 -0.0249 -2.5129 -0.8766
 3739SOL     OW22849   1.532   1.281   1.886 -0.6196  0.4317  0.1948
 3739SOL    HW122850   1.490   1.366   1.876 -0.3660  0.8055  2.3294
 3739SOL    HW222851   1.620   1.293   1.923  0.2702  0.3467 -1.9013
 3740SOL     OW22852   2.588   3.051   6.543 -0.0894  0.1177  0.0680
 3740SOL    HW122853   2.576   3.142   6.570  1.7455  1.1437 -2.6249
 3740SOL    HW222854   2.676   3.032   6.511 -1.3920 -1.9963 -2.2210
 3741SOL     OW22855   0.406   1.395   9.717  0.2904 -0.4208 -0.0824
 3741SOL    HW122856   0.397   1.339   9.640 -2.7086  0.6587 -0.5080
 3741SOL    HW222857   0.313   1.398   9.740  0.4308 -1.8662  0.6938
 3742SOL     OW22858   2.019   0.402   1.909  0.1295 -0.5844  0.4172
 3742SOL    HW122859   2.029   0.309   1.930  0.2000 -1.0774 -1.8721
 3742SOL    HW222860   2.103   0.425   1.950 -0.4635  1.6697  0.3438
 3743SOL     OW22861   2.320   0.791   3.012  0.2733  0.1897 -0.2339
 3743SOL    HW122862   2.288   0.880   2.997 -1.1650 -0.3294 -0.3221
 3743SOL    HW222863   2.301   0.776   3.105  2.8872 -0.1937  0.2293
 3744SOL     OW22864   2.310   2.006   5.715  0.4043 -0.5681  0.3995
 3744SOL    HW122865   2.283   1.914   5.710  0.5194 -0.5751 -0.0814
 3744SOL    HW222866   2.379   2.000   5.782 -0.9778  1.7898  2.0129
 3745SOL     OW22867   3.089   4.047  10.750 -0.5681 -0.3858 -0.2196
 3745SOL    HW122868   3.111   3.981  10.816  1.0869 -1.6560 -2.0283
 3745SOL    HW222869   3.169   4.098  10.764 -0.5860 -0.9185  1.7600
 3746SOL     OW22870   4.102   0.075   4.189  0.2823 -0.5063 -0.1909
 3746SOL    HW122871   4.053   0.141   4.238  1.5884  0.8843 -0.7666
 3746SOL    HW222872   4.184   0.119   4.167  0.4603 -0.0938  1.3102
 3747SOL     OW22873   4.026   0.303  13.528  0.2483 -0.0589  0.2180
 3747SOL    HW122874   3.962   0.305  13.598 -0.5187  0.8133 -0.5174
 3747SOL    HW222875   4.007   0.227  13.472  4.4382 -1.6625  0.9562
 3748SOL     OW22876   0.340   4.119  13.884 -0.1211  0.1073 -0.1301
 3748SOL    HW122877   0.289   4.104  13.803  0.5584 -1.0645 -0.3492
 3748SOL    HW222878   0.426   4.137  13.846  0.1596 -0.4279  0.2560
 3749SOL     OW22879   3.552   1.758   1.625 -0.0714  0.6255 -0.3794
 3749SOL    HW122880   3.609   1.777   1.700  1.1213 -1.0293 -0.8647
 3749SOL    HW222881   3.555   1.843   1.581  1.3695  1.0286  0.5148
 3750SOL     OW22882   1.294   4.586  13.255 -0.3364  0.6271 -0.5093
 3750SOL    HW122883   1.333   4.638  13.326 -0.0617 -0.6442  0.2547
 3750SOL    HW222884   1.207   4.568  13.291  0.3333 -1.6715 -0.0633
 3751SOL     OW22885   4.020   4.383   3.819 -0.1826 -0.7824 -0.0711
 3751SOL    HW122886   4.074   4.311   3.854 -1.2055 -1.5157 -0.0017
 3751SOL    HW222887   3.961   4.397   3.894  0.5789 -0.9594  0.5664
 3752SOL     OW22888   1.171   4.511   7.018  0.1472  0.3873 -0.2920
 3752SOL    HW122889   1.183   4.421   6.987 -3.1731 -0.4245  0.8474
 3752SOL    HW222890   1.115   4.547   6.950  1.1586  0.3034 -1.1801
 3753SOL     OW22891   2.859   2.812   6.787  0.4267 -0.0754 -0.1558
 3753SOL    HW122892   2.880   2.758   6.864  1.5667  1.6868  0.7655
 3753SOL    HW222893   2.813   2.743   6.739 -0.6788  0.0837  0.6754
 3754SOL     OW22894   4.120   2.552   7.426  0.4199  0.4205 -0.1516
 3754SOL    HW122895   4.073   2.596   7.355  0.7013  0.7872 -0.1103
 3754SOL    HW222896   4.141   2.468   7.385  3.3428  0.4012  1.3682
 3755SOL     OW22897   0.578   0.752   6.806 -0.0122 -0.0756  0.2326
 3755SOL    HW122898   0.516   0.732   6.875  0.4021 -1.5201  0.2040
 3755SOL    HW222899   0.657   0.717   6.848  0.3273  1.5009  0.8943
 3756SOL     OW22900   3.459   2.122   2.204 -0.4938  0.3898  0.4752
 3756SOL    HW122901   3.473   2.130   2.298  0.0530  0.0824  0.4216
 3756SOL    HW222902   3.527   2.058   2.182  0.3628  3.0264 -4.4414
 3757SOL     OW22903   1.670   4.284   7.397  0.0344  0.6115 -0.1206
 3757SOL    HW122904   1.659   4.190   7.390  1.7281  0.4340 -0.3338
 3757SOL    HW222905   1.755   4.290   7.352  0.2130 -0.0920  0.1217
 3758SOL     OW22906   1.796   4.112  15.307 -0.6563 -0.0018 -0.0941
 3758SOL    HW122907   1.852   4.162  15.248  1.3203 -1.9802  0.1026
 3758SOL    HW222908   1.850   4.101  15.386  0.4253 -0.1480 -0.8439
 3759SOL     OW22909   2.833   1.613   2.673 -0.0051 -0.6592 -0.3904
 3759SOL    HW122910   2.867   1.653   2.593  1.3702  0.5982  0.8274
 3759SOL    HW222911   2.751   1.662   2.681  1.1890  1.1813  0.4077
 3760SOL     OW22912   0.052   1.319   5.826  0.2423 -0.1162 -0.3161
 3760SOL    HW122913   0.029   1.380   5.757 -0.1326  0.0587 -0.0373
 3760SOL    HW222914   0.130   1.359   5.863  0.3593  0.0850 -0.7864
 3761SOL     OW22915   0.894   2.661   4.919  0.4918 -0.1987 -0.2813
 3761SOL    HW122916   0.892   2.644   4.825 -0.6529 -2.8366  0.2310
 3761SOL    HW222917   0.847   2.594   4.968  0.8117  0.1728  0.5249
 3762SOL     OW22918   1.137   2.561   7.622  0.3697  0.7357 -0.0310
 3762SOL    HW122919   1.114   2.519   7.539 -0.0856  2.4840 -0.7847
 3762SOL    HW222920   1.141   2.653   7.598 -0.2827  0.7008 -0.2608
 3763SOL     OW22921   4.356   3.740   2.175  0.2879  0.1564  0.0560
 3763SOL    HW122922   4.280   3.795   2.194  0.7863  1.1014 -0.7167
 3763SOL    HW222923   4.418   3.759   2.246 -1.4334  1.9583  1.0832
 3764SOL     OW22924   2.254   1.214  13.289 -0.4083  0.6067 -0.0928
 3764SOL    HW122925   2.185   1.149  13.274  0.2685  0.0208 -0.6453
 3764SOL    HW222926   2.274   1.203  13.382 -0.3134  1.1826 -0.0481
 3765SOL     OW22927   2.461   2.514   4.685 -0.1385  0.0273 -0.0754
 3765SOL    HW122928   2.525   2.478   4.747 -2.7800 -3.2511  0.7814
 3765SOL    HW222929   2.395   2.544   4.748 -0.8344 -0.1997 -0.7017
 3766SOL     OW22930   3.427   1.899   8.704 -0.7582 -0.3436  0.7331
 3766SOL    HW122931   3.492   1.831   8.692  1.0888  1.6903 -0.8599
 3766SOL    HW222932   3.458   1.962   8.638 -2.3949  0.5204  0.7573
 3767SOL     OW22933   1.660   3.368   5.532  0.0209  0.1364 -0.3562
 3767SOL    HW122934   1.673   3.290   5.585 -1.0929  0.4800  0.4349
 3767SOL    HW222935   1.725   3.429   5.568 -1.3313  2.0903 -1.1826
 3768SOL     OW22936   2.581   0.244   1.519 -0.6281 -0.1509 -0.1727
 3768SOL    HW122937   2.597   0.270   1.609  1.6602 -2.0140 -0.0212
 3768SOL    HW222938   2.486   0.243   1.512 -0.7481  0.4170  1.4003
 3769SOL     OW22939   1.990   3.503   2.348 -0.0494 -0.2354 -0.1792
 3769SOL    HW122940   1.944   3.421   2.366 -0.0784 -0.7267 -2.4643
 3769SOL    HW222941   2.041   3.465   2.277 -1.1120 -1.5406 -0.2449
 3770SOL     OW22942   3.640   3.523   6.945  0.1051  0.1402  0.1510
 3770SOL    HW122943   3.686   3.440   6.959  0.9672  0.5492 -0.2308
 3770SOL    HW222944   3.706   3.560   6.887  1.0875 -1.4585  0.2526
 3771SOL     OW22945   0.592   0.711  14.111 -0.7891 -0.0654 -0.8910
 3771SOL    HW122946   0.668   0.697  14.055 -0.1139 -0.5493  0.1380
 3771SOL    HW222947   0.571   0.797  14.075 -3.2764  0.1884  1.1386
 3772SOL     OW22948   0.387   3.211  17.496  0.2198 -0.6892 -0.4856
 3772SOL    HW122949   0.345   3.292  17.523  1.5845  0.2292 -1.1408
 3772SOL    HW222950   0.317   3.165  17.449  0.3874 -0.5218 -0.8984
 3773SOL     OW22951   1.310   2.975   1.069 -0.1923  0.0737 -0.4088
 3773SOL    HW122952   1.229   3.025   1.068 -0.7762 -0.9054 -1.6919
 3773SOL    HW222953   1.285   2.889   1.102 -1.1987  1.8061  3.3094
 3774SOL     OW22954   4.029   1.734   3.790  0.4110 -0.3418  0.5126
 3774SOL    HW122955   4.034   1.639   3.777 -0.0579 -0.2108 -0.6894
 3774SOL    HW222956   4.089   1.738   3.864  1.1936 -1.5757 -0.0491
 3775SOL     OW22957   0.081   2.656   7.168  0.5390 -0.1900 -0.0733
 3775SOL    HW122958   0.066   2.725   7.103  0.5574  1.4511  1.6572
 3775SOL    HW222959   0.157   2.618   7.123  0.5379 -2.2200  1.6143
 3776SOL     OW22960   4.003   3.535   1.278 -0.0884  0.1238 -0.2185
 3776SOL    HW122961   4.056   3.608   1.246 -1.0357  1.7657  2.0067
 3776SOL    HW222962   4.069   3.467   1.269  0.8515  0.7748  1.9645
 3777SOL     OW22963   4.309   1.574   6.050  0.2746 -0.2784  0.0067
 3777SOL    HW122964   4.216   1.569   6.068 -0.1135 -3.6938 -2.9949
 3777SOL    HW222965   4.330   1.505   6.113 -1.2493 -1.3185 -0.6183
 3778SOL     OW22966   0.190   3.214   2.529  0.0776  0.7234 -0.3448
 3778SOL    HW122967   0.125   3.182   2.592 -0.2896  3.6396  0.7649
 3778SOL    HW222968   0.204   3.130   2.485  1.3276  0.3534  0.7612
 3779SOL     OW22969   0.950   3.986   4.445 -0.5300 -0.3334  0.2675
 3779SOL    HW122970   0.954   4.005   4.539  0.7918 -1.4498  0.4292
 3779SOL    HW222971   0.972   3.894   4.435 -0.5847 -0.1210 -1.7811
 3780SOL     OW22972   4.503   2.466  17.014  0.2719 -0.5130 -0.4337
 3780SOL    HW122973   4.481   2.437  16.926  0.9460 -2.2094 -0.0343
 3780SOL    HW222974   4.548   2.542  16.978 -0.8819  0.4493  0.1683
 3781SOL     OW22975   4.156   0.771  15.982  0.3007  0.8622 -0.2142
 3781SOL    HW122976   4.172   0.688  15.936  0.6854  1.0370 -0.3966
 3781SOL    HW222977   4.142   0.835  15.912  0.4978  1.3243  0.1658
 3782SOL     OW22978   1.807   2.254   8.804  0.0650  0.7117  0.2712
 3782SOL    HW122979   1.792   2.160   8.807  3.4267  0.1228 -1.6286
 3782SOL    HW222980   1.808   2.276   8.897  0.5688 -0.3439  0.5149
 3783SOL     OW22981   1.322   0.942   5.830  0.3244  0.0551 -0.0204
 3783SOL    HW122982   1.286   0.995   5.758  2.4665 -0.0373 -1.1573
 3783SOL    HW222983   1.410   0.941   5.793  0.1665 -2.9153 -0.3042
 3784SOL     OW22984   1.768   4.256   1.103 -0.7684 -0.0942  0.3109
 3784SOL    HW122985   1.687   4.247   1.152 -1.4359 -0.1257 -0.8111
 3784SOL    HW222986   1.746   4.309   1.026 -0.6501  1.7627  1.5660
 3785SOL     OW22987   2.045   4.497   7.800  0.0905  0.1086  0.0562
 3785SOL    HW122988   2.135   4.526   7.790  1.0040 -2.2905  1.2434
 3785SOL    HW222989   2.005   4.566   7.747  0.8853  0.7713  0.3270
 3786SOL     OW22990   0.264   2.512   1.628 -0.1487  0.7511 -0.1487
 3786SOL    HW122991   0.169   2.497   1.626 -0.2633  1.3904  0.4092
 3786SOL    HW222992   0.266   2.490   1.721 -0.3339  3.2112  0.4431
 3787SOL     OW22993   0.866   3.842   7.161 -0.7576  0.5874  0.1242
 3787SOL    HW122994   0.817   3.804   7.234  0.5447 -2.1026 -0.3901
 3787SOL    HW222995   0.949   3.795   7.157 -0.8507  0.3784  0.5934
 3788SOL     OW22996   1.302   2.369   1.798 -0.3283  0.2138 -0.1386
 3788SOL    HW122997   1.362   2.304   1.761  0.4191  0.5077  0.5500
 3788SOL    HW222998   1.374   2.415   1.841 -1.1540 -0.0848  1.5704
 3789SOL     OW22999   4.055   4.085   5.288  0.8787 -0.1042 -0.3872
 3789SOL    HW123000   3.990   4.124   5.347  0.8740  0.1045 -0.5302
 3789SOL    HW223001   3.996   4.038   5.229  1.3595  2.0733 -2.5771
 3790SOL     OW23002   3.541   4.357   4.433 -0.2896 -0.3191  0.3524
 3790SOL    HW123003   3.548   4.278   4.486  1.9078 -1.7060 -2.0251
 3790SOL    HW223004   3.566   4.428   4.492  0.4230  0.8667 -1.3731
 3791SOL     OW23005   2.805   4.563   9.096  0.0197 -0.7285 -0.6203
 3791SOL    HW123006   2.781   4.523   9.179 -0.3456  0.5890 -0.0980
 3791SOL    HW223007   2.723   4.541   9.053 -0.1876  1.0476 -1.1439
 3792SOL     OW23008   2.390   2.243   2.779  0.3197  0.3915  0.2165
 3792SOL    HW123009   2.454   2.314   2.785 -0.1283  1.1024 -3.6873
 3792SOL    HW223010   2.361   2.233   2.870 -0.0490 -0.0984  0.0462
 3793SOL     OW23011   4.530   2.444   4.401  0.4982 -0.1675 -0.3071
 3793SOL    HW123012   4.554   2.462   4.492  0.1372 -0.7501 -0.0935
 3793SOL    HW223013   4.497   2.532   4.381  1.5866  0.1781 -0.5621
 3794SOL     OW23014   3.884   0.787   5.559  0.0658 -0.0227  0.8393
 3794SOL    HW123015   3.790   0.776   5.544  0.5129 -1.2018 -1.1544
 3794SOL    HW223016   3.922   0.705   5.527  0.8724  1.1503 -1.2128
 3795SOL     OW23017   4.217   4.181   8.784  0.4489 -0.1001  0.5752
 3795SOL    HW123018   4.211   4.270   8.817  1.3552 -0.4215  1.5890
 3795SOL    HW223019   4.127   4.171   8.752  0.8984 -2.4381 -0.0019
 3796SOL     OW23020   1.110   2.704   6.382  0.1779  0.3684 -0.3049
 3796SOL    HW123021   1.147   2.636   6.325 -0.7360  0.8692 -1.5035
 3796SOL    HW223022   1.112   2.778   6.321  0.1232  1.0538  0.5284
 3797SOL     OW23023   3.766   0.095   1.936  0.2746  0.0176 -0.3185
 3797SOL    HW123024   3.703   0.131   1.874 -0.9721 -2.7402 -0.6645
 3797SOL    HW223025   3.767   0.005   1.902  0.5949  0.1789 -0.7418
 3798SOL     OW23026   1.284   4.420   6.140  0.2292 -0.0138 -0.1698
 3798SOL    HW123027   1.242   4.481   6.080 -0.6413  1.5282  2.0111
 3798SOL    HW223028   1.334   4.484   6.190  0.0072 -1.0303  1.3628
 3799SOL     OW23029   0.512   2.859  11.905 -0.1849  0.6685 -0.3170
 3799SOL    HW123030   0.536   2.887  11.817  2.2940 -2.1398 -0.5196
 3799SOL    HW223031   0.570   2.784  11.915 -1.5660 -0.3939 -0.2667
 3800SOL     OW23032   1.277   1.864   4.230 -0.1075 -0.7874  0.5895
 3800SOL    HW123033   1.307   1.943   4.274 -1.7883 -0.7796  1.7083
 3800SOL    HW223034   1.182   1.871   4.230 -0.0339  0.1629  0.4021
 3801SOL     OW23035   4.158   2.042   3.114  0.3013 -0.1104 -0.7332
 3801SOL    HW123036   4.201   1.979   3.056 -1.1234 -1.7948  0.0419
 3801SOL    HW223037   4.145   2.117   3.056  1.8235  2.0879  1.7630
 3802SOL     OW23038   0.906   1.851   8.333 -0.4547 -0.5676 -0.5146
 3802SOL    HW123039   0.987   1.868   8.285 -0.6958  1.4081 -0.2237
 3802SOL    HW223040   0.922   1.767   8.375  0.7022 -0.2795 -0.4042
 3803SOL     OW23041   4.047   2.291   7.578 -0.3953 -0.1996  0.1236
 3803SOL    HW123042   4.006   2.204   7.574 -2.1916  0.6237  0.8415
 3803SOL    HW223043   4.118   2.285   7.513 -0.3110 -3.0638  0.4504
 3804SOL     OW23044   0.309   1.051  15.629  0.3105 -0.1013 -0.0930
 3804SOL    HW123045   0.215   1.033  15.629  0.6403 -1.8536  1.0904
 3804SOL    HW223046   0.347   0.989  15.567 -0.4661  0.7225 -1.3715
 3805SOL     OW23047   1.301   1.216   7.011 -0.0738 -0.1523  0.1511
 3805SOL    HW123048   1.384   1.247   6.976  1.1113 -1.6082  1.6816
 3805SOL    HW223049   1.258   1.207   6.926 -0.7656  3.1664  0.1364
 3806SOL     OW23050   4.530   4.277   3.816 -0.0270  0.4983  1.0298
 3806SOL    HW123051   4.519   4.239   3.903  1.1244  0.2465  1.0789
 3806SOL    HW223052   4.572   4.198   3.781 -1.8943  0.3447 -0.8323
 3807SOL     OW23053   1.631   0.510   7.897 -0.5185  0.1626 -0.2783
 3807SOL    HW123054   1.617   0.567   7.973  1.4442  1.0733 -0.5785
 3807SOL    HW223055   1.713   0.471   7.927 -0.6327  0.1512  0.0180
 3808SOL     OW23056   1.795   0.341   4.010  0.5871  0.7881  0.0083
 3808SOL    HW123057   1.739   0.265   4.023  1.1274  0.3478 -0.2375
 3808SOL    HW223058   1.872   0.312   3.961  0.8328  0.8543  0.3605
 3809SOL     OW23059   1.962   1.161   0.918 -0.5569 -0.3062 -0.4806
 3809SOL    HW123060   2.034   1.198   0.969 -1.7159  0.1190  0.8507
 3809SOL    HW223061   1.985   1.199   0.833  5.7657 -0.8474  1.0596
 3810SOL     OW23062   0.664   2.658   1.212 -0.2925  0.1110  0.2163
 3810SOL    HW123063   0.605   2.586   1.190 -0.3873  1.0324 -2.6378
 3810SOL    HW223064   0.677   2.645   1.305 -2.3568  1.1259  0.6498
 3811SOL     OW23065   0.029   0.033  16.114  0.1027  0.4612  0.2470
 3811SOL    HW123066   0.112   0.021  16.161 -0.1036  1.2771  0.8218
 3811SOL    HW223067   0.007   0.126  16.126 -0.9404  0.1751  0.5994
 3812SOL     OW23068   3.088   1.495   4.976 -0.0762  0.5384  0.4628
 3812SOL    HW123069   3.151   1.451   4.919 -0.5762  0.3701  0.0430
 3812SOL    HW223070   3.149   1.520   5.045  0.7036  0.1123 -0.0592
 3813SOL     OW23071   0.456   2.192   2.356 -0.1628  0.3045  0.4081
 3813SOL    HW123072   0.452   2.160   2.446  0.4689  0.8454  0.6260
 3813SOL    HW223073   0.368   2.172   2.324  0.3369 -1.3895  0.0792
 3814SOL     OW23074   0.274   2.463   4.203  0.4075  0.0112  0.7586
 3814SOL    HW123075   0.277   2.390   4.142 -2.5153  2.2985 -2.1713
 3814SOL    HW223076   0.197   2.513   4.177 -0.1353 -0.8204  0.7859
 3815SOL     OW23077   0.048   3.109   2.735  0.7785  0.2786  0.4287
 3815SOL    HW123078   0.128   3.066   2.764  2.0515  1.1496 -1.8027
 3815SOL    HW223079   4.719   3.062   2.783  2.5855 -1.2725  1.5037
 3816SOL     OW23080   3.258   3.289   2.120 -0.4935 -0.2549 -0.6274
 3816SOL    HW123081   3.270   3.310   2.028  1.8961  0.8946 -0.0440
 3816SOL    HW223082   3.164   3.270   2.114 -0.8605  1.7003 -0.9392
 3817SOL     OW23083   0.164   3.337   6.926  0.0594 -1.2644  0.3338
 3817SOL    HW123084   0.244   3.347   6.978 -0.9387 -1.2829  1.8453
 3817SOL    HW223085   0.180   3.251   6.885 -1.1756 -1.3719  0.0953
 3818SOL     OW23086   4.659   2.373   1.575  0.5344  0.1798 -0.6370
 3818SOL    HW123087   4.658   2.423   1.494  0.5546 -3.1131 -2.6653
 3818SOL    HW223088   4.662   2.440   1.643  1.9186 -1.8241  1.2657
 3819SOL     OW23089   4.703   4.685  13.519 -0.3320 -0.3607 -0.4758
 3819SOL    HW123090   4.730   4.625  13.448  2.1461 -0.3503  0.4731
 3819SOL    HW223091   0.050   4.696  13.557 -0.1392 -1.9206 -0.4369
 3820SOL     OW23092   4.080   1.661   4.526 -0.1165  0.5216 -0.0463
 3820SOL    HW123093   4.074   1.601   4.600 -2.0287 -0.5411 -1.0516
 3820SOL    HW223094   4.023   1.624   4.459  1.1492 -2.0785  0.3142
 3821SOL     OW23095   1.744   0.290   7.079  0.1448 -0.2905  0.3992
 3821SOL    HW123096   1.713   0.378   7.097  0.4984  0.3788 -2.2466
 3821SOL    HW223097   1.701   0.230   7.139 -0.4586  1.4531  1.7000
 3822SOL     OW23098   0.738   1.403   2.782 -0.2405 -0.2779  0.1523
 3822SOL    HW123099   0.680   1.434   2.713 -1.4996  0.4953  1.5447
 3822SOL    HW223100   0.817   1.430   2.734 -0.1979 -1.7465 -0.6043
 3823SOL     OW23101   0.266   2.851   3.359 -0.2023 -0.7512 -0.1616
 3823SOL    HW123102   0.270   2.756   3.369 -0.0936 -0.8211 -0.9413
 3823SOL    HW223103   0.183   2.886   3.393  1.0435  2.1427 -0.1006
 3824SOL     OW23104   1.800   3.970   5.572  0.0818  0.0677  0.0286
 3824SOL    HW123105   1.765   3.964   5.661 -0.1535  1.0685  0.0042
 3824SOL    HW223106   1.757   4.050   5.541  1.1532 -0.1556 -2.0365
 3825SOL     OW23107   4.533   0.914   9.130  0.4273  0.0435  0.0129
 3825SOL    HW123108   4.487   0.994   9.154  3.3855  0.7240  3.3358
 3825SOL    HW223109   4.506   0.913   9.038  0.0496  0.4543  0.1154
 3826SOL     OW23110   0.907   4.429  16.210  0.1264 -0.4217  0.7515
 3826SOL    HW123111   0.925   4.507  16.263  0.9614 -1.3030  1.7618
 3826SOL    HW223112   0.981   4.416  16.151  0.9119  0.4175  1.5526
 3827SOL     OW23113   3.214   2.964   3.445 -0.6199 -0.1704  0.4206
 3827SOL    HW123114   3.291   2.995   3.399 -2.5416  1.3327 -1.8087
 3827SOL    HW223115   3.174   2.922   3.369 -0.4862 -1.3212  0.9944
 3828SOL     OW23116   1.516   3.721   1.069  0.5563  1.0089  0.3682
 3828SOL    HW123117   1.506   3.793   1.132 -2.6691  2.1836 -1.4829
 3828SOL    HW223118   1.451   3.667   1.113  2.8298 -1.4197  0.7467
 3829SOL     OW23119   3.918   4.270   0.139  0.6369  0.9216  0.7125
 3829SOL    HW123120   3.947   4.322   0.214 -0.0776  1.3188  0.7121
 3829SOL    HW223121   3.932   4.182   0.173 -0.3338  1.9899  3.8203
 3830SOL     OW23122   3.858   1.313   4.626 -0.0462  0.3828 -0.1176
 3830SOL    HW123123   3.940   1.339   4.583  1.2523 -1.6499  1.1488
 3830SOL    HW223124   3.804   1.286   4.552 -0.9168  2.2465 -0.1609
 3831SOL     OW23125   1.626   1.756  11.781 -0.3998 -0.9256 -0.2669
 3831SOL    HW123126   1.716   1.752  11.748 -0.1275 -1.2387  0.5150
 3831SOL    HW223127   1.573   1.753  11.702 -0.1533 -3.6543 -0.3289
 3832SOL     OW23128   3.085   0.633  17.606 -0.0299  0.2871 -0.1495
 3832SOL    HW123129   3.087   0.728  17.616 -2.0182  0.1521  1.5377
 3832SOL    HW223130   3.161   0.614  17.551  1.0007 -3.2189  2.4424
 3833SOL     OW23131   2.918   0.715   5.374 -0.2738 -0.1454  0.6909
 3833SOL    HW123132   2.903   0.707   5.468  0.9170  0.7507  0.9621
 3833SOL    HW223133   3.005   0.754   5.374 -1.1733  1.8816 -3.2219
 3834SOL     OW23134   4.094   3.787   6.262 -0.0542 -0.2414  0.6479
 3834SOL    HW123135   4.156   3.844   6.216 -0.6925 -1.7847 -2.1119
 3834SOL    HW223136   4.102   3.817   6.353  1.7832 -0.1882  0.4652
 3835SOL     OW23137   1.268   0.260   9.314  0.1976  0.0622  0.4973
 3835SOL    HW123138   1.252   0.297   9.228 -0.8280 -0.9636  0.2454
 3835SOL    HW223139   1.235   0.170   9.306  0.4770 -0.0717  0.8393
 3836SOL     OW23140   1.247   2.591   5.763 -0.2134  0.1168  0.7536
 3836SOL    HW123141   1.191   2.586   5.840  0.4348  0.3869  1.2433
 3836SOL    HW223142   1.333   2.572   5.802 -0.8231 -1.7182  1.1886
 3837SOL     OW23143   0.686   1.060   2.220 -0.2576  0.0977  0.2067
 3837SOL    HW123144   0.618   1.127   2.226  0.4811  0.6290  2.7869
 3837SOL    HW223145   0.630   0.986   2.244 -0.5912 -0.6763 -2.9287
 3838SOL     OW23146   3.373   3.242  15.742  0.5536  0.6098 -0.5572
 3838SOL    HW123147   3.420   3.216  15.821  0.9059 -0.8074 -1.2410
 3838SOL    HW223148   3.455   3.255  15.695 -0.0165  0.5656 -1.5782
 3839SOL     OW23149   4.571   3.029   9.854 -0.1947  0.0757 -0.5195
 3839SOL    HW123150   4.544   2.938   9.838  0.8259 -0.1764 -0.8002
 3839SOL    HW223151   4.658   3.010   9.890 -0.3904  1.0426  0.4715
 3840SOL     OW23152   0.594   4.147   3.363 -0.3199  0.4309  0.0941
 3840SOL    HW123153   0.683   4.180   3.358  0.2992 -1.4220 -1.4842
 3840SOL    HW223154   0.608   4.064   3.409  3.4962  0.6953 -0.5635
 3841SOL     OW23155   2.979   3.563   5.707  0.0062 -0.2848  0.5296
 3841SOL    HW123156   3.030   3.643   5.691  0.8388 -0.6806  1.2286
 3841SOL    HW223157   2.894   3.588   5.742  1.1610  2.3642  1.4650
 3842SOL     OW23158   4.674   3.531   4.494 -0.1098  0.2827  0.2290
 3842SOL    HW123159   4.606   3.470   4.464 -1.0717  0.4350  2.0964
 3842SOL    HW223160   4.730   3.486   4.557 -0.3442  1.2427  1.1291
 3843SOL     OW23161   3.980   3.057   2.877 -0.5575 -0.1430  0.6398
 3843SOL    HW123162   4.072   3.083   2.877 -1.4614  2.9951  0.8111
 3843SOL    HW223163   3.931   3.111   2.816 -0.7991  0.6219  1.5170
 3844SOL     OW23164   3.443   4.252   1.496  0.1616 -0.6190 -0.2023
 3844SOL    HW123165   3.459   4.270   1.589 -2.6255 -2.5432  0.6603
 3844SOL    HW223166   3.354   4.219   1.490 -0.6073  1.2102  1.1288
 3845SOL     OW23167   3.559   2.903   6.774 -0.1351  0.2745 -0.2220
 3845SOL    HW123168   3.564   2.836   6.842  1.8282 -0.1044 -0.7422
 3845SOL    HW223169   3.571   2.985   6.821 -1.2350  1.1642 -1.4624
 3846SOL     OW23170   1.303   0.233  14.044 -0.9391 -0.0243  0.0970
 3846SOL    HW123171   1.270   0.288  14.114  0.5562 -1.3863  1.8680
 3846SOL    HW223172   1.251   0.257  13.967 -0.4819 -0.5272 -0.3794
 3847SOL     OW23173   3.494   0.134   0.268  0.4727 -0.0719 -0.0169
 3847SOL    HW123174   3.491   0.039   0.284 -0.6516 -0.1967 -0.8918
 3847SOL    HW223175   3.471   0.141   0.175  0.0527  1.6458  0.2181
 3848SOL     OW23176   3.186   3.132   2.972 -0.1106 -0.2601 -0.3538
 3848SOL    HW123177   3.119   3.196   2.994 -0.7147 -1.0542  0.1279
 3848SOL    HW223178   3.262   3.190   2.965 -1.7213  1.6600 -1.6860
 3849SOL     OW23179   3.412   0.521  15.263  0.0947  0.1295 -0.5713
 3849SOL    HW123180   3.483   0.584  15.249  0.2023  0.5157  1.7008
 3849SOL    HW223181   3.468   0.453  15.302 -0.6976 -0.8533 -1.1361
 3850SOL     OW23182   2.375   3.910   7.787  0.3799  0.8770 -0.0393
 3850SOL    HW123183   2.400   3.894   7.696  0.2600  1.7334 -0.2178
 3850SOL    HW223184   2.361   3.820   7.816 -0.5101  0.9258 -0.3254
 3851SOL     OW23185   1.380   1.735   2.983 -0.1601  0.3395  0.0083
 3851SOL    HW123186   1.293   1.729   3.023  0.7946 -1.1335  1.8629
 3851SOL    HW223187   1.428   1.794   3.042 -1.5415  0.1499  1.3320
 3852SOL     OW23188   3.616   3.303   6.047 -0.8362  1.0364 -0.5430
 3852SOL    HW123189   3.555   3.319   6.119  1.1921  0.6298  1.2746
 3852SOL    HW223190   3.574   3.232   5.998 -0.5070 -0.1093  0.8229
 3853SOL     OW23191   3.927   0.701   2.166  0.1409  0.7560  0.3843
 3853SOL    HW123192   3.894   0.611   2.158 -2.1119  1.6208  0.1150
 3853SOL    HW223193   3.851   0.744   2.205  0.4212 -0.0764  1.8390
 3854SOL     OW23194   4.435   4.151   2.616  0.0271  0.3961 -0.4572
 3854SOL    HW123195   4.460   4.243   2.616  1.3787  0.0116  0.6495
 3854SOL    HW223196   4.359   4.146   2.557  0.1381  0.0984 -0.5753
 3855SOL     OW23197   2.200   2.641  16.241  0.1623  0.2099  0.2234
 3855SOL    HW123198   2.153   2.642  16.158 -0.2800 -2.5250  0.4415
 3855SOL    HW223199   2.162   2.721  16.277 -3.6448 -1.0135 -1.0768
 3856SOL     OW23200   0.630   2.434   6.877 -0.2640 -0.8070 -0.3588
 3856SOL    HW123201   0.540   2.403   6.888  0.0751 -2.1667 -1.4936
 3856SOL    HW223202   0.614   2.495   6.805 -0.9607 -1.3157 -0.6267
 3857SOL     OW23203   4.448   3.330  11.077 -0.2263 -0.1952 -0.6046
 3857SOL    HW123204   4.439   3.422  11.049  1.3962  0.1932  0.1602
 3857SOL    HW223205   4.453   3.300  10.986 -0.2096 -3.5588  0.5426
 3858SOL     OW23206   2.143   3.311   1.601  0.6407  0.3066 -0.2809
 3858SOL    HW123207   2.056   3.273   1.609  0.3346  0.9431 -0.5556
 3858SOL    HW223208   2.124   3.405   1.599  0.4347  0.2725  0.0733
 3859SOL     OW23209   2.662   0.030   6.944  0.4686  0.0966  1.0706
 3859SOL    HW123210   2.729   0.082   6.900 -0.3921 -1.6933 -2.4001
 3859SOL    HW223211   2.687   4.689   6.899 -0.7334  0.4719 -0.2672
 3860SOL     OW23212   3.812   0.432   2.149 -0.2823  0.4901 -0.1049
 3860SOL    HW123213   3.732   0.405   2.194 -1.0816  1.6493 -0.8168
 3860SOL    HW223214   3.849   0.351   2.115  0.5433  1.0313 -0.5087
 3861SOL     OW23215   3.757   3.587   2.164 -0.3753  0.3059 -0.1741
 3861SOL    HW123216   3.690   3.566   2.099 -0.2068  3.6944 -1.4439
 3861SOL    HW223217   3.811   3.653   2.122  0.3940 -0.6070 -0.6076
 3862SOL     OW23218   1.968   0.878   2.059 -0.2338  0.3778  0.6952
 3862SOL    HW123219   1.878   0.903   2.037 -0.1938  0.5904  0.7804
 3862SOL    HW223220   2.011   0.960   2.080  1.0497  0.5360 -2.5052
 3863SOL     OW23221   2.619   4.578   9.524  0.0883 -0.4940  0.5584
 3863SOL    HW123222   2.643   4.512   9.589  0.7105 -2.1786 -1.3989
 3863SOL    HW223223   2.645   4.649   9.583 -1.2656  0.6362 -0.1977
 3864SOL     OW23224   0.060   2.983   0.051 -0.1343  0.0549 -0.2729
 3864SOL    HW123225   0.111   2.957  17.731 -3.6517 -3.8466 -1.2989
 3864SOL    HW223226   4.727   3.028   0.009 -0.7057  1.2490  2.0195
 3865SOL     OW23227   1.022   4.369   4.401 -0.5895  0.2408 -0.0430
 3865SOL    HW123228   1.090   4.371   4.468  0.9047 -1.9598 -1.4867
 3865SOL    HW223229   1.061   4.317   4.330 -2.9271 -1.7222  0.0971
 3866SOL     OW23230   1.188   1.186   2.871  0.4188 -0.2195 -0.0892
 3866SOL    HW123231   1.255   1.172   2.805  0.1441 -1.9919 -0.0098
 3866SOL    HW223232   1.113   1.222   2.824 -0.5310 -0.1061  1.5116
 3867SOL     OW23233   3.522   3.103   4.165  0.4337 -0.8335  0.5359
 3867SOL    HW123234   3.601   3.138   4.124 -0.9449  0.8795 -0.6686
 3867SOL    HW223235   3.465   3.068   4.096 -0.5768  0.2182  0.8516
 3868SOL     OW23236   1.717   2.383   7.638  0.1379  0.2704  0.3157
 3868SOL    HW123237   1.744   2.293   7.620  1.3843  0.8981 -1.0213
 3868SOL    HW223238   1.673   2.376   7.722  2.3167 -2.2645  1.2316
 3869SOL     OW23239   0.844   3.798  16.099  0.3637  0.0758  0.1664
 3869SOL    HW123240   0.889   3.761  16.176  0.4244  1.6779  0.9010
 3869SOL    HW223241   0.759   3.756  16.110  0.4892  0.4567  2.7840
 3870SOL     OW23242   1.363   1.349  15.169  0.5414 -0.6773 -0.5066
 3870SOL    HW123243   1.313   1.359  15.250 -0.0089 -0.1935 -0.9019
 3870SOL    HW223244   1.313   1.287  15.116 -1.1118 -0.0769  0.3486
 3871SOL     OW23245   0.436   1.666   0.420 -0.0666  0.1564 -0.4068
 3871SOL    HW123246   0.434   1.759   0.397  0.5057  0.8120  2.1896
 3871SOL    HW223247   0.389   1.681   0.503  2.2899  1.4595  0.6983
 3872SOL     OW23248   3.127   4.211   7.766 -0.7709 -0.6893  0.0692
 3872SOL    HW123249   3.169   4.295   7.781 -2.0892  0.2117 -1.3029
 3872SOL    HW223250   3.093   4.233   7.679  0.7253 -2.0834 -0.8821
 3873SOL     OW23251   2.251   0.403  12.597 -0.0927 -0.4705 -0.5308
 3873SOL    HW123252   2.273   0.314  12.624  1.1416  0.0208  0.0444
 3873SOL    HW223253   2.159   0.392  12.570 -0.9399  0.7914  1.8642
 3874SOL     OW23254   4.106   3.473   5.301 -0.2042 -0.0342  0.4603
 3874SOL    HW123255   4.069   3.411   5.238 -1.7444  1.8954 -0.5323
 3874SOL    HW223256   4.049   3.548   5.287 -1.1130 -0.6741  0.7825
 3875SOL     OW23257   2.304   0.318  10.757 -0.0383 -0.0260 -0.2333
 3875SOL    HW123258   2.278   0.229  10.732 -0.4229 -0.0372  0.1976
 3875SOL    HW223259   2.275   0.371  10.683  0.5173  1.6004  0.7192
 3876SOL     OW23260   2.394   3.335   4.290  0.5588 -0.3949 -0.2700
 3876SOL    HW123261   2.467   3.272   4.297 -1.0118 -2.1973 -0.0954
 3876SOL    HW223262   2.344   3.273   4.238 -0.5167 -0.2978  0.6481
 3877SOL     OW23263   4.706   0.828  13.017  0.5464  0.1933  0.6542
 3877SOL    HW123264   4.632   0.784  13.059 -0.0188  2.7339  2.2622
 3877SOL    HW223265   0.010   0.854  13.098  0.7722 -2.1087  1.2798
 3878SOL     OW23266   2.384   4.413   8.813 -0.1159 -0.8238 -0.4731
 3878SOL    HW123267   2.306   4.357   8.811 -0.5921 -0.1350 -0.9652
 3878SOL    HW223268   2.456   4.363   8.776  1.3312  0.5268  0.5539
 3879SOL     OW23269   3.643   2.035   6.402 -0.2124 -0.0802 -0.2707
 3879SOL    HW123270   3.551   2.012   6.414  0.3291 -0.6355  2.9021
 3879SOL    HW223271   3.639   2.131   6.402 -0.9135 -0.1069 -1.6184
 3880SOL     OW23272   0.635   1.321   9.815  0.5482  0.7357 -0.4515
 3880SOL    HW123273   0.554   1.350   9.774  0.2805  0.9825  0.2561
 3880SOL    HW223274   0.696   1.375   9.765  0.3180 -0.3142 -1.8686
 3881SOL     OW23275   1.621   1.849  16.389 -0.7060  0.2233 -0.4039
 3881SOL    HW123276   1.658   1.843  16.301 -0.3873  0.1064 -0.2637
 3881SOL    HW223277   1.580   1.764  16.400 -0.3268  0.0371 -0.4473
 3882SOL     OW23278   0.477   4.626  17.120  0.8028  0.0990  0.3786
 3882SOL    HW123279   0.415   4.577  17.067 -0.0357 -0.3127  1.7460
 3882SOL    HW223280   0.522   4.671  17.048  0.4147  0.6481  0.4846
 3883SOL     OW23281   4.266   3.194   5.190 -0.3150 -0.0071 -0.1649
 3883SOL    HW123282   4.174   3.175   5.207 -0.3177  1.1109  1.0083
 3883SOL    HW223283   4.308   3.109   5.176 -1.7097 -0.5951 -0.8165
 3884SOL     OW23284   3.438   4.704  17.118  0.7774 -0.8999 -0.4036
 3884SOL    HW123285   3.404   4.618  17.144  0.2420 -0.4706  0.2959
 3884SOL    HW223286   3.517   4.671  17.073  0.0704 -1.6260 -1.1222
 3885SOL     OW23287   1.507   3.314   6.949  0.2027 -0.1514  0.1921
 3885SOL    HW123288   1.504   3.406   6.976 -1.4160 -0.6532  1.7415
 3885SOL    HW223289   1.558   3.320   6.869  2.3090  2.1783  1.7133
 3886SOL     OW23290   1.654   1.308   9.498  0.5178  0.1603 -0.3353
 3886SOL    HW123291   1.581   1.280   9.553  0.6587  1.7245  0.6510
 3886SOL    HW223292   1.688   1.222   9.474  2.8870  0.8198  0.6668
 3887SOL     OW23293   1.283   0.888   9.278  0.3891  0.0448 -0.6564
 3887SOL    HW123294   1.347   0.885   9.350 -2.4171  1.4252  1.8907
 3887SOL    HW223295   1.206   0.838   9.305  1.1560 -0.3900  0.7853
 3888SOL     OW23296   0.099   3.833  11.374  0.1911  0.0323  0.4602
 3888SOL    HW123297   0.006   3.813  11.363 -0.1144 -0.1549  3.4107
 3888SOL    HW223298   0.133   3.765  11.432 -1.0730 -1.1156 -0.1383
 3889SOL     OW23299   2.509   4.477   3.684  0.0737 -1.0626 -0.1794
 3889SOL    HW123300   2.577   4.484   3.617 -0.4623 -0.2219 -0.6315
 3889SOL    HW223301   2.506   4.562   3.727  1.4171 -1.1561  0.0928
 3890SOL     OW23302   4.716   1.848   6.759 -1.1106  0.1087 -0.2269
 3890SOL    HW123303   0.021   1.928   6.787 -1.0698 -0.2378  0.6901
 3890SOL    HW223304   0.049   1.787   6.750 -1.6420 -0.1072 -2.9813
 3891SOL     OW23305   2.245   2.837   2.225  0.0574 -0.2718  0.0546
 3891SOL    HW123306   2.281   2.925   2.233  0.1043 -0.3955  1.0888
 3891SOL    HW223307   2.206   2.815   2.309 -3.2626 -0.5522 -1.5350
 3892SOL     OW23308   4.223   2.294   7.368  0.1350 -0.0644  0.5089
 3892SOL    HW123309   4.311   2.331   7.367 -0.5748  1.4958 -2.5539
 3892SOL    HW223310   4.209   2.235   7.294  0.1195 -2.0469  2.0782
 3893SOL     OW23311   3.941   0.050   5.775 -0.1650  0.1685 -0.2683
 3893SOL    HW123312   3.973   4.707   5.811 -0.8898 -0.8709 -2.0299
 3893SOL    HW223313   3.856   0.068   5.815 -0.1707 -1.8844  0.6392
 3894SOL     OW23314   2.554   0.504   7.348 -1.2041 -0.0039  0.9343
 3894SOL    HW123315   2.621   0.570   7.330  0.4226 -1.7810  0.4255
 3894SOL    HW223316   2.569   0.436   7.282 -0.1576 -0.2526  1.4369
 3895SOL     OW23317   3.187   2.419   5.827 -0.0569 -0.2363 -0.2796
 3895SOL    HW123318   3.148   2.425   5.740 -0.7293  1.8844  0.1817
 3895SOL    HW223319   3.258   2.483   5.820  0.5615 -0.6550  2.0798
 3896SOL     OW23320   4.353   1.223   3.760 -0.5246 -0.1679  0.2310
 3896SOL    HW123321   4.344   1.246   3.668  0.4920  0.9355  0.4069
 3896SOL    HW223322   4.382   1.305   3.800 -2.2414 -0.2605  1.6763
 3897SOL     OW23323   2.240   1.251   5.443  0.0138 -0.2693 -0.4419
 3897SOL    HW123324   2.330   1.233   5.416 -1.0012 -2.0363 -2.6974
 3897SOL    HW223325   2.248   1.249   5.538  1.2346 -2.7292 -0.6089
 3898SOL     OW23326   2.230   2.940  13.282  0.0746 -0.3605  0.3002
 3898SOL    HW123327   2.260   2.898  13.201  1.3680  0.7848  0.1903
 3898SOL    HW223328   2.230   2.858  13.332 -2.9793 -0.3203  0.3302
 3899SOL     OW23329   1.519   3.461   9.132 -0.1893 -0.4806 -0.3218
 3899SOL    HW123330   1.424   3.462   9.136 -0.1634 -0.4529  0.2158
 3899SOL    HW223331   1.523   3.389   9.069 -2.0796 -0.4215 -0.4878
 3900SOL     OW23332   2.337   2.096  16.805 -0.0999 -0.0778 -0.0472
 3900SOL    HW123333   2.322   2.023  16.745  1.0260  0.0916 -0.5404
 3900SOL    HW223334   2.282   2.160  16.759  0.5979 -1.3034 -2.6311
 3901SOL     OW23335   1.268   0.699   2.338  0.5288  0.1338 -0.3815
 3901SOL    HW123336   1.253   0.720   2.246 -0.8076 -1.2919 -0.4902
 3901SOL    HW223337   1.225   0.773   2.379  0.9617  0.4977 -0.5797
 3902SOL     OW23338   0.676   0.684  12.081  0.2748  0.3569 -0.1203
 3902SOL    HW123339   0.581   0.675  12.068  0.4005 -0.6715 -0.3368
 3902SOL    HW223340   0.705   0.594  12.096  3.5176  1.4173  0.0237
 3903SOL     OW23341   1.674   3.847  15.734 -0.0764 -0.0194 -0.6880
 3903SOL    HW123342   1.643   3.938  15.738 -3.3663 -1.0891 -2.1603
 3903SOL    HW223343   1.623   3.816  15.808 -0.3192  2.8912  0.3533
 3904SOL     OW23344   3.933   3.709  15.097  0.2575 -0.0276  0.1792
 3904SOL    HW123345   3.886   3.786  15.065 -0.3036 -0.8295 -0.9047
 3904SOL    HW223346   3.877   3.686  15.171  0.6300  0.7378  0.7055
 3905SOL     OW23347   4.588   2.900   4.415  0.7205  0.1879 -0.3395
 3905SOL    HW123348   4.598   2.984   4.460 -0.4662  0.6468 -0.9289
 3905SOL    HW223349   4.677   2.879   4.390  0.9507 -1.8791  2.1682
 3906SOL     OW23350   0.537   3.458   2.583 -0.6841  0.4136 -0.5939
 3906SOL    HW123351   0.529   3.443   2.489 -0.8364  0.3341 -0.5688
 3906SOL    HW223352   0.444   3.458   2.606 -0.5705  0.9346 -0.1318
 3907SOL     OW23353   0.324   4.163   2.727 -0.3119  0.6913 -0.5694
 3907SOL    HW123354   0.331   4.070   2.747 -0.4484  0.4541 -1.6480
 3907SOL    HW223355   0.232   4.181   2.751 -0.7308  0.9134 -2.3492
 3908SOL     OW23356   2.627   2.030   2.502 -0.2058 -0.1046 -0.3093
 3908SOL    HW123357   2.632   2.065   2.591  1.5159  0.1110 -0.5040
 3908SOL    HW223358   2.547   2.067   2.464 -0.8640  1.2638  2.3963
 3909SOL     OW23359   1.347   4.404   2.277  0.4989  0.1474  0.1950
 3909SOL    HW123360   1.395   4.322   2.268  1.7192  0.7572  1.1297
 3909SOL    HW223361   1.367   4.445   2.193  0.7864 -0.4048 -0.0037
 3910SOL     OW23362   4.064   0.600  13.171  0.0065 -0.1082 -0.1702
 3910SOL    HW123363   4.125   0.666  13.139 -0.6764  0.6855  0.1718
 3910SOL    HW223364   3.980   0.645  13.173 -0.4842 -1.0605  0.8611
 3911SOL     OW23365   3.933   3.882  16.347  0.2820 -0.0569 -0.1017
 3911SOL    HW123366   3.932   3.790  16.375  0.7649 -0.3794 -1.1471
 3911SOL    HW223367   3.918   3.928  16.429 -1.3536 -0.5231 -0.1291
 3912SOL     OW23368   0.758   0.898   5.657 -0.0703 -0.0058  0.2284
 3912SOL    HW123369   0.814   0.976   5.651 -0.1198 -0.1393 -1.8278
 3912SOL    HW223370   0.690   0.924   5.719  1.6646  0.2422  2.0623
 3913SOL     OW23371   4.048   3.888   5.065  0.0425  0.1133  0.0231
 3913SOL    HW123372   4.090   3.803   5.052  0.8239  0.3153  1.2981
 3913SOL    HW223373   4.099   3.950   5.013 -0.4998  0.4164 -0.1474
 3914SOL     OW23374   1.491   2.179  15.257  0.3168  0.1640  0.8438
 3914SOL    HW123375   1.530   2.140  15.179  0.0200  1.7147 -0.0847
 3914SOL    HW223376   1.472   2.266  15.223  0.5186 -0.1046  0.0416
 3915SOL     OW23377   1.743   2.660   8.784 -0.5435  0.2417  0.3710
 3915SOL    HW123378   1.798   2.720   8.734 -0.2758 -1.4734 -1.4060
 3915SOL    HW223379   1.719   2.589   8.725 -0.3305  0.4967 -0.0179
 3916SOL     OW23380   3.728   0.186   4.636  0.6886 -0.1846  0.0284
 3916SOL    HW123381   3.719   0.115   4.699  1.3734 -0.3993 -0.1138
 3916SOL    HW223382   3.821   0.206   4.649  0.8863 -0.9183 -0.2567
 3917SOL     OW23383   0.340   2.978  12.284  0.0389 -0.5451  0.4117
 3917SOL    HW123384   0.402   3.000  12.214  0.8432 -0.4044  1.1764
 3917SOL    HW223385   0.395   3.010  12.355  0.8148  0.3103 -0.5831
 3918SOL     OW23386   3.201   4.117   1.496  0.2374  0.5689  0.1394
 3918SOL    HW123387   3.211   4.067   1.415  0.9178  1.7400 -0.5003
 3918SOL    HW223388   3.107   4.119   1.513 -0.2563  0.9173 -2.6397
 3919SOL     OW23389   1.245   4.544   6.551  0.5018  0.4771  0.0710
 3919SOL    HW123390   1.266   4.629   6.588 -0.1846  0.2840  0.9132
 3919SOL    HW223391   1.290   4.557   6.468 -1.3557  1.3232 -0.8079
 3920SOL     OW23392   1.120   1.470  16.841  0.4273 -0.2648 -0.1977
 3920SOL    HW123393   1.044   1.426  16.878  0.0651  1.8360  1.5536
 3920SOL    HW223394   1.112   1.553  16.889 -0.0649 -0.0496 -0.6524
 3921SOL     OW23395   1.845   2.897   1.497  0.1551  0.0359  0.2877
 3921SOL    HW123396   1.797   2.896   1.414  0.3267  0.2623  0.1868
 3921SOL    HW223397   1.910   2.966   1.483  0.5955 -0.3681  0.3162
 3922SOL     OW23398   1.333   1.901   9.830  0.4446  0.1461  0.0666
 3922SOL    HW123399   1.414   1.947   9.806 -0.3659  0.8857 -1.2987
 3922SOL    HW223400   1.370   1.825   9.875  0.7244 -0.0048 -0.4169
 3923SOL     OW23401   2.209   4.140   6.761  0.0554 -0.5274  0.5914
 3923SOL    HW123402   2.126   4.098   6.785  0.0832 -0.9159  0.0149
 3923SOL    HW223403   2.184   4.225   6.796  0.9033  0.7156 -1.8440
 3924SOL     OW23404   2.650   3.609  10.656 -0.4605 -0.5870 -0.5894
 3924SOL    HW123405   2.711   3.608  10.582 -0.8722 -0.7152 -0.9292
 3924SOL    HW223406   2.610   3.696  10.651  1.6353  0.4350  0.8253
 3925SOL     OW23407   2.015   4.071   6.531  0.5263 -0.0599 -0.3414
 3925SOL    HW123408   2.073   4.011   6.484 -0.1196 -0.9819  0.0378
 3925SOL    HW223409   1.975   4.012   6.595  2.1298  0.1799  0.8914
 3926SOL     OW23410   2.010   0.591   1.513 -0.0659 -0.2146  0.2327
 3926SOL    HW123411   2.009   0.587   1.418 -0.1737  1.5048  0.1780
 3926SOL    HW223412   2.057   0.672   1.529  1.1808 -0.8333 -0.3078
 3927SOL     OW23413   2.847   1.852   2.973 -0.3176  0.0781 -0.0907
 3927SOL    HW123414   2.899   1.871   2.894 -1.1715  0.8893 -0.4508
 3927SOL    HW223415   2.905   1.782   3.004  0.9128 -0.6209 -3.8915
 3928SOL     OW23416   3.356   2.484  11.499 -0.8633 -0.1080 -0.1414
 3928SOL    HW123417   3.380   2.392  11.503 -2.7475 -0.5836 -0.0768
 3928SOL    HW223418   3.380   2.519  11.586 -0.0219 -1.2110  0.0670
 3929SOL     OW23419   4.612   2.049   0.755  0.1569  0.0467  0.1904
 3929SOL    HW123420   4.542   2.107   0.724  0.7981  0.1453 -1.0490
 3929SOL    HW223421   4.616   2.065   0.850 -0.3714 -1.7458  0.5204
 3930SOL     OW23422   3.624   1.019   5.821  0.0884  0.3205  0.4396
 3930SOL    HW123423   3.561   0.955   5.788 -0.3447  1.4312 -0.9111
 3930SOL    HW223424   3.616   1.091   5.758  2.9421  0.2778  0.0153
 3931SOL     OW23425   1.749   4.076   7.700  0.1595  0.1369 -0.1212
 3931SOL    HW123426   1.821   4.139   7.704 -1.1601  1.4768  2.5248
 3931SOL    HW223427   1.771   4.041   7.614 -3.2505 -2.4989  0.0731
 3932SOL     OW23428   3.146   4.044  12.923 -0.4825 -0.0315 -0.0048
 3932SOL    HW123429   3.130   4.108  12.993 -0.1870 -0.8070  0.7792
 3932SOL    HW223430   3.134   3.959  12.967  1.0874 -0.3241 -0.1238
 3933SOL     OW23431   4.390   2.221   8.761 -0.2340 -0.2327  0.0619
 3933SOL    HW123432   4.315   2.280   8.761 -0.9380 -1.1162 -3.1226
 3933SOL    HW223433   4.344   2.138   8.773 -0.5468  0.0445  0.8039
 3934SOL     OW23434   3.203   0.006   0.977 -0.7376 -0.5051  0.2384
 3934SOL    HW123435   3.263   4.737   0.903  0.1798 -1.1152  1.0596
 3934SOL    HW223436   3.243   0.083   1.018 -0.2756 -0.8172  0.3734
 3935SOL     OW23437   4.157   0.511   5.384 -0.1176 -0.1988 -0.1439
 3935SOL    HW123438   4.188   0.595   5.352  1.5457 -0.4162  0.8345
 3935SOL    HW223439   4.062   0.518   5.384 -0.2552 -2.1565 -0.7296
 3936SOL     OW23440   0.850   3.835   8.387  0.5456 -0.0058 -0.0282
 3936SOL    HW123441   0.757   3.822   8.369  0.7392  0.7545 -1.5949
 3936SOL    HW223442   0.857   3.930   8.380 -1.7589  0.1737  0.2279
 3937SOL     OW23443   1.094   0.277   2.628  0.6607  0.2549  0.4957
 3937SOL    HW123444   1.077   0.368   2.602  3.2144  0.2140 -1.3311
 3937SOL    HW223445   1.176   0.268   2.579  0.5430  0.3375  0.2847
 3938SOL     OW23446   4.717   0.950   3.317 -0.0939  0.5340  0.0903
 3938SOL    HW123447   4.737   0.876   3.374 -2.4601 -0.2873 -0.1442
 3938SOL    HW223448   4.723   0.911   3.230 -2.1072  2.7023 -1.0219
 3939SOL     OW23449   4.129   0.694   4.204  0.0790  0.0578 -0.3050
 3939SOL    HW123450   4.197   0.748   4.244 -0.5639  1.0151 -0.5144
 3939SOL    HW223451   4.104   0.754   4.134  2.7911  2.7285  1.0627
 3940SOL     OW23452   2.301   4.713   7.241  0.0352  0.2896  0.6147
 3940SOL    HW123453   2.339   4.726   7.154  0.4914 -0.2509  0.7262
 3940SOL    HW223454   2.248   0.053   7.244 -0.5386  0.0135 -1.8084
 3941SOL     OW23455   3.592   0.447  13.319 -0.0708  0.6730  0.3624
 3941SOL    HW123456   3.624   0.495  13.242  0.1227 -0.0395  0.0016
 3941SOL    HW223457   3.637   0.499  13.386  0.8865  1.8948 -1.2281
 3942SOL     OW23458   1.876   4.122  10.439 -0.1905  0.3623 -0.1851
 3942SOL    HW123459   1.895   4.050  10.379  2.7657  1.4161 -0.4881
 3942SOL    HW223460   1.941   4.097  10.504 -0.2904 -0.9223 -0.5758
 3943SOL     OW23461   3.367   3.287   6.823 -0.0447  0.3506 -0.5838
 3943SOL    HW123462   3.425   3.214   6.842  0.2596  0.8119  0.2684
 3943SOL    HW223463   3.283   3.246   6.806  0.2906 -0.7389  0.3954
 3944SOL     OW23464   0.793   1.133   4.872 -0.2256 -0.4682 -0.2303
 3944SOL    HW123465   0.787   1.204   4.807 -1.6671  1.3173  1.8288
 3944SOL    HW223466   0.864   1.147   4.934 -1.1430  2.3957  0.1726
 3945SOL     OW23467   1.018   3.897   6.881 -0.2254  0.4572 -0.0979
 3945SOL    HW123468   1.055   3.883   6.968  0.2807  1.0293 -0.2220
 3945SOL    HW223469   1.045   3.819   6.832 -0.0332  1.4824 -1.6355
 3946SOL     OW23470   2.403   0.456   8.979 -0.3175  0.0745  0.3913
 3946SOL    HW123471   2.355   0.374   8.978  0.3541 -0.3036 -0.5518
 3946SOL    HW223472   2.332   0.516   8.954 -0.6830 -0.5942 -0.1809
 3947SOL     OW23473   0.653   2.181   6.102  0.3268 -0.3459 -0.4520
 3947SOL    HW123474   0.730   2.137   6.137 -0.0843 -0.2906  0.5175
 3947SOL    HW223475   0.637   2.130   6.023  1.7023  0.3066 -1.1646
 3948SOL     OW23476   3.680   0.178  15.863  0.3113 -0.5827  0.4200
 3948SOL    HW123477   3.692   0.085  15.843 -0.5820  0.0942 -3.2875
 3948SOL    HW223478   3.767   0.213  15.881  1.0228 -1.2610 -1.7529
 3949SOL     OW23479   2.523   2.799   6.231 -0.0637 -0.3381 -0.3849
 3949SOL    HW123480   2.474   2.777   6.310  1.3543  2.5438  1.3224
 3949SOL    HW223481   2.574   2.872   6.267 -0.2070  0.0496 -0.9643
 3950SOL     OW23482   0.708   0.316   0.063  0.7540 -0.3817  0.0285
 3950SOL    HW123483   0.761   0.325   0.142  0.1379 -0.4263  0.4512
 3950SOL    HW223484   0.668   0.402   0.054  2.9599  0.7062  0.7984
 3951SOL     OW23485   1.169   2.386   6.862 -1.0211  0.0799 -0.2450
 3951SOL    HW123486   1.227   2.311   6.866  0.4147  1.0973 -1.9785
 3951SOL    HW223487   1.231   2.456   6.840 -0.5064  0.5568  2.7108
 3952SOL     OW23488   2.068   3.076   3.231 -0.1415  0.4042 -0.0871
 3952SOL    HW123489   2.014   3.152   3.254 -1.1266 -0.2754 -0.1935
 3952SOL    HW223490   2.151   3.097   3.274 -0.0438 -1.3841  0.5622
 3953SOL     OW23491   2.307   3.069   4.357  0.1732  0.2337 -0.1768
 3953SOL    HW123492   2.219   3.062   4.394 -0.4756  1.5908 -1.4450
 3953SOL    HW223493   2.367   3.050   4.428 -0.6546 -0.1110  0.4329
 3954SOL     OW23494   0.520   2.393   5.594  0.6491 -0.3875  0.2325
 3954SOL    HW123495   0.538   2.465   5.654  0.0753  0.7055 -0.9081
 3954SOL    HW223496   0.464   2.427   5.524 -0.3375 -0.9052  0.7721
 3955SOL     OW23497   2.273   2.596  12.737  0.2566  0.9029  0.1244
 3955SOL    HW123498   2.257   2.575  12.829  1.9169 -1.2660 -0.0790
 3955SOL    HW223499   2.315   2.513  12.713  0.5237  0.1772  3.1349
 3956SOL     OW23500   1.634   2.483  10.235  0.6322 -0.2409 -0.4517
 3956SOL    HW123501   1.597   2.403  10.273  0.4145  0.4100  0.7180
 3956SOL    HW223502   1.672   2.515  10.317 -2.0666  0.7282  0.4239
 3957SOL     OW23503   3.455   0.976   7.771  0.2695  0.3040 -0.1077
 3957SOL    HW123504   3.420   0.981   7.682  0.3570 -0.2952 -0.1744
 3957SOL    HW223505   3.539   1.011   7.742  1.9727 -1.9626  2.1512
 3958SOL     OW23506   3.601   4.430   5.478  0.3239  0.1464  0.0081
 3958SOL    HW123507   3.560   4.396   5.558 -1.2920  1.6532 -0.1821
 3958SOL    HW223508   3.613   4.351   5.425  3.8108  0.6902  0.0467
 3959SOL     OW23509   3.891   4.564  15.002 -0.1378  0.1059  0.3764
 3959SOL    HW123510   3.916   4.579  15.094 -5.0899 -0.6359  1.8392
 3959SOL    HW223511   3.846   4.646  14.985 -1.9896 -0.6113  1.7956
 3960SOL     OW23512   3.838   3.554   3.739 -0.2919  0.0866 -0.1941
 3960SOL    HW123513   3.828   3.508   3.656  2.8671 -0.4449 -0.2797
 3960SOL    HW223514   3.760   3.519   3.783 -2.1074  0.9018 -2.7981
 3961SOL     OW23515   2.875   1.846   4.429 -0.4346  0.3247  0.7281
 3961SOL    HW123516   2.952   1.901   4.415 -2.1189  2.0766 -1.6015
 3961SOL    HW223517   2.913   1.758   4.433  1.4552  1.0182 -1.7842
 3962SOL     OW23518   0.323   0.813   4.247 -0.6611  0.2797  0.5399
 3962SOL    HW123519   0.345   0.885   4.188  0.7923  0.1779  0.9589
 3962SOL    HW223520   0.290   0.859   4.324 -0.3287  0.1448  0.7595
 3963SOL     OW23521   1.294   4.575   1.630 -0.3116 -0.1130 -0.4190
 3963SOL    HW123522   1.320   4.635   1.700  0.9268 -0.7353 -0.3657
 3963SOL    HW223523   1.263   4.509   1.691 -0.5535  0.8496  0.4978
 3964SOL     OW23524   4.512   0.740   7.500 -0.1981 -0.6146  0.1245
 3964SOL    HW123525   4.448   0.802   7.466  2.0637  2.7223  1.9819
 3964SOL    HW223526   4.590   0.791   7.522  0.6938 -1.8516 -0.1269
 3965SOL     OW23527   2.630   3.622  14.410  0.4191  0.6717  0.1523
 3965SOL    HW123528   2.708   3.596  14.459  0.6684 -0.5552 -0.8891
 3965SOL    HW223529   2.640   3.717  14.402  2.2340  0.5674  1.1948
 3966SOL     OW23530   2.069   1.781  10.487  0.1492 -0.4415 -0.3143
 3966SOL    HW123531   2.005   1.719  10.523  0.5727  0.4272  1.9015
 3966SOL    HW223532   2.140   1.773  10.551 -0.7088  2.2081  0.9726
 3967SOL     OW23533   0.322   3.861   3.597  0.7121  0.4542  0.3273
 3967SOL    HW123534   0.301   3.781   3.548  3.2578  0.9351 -1.5490
 3967SOL    HW223535   0.324   3.838   3.690  1.3591 -0.1305  0.1695
 3968SOL     OW23536   4.697   0.458   5.991  0.1999 -0.7486  0.7996
 3968SOL    HW123537   4.713   0.507   6.072  0.1626 -1.7405  1.3995
 3968SOL    HW223538   0.044   0.465   5.949 -1.1733  1.1172 -1.7284
 3969SOL     OW23539   1.706   1.723   5.688  0.3029 -0.4604 -0.8082
 3969SOL    HW123540   1.795   1.699   5.662 -0.1316 -2.9127  0.0205
 3969SOL    HW223541   1.717   1.728   5.783  1.6011 -2.1681 -0.8771
 3970SOL     OW23542   4.630   1.970  17.147  0.5481  0.2321  0.0891
 3970SOL    HW123543   4.713   1.987  17.192 -0.7223  1.8596  1.7633
 3970SOL    HW223544   4.588   1.913  17.212  0.3304 -0.0009 -0.2531
 3971SOL     OW23545   1.587   2.738  16.699  0.1105  0.1386  0.3619
 3971SOL    HW123546   1.662   2.694  16.740  1.1547 -2.4826 -4.2815
 3971SOL    HW223547   1.546   2.660  16.661  0.7502 -0.1398  0.2254
 3972SOL     OW23548   0.973   4.139   3.636  0.1166 -0.3402 -0.4761
 3972SOL    HW123549   1.024   4.206   3.682  0.2509  0.7605 -2.2115
 3972SOL    HW223550   0.969   4.069   3.701  1.4761 -0.3478 -0.4028
 3973SOL     OW23551   3.801   3.936   1.469 -0.3392 -0.2110 -0.2330
 3973SOL    HW123552   3.705   3.931   1.470 -0.2859 -1.0346  0.9331
 3973SOL    HW223553   3.824   4.029   1.460 -1.0636 -0.4023 -3.8421
 3974SOL     OW23554   2.678   0.866   7.781 -0.0669 -0.3848 -0.0443
 3974SOL    HW123555   2.757   0.879   7.832  0.4556 -1.1631 -0.6613
 3974SOL    HW223556   2.682   0.772   7.767 -0.8526 -0.5777  1.0392
 3975SOL     OW23557   0.123   0.196   7.868 -0.1552  0.1697 -0.2303
 3975SOL    HW123558   0.216   0.198   7.845 -0.4140  0.8788 -1.2505
 3975SOL    HW223559   0.119   0.281   7.911  2.8341 -0.0582  0.4675
 3976SOL     OW23560   1.070   0.388  14.827 -0.5420  0.4750  0.6811
 3976SOL    HW123561   1.098   0.355  14.913 -0.2757 -0.7048  0.1367
 3976SOL    HW223562   0.997   0.328  14.811 -0.2948  0.4859 -0.4490
 3977SOL     OW23563   2.177   3.860   3.371 -0.0980 -0.2874  0.0812
 3977SOL    HW123564   2.124   3.802   3.317  0.0041  2.2356 -2.7105
 3977SOL    HW223565   2.225   3.797   3.424 -1.2577 -1.2704 -0.0380
 3978SOL     OW23566   0.949   3.907   5.164 -0.1794 -0.1533  0.0646
 3978SOL    HW123567   0.995   3.974   5.215 -0.4432  0.0263  0.0726
 3978SOL    HW223568   0.947   3.841   5.233  1.9491 -0.9287 -0.6322
 3979SOL     OW23569   4.119   0.577   8.091 -0.1946 -0.2135 -0.6283
 3979SOL    HW123570   4.150   0.494   8.126 -0.1633 -0.2141 -0.6578
 3979SOL    HW223571   4.127   0.549   8.000 -2.5089 -0.8562 -0.6262
 3980SOL     OW23572   4.456   2.765   7.922  0.6167 -0.5884  0.0367
 3980SOL    HW123573   4.370   2.780   7.883 -0.1859  0.4154  2.1749
 3980SOL    HW223574   4.428   2.741   8.010  0.1733 -1.3996 -0.3240
 3981SOL     OW23575   3.163   1.855   3.320  0.2683 -0.0421 -0.5531
 3981SOL    HW123576   3.069   1.873   3.315  0.1673 -0.5073 -0.3806
 3981SOL    HW223577   3.162   1.760   3.302  0.1145 -0.2525  0.5659
 3982SOL     OW23578   0.649   3.970   7.472  0.8059 -0.1906  0.6645
 3982SOL    HW123579   0.737   3.959   7.508  0.8288  1.3342  1.0838
 3982SOL    HW223580   0.597   3.935   7.545 -0.1766 -0.6572 -0.2614
 3983SOL     OW23581   4.640   0.226   8.302 -0.1211 -0.7717 -0.0975
 3983SOL    HW123582   4.549   0.233   8.274 -0.3218  1.5529  1.0780
 3983SOL    HW223583   4.685   0.233   8.217 -1.2446  0.3965 -0.6021
 3984SOL     OW23584   3.367   3.960   5.393  0.1284  0.2786  0.2223
 3984SOL    HW123585   3.314   3.933   5.318 -0.4632  0.7383  0.4731
 3984SOL    HW223586   3.360   4.054   5.381  0.5000  0.4888  1.6242
 3985SOL     OW23587   4.001   2.065   2.804  0.1242  0.3393  0.0231
 3985SOL    HW123588   4.056   2.127   2.853 -0.4101  0.1740  0.8243
 3985SOL    HW223589   3.940   2.131   2.772  0.5932  0.3918 -0.7755
 3986SOL     OW23590   1.124   3.181   4.462 -0.2684  0.4652 -0.5934
 3986SOL    HW123591   1.120   3.095   4.504 -0.0665  0.1557 -1.1999
 3986SOL    HW223592   1.208   3.216   4.492  0.5600 -1.8198 -0.2331
 3987SOL     OW23593   1.771   2.469   5.502 -0.4616  0.3157  0.7767
 3987SOL    HW123594   1.697   2.499   5.450 -0.2614  0.8326  0.7966
 3987SOL    HW223595   1.821   2.422   5.435  2.5280  0.2274  3.1068
 3988SOL     OW23596   0.935   0.706   9.733 -0.3748 -0.6618  0.2649
 3988SOL    HW123597   1.006   0.670   9.785 -0.6576 -1.5496  0.0304
 3988SOL    HW223598   0.937   0.798   9.759  0.3475 -0.4973 -0.3902
 3989SOL     OW23599   2.246   3.548   6.537  0.0468 -0.0183 -0.1724
 3989SOL    HW123600   2.201   3.528   6.455 -0.2911  0.0822 -0.0141
 3989SOL    HW223601   2.227   3.464   6.579 -0.6365 -0.2994 -1.0324
 3990SOL     OW23602   1.462   2.469   8.498 -0.1483  0.5767 -0.4037
 3990SOL    HW123603   1.450   2.555   8.459 -2.3718  0.1493 -0.6320
 3990SOL    HW223604   1.528   2.494   8.563  0.8453  0.0534 -1.2073
 3991SOL     OW23605   0.850   0.822   5.389 -0.0475  0.3827  0.4527
 3991SOL    HW123606   0.777   0.826   5.328  1.5770 -1.0633 -1.5963
 3991SOL    HW223607   0.819   0.867   5.468  0.6578 -0.8442  1.4266
 3992SOL     OW23608   1.721   3.318  11.970 -0.2707  0.0103 -0.0963
 3992SOL    HW123609   1.755   3.340  12.056 -0.6458 -2.8553  0.7821
 3992SOL    HW223610   1.712   3.223  11.962 -1.2990  0.1615 -0.8219
 3993SOL     OW23611   3.117   2.640   4.055 -0.2469  0.6537 -0.0665
 3993SOL    HW123612   3.075   2.597   3.980 -1.4941 -0.9964  1.5978
 3993SOL    HW223613   3.054   2.635   4.126 -0.0411 -0.3408  0.0482
 3994SOL     OW23614   1.337   0.072   4.464  0.0182  0.3603 -0.0756
 3994SOL    HW123615   1.261   0.072   4.522 -0.0095 -1.4792 -0.1128
 3994SOL    HW223616   1.278   0.093   4.391  0.6105 -0.7295 -0.8660
 3995SOL     OW23617   4.430   0.328  16.611 -0.6020  0.5051  0.4367
 3995SOL    HW123618   4.411   0.238  16.636 -1.1551  0.4273 -0.2480
 3995SOL    HW223619   4.379   0.379  16.673 -3.5806 -1.0383 -0.7536
 3996SOL     OW23620   4.129   4.297   7.885  0.2992 -0.3538 -0.3201
 3996SOL    HW123621   4.200   4.269   7.943 -0.2023  1.1910  1.0170
 3996SOL    HW223622   4.135   4.228   7.818 -1.4047 -1.3920  0.6049
 3997SOL     OW23623   4.631   4.596  12.398 -0.1085 -0.0577 -0.0316
 3997SOL    HW123624   4.642   4.541  12.321 -1.0688  0.7466 -0.7516
 3997SOL    HW223625   4.626   4.525  12.463  0.2191  0.1143  0.1785
 3998SOL     OW23626   0.150   2.997   4.676 -0.3749  0.1672 -0.5582
 3998SOL    HW123627   0.080   2.939   4.706 -1.1565  1.7275  0.6226
 3998SOL    HW223628   0.147   2.966   4.585 -0.6154 -0.1531 -0.4415
 3999SOL     OW23629   4.412   1.831   8.563 -0.0543  0.2960  0.2054
 3999SOL    HW123630   4.485   1.891   8.547  0.1005 -0.1108 -0.5831
 3999SOL    HW223631   4.456   1.758   8.606 -1.6575 -0.8781 -0.1724
 4000SOL     OW23632   0.509   3.190   2.080 -0.3636  0.5356  0.1085
 4000SOL    HW123633   0.415   3.209   2.088 -0.5749 -1.0337  1.5369
 4000SOL    HW223634   0.526   3.118   2.141  2.1094  1.4342  0.4594
 4001SOL     OW23635   1.359   1.295   9.330 -0.1310 -0.1837  0.3223
 4001SOL    HW123636   1.349   1.218   9.385 -2.2075 -0.6136 -0.6643
 4001SOL    HW223637   1.265   1.312   9.326  0.0189  0.2138 -1.5822
 4002SOL     OW23638   0.445   4.456   1.706 -0.0154  0.1283 -0.2378
 4002SOL    HW123639   0.377   4.457   1.638 -1.4261  1.8764  1.1846
 4002SOL    HW223640   0.415   4.517   1.774 -2.4485  0.6087 -1.7542
 4003SOL     OW23641   0.435   0.227   9.001  0.0228  0.4696 -0.0721
 4003SOL    HW123642   0.342   0.248   8.987  0.4505  2.2641 -0.2192
 4003SOL    HW223643   0.478   0.270   8.927  0.8622  0.6413  0.5094
 4004SOL     OW23644   4.248   4.413   8.425 -0.2178  0.1293 -0.1592
 4004SOL    HW123645   4.196   4.493   8.430 -2.0312 -1.0364 -0.1746
 4004SOL    HW223646   4.321   4.429   8.484 -0.7801  1.7037  0.1119
 4005SOL     OW23647   1.959   3.043   1.060 -0.4085  0.2366  0.6957
 4005SOL    HW123648   1.985   3.135   1.051  1.9626 -0.2859  2.0509
 4005SOL    HW223649   2.029   3.007   1.115 -0.9242  0.0914  1.2640
 4006SOL     OW23650   2.670   0.723   4.425  0.0312  0.5756  0.0771
 4006SOL    HW123651   2.650   0.701   4.334  1.6531 -0.8463  0.0658
 4006SOL    HW223652   2.604   0.673   4.472  1.4607  0.2443  1.7361
 4007SOL     OW23653   4.573   1.853   7.677 -0.1557  0.3401 -0.2996
 4007SOL    HW123654   4.607   1.941   7.659 -0.0786  0.2810 -0.4490
 4007SOL    HW223655   4.486   1.863   7.637 -1.4278 -0.3901  2.3360
 4008SOL     OW23656   4.534   2.240   4.801 -0.3132 -0.7909  0.1735
 4008SOL    HW123657   4.591   2.210   4.871  0.8563 -1.0115 -0.8690
 4008SOL    HW223658   4.486   2.161   4.775  0.1662  0.0338 -3.2591
 4009SOL     OW23659   3.969   3.187  10.118 -0.6211  0.4242 -0.1365
 4009SOL    HW123660   4.050   3.231  10.142  0.5022 -0.8381 -1.6286
 4009SOL    HW223661   3.969   3.199  10.023 -2.5847  0.0524 -0.1939
 4010SOL     OW23662   1.927   4.520   5.089  0.2655  0.0670  0.2022
 4010SOL    HW123663   1.949   4.557   5.003 -0.7363  0.8659  0.2812
 4010SOL    HW223664   2.016   4.489   5.105  0.3140 -0.0425 -0.2875
 4011SOL     OW23665   1.616   3.927  15.370  0.6719 -0.7891 -0.1134
 4011SOL    HW123666   1.653   3.874  15.441 -0.2255  0.7766  1.5346
 4011SOL    HW223667   1.675   3.999  15.352  0.3410  0.1308  2.4773
 4012SOL     OW23668   4.204   1.913   7.947 -0.3801  0.0108 -0.0122
 4012SOL    HW123669   4.207   1.910   8.043 -2.5554  0.4585  0.0742
 4012SOL    HW223670   4.211   1.820   7.929 -2.0101 -0.1440  0.0832
 4013SOL     OW23671   0.425   2.279  16.616 -0.3256  0.0996 -0.1721
 4013SOL    HW123672   0.491   2.327  16.566  0.5679 -0.7728  0.1639
 4013SOL    HW223673   0.479   2.258  16.692 -1.3715  0.2776  0.6122
 4014SOL     OW23674   3.452   0.195  14.632  0.2378 -0.3270 -0.1355
 4014SOL    HW123675   3.547   0.201  14.641 -0.1266  1.2034  2.5025
 4014SOL    HW223676   3.445   0.123  14.569 -0.4151 -0.9296  0.6349
 4015SOL     OW23677   3.158   1.605   3.238 -0.0585  0.0143 -0.2746
 4015SOL    HW123678   3.204   1.609   3.154 -0.3540  0.8018 -0.4004
 4015SOL    HW223679   3.087   1.550   3.206  2.0715 -2.6119 -0.4439
 4016SOL     OW23680   1.427   3.846   6.098 -0.5607  0.0903 -0.1863
 4016SOL    HW123681   1.455   3.764   6.057  1.9864  1.6690 -1.6385
 4016SOL    HW223682   1.447   3.904   6.025 -0.7387  0.7306  0.2744
 4017SOL     OW23683   4.568   4.324  17.293  0.0983  0.3708 -0.2159
 4017SOL    HW123684   4.658   4.352  17.276 -0.0560  2.8164  2.9888
 4017SOL    HW223685   4.514   4.403  17.296  0.2088  0.4954 -1.2661
 4018SOL     OW23686   4.738   0.571   6.248  0.0660 -0.2299  0.0218
 4018SOL    HW123687   0.015   0.478   6.262 -0.5921 -0.3285  0.1948
 4018SOL    HW223688   0.030   0.610   6.329  2.4533 -1.5807 -0.2877
 4019SOL     OW23689   2.267   4.180   0.206  0.1187 -0.0521  0.7445
 4019SOL    HW123690   2.190   4.176   0.263 -0.3433  2.0511  0.2642
 4019SOL    HW223691   2.333   4.190   0.275  3.4631  2.3612 -2.8067
 4020SOL     OW23692   3.154   3.140   0.212  0.3992  0.1741 -0.4576
 4020SOL    HW123693   3.106   3.137   0.295  0.4326 -1.0856 -0.4788
 4020SOL    HW223694   3.123   3.222   0.175  1.4280  0.5324 -0.4978
 4021SOL     OW23695   0.587   2.467   3.306 -0.1041  0.5106 -0.1536
 4021SOL    HW123696   0.644   2.542   3.292  2.3961 -1.0760  1.4242
 4021SOL    HW223697   0.658   2.403   3.297 -0.4036  0.2730 -0.8367
 4022SOL     OW23698   2.727   3.214  14.132 -0.1087  0.0747 -0.2323
 4022SOL    HW123699   2.722   3.306  14.156  1.7541 -0.3845  1.8959
 4022SOL    HW223700   2.781   3.212  14.053  1.7098  2.3153  0.9933
 4023SOL     OW23701   4.133   3.847   1.953  0.3944  0.2092 -0.0424
 4023SOL    HW123702   4.049   3.818   1.988 -1.6962  3.1353 -2.6589
 4023SOL    HW223703   4.141   3.782   1.883 -1.4076  0.7485 -0.7518
 4024SOL     OW23704   3.363   4.669   7.126 -0.0301  0.5952 -0.3472
 4024SOL    HW123705   3.307   4.629   7.193  1.2028  2.4683  1.7930
 4024SOL    HW223706   3.359   4.608   7.052 -2.2453 -0.9882  1.0481
 4025SOL     OW23707   1.852   4.200   1.730 -0.7265  0.4342 -0.1979
 4025SOL    HW123708   1.930   4.145   1.725  0.1535  1.5428  1.2390
 4025SOL    HW223709   1.877   4.265   1.664  0.8822  3.2671  3.2002
 4026SOL     OW23710   1.251   0.973   1.770  0.0389  0.2362  0.3260
 4026SOL    HW123711   1.209   1.057   1.754 -0.0321  0.0295 -0.6032
 4026SOL    HW223712   1.347   0.979   1.773 -0.0069  1.2827 -0.2808
 4027SOL     OW23713   3.757   1.796   3.829  0.2372  0.3327 -0.3639
 4027SOL    HW123714   3.847   1.763   3.828  0.1192 -0.0410  1.0964
 4027SOL    HW223715   3.733   1.810   3.737  2.0087 -4.6391 -1.6005
 4028SOL     OW23716   0.891   0.414   5.500  0.0302  0.1908  0.1529
 4028SOL    HW123717   0.985   0.393   5.504  0.1186  0.0281 -2.4885
 4028SOL    HW223718   0.884   0.459   5.416  2.7521 -0.8747 -0.6696
 4029SOL     OW23719   1.595   1.118   3.188  0.6111  0.2626  0.3732
 4029SOL    HW123720   1.642   1.047   3.143 -1.1570  0.4092 -1.7196
 4029SOL    HW223721   1.591   1.182   3.117  0.9620  1.0700  1.0871
 4030SOL     OW23722   2.309   2.236   1.702 -0.4459  0.3095  0.4016
 4030SOL    HW123723   2.277   2.151   1.731 -0.7823  0.6277  0.9793
 4030SOL    HW223724   2.280   2.238   1.611  0.0284 -1.9379  0.2008
 4031SOL     OW23725   3.562   0.242  14.916 -0.2941 -0.5246  0.8196
 4031SOL    HW123726   3.542   0.336  14.920 -2.4266 -0.8894 -1.4448
 4031SOL    HW223727   3.505   0.217  14.843 -2.9197  1.0578  2.3196
 4032SOL     OW23728   2.570   2.326   3.560  0.0040 -0.1256 -0.3473
 4032SOL    HW123729   2.506   2.271   3.606  0.1218  1.3008  1.5784
 4032SOL    HW223730   2.630   2.344   3.633 -1.0022 -1.5115  0.8184
 4033SOL     OW23731   1.529   2.023   8.902 -0.0940 -0.2536  0.1614
 4033SOL    HW123732   1.501   2.028   8.811 -0.9232 -3.2356  0.2468
 4033SOL    HW223733   1.577   1.940   8.907 -0.7696 -0.7247 -1.1358
 4034SOL     OW23734   1.557   3.489   7.405  0.2004 -0.4245 -0.1716
 4034SOL    HW123735   1.532   3.481   7.313  1.9158  0.0492 -0.6666
 4034SOL    HW223736   1.478   3.453   7.445  0.6585 -1.3421 -0.0984
 4035SOL     OW23737   2.048   2.839   9.142  0.3156 -0.4128  0.5328
 4035SOL    HW123738   2.074   2.928   9.121 -1.3110  0.0077  0.3365
 4035SOL    HW223739   2.128   2.797   9.174  1.8115  0.5349 -1.9713
 4036SOL     OW23740   1.146   3.039   3.403 -0.1547 -0.1129 -0.3670
 4036SOL    HW123741   1.154   2.991   3.485 -1.4056 -2.1698 -1.4522
 4036SOL    HW223742   1.232   3.026   3.362  0.3898 -0.3986  0.8720
 4037SOL     OW23743   1.182   3.207   8.338 -0.0483 -0.9090 -0.4520
 4037SOL    HW123744   1.188   3.275   8.271  0.2044 -1.8271 -1.3636
 4037SOL    HW223745   1.180   3.125   8.288  1.0383 -0.5391 -1.1069
 4038SOL     OW23746   3.425   1.881   1.951 -0.1087  0.0131  0.3299
 4038SOL    HW123747   3.463   1.798   1.981  0.6944  1.1136  2.3945
 4038SOL    HW223748   3.506   1.923   1.920  0.0107 -1.2608 -1.0569
 4039SOL     OW23749   1.823   1.628   8.094  0.3855  0.2823 -0.3826
 4039SOL    HW123750   1.888   1.625   8.024  1.1022 -1.7856  0.3537
 4039SOL    HW223751   1.783   1.712   8.071 -3.0660 -1.3931 -0.4938
 4040SOL     OW23752   1.620   2.270   5.243  0.1510 -0.0629 -0.4800
 4040SOL    HW123753   1.590   2.187   5.280 -2.3210  0.7223 -0.7332
 4040SOL    HW223754   1.554   2.330   5.278 -0.2375 -0.1778 -1.0065
 4041SOL     OW23755   2.408   2.261   8.925  0.0579  0.1373 -0.6675
 4041SOL    HW123756   2.470   2.191   8.947 -0.8358 -0.7951 -1.1082
 4041SOL    HW223757   2.454   2.286   8.845  1.7392  1.9984  0.8738
 4042SOL     OW23758   0.001   2.847  16.006 -0.7385  0.0243  0.0266
 4042SOL    HW123759   0.080   2.864  15.954  0.2896  2.2526  2.2804
 4042SOL    HW223760   4.707   2.937  16.009  0.3108  0.3150  3.2419
 4043SOL     OW23761   1.367   3.271   7.527 -0.4962 -0.9715  0.1888
 4043SOL    HW123762   1.400   3.278   7.616  0.9464 -1.7398 -0.2811
 4043SOL    HW223763   1.397   3.180   7.522 -1.8732 -1.3721 -0.8618
 4044SOL     OW23764   3.166   3.787   8.379 -0.2756  0.1357  0.1235
 4044SOL    HW123765   3.137   3.762   8.292  2.2855 -1.5100 -0.2679
 4044SOL    HW223766   3.126   3.717   8.430 -0.3165 -0.0322 -0.1451
 4045SOL     OW23767   0.863   1.343  17.574 -0.2013  0.2857 -0.3706
 4045SOL    HW123768   0.916   1.358  17.496 -0.9521  2.6829 -0.4269
 4045SOL    HW223769   0.909   1.275  17.623  0.1665  1.1064  0.4288
 4046SOL     OW23770   3.705   2.890   4.605  0.2392 -0.1331 -0.5573
 4046SOL    HW123771   3.682   2.909   4.514  0.0684  0.3618 -0.4107
 4046SOL    HW223772   3.647   2.815   4.622  0.2750  0.4939  2.1914
 4047SOL     OW23773   0.660   2.240  11.894 -0.0475  0.3245  0.1834
 4047SOL    HW123774   0.566   2.249  11.874 -0.0233 -3.5056 -1.6266
 4047SOL    HW223775   0.667   2.179  11.967  0.7718  0.4763  0.2339
 4048SOL     OW23776   3.444   3.709   9.801 -0.4610  0.4565 -0.8435
 4048SOL    HW123777   3.481   3.729   9.887 -2.2671  2.6832 -0.5954
 4048SOL    HW223778   3.461   3.793   9.760  1.0468  0.3606 -0.3852
 4049SOL     OW23779   2.526   1.477   1.621  0.3375  0.4986 -0.1578
 4049SOL    HW123780   2.585   1.418   1.669  1.6715  0.5734 -1.7235
 4049SOL    HW223781   2.507   1.544   1.687 -0.5868  0.1961 -0.1166
 4050SOL     OW23782   1.387   2.119   2.043 -0.1550  0.0307  0.4684
 4050SOL    HW123783   1.353   2.177   2.111  0.3311  1.1819 -0.2765
 4050SOL    HW223784   1.342   2.158   1.968  0.2374  1.4971  0.9996
 4051SOL     OW23785   0.750   3.356   1.278  0.2742  0.4360 -0.3720
 4051SOL    HW123786   0.654   3.361   1.285  0.4048  1.2217  0.8719
 4051SOL    HW223787   0.765   3.298   1.203 -0.5552 -2.1207  1.4601
 4052SOL     OW23788   2.015   0.765  10.180 -0.1895  0.4413  0.1215
 4052SOL    HW123789   2.078   0.737  10.114 -1.3886  0.4119 -1.0229
 4052SOL    HW223790   1.991   0.849  10.141  1.0834  0.5696 -0.3882
 4053SOL     OW23791   3.840   3.918  11.568 -0.5322 -0.4310  0.6004
 4053SOL    HW123792   3.922   3.870  11.572 -0.6673 -0.5846  1.6001
 4053SOL    HW223793   3.853   3.983  11.637  0.1071 -0.7496  0.7817
 4054SOL     OW23794   3.504   0.584   5.062  0.0700 -1.1207 -0.5096
 4054SOL    HW123795   3.490   0.647   4.992 -1.9289  0.7101  1.5528
 4054SOL    HW223796   3.599   0.575   5.069  0.1367 -0.3624 -0.5002
 4055SOL     OW23797   2.705   2.648  14.819  0.1671  0.4866 -0.1235
 4055SOL    HW123798   2.725   2.734  14.782  0.3656  0.5464  0.1248
 4055SOL    HW223799   2.747   2.590  14.755  1.3636  1.3420 -0.1168
 4056SOL     OW23800   1.011   1.611   9.888 -0.1543 -0.0515 -0.3653
 4056SOL    HW123801   0.928   1.653   9.867  0.5298  0.8780 -1.1550
 4056SOL    HW223802   1.017   1.607   9.984  0.7395 -0.8090 -0.4525
 4057SOL     OW23803   0.643   1.470   8.449 -0.0577  0.0362  0.2087
 4057SOL    HW123804   0.688   1.489   8.531 -0.1950  0.3052  0.2209
 4057SOL    HW223805   0.718   1.480   8.391 -0.3599 -0.7922 -0.3355
 4058SOL     OW23806   2.186   1.483   1.762 -0.1917 -0.4622 -0.3575
 4058SOL    HW123807   2.212   1.447   1.847 -0.9292 -0.0576  0.0375
 4058SOL    HW223808   2.171   1.406   1.707  0.2026  1.4491 -3.1062
 4059SOL     OW23809   2.854   3.727   5.894  0.2994  0.5356  0.0237
 4059SOL    HW123810   2.796   3.699   5.965 -1.9603 -0.0586 -2.0773
 4059SOL    HW223811   2.915   3.779   5.946  1.3271 -1.9303  1.3204
 4060SOL     OW23812   0.934   0.861   1.636 -0.8146  0.1060  0.3725
 4060SOL    HW123813   0.970   0.834   1.720 -0.1199 -0.6285 -0.1524
 4060SOL    HW223814   0.996   0.821   1.574 -0.6484  0.4331  0.3276
 4061SOL     OW23815   3.680   4.087   3.050 -0.2356  0.2214 -0.2702
 4061SOL    HW123816   3.630   4.007   3.065 -0.3230  0.2446 -0.4344
 4061SOL    HW223817   3.767   4.056   3.074 -0.5833  0.7885  1.7834
 4062SOL     OW23818   1.854   3.307   8.235 -0.1004  0.0989  0.3270
 4062SOL    HW123819   1.939   3.338   8.205 -0.5721 -0.1879 -1.3105
 4062SOL    HW223820   1.860   3.339   8.325  0.1070 -1.3300  0.8170
 4063SOL     OW23821   2.562   0.182   5.188 -0.4367 -0.2382 -0.3396
 4063SOL    HW123822   2.472   0.197   5.161 -0.1334 -0.4993 -1.4682
 4063SOL    HW223823   2.600   0.195   5.101 -0.3252  0.9360 -0.1063
 4064SOL     OW23824   2.551   0.353   8.623  0.9079  0.0754 -0.2279
 4064SOL    HW123825   2.493   0.392   8.558 -0.5456 -0.8858  0.4964
 4064SOL    HW223826   2.585   0.428   8.670  0.4283  1.7028 -2.4662
 4065SOL     OW23827   3.123   3.617   6.487  0.6202  0.1644 -0.1341
 4065SOL    HW123828   3.153   3.639   6.575  0.5570 -3.3442  0.7630
 4065SOL    HW223829   3.160   3.529   6.477  0.4395  0.0332  0.3728
 4066SOL     OW23830   2.471   4.674   3.872  0.0620 -0.2702 -0.8655
 4066SOL    HW123831   2.379   4.658   3.850 -0.7623 -0.3361  2.6607
 4066SOL    HW223832   2.468   4.655   3.966 -0.5631  2.5419 -0.3235
 4067SOL     OW23833   0.367   0.596   8.962  0.0544  0.5666 -0.0507
 4067SOL    HW123834   0.448   0.609   8.913  0.1401 -1.5509 -0.4987
 4067SOL    HW223835   0.314   0.554   8.894 -2.3398  1.5832  1.1850
 4068SOL     OW23836   4.558   0.123   2.880 -0.0382 -0.0907  0.0036
 4068SOL    HW123837   4.601   0.208   2.870 -0.9462  0.7872  3.9052
 4068SOL    HW223838   4.570   0.085   2.793  1.7285  1.2006 -0.3326
 4069SOL     OW23839   0.784   4.219   4.394  0.4516 -0.0555 -0.3491
 4069SOL    HW123840   0.871   4.259   4.401  0.4827 -0.1293 -0.3169
 4069SOL    HW223841   0.811   4.132   4.362  0.6466  0.5128 -1.7594
 4070SOL     OW23842   1.326   3.506   2.318  0.6702 -0.4757 -0.5014
 4070SOL    HW123843   1.323   3.437   2.384  0.3803  1.1132  1.1574
 4070SOL    HW223844   1.293   3.584   2.364 -0.0419  0.2926 -2.3265
 4071SOL     OW23845   1.547   2.900   7.024  0.9651  0.1116 -0.5135
 4071SOL    HW123846   1.482   2.833   7.044  1.7256 -0.3928  0.2707
 4071SOL    HW223847   1.612   2.844   6.984 -0.2954 -1.2340 -0.6654
 4072SOL     OW23848   0.275   4.186   6.395  0.1820  0.1549 -0.0248
 4072SOL    HW123849   0.271   4.269   6.347 -0.6403  1.5062  2.4226
 4072SOL    HW223850   0.370   4.178   6.395  0.0899 -0.9992 -1.6831
 4073SOL     OW23851   4.263   3.879   3.247 -0.1017  0.1606 -0.1135
 4073SOL    HW123852   4.179   3.850   3.281  0.3966 -0.9209  0.2142
 4073SOL    HW223853   4.326   3.814   3.277  0.9010  0.3573 -1.7694
 4074SOL     OW23854   3.225   1.692   3.861 -0.6237  0.0266 -0.3364
 4074SOL    HW123855   3.218   1.634   3.937 -0.5464  0.9403  0.3598
 4074SOL    HW223856   3.237   1.772   3.913 -2.0755  0.1236 -0.1683
 4075SOL     OW23857   2.156   2.877   7.844  0.1201  0.2342 -0.2333
 4075SOL    HW123858   2.110   2.805   7.802  0.9229  0.9546 -2.3869
 4075SOL    HW223859   2.112   2.948   7.797  0.8065 -0.1344 -1.4395
 4076SOL     OW23860   1.872   2.417  10.613 -0.0022 -0.1008 -0.4063
 4076SOL    HW123861   1.819   2.380  10.542 -0.0723  1.6430 -1.2659
 4076SOL    HW223862   1.930   2.343  10.629  0.3284  0.4749  1.0498
 4077SOL     OW23863   2.824   0.431   3.854 -0.2303 -0.5444  0.7195
 4077SOL    HW123864   2.849   0.408   3.944 -1.4757 -0.1641  1.1570
 4077SOL    HW223865   2.751   0.492   3.863  1.8948  1.6167  3.3990
 4078SOL     OW23866   4.645   3.297   7.005  0.2446 -0.0843 -0.3377
 4078SOL    HW123867   4.656   3.209   7.040  1.6339 -0.1133 -0.8753
 4078SOL    HW223868   4.737   3.320   6.996  0.6169 -0.7401  1.9094
 4079SOL     OW23869   0.186   0.740   3.411 -0.4843  0.1176 -0.3283
 4079SOL    HW123870   0.235   0.823   3.415  0.8159 -0.7196  1.1092
 4079SOL    HW223871   0.125   0.759   3.483  0.5831 -0.9992  0.8797
 4080SOL     OW23872   3.506   4.571   6.756 -0.2111  0.2559  0.1508
 4080SOL    HW123873   3.430   4.578   6.698  0.3675 -1.1511 -0.7933
 4080SOL    HW223874   3.475   4.525   6.834 -1.4345  0.4758 -0.2134
 4081SOL     OW23875   0.237   1.323   5.176  0.1486  0.1661  0.3862
 4081SOL    HW123876   0.331   1.315   5.194  0.3560  3.1451  0.6407
 4081SOL    HW223877   0.216   1.414   5.200 -2.5386 -0.3444 -0.0797
 4082SOL     OW23878   4.278   4.200   6.252  0.2218 -0.1124  0.3274
 4082SOL    HW123879   4.293   4.294   6.243  0.3676 -0.1566  0.1091
 4082SOL    HW223880   4.370   4.182   6.269 -0.0594 -0.5900  1.3576
 4083SOL     OW23881   1.562   1.752   3.320  0.0062 -0.1474  0.0233
 4083SOL    HW123882   1.540   1.667   3.282 -1.6572 -0.2259  1.1614
 4083SOL    HW223883   1.492   1.762   3.384  0.3855  1.1561  0.2300
 4084SOL     OW23884   3.475   4.118  15.404  0.6905  0.4227  0.0104
 4084SOL    HW123885   3.461   4.160  15.319  1.3913 -1.1180 -0.8705
 4084SOL    HW223886   3.510   4.034  15.375  0.5779 -0.2367  1.7687
 4085SOL     OW23887   0.862   4.119  12.580  0.4233  0.1683 -0.9981
 4085SOL    HW123888   0.837   4.100  12.670  1.9413 -1.0296 -0.8252
 4085SOL    HW223889   0.848   4.213  12.578 -0.4981  0.0700  0.8388
 4086SOL     OW23890   3.527   3.187   1.782  0.3011 -0.1946  0.3494
 4086SOL    HW123891   3.598   3.221   1.837  0.6813  0.5265 -0.5896
 4086SOL    HW223892   3.456   3.247   1.802  0.0539 -1.5622  3.5348
 4087SOL     OW23893   4.218   2.495   5.929 -0.2421 -0.4216 -0.0205
 4087SOL    HW123894   4.236   2.451   6.012 -1.1231 -1.4672 -0.3741
 4087SOL    HW223895   4.251   2.579   5.961 -3.4192  0.7091  0.3226
 4088SOL     OW23896   0.147   1.172   5.379  0.3156  0.0394 -0.3583
 4088SOL    HW123897   0.169   1.082   5.356  1.2606  0.2638 -0.3314
 4088SOL    HW223898   0.158   1.224   5.299  1.8533 -1.7565 -1.3134
 4089SOL     OW23899   1.544   1.518   9.324 -0.5276 -0.4972 -0.1952
 4089SOL    HW123900   1.596   1.468   9.387  0.0849 -0.5258 -0.7266
 4089SOL    HW223901   1.464   1.467   9.321  0.4358 -2.1420  2.1634
 4090SOL     OW23902   3.487   2.227   3.427 -0.1991  0.0588  0.2082
 4090SOL    HW123903   3.561   2.234   3.488 -1.4282  0.8366  1.6171
 4090SOL    HW223904   3.529   2.257   3.347 -1.1798  0.3648 -0.1909
 4091SOL     OW23905   1.111   0.517   6.383 -0.3680  0.0440 -0.6558
 4091SOL    HW123906   1.187   0.564   6.349  0.1955  0.3131  0.9584
 4091SOL    HW223907   1.098   0.570   6.462  0.1724  0.5298 -0.8954
 4092SOL     OW23908   4.504   2.705   2.428  0.1035 -0.5676 -0.5419
 4092SOL    HW123909   4.436   2.666   2.374  2.5138 -1.9897 -2.5846
 4092SOL    HW223910   4.551   2.755   2.362  2.0687  0.2049  1.4329
 4093SOL     OW23911   2.255   3.245   3.072 -0.1702 -0.4985  0.0426
 4093SOL    HW123912   2.277   3.289   3.154  0.5771 -0.7197 -0.0407
 4093SOL    HW223913   2.182   3.196   3.110  1.6076  0.0064  4.0996
 4094SOL     OW23914   1.403   1.530  12.157 -0.2760 -0.6877  0.8456
 4094SOL    HW123915   1.481   1.520  12.102 -0.9513 -0.2300 -0.2072
 4094SOL    HW223916   1.350   1.600  12.117  1.2165  0.6409  1.1570
 4095SOL     OW23917   3.764   4.583   7.652  0.3650  0.3090  0.3652
 4095SOL    HW123918   3.698   4.571   7.584  0.9542  0.3578 -0.2165
 4095SOL    HW223919   3.741   4.502   7.696 -0.2856  0.3572  0.1122
 4096SOL     OW23920   4.007   0.294  13.211  0.2041 -0.3782 -0.1523
 4096SOL    HW123921   3.964   0.366  13.164  2.2343  2.3409  2.1837
 4096SOL    HW223922   4.101   0.307  13.199 -0.1210  2.9685  1.1405
 4097SOL     OW23923   1.411   4.259  15.598  0.4751  0.1807 -0.1483
 4097SOL    HW123924   1.483   4.259  15.536  0.9672 -0.1456  0.4239
 4097SOL    HW223925   1.378   4.349  15.599  1.6018  0.5822  1.1646
 4098SOL     OW23926   2.089   1.101  16.528  0.1002 -0.2153 -0.1906
 4098SOL    HW123927   2.069   1.048  16.451 -2.2856 -0.2607  0.4598
 4098SOL    HW223928   2.084   1.042  16.604 -0.3189 -0.9623 -0.7944
 4099SOL     OW23929   0.283   1.582   2.885 -0.0519  0.2031  0.3115
 4099SOL    HW123930   0.232   1.634   2.946 -2.3416 -0.6870 -0.8218
 4099SOL    HW223931   0.272   1.493   2.920  0.2536  0.9297  2.2576
 4100SOL     OW23932   2.403   0.251   2.954 -0.0235  1.1962 -0.1243
 4100SOL    HW123933   2.418   0.332   2.905 -0.5985 -0.0383 -2.3510
 4100SOL    HW223934   2.492   0.235   2.986 -0.4839 -1.0545  0.0398
 4101SOL     OW23935   3.876   2.570   7.638  0.2142  0.6133  0.0132
 4101SOL    HW123936   3.818   2.594   7.566 -1.1139 -0.3355  0.7681
 4101SOL    HW223937   3.932   2.503   7.600 -0.5099 -0.1691  0.3420
 4102SOL     OW23938   4.511   2.479   6.825 -0.3229 -0.1759  0.1026
 4102SOL    HW123939   4.484   2.529   6.902  0.9058  0.2997  0.2206
 4102SOL    HW223940   4.553   2.404   6.867 -1.8807 -1.2029 -0.1863
 4103SOL     OW23941   3.290   3.581  16.309 -0.0718  0.0117  0.4674
 4103SOL    HW123942   3.346   3.652  16.338  0.3061 -0.7017  1.4827
 4103SOL    HW223943   3.233   3.626  16.247 -0.2850  1.1132  1.4708
 4104SOL     OW23944   2.871   1.552   1.680 -0.1992 -0.0602 -0.0122
 4104SOL    HW123945   2.847   1.577   1.591  0.8728  1.0998  0.0341
 4104SOL    HW223946   2.936   1.620   1.694 -0.4073 -0.2800  2.0289
 4105SOL     OW23947   2.104   0.760   7.582 -0.2903 -0.0292 -0.3868
 4105SOL    HW123948   2.055   0.826   7.533 -1.8481 -0.6552  0.3457
 4105SOL    HW223949   2.173   0.749   7.516  0.6957  0.5539  0.5535
 4106SOL     OW23950   2.305   4.706   1.999 -0.5790  0.1097 -0.5804
 4106SOL    HW123951   2.371   4.734   1.935 -0.7459  1.5070 -0.1297
 4106SOL    HW223952   2.315   0.031   2.068 -1.8311 -1.4280  1.0365
 4107SOL     OW23953   2.686   2.412   4.834  0.6272  0.5795  0.1284
 4107SOL    HW123954   2.645   2.350   4.895 -0.8951  0.2382 -1.2427
 4107SOL    HW223955   2.724   2.472   4.898 -0.1472  0.1352  1.0156
 4108SOL     OW23956   4.403   2.410   8.226 -0.3675  0.1557  0.6913
 4108SOL    HW123957   4.396   2.392   8.320 -0.1447  0.9398  0.8599
 4108SOL    HW223958   4.396   2.323   8.188 -0.3051 -0.6022  2.3783
 4109SOL     OW23959   4.069   0.138   5.549  0.2836  0.3376 -0.1700
 4109SOL    HW123960   4.012   0.091   5.610 -0.6089  2.6785  0.7983
 4109SOL    HW223961   4.085   0.220   5.596  1.9267 -0.2164  0.2276
 4110SOL     OW23962   3.216   3.654   2.505 -0.2445 -0.0178  0.6454
 4110SOL    HW123963   3.125   3.632   2.525 -0.1659  0.5095  1.5871
 4110SOL    HW223964   3.235   3.590   2.436  2.6388 -0.1539  1.5844
 4111SOL     OW23965   1.842   3.264   2.286 -0.5155  0.0878 -0.0164
 4111SOL    HW123966   1.907   3.205   2.247  2.4493  3.0882  0.4781
 4111SOL    HW223967   1.762   3.246   2.236 -0.3183  2.1075 -1.0330
 4112SOL     OW23968   1.454   0.903   2.416 -0.3248 -0.1463  0.2350
 4112SOL    HW123969   1.450   0.808   2.427 -0.3369 -0.1104  0.5228
 4112SOL    HW223970   1.450   0.898   2.320  0.2389  2.4914  0.0778
 4113SOL     OW23971   1.720   2.753   5.205  0.0287 -0.2377  0.1411
 4113SOL    HW123972   1.757   2.674   5.165  2.0066  1.4664 -1.4003
 4113SOL    HW223973   1.627   2.734   5.199 -0.1699  0.4552  0.9813
 4114SOL     OW23974   1.701   3.301   0.726 -0.5185 -0.6916 -0.0524
 4114SOL    HW123975   1.678   3.290   0.818 -0.2148 -0.4645  0.0506
 4114SOL    HW223976   1.702   3.396   0.721 -0.4349 -0.7177 -0.5358
 4115SOL     OW23977   0.808   1.165   9.579 -0.1666 -0.2082  0.0086
 4115SOL    HW123978   0.741   1.126   9.635  0.5273 -0.8186  0.4143
 4115SOL    HW223979   0.801   1.105   9.505  0.1884 -0.9707  0.5828
 4116SOL     OW23980   2.228   2.834  15.925  0.3916 -0.1401  0.0836
 4116SOL    HW123981   2.293   2.832  15.855  1.3014  1.6543  0.8632
 4116SOL    HW223982   2.220   2.926  15.950 -0.9063 -0.5086  1.0278
 4117SOL     OW23983   2.639   2.289   2.219  0.6730 -0.2635 -0.8703
 4117SOL    HW123984   2.581   2.302   2.295 -0.4016 -1.9692 -1.4033
 4117SOL    HW223985   2.705   2.234   2.260 -0.1873 -0.9889 -0.4655
 4118SOL     OW23986   0.135   0.386   7.509 -0.0241 -0.3563  0.3067
 4118SOL    HW123987   0.124   0.405   7.416  2.0353 -0.3459  0.0676
 4118SOL    HW223988   0.227   0.360   7.512  0.1200  0.5227  3.4564
 4119SOL     OW23989   0.763   1.935   5.322  0.7869  0.1972 -0.0373
 4119SOL    HW123990   0.817   1.887   5.385  1.7799 -0.2391 -1.2169
 4119SOL    HW223991   0.707   1.972   5.390  0.4762  0.5759 -0.5015
 4120SOL     OW23992   0.020   0.974  11.574  0.0498 -0.0459 -0.0385
 4120SOL    HW123993   0.112   0.946  11.570  0.0167  0.2625 -2.9176
 4120SOL    HW223994   4.737   0.955  11.483 -1.4158 -2.1714  0.7914
 4121SOL     OW23995   3.618   4.150   5.346 -0.3074  0.3559  0.0317
 4121SOL    HW123996   3.706   4.161   5.382  0.8548 -2.4811 -1.9042
 4121SOL    HW223997   3.649   4.072   5.299 -1.0320 -2.0693  3.5894
 4122SOL     OW23998   1.106   1.531   2.450 -0.0422  0.7941 -0.0252
 4122SOL    HW123999   1.130   1.462   2.389 -0.4929  1.7704 -1.3030
 4122SOL    HW224000   1.168   1.596   2.417 -0.3938  0.8298 -0.6219
 4123SOL     OW24001   3.811   4.274  13.067  0.0001 -0.2577  0.1638
 4123SOL    HW124002   3.749   4.207  13.096 -0.3848 -0.2454 -0.6295
 4123SOL    HW224003   3.828   4.309  13.155 -0.4031 -0.3500  0.2797
 4124SOL     OW24004   0.012   0.001   5.303  0.2920  0.7379  0.1138
 4124SOL    HW124005   4.660   4.739   5.276  0.6632  1.3473 -1.2011
 4124SOL    HW224006   0.014   4.651   5.336  1.3249  0.8342  0.3039
 4125SOL     OW24007   0.260   4.210  11.745  0.0671 -0.1909  0.1927
 4125SOL    HW124008   0.284   4.302  11.736  0.8005 -0.5444 -1.5633
 4125SOL    HW224009   0.174   4.218  11.786 -0.0701  0.2698 -0.1860
 4126SOL     OW24010   1.366   3.727   6.939 -0.1419 -0.4721 -0.0081
 4126SOL    HW124011   1.379   3.670   6.863  0.5398  0.2376 -0.4253
 4126SOL    HW224012   1.390   3.814   6.905 -0.8935 -0.8949 -1.6267
 4127SOL     OW24013   1.259   3.754   4.600  0.5084  0.2846  0.1201
 4127SOL    HW124014   1.252   3.701   4.679  0.8744  1.5241  0.9961
 4127SOL    HW224015   1.282   3.835   4.646  1.0476  0.2610 -0.1063
 4128SOL     OW24016   3.255   3.850   7.633  0.0587 -0.6041  0.1308
 4128SOL    HW124017   3.324   3.785   7.643  1.2080  0.3939 -1.2170
 4128SOL    HW224018   3.233   3.889   7.717 -1.7856 -0.9048 -0.2071
 4129SOL     OW24019   4.276   3.060   3.651  0.0340 -0.1115 -0.5338
 4129SOL    HW124020   4.210   3.033   3.587  0.0846 -2.6959  0.5090
 4129SOL    HW224021   4.342   2.999   3.618  0.6933 -0.4381  1.3928
 4130SOL     OW24022   0.686   1.095   2.760 -0.4377  0.1429  0.1873
 4130SOL    HW124023   0.609   1.087   2.703  0.5400 -0.1299 -1.0942
 4130SOL    HW224024   0.648   1.125   2.843  0.1416  1.5342 -0.0539
 4131SOL     OW24025   2.705   4.390   5.457  0.7649  0.5485  0.4509
 4131SOL    HW124026   2.715   4.485   5.445  0.2588  0.2711 -2.3710
 4131SOL    HW224027   2.721   4.369   5.549  0.4169  0.8433  0.5761
 4132SOL     OW24028   3.032   0.162  11.854  0.3437 -0.1871  0.0641
 4132SOL    HW124029   3.116   0.180  11.896  1.3284 -1.6903 -1.2477
 4132SOL    HW224030   2.980   0.104  11.909 -1.2177 -0.4344 -1.6783
 4133SOL     OW24031   2.031   1.176   6.404 -0.1965 -0.5243 -0.3581
 4133SOL    HW124032   2.002   1.183   6.495 -1.2471 -0.1639 -0.7295
 4133SOL    HW224033   1.997   1.091   6.377  2.0047 -1.5944  0.1671
 4134SOL     OW24034   2.255   1.470   1.267  0.0859 -0.4881  0.2686
 4134SOL    HW124035   2.338   1.516   1.275  0.1821 -0.3757 -1.2736
 4134SOL    HW224036   2.207   1.523   1.330 -1.5139  1.4396 -2.5706
 4135SOL     OW24037   3.554   2.119  10.844  0.1016 -0.2203 -0.9359
 4135SOL    HW124038   3.523   2.138  10.755 -0.7195 -1.5675 -0.9444
 4135SOL    HW224039   3.502   2.040  10.862  2.1057 -1.9006 -2.5850
 4136SOL     OW24040   3.208   1.250  12.788  0.5196 -0.0271  0.1132
 4136SOL    HW124041   3.161   1.322  12.830 -0.7727  0.1393 -1.6473
 4136SOL    HW224042   3.231   1.208  12.871  2.0434  0.4158 -0.0902
 4137SOL     OW24043   0.441   2.973   8.919  0.0877  0.0464  0.2065
 4137SOL    HW124044   0.525   3.000   8.955 -0.1771  0.6115  0.3938
 4137SOL    HW224045   0.371   3.027   8.954 -1.9396 -2.2114 -0.3405
 4138SOL     OW24046   3.870   3.868   3.312  0.4064 -0.2890  0.1852
 4138SOL    HW124047   3.937   3.873   3.381 -0.4771  1.4772  0.9197
 4138SOL    HW224048   3.902   3.919   3.237  0.5187 -1.1915 -0.3784
 4139SOL     OW24049   3.513   2.116   5.978 -0.6524  0.2579  0.0240
 4139SOL    HW124050   3.501   2.151   5.889  0.8214  1.3973  0.2817
 4139SOL    HW224051   3.556   2.189   6.021  0.6091  0.1366 -1.0326
 4140SOL     OW24052   3.557   2.731  11.773 -0.1705  0.0214  0.1884
 4140SOL    HW124053   3.496   2.675  11.820  1.6846 -2.2420 -0.1449
 4140SOL    HW224054   3.553   2.696  11.684 -1.7084 -2.1830  1.1206
 4141SOL     OW24055   4.498   1.099  12.941 -0.4808  0.2628  0.7003
 4141SOL    HW124056   4.558   1.026  12.929 -1.4423 -0.3779 -0.1347
 4141SOL    HW224057   4.478   1.131  12.853  0.5533  0.2564  0.4647
 4142SOL     OW24058   2.603   1.148   3.185  0.4525  0.0524  0.1982
 4142SOL    HW124059   2.698   1.163   3.191  0.2974  1.0781 -0.0432
 4142SOL    HW224060   2.605   1.080   3.253  0.2167  1.5554  1.7292
 4143SOL     OW24061   1.161   0.868   6.873  0.2819  0.0552 -1.1745
 4143SOL    HW124062   1.176   0.777   6.899 -0.1135  0.4012  0.2523
 4143SOL    HW224063   1.242   0.898   6.914  1.8495 -0.8674 -3.5480
 4144SOL     OW24064   3.427   2.372  13.601  0.1319 -0.2658 -0.4227
 4144SOL    HW124065   3.335   2.347  13.601  0.7017 -2.3893 -0.3975
 4144SOL    HW224066   3.465   2.327  13.676 -1.8537 -0.3446  0.5365
 4145SOL     OW24067   2.873   1.603   4.877  0.4634  0.4275  0.0869
 4145SOL    HW124068   2.958   1.559   4.878 -0.6403 -1.7751 -2.3822
 4145SOL    HW224069   2.904   1.686   4.912 -1.4598  0.7580  1.0137
 4146SOL     OW24070   3.695   2.441   7.039 -0.0866 -0.1286  0.4996
 4146SOL    HW124071   3.686   2.369   6.976  0.3165  2.7180 -2.7709
 4146SOL    HW224072   3.787   2.426   7.064 -0.0494 -2.2597 -0.8403
 4147SOL     OW24073   2.767   0.139  12.469 -0.2169 -0.2634  0.5363
 4147SOL    HW124074   2.825   0.206  12.506  0.8170  0.2098 -1.9892
 4147SOL    HW224075   2.726   0.125  12.555  2.4354 -0.6967  1.7437
 4148SOL     OW24076   3.537   0.154   8.303  0.1592 -0.1823  0.2745
 4148SOL    HW124077   3.520   0.113   8.218 -0.2151  0.3270  0.1025
 4148SOL    HW224078   3.464   0.214   8.318  1.0004  0.7142  0.7838
 4149SOL     OW24079   0.189   2.095  16.093  0.2038 -0.2368 -0.1750
 4149SOL    HW124080   0.160   2.170  16.041  1.1986  0.4203  0.2233
 4149SOL    HW224081   0.235   2.147  16.158  1.7659 -0.4950 -1.0784
 4150SOL     OW24082   0.059   3.794  16.147  0.0355  0.0807  0.2090
 4150SOL    HW124083   0.022   3.816  16.061  1.2412  1.2806 -0.0063
 4150SOL    HW224084   0.094   3.879  16.174  4.3002 -1.3310 -0.8162
 4151SOL     OW24085   0.685   3.524   1.677 -0.6043  0.0297  0.0165
 4151SOL    HW124086   0.739   3.472   1.617 -0.5296  0.0789  0.0408
 4151SOL    HW224087   0.683   3.456   1.744 -0.3124 -0.8297 -0.8383
 4152SOL     OW24088   0.547   1.678   9.783  0.3273  0.0351  0.9608
 4152SOL    HW124089   0.508   1.599   9.745  2.1159 -1.3849  2.0650
 4152SOL    HW224090   0.472   1.737   9.794 -1.0260 -1.2298 -1.5106
 4153SOL     OW24091   1.187   2.652   9.085  0.1400 -0.1370  0.0616
 4153SOL    HW124092   1.155   2.735   9.122 -0.7728 -1.5022  2.3172
 4153SOL    HW224093   1.280   2.672   9.083 -0.4224  2.4284 -0.5308
 4154SOL     OW24094   0.335   3.622   2.834  0.6753 -0.3077 -0.0512
 4154SOL    HW124095   0.301   3.584   2.753 -2.7785 -0.1445  1.3458
 4154SOL    HW224096   0.383   3.696   2.795  0.1295  0.1483  0.1557
 4155SOL     OW24097   1.122   3.693   2.314  0.1667 -0.4980  0.5121
 4155SOL    HW124098   1.143   3.787   2.316  2.1376 -0.9275  0.5532
 4155SOL    HW224099   1.100   3.674   2.224 -1.8608  1.6366  0.5584
 4156SOL     OW24100   1.991   1.727   4.723  0.0674  0.1854  0.3376
 4156SOL    HW124101   1.920   1.787   4.699  1.0778  2.2150  2.4177
 4156SOL    HW224102   2.054   1.786   4.763  1.7510 -0.1467 -1.8285
 4157SOL     OW24103   1.310   3.554   7.600  0.5552 -0.3905  0.3969
 4157SOL    HW124104   1.345   3.465   7.600 -0.8827 -0.9556  1.8997
 4157SOL    HW224105   1.335   3.595   7.683 -2.7308 -0.7583  1.5853
 4158SOL     OW24106   2.395   1.119  10.680 -0.1130 -0.3263 -0.0095
 4158SOL    HW124107   2.328   1.057  10.708 -1.1456  1.0707  0.5569
 4158SOL    HW224108   2.469   1.061  10.697  1.1512  1.1720 -0.3721
 4159SOL     OW24109   3.088   2.146   3.641  0.2879  0.0786 -0.1155
 4159SOL    HW124110   3.101   2.052   3.631 -0.3946  0.0940 -1.1317
 4159SOL    HW224111   3.010   2.160   3.587  0.3679 -2.0508 -0.7790
 4160SOL     OW24112   0.587   4.426   3.917  0.0863  0.2535 -0.2024
 4160SOL    HW124113   0.619   4.515   3.934  1.1232  0.0942 -1.3122
 4160SOL    HW224114   0.495   4.445   3.934 -0.0780  0.3652 -1.1930
 4161SOL     OW24115   2.956   2.695  17.119 -0.4458 -0.5276  0.5266
 4161SOL    HW124116   2.883   2.650  17.162  0.0932 -1.5141  0.4121
 4161SOL    HW224117   2.979   2.765  17.180  0.9982  0.4517 -1.1371
 4162SOL     OW24118   0.609   1.744  13.134  0.3705 -0.1565 -0.2012
 4162SOL    HW124119   0.691   1.793  13.121  0.1021  0.2440 -0.3695
 4162SOL    HW224120   0.618   1.731  13.229  1.9105  1.2792 -0.1447
 4163SOL     OW24121   1.505   0.869   2.840  0.0007 -0.1854 -0.2493
 4163SOL    HW124122   1.600   0.880   2.832  0.1411  0.7494  2.8253
 4163SOL    HW224123   1.502   0.782   2.800 -1.6971  0.6160 -1.8459
 4164SOL     OW24124   2.227   4.501   5.298  0.0599 -0.0856  0.1723
 4164SOL    HW124125   2.225   4.529   5.206  1.0863  0.3037  0.2681
 4164SOL    HW224126   2.298   4.437   5.307  0.2690 -0.2623 -2.5407
 4165SOL     OW24127   2.612   2.837   8.984 -0.3733 -0.0828 -0.4809
 4165SOL    HW124128   2.619   2.930   9.002 -1.5204  0.2498 -1.7147
 4165SOL    HW224129   2.698   2.815   9.020 -0.9145 -1.0861  0.1935
 4166SOL     OW24130   0.873   0.076   4.370 -0.0425  0.3651 -0.4583
 4166SOL    HW124131   0.802   0.022   4.405 -0.0302  0.2091 -0.6748
 4166SOL    HW224132   0.838   0.159   4.401 -1.2616 -0.1585 -0.4536
 4167SOL     OW24133   3.363   3.771   5.974  0.0590 -0.1795  0.4453
 4167SOL    HW124134   3.410   3.850   5.946  1.1962  0.0985  3.1015
 4167SOL    HW224135   3.386   3.767   6.067 -0.6976 -0.1495  0.6367
 4168SOL     OW24136   4.432   0.286   5.062  0.1840 -0.0912  0.2899
 4168SOL    HW124137   4.381   0.315   5.138  1.2765  1.7472  0.3303
 4168SOL    HW224138   4.364   0.241   5.011  0.8565  0.7529 -1.3597
 4169SOL     OW24139   3.938   2.031   8.294 -0.2602  0.2066 -0.1642
 4169SOL    HW124140   3.946   1.937   8.276  1.7180  0.0271  1.6432
 4169SOL    HW224141   4.015   2.066   8.249 -0.2944  1.2425  0.5802
 4170SOL     OW24142   0.640   2.713   1.474 -0.3535 -0.2800  0.3294
 4170SOL    HW124143   0.550   2.715   1.441 -0.1012 -0.2219 -0.3432
 4170SOL    HW224144   0.635   2.751   1.562 -0.6986 -0.3303  0.3316
 4171SOL     OW24145   3.406   4.502   5.982 -1.1968 -0.2197 -0.5935
 4171SOL    HW124146   3.339   4.511   6.051  0.1325 -4.5075  1.2337
 4171SOL    HW224147   3.388   4.579   5.927  0.1434  0.1235 -0.5496
 4172SOL     OW24148   2.830   3.892   2.975 -0.0158 -0.6549  0.4775
 4172SOL    HW124149   2.784   3.964   3.019  1.6195  0.6642  0.0716
 4172SOL    HW224150   2.917   3.905   3.014 -1.6581  2.2377  3.2263
 4173SOL     OW24151   4.685   3.516   8.965  0.2364 -0.3113  0.2868
 4173SOL    HW124152   4.644   3.598   8.939 -0.3566 -0.1758  1.6282
 4173SOL    HW224153   4.727   3.493   8.883 -0.0976 -0.7786  0.2480
 4174SOL     OW24154   1.220   2.133  14.003  0.0999  0.4144  0.3200
 4174SOL    HW124155   1.209   2.072  13.930  0.9402  0.4625  0.1470
 4174SOL    HW224156   1.146   2.191  13.985  0.8767  0.8551 -1.4382
 4175SOL     OW24157   0.321   4.646   3.099 -0.2089  0.2286  0.1206
 4175SOL    HW124158   0.414   4.650   3.077 -0.0480 -0.7268  0.6335
 4175SOL    HW224159   0.284   4.668   3.013 -0.8233 -1.7429 -0.1343
 4176SOL     OW24160   4.048   1.002   5.568 -0.2605  0.1052  0.3833
 4176SOL    HW124161   4.139   0.976   5.551 -0.1696 -0.2469  1.3926
 4176SOL    HW224162   3.997   0.922   5.560  1.6549 -1.2167  1.1451
 4177SOL     OW24163   4.297   3.424   2.550  0.1256 -0.2136  0.2506
 4177SOL    HW124164   4.256   3.385   2.628 -2.2761 -0.2988 -1.0488
 4177SOL    HW224165   4.241   3.502   2.548 -1.7881 -1.6077 -0.0845
 4178SOL     OW24166   0.019   3.912   2.630  0.3874  0.1186 -0.0682
 4178SOL    HW124167   4.735   3.839   2.687 -1.1642  0.0724 -0.7946
 4178SOL    HW224168   0.034   3.879   2.542  0.8583 -0.5311  0.2531
 4179SOL     OW24169   0.356   1.386   8.749 -0.6752 -0.2901  0.3928
 4179SOL    HW124170   0.278   1.401   8.803  0.3535 -2.8051  2.5747
 4179SOL    HW224171   0.426   1.372   8.813 -2.4171  0.9178  2.5668
 4180SOL     OW24172   0.471   1.988   6.517  0.0008  0.0487 -0.1302
 4180SOL    HW124173   0.550   1.988   6.571 -0.8120 -1.4788  1.0685
 4180SOL    HW224174   0.490   1.916   6.457  1.9221 -1.0554  1.7934
 4181SOL     OW24175   2.993   2.684   4.313 -0.2270 -0.1335 -0.0211
 4181SOL    HW124176   2.902   2.690   4.340 -0.2614  1.1032 -0.4331
 4181SOL    HW224177   3.006   2.778   4.305 -2.5596  0.2305  0.7239
 4182SOL     OW24178   2.803   0.404  12.134 -0.5337 -0.2825  0.0606
 4182SOL    HW124179   2.738   0.349  12.177 -1.7785  2.0710  1.1751
 4182SOL    HW224180   2.799   0.371  12.044  0.1150 -2.0733  0.6920
 4183SOL     OW24181   4.429   1.933   0.354  0.9332  0.5435  0.0094
 4183SOL    HW124182   4.494   1.996   0.324  0.5389  0.9405 -0.0055
 4183SOL    HW224183   4.479   1.861   0.314  0.2296  0.1062 -0.0761
 4184SOL     OW24184   1.468   0.625  11.050 -0.2980 -0.9140  0.1224
 4184SOL    HW124185   1.524   0.703  11.052 -2.3933  0.5797  0.1988
 4184SOL    HW224186   1.385   0.663  11.021  0.9593  1.2462 -0.7119
 4185SOL     OW24187   1.432   0.029   1.760 -0.4428 -0.0206  0.7042
 4185SOL    HW124188   1.500   0.077   1.713 -1.6987 -0.5059 -1.6176
 4185SOL    HW224189   1.455   0.056   1.849  1.6045  0.4925  0.0185
 4186SOL     OW24190   0.556   1.707  13.677 -0.0252  0.0051  0.4318
 4186SOL    HW124191   0.612   1.770  13.722  0.4133  0.9822 -1.4843
 4186SOL    HW224192   0.475   1.757  13.685  0.5175  0.9243  0.1519
 4187SOL     OW24193   0.630   0.166   6.733 -0.6460  0.2091 -0.3207
 4187SOL    HW124194   0.634   0.088   6.788  1.9927  0.6892  0.1631
 4187SOL    HW224195   0.724   0.181   6.719 -0.7861  1.0905 -0.3244
 4188SOL     OW24196   3.408   2.539   6.216  0.2060  0.0360 -0.2769
 4188SOL    HW124197   3.477   2.603   6.199  0.9930 -0.2072  2.1257
 4188SOL    HW224198   3.335   2.597   6.192  0.0599  1.3262  3.2985
 4189SOL     OW24199   4.035   2.124  14.567 -0.0738 -0.3461  0.5421
 4189SOL    HW124200   3.975   2.050  14.573  1.0034 -1.3356 -0.7559
 4189SOL    HW224201   3.989   2.197  14.608  2.4684  2.2755 -1.2428
 4190SOL     OW24202   2.910   4.613  11.251  0.1533 -0.3122 -0.1677
 4190SOL    HW124203   2.880   4.595  11.162  1.2598  2.3712 -1.1039
 4190SOL    HW224204   2.856   4.569  11.316 -1.0618  2.8837  0.9943
 4191SOL     OW24205   4.347   3.682  17.286  0.5203  0.1687  0.2376
 4191SOL    HW124206   4.400   3.603  17.272 -0.9372 -0.9768  1.1284
 4191SOL    HW224207   4.346   3.681  17.382  2.2194  1.7504  0.2823
 4192SOL     OW24208   4.579   0.145   8.667 -0.1581  0.0148  0.7289
 4192SOL    HW124209   4.640   0.099   8.609  3.5723  2.4296  2.7126
 4192SOL    HW224210   4.493   0.133   8.626 -1.3226  2.0111  2.5746
 4193SOL     OW24211   0.714   4.020   4.145 -0.2164 -0.0552  0.3498
 4193SOL    HW124212   0.643   4.053   4.090  0.9538  0.2441 -0.9897
 4193SOL    HW224213   0.782   4.083   4.120  0.8663 -0.4300  2.3402
 4194SOL     OW24214   1.143   3.854   3.562  0.0981  0.4497  0.0576
 4194SOL    HW124215   1.234   3.881   3.546  0.8891 -2.0792  0.3141
 4194SOL    HW224216   1.089   3.931   3.545  0.0859  0.6730  1.0751
 4195SOL     OW24217   0.773   3.435   4.772 -0.1089 -0.0133  0.6154
 4195SOL    HW124218   0.736   3.390   4.696 -2.0393  2.6560 -0.0231
 4195SOL    HW224219   0.817   3.359   4.810 -0.3460  0.1097  1.1366
 4196SOL     OW24220   3.314   2.340   2.952  0.0846  0.1350 -0.1658
 4196SOL    HW124221   3.367   2.270   2.989  0.5906  0.0376 -1.0722
 4196SOL    HW224222   3.299   2.387   3.034 -3.2079 -0.4626 -0.4129
 4197SOL     OW24223   2.139   3.212   2.066 -0.6113 -0.1985 -0.7436
 4197SOL    HW124224   2.069   3.216   2.001 -1.1870 -2.3709 -0.2379
 4197SOL    HW224225   2.169   3.128   2.030  0.3824  0.0515 -0.5038
 4198SOL     OW24226   0.620   2.538  11.865 -0.3166  0.0942  0.0309
 4198SOL    HW124227   0.703   2.578  11.889  1.1194 -1.8032 -1.8671
 4198SOL    HW224228   0.631   2.445  11.884 -2.0030 -0.2120 -0.4733
 4199SOL     OW24229   2.144   0.230  10.993  0.0538  0.4736  0.4946
 4199SOL    HW124230   2.108   0.186  10.916 -0.3611 -0.0827  1.0040
 4199SOL    HW224231   2.211   0.285  10.952  1.4234  0.1234  2.2496
 4200SOL     OW24232   3.935   2.197   8.850  0.6592  0.1062  0.0148
 4200SOL    HW124233   3.904   2.106   8.846  0.2510  0.2303  0.3087
 4200SOL    HW224234   3.891   2.223   8.770  1.0827  1.6518  0.2833
 4201SOL     OW24235   1.278   0.718   2.071  0.4173 -0.7846  0.1596
 4201SOL    HW124236   1.367   0.744   2.091 -0.1959  1.7005 -0.3569
 4201SOL    HW224237   1.290   0.653   2.001  0.1875  0.4189 -1.0044
 4202SOL     OW24238   1.057   0.066   0.726 -0.5081  0.0509  0.0795
 4202SOL    HW124239   1.146   0.030   0.720 -0.8195 -0.8068  0.5362
 4202SOL    HW224240   1.036   0.064   0.819  0.4842 -0.7481  0.2914
 4203SOL     OW24241   1.065   2.340   4.175 -0.0640  0.1283 -0.0631
 4203SOL    HW124242   1.116   2.264   4.201  2.4389  0.7829 -3.0098
 4203SOL    HW224243   1.076   2.344   4.080 -0.9936  2.6488 -0.0856
 4204SOL     OW24244   1.770   1.000   9.776 -0.4617  0.1797 -0.0319
 4204SOL    HW124245   1.746   0.994   9.684 -1.5788 -1.3603  0.3534
 4204SOL    HW224246   1.703   0.938   9.807 -1.3032  0.0232 -2.2171
 4205SOL     OW24247   0.459   1.835  11.255 -0.2795 -0.1824 -0.0714
 4205SOL    HW124248   0.415   1.769  11.308  0.8322 -0.8399  0.0247
 4205SOL    HW224249   0.398   1.855  11.183 -0.4757  3.9059  1.2352
 4206SOL     OW24250   4.019   4.445   5.428  0.0209 -0.0166 -0.3700
 4206SOL    HW124251   4.073   4.522   5.442 -1.7129  1.3661 -1.3001
 4206SOL    HW224252   3.955   4.439   5.499  0.0041  0.2808 -0.3599
 4207SOL     OW24253   2.801   1.950   5.647  0.1613  0.2560 -0.0844
 4207SOL    HW124254   2.797   1.925   5.555 -0.6502 -1.8626  0.5329
 4207SOL    HW224255   2.889   1.987   5.650 -0.1114  0.6490  3.3801
 4208SOL     OW24256   4.230   3.926   8.140 -0.0425  0.0738 -0.0645
 4208SOL    HW124257   4.157   3.987   8.150 -0.1877 -0.5196  2.3967
 4208SOL    HW224258   4.243   3.895   8.229 -0.6460 -1.3625 -0.4919
 4209SOL     OW24259   2.794   4.667  17.543  0.3681  0.3097  0.1698
 4209SOL    HW124260   2.832   4.604  17.482 -0.7151 -1.4253  1.2807
 4209SOL    HW224261   2.753   4.612  17.610  1.4223  1.7632  2.0260
 4210SOL     OW24262   2.129   0.488   6.398  0.3002 -0.2156 -0.5534
 4210SOL    HW124263   2.143   0.581   6.416 -1.1338 -0.1337  0.1059
 4210SOL    HW224264   2.086   0.490   6.313 -3.1439 -0.1866  1.1593
 4211SOL     OW24265   4.419   2.102  11.111 -0.3114 -0.2294  0.0955
 4211SOL    HW124266   4.333   2.108  11.069  0.5650 -0.4865 -1.7427
 4211SOL    HW224267   4.393   2.113  11.203 -0.7323 -2.8678  0.2847
 4212SOL     OW24268   2.388   4.544  17.013 -0.2587  0.3023 -0.0918
 4212SOL    HW124269   2.321   4.600  17.052 -1.2590  0.1561 -1.5884
 4212SOL    HW224270   2.410   4.596  16.935 -0.5047 -2.6968 -2.1480
 4213SOL     OW24271   0.252   1.819   8.139  0.5289  0.5064  0.2525
 4213SOL    HW124272   0.258   1.747   8.076 -1.5795  0.0578  0.5529
 4213SOL    HW224273   0.343   1.811   8.166  0.1589  0.7807  1.5691
 4214SOL     OW24274   2.830   0.513   2.715  0.5522  0.6029 -0.7925
 4214SOL    HW124275   2.857   0.602   2.736  1.7958  0.0631 -0.1171
 4214SOL    HW224276   2.735   0.527   2.707  0.4987  1.2498  1.0886
 4215SOL     OW24277   1.790   2.062  10.745  0.4011 -0.1949 -0.1084
 4215SOL    HW124278   1.786   1.970  10.717  1.4031 -0.1449 -0.4305
 4215SOL    HW224279   1.729   2.063  10.819 -1.7846  1.1138 -1.9416
 4216SOL     OW24280   1.127   1.381   9.792 -0.4213  0.6047  0.7985
 4216SOL    HW124281   1.104   1.450   9.855  0.3882  0.7564  0.9288
 4216SOL    HW224282   1.197   1.427   9.744  0.8369 -2.1434  0.0194
 4217SOL     OW24283   3.932   2.796   1.179 -0.5209 -0.1548 -0.0195
 4217SOL    HW124284   3.843   2.766   1.157 -1.1303  1.4279  0.3372
 4217SOL    HW224285   3.933   2.871   1.120 -2.1314  0.1300  0.3060
 4218SOL     OW24286   2.902   1.368  15.937 -0.4440  0.5078  0.4633
 4218SOL    HW124287   2.878   1.279  15.962 -0.9344  1.2378  2.5443
 4218SOL    HW224288   2.886   1.376  15.843 -1.8455 -1.0525  0.5783
 4219SOL     OW24289   1.037   3.649   7.817  0.2272 -0.4710 -0.2868
 4219SOL    HW124290   1.037   3.596   7.897  3.7967 -1.0117 -0.6127
 4219SOL    HW224291   0.959   3.704   7.818 -0.1810 -1.0703  1.7954
 4220SOL     OW24292   0.924   2.881   4.288 -0.0003  0.0910  0.0374
 4220SOL    HW124293   0.936   2.976   4.290 -1.2301  0.2421  0.3911
 4220SOL    HW224294   0.852   2.881   4.225 -0.0038 -0.2464  0.0442
 4221SOL     OW24295   1.467   4.389   5.051 -0.1278  0.1785  0.3633
 4221SOL    HW124296   1.484   4.437   4.969 -1.2859 -0.2850 -0.1544
 4221SOL    HW224297   1.548   4.410   5.097  0.4446 -2.2671  0.4465
 4222SOL     OW24298   3.842   1.353   1.610 -0.1867 -0.3119  0.1786
 4222SOL    HW124299   3.797   1.292   1.669 -2.6820 -0.5500 -1.9867
 4222SOL    HW224300   3.895   1.392   1.680  0.4971 -0.4217 -0.2852
 4223SOL     OW24301   2.614   1.596   3.175  0.1844 -0.0485 -0.0931
 4223SOL    HW124302   2.619   1.691   3.162  0.7741  0.1180  1.4173
 4223SOL    HW224303   2.659   1.597   3.259  0.3577 -0.1043 -0.1851
 4224SOL     OW24304   3.040   4.580   7.560  0.1880 -0.0520 -0.2760
 4224SOL    HW124305   3.000   4.563   7.475  0.1152 -3.0897  0.3629
 4224SOL    HW224306   2.966   4.549   7.612 -1.5696  3.6939 -0.5704
 4225SOL     OW24307   3.074   1.449  12.875  0.2708  0.1236 -0.1412
 4225SOL    HW124308   3.145   1.462  12.938  1.3797 -0.4568 -1.2656
 4225SOL    HW224309   3.056   1.536  12.839  3.3825 -0.0541 -2.1194
 4226SOL     OW24310   2.229   2.242   4.941  0.2086 -0.2648  0.6887
 4226SOL    HW124311   2.199   2.285   4.861 -0.7634  0.9492  1.7071
 4226SOL    HW224312   2.299   2.186   4.910 -0.5389 -1.0293  0.3923
 4227SOL     OW24313   1.339   1.905   9.521 -0.1182 -0.2141 -0.1217
 4227SOL    HW124314   1.274   1.853   9.568 -1.9553  1.7752 -0.4482
 4227SOL    HW224315   1.419   1.854   9.511  0.7523  1.3870 -1.4428
 4228SOL     OW24316   2.426   4.702  15.116  0.3206 -0.4174  0.1108
 4228SOL    HW124317   2.412   0.015  15.195 -0.6543  0.5305 -0.6898
 4228SOL    HW224318   2.456   0.011  15.039 -0.1141 -1.0659 -0.4639
 4229SOL     OW24319   0.723   0.559   2.397  0.4505  0.2701  0.4867
 4229SOL    HW124320   0.766   0.635   2.435  2.3536 -0.3798 -0.3567
 4229SOL    HW224321   0.733   0.565   2.302  0.0933 -0.7117  0.3913
 4230SOL     OW24322   4.649   1.928   2.453  0.1149 -0.0890  0.2127
 4230SOL    HW124323   4.580   1.977   2.500  0.5704  0.8230 -0.0639
 4230SOL    HW224324   4.626   1.932   2.360 -0.3124  3.0184  0.4519
 4231SOL     OW24325   1.861   2.116   6.090  0.1929 -1.0264 -0.5199
 4231SOL    HW124326   1.773   2.124   6.126  0.1907  1.9318 -1.1250
 4231SOL    HW224327   1.854   2.031   6.048  0.2604 -1.4674  0.3748
 4232SOL     OW24328   1.818   0.573   3.740 -0.2608  0.0758  0.6459
 4232SOL    HW124329   1.809   0.582   3.646  0.6549 -0.4477  0.5145
 4232SOL    HW224330   1.910   0.589   3.759 -0.3526  0.3617  0.8459
 4233SOL     OW24331   0.150   0.234   8.946 -0.4952  0.0656 -0.7429
 4233SOL    HW124332   0.120   0.232   9.036  0.2107 -0.0673 -0.5116
 4233SOL    HW224333   0.115   0.153   8.907 -0.2491  0.1962 -1.2457
 4234SOL     OW24334   3.589   2.764   3.871 -0.0203  0.1523 -0.0901
 4234SOL    HW124335   3.660   2.806   3.920  0.5373  1.7236 -2.2467
 4234SOL    HW224336   3.547   2.837   3.824 -0.2710  0.1071  0.0642
 4235SOL     OW24337   3.038   0.714  10.121 -0.0719  0.2466  0.2645
 4235SOL    HW124338   2.949   0.749  10.119  0.4190  1.4792  0.2043
 4235SOL    HW224339   3.076   0.779  10.062 -1.5634  0.1004 -0.8562
 4236SOL     OW24340   3.987   2.096   1.178 -0.2048 -0.1701 -0.4866
 4236SOL    HW124341   3.907   2.115   1.227  2.1472 -0.7534  3.6141
 4236SOL    HW224342   3.989   2.001   1.172  0.0112 -0.1414 -0.8608
 4237SOL     OW24343   2.430   3.898   7.063 -0.0324 -0.5743  0.2943
 4237SOL    HW124344   2.442   3.804   7.050 -0.9413 -0.9854  2.4057
 4237SOL    HW224345   2.440   3.933   6.975  0.7684 -0.5764  0.3825
 4238SOL     OW24346   3.027   3.329   1.719  0.2500  0.2195  0.1341
 4238SOL    HW124347   3.010   3.361   1.807 -1.9379  0.1109 -0.2635
 4238SOL    HW224348   2.958   3.377   1.675 -0.0630  0.4067  0.8389
 4239SOL     OW24349   0.393   2.343  11.862  0.4590 -0.1515  0.3655
 4239SOL    HW124350   0.326   2.395  11.906 -0.0967 -0.7176  0.1799
 4239SOL    HW224351   0.407   2.406  11.792 -1.9484 -0.3347 -0.2815
 4240SOL     OW24352   4.483   3.436  17.335 -0.0319 -0.1648  0.1881
 4240SOL    HW124353   4.539   3.476  17.401  2.1138 -1.9016 -0.5748
 4240SOL    HW224354   4.467   3.348  17.370 -2.0090 -1.5731 -4.2509
 4241SOL     OW24355   4.348   1.468  11.168 -0.3211 -0.2551  0.2799
 4241SOL    HW124356   4.307   1.498  11.248 -1.2214  0.5395 -0.4870
 4241SOL    HW224357   4.362   1.553  11.125 -0.6721  0.2728  1.2350
 4242SOL     OW24358   3.732   0.803   3.017 -0.1668  0.1402  0.0651
 4242SOL    HW124359   3.717   0.808   3.111 -0.3842 -1.6749  0.1264
 4242SOL    HW224360   3.719   0.894   2.991  0.7602  0.1594 -0.3263
 4243SOL     OW24361   3.587   0.484  16.909 -0.3331  0.1503 -0.1899
 4243SOL    HW124362   3.536   0.408  16.937  0.4349 -0.6313 -0.9240
 4243SOL    HW224363   3.658   0.436  16.866  0.2440  0.1652  0.7292
 4244SOL     OW24364   0.852   2.794   8.520 -0.1603 -0.3033  0.1984
 4244SOL    HW124365   0.942   2.760   8.520 -0.6459 -1.5976 -0.9911
 4244SOL    HW224366   0.798   2.718   8.542 -0.5071  0.4377  1.9113
 4245SOL     OW24367   4.708   3.042   1.908  0.2866 -0.2442 -0.0040
 4245SOL    HW124368   4.654   3.047   1.830  0.1902 -1.3838 -0.0133
 4245SOL    HW224369   4.726   3.134   1.926  0.0676 -0.1438 -0.3038
 4246SOL     OW24370   0.795   4.376  12.541 -0.3320  0.5185  0.2608
 4246SOL    HW124371   0.844   4.402  12.463  1.7601  0.6091  1.5838
 4246SOL    HW224372   0.772   4.462  12.578 -3.7424 -0.3277  0.0785
 4247SOL     OW24373   0.968   2.648   0.810 -0.5617 -0.6070 -0.2029
 4247SOL    HW124374   0.966   2.568   0.758 -0.3391 -0.3912 -0.5437
 4247SOL    HW224375   0.952   2.713   0.743  2.8302 -0.5945 -1.0401
 4248SOL     OW24376   1.107   0.959   3.289  0.2575  0.1114 -0.3827
 4248SOL    HW124377   1.122   0.997   3.202 -2.4327 -0.5615 -1.1433
 4248SOL    HW224378   1.015   0.933   3.300 -0.2952  1.6495 -1.4074
 4249SOL     OW24379   2.314   4.498   8.159  0.3135 -0.0683 -0.4006
 4249SOL    HW124380   2.247   4.464   8.219  1.2973 -0.5127  0.4540
 4249SOL    HW224381   2.289   4.463   8.073  0.6562 -2.3497  0.4161
 4250SOL     OW24382   2.654   1.310   8.763  0.5489  0.4075 -1.0568
 4250SOL    HW124383   2.605   1.348   8.837 -0.0582  3.2597 -2.9150
 4250SOL    HW224384   2.729   1.369   8.757  0.8167 -0.2827 -4.2010
 4251SOL     OW24385   3.440   1.177   2.792  0.1786 -0.0781 -0.1142
 4251SOL    HW124386   3.459   1.271   2.799 -0.9861  0.2339 -1.0939
 4251SOL    HW224387   3.386   1.192   2.714  0.2666  0.2139 -0.1215
 4252SOL     OW24388   2.809   0.989   0.314 -0.1828  0.0458  0.0704
 4252SOL    HW124389   2.807   0.894   0.305 -2.4988 -0.2406  3.6696
 4252SOL    HW224390   2.755   0.990   0.393 -0.1655 -2.0296  0.0834
 4253SOL     OW24391   2.823   1.529   7.792  0.4907  0.3143 -0.8272
 4253SOL    HW124392   2.851   1.441   7.767 -1.2263 -0.5648  0.3707
 4253SOL    HW224393   2.750   1.523   7.732 -1.2244 -0.4857  1.3444
 4254SOL     OW24394   2.846   1.528   2.271 -0.6735 -0.1746 -0.1126
 4254SOL    HW124395   2.886   1.534   2.184  3.0127 -1.6830  1.4703
 4254SOL    HW224396   2.860   1.619   2.298  1.2730 -0.0500 -1.5215
 4255SOL     OW24397   1.303   0.596   8.204  0.0409 -0.2764  0.0353
 4255SOL    HW124398   1.314   0.689   8.227  0.1441 -0.1591 -0.4908
 4255SOL    HW224399   1.393   0.565   8.216  0.5639  1.1565 -0.0714
 4256SOL     OW24400   0.155   3.361   4.142  0.2741 -0.2387  0.3603
 4256SOL    HW124401   0.071   3.398   4.170  0.4446  0.6031 -0.2227
 4256SOL    HW224402   0.158   3.290   4.206 -1.1565 -0.7703 -0.1719
 4257SOL     OW24403   0.411   1.992   1.210 -0.5352  0.3455  0.0108
 4257SOL    HW124404   0.457   1.909   1.223  0.1826  0.6212 -0.7092
 4257SOL    HW224405   0.451   2.039   1.283 -0.1221 -0.7822  0.5121
 4258SOL     OW24406   3.104   1.326  15.623 -0.1054 -0.2435 -0.0754
 4258SOL    HW124407   3.147   1.401  15.664 -1.4090  0.2981  0.2733
 4258SOL    HW224408   3.012   1.341  15.643  0.0179  0.4307 -0.0023
 4259SOL     OW24409   2.195   2.984   1.909  0.4416 -0.0001  0.4296
 4259SOL    HW124410   2.240   2.900   1.902  0.2708  0.1714 -2.4967
 4259SOL    HW224411   2.236   3.025   1.833 -0.1514  0.3928  0.3184
 4260SOL     OW24412   1.816   1.121  16.035 -0.2592 -0.0328  0.0013
 4260SOL    HW124413   1.748   1.055  16.019 -0.5725  0.6698 -1.6469
 4260SOL    HW224414   1.784   1.201  15.992  0.1315 -0.7435 -1.6362
 4261SOL     OW24415   1.106   0.258   5.868 -0.5079  0.1116 -0.4542
 4261SOL    HW124416   1.090   0.322   5.799 -0.6543  1.0115  0.4249
 4261SOL    HW224417   1.070   0.307   5.941  2.6840 -0.0985  1.2255
 4262SOL     OW24418   2.616   1.783   2.686 -0.0513 -1.0296  0.5369
 4262SOL    HW124419   2.627   1.877   2.695 -3.4768 -0.3451 -2.4804
 4262SOL    HW224420   2.540   1.771   2.628  1.3271 -2.3923 -0.9888
 4263SOL     OW24421   2.996   0.685  16.756  0.9392 -0.2468  0.0305
 4263SOL    HW124422   3.058   0.731  16.814  0.5748 -1.5583  1.4622
 4263SOL    HW224423   2.980   0.606  16.807 -0.0532 -0.7881 -1.1301
 4264SOL     OW24424   4.021   0.964  17.083 -0.0352 -0.3445 -0.0686
 4264SOL    HW124425   3.991   1.004  17.001 -0.1476 -1.2938 -0.4935
 4264SOL    HW224426   4.036   1.048  17.126  3.2633 -0.8722 -0.2121
 4265SOL     OW24427   4.707   3.317   8.432  0.2232  0.9108  0.2938
 4265SOL    HW124428   0.018   3.246   8.393  2.4876  1.8218  1.5513
 4265SOL    HW224429   4.638   3.277   8.484  0.8107 -2.8030 -1.7856
 4266SOL     OW24430   0.955   1.782   5.465  0.2162 -0.2843  0.1313
 4266SOL    HW124431   1.014   1.811   5.535  1.0025  0.8327 -0.9968
 4266SOL    HW224432   0.974   1.690   5.446  2.2259  0.0606  0.5042
 4267SOL     OW24433   3.765   1.759   8.066 -0.2541  0.1515 -0.5365
 4267SOL    HW124434   3.733   1.791   7.981  1.8277 -0.2932 -1.4968
 4267SOL    HW224435   3.836   1.699   8.046  0.4518  0.1484  2.1136
 4268SOL     OW24436   3.944   2.326   3.129 -0.3956  0.6338 -0.4261
 4268SOL    HW124437   3.882   2.268   3.085  0.6517 -0.0901 -0.9594
 4268SOL    HW224438   4.022   2.317   3.074 -1.2505  1.4860 -1.7851
 4269SOL     OW24439   0.384   2.286   9.450  0.2458 -0.3221 -0.3904
 4269SOL    HW124440   0.426   2.206   9.417 -0.6720 -0.6980 -0.6494
 4269SOL    HW224441   0.416   2.338   9.376  1.1882  0.7334  0.7750
 4270SOL     OW24442   1.335   1.118   4.550 -0.4587  0.3048  0.4548
 4270SOL    HW124443   1.376   1.204   4.551  0.3061 -0.0680  1.6088
 4270SOL    HW224444   1.243   1.139   4.567 -0.6744 -0.8815  0.8108
 4271SOL     OW24445   3.306   1.051  15.247 -0.0012  0.3908 -0.6605
 4271SOL    HW124446   3.230   1.080  15.197 -0.4196  1.0764  0.3756
 4271SOL    HW224447   3.290   0.959  15.267 -1.5165  1.1094  1.4841
 4272SOL     OW24448   0.959   3.340   8.821  0.2709 -1.1810 -0.3058
 4272SOL    HW124449   0.965   3.426   8.863  0.2064 -0.8068 -1.0646
 4272SOL    HW224450   0.869   3.343   8.787  0.3072 -1.2445 -0.4054
 4273SOL     OW24451   3.641   4.397   6.002 -0.0872 -0.4955  0.1039
 4273SOL    HW124452   3.614   4.415   6.092  0.6617 -1.9140  0.6125
 4273SOL    HW224453   3.550   4.414   5.977  0.1956 -0.6435 -1.0435
 4274SOL     OW24454   0.857   2.177   3.692  0.2594 -0.5554 -0.2532
 4274SOL    HW124455   0.853   2.109   3.624  0.8861 -1.6339  0.7971
 4274SOL    HW224456   0.952   2.179   3.706 -0.1099  0.9140  2.0676
 4275SOL     OW24457   3.242   2.222   7.200 -0.6237  0.1013  0.0323
 4275SOL    HW124458   3.269   2.227   7.291 -2.1883 -2.5570  0.6636
 4275SOL    HW224459   3.312   2.171   7.159 -0.2037  0.5255  0.2359
 4276SOL     OW24460   4.204   1.882   1.111  0.0196 -0.1569 -0.2955
 4276SOL    HW124461   4.215   1.853   1.020 -1.2658  1.2346 -0.8936
 4276SOL    HW224462   4.273   1.945   1.132 -0.8010  1.0445 -1.1986
 4277SOL     OW24463   3.772   0.222  13.362  0.0858 -0.1868  0.0130
 4277SOL    HW124464   3.700   0.275  13.328  0.0037 -0.3035  0.0057
 4277SOL    HW224465   3.844   0.272  13.322  0.3194 -1.3373 -1.0093
 4278SOL     OW24466   1.095   1.904   3.431 -0.1275  0.4791 -0.2192
 4278SOL    HW124467   1.035   1.971   3.400  0.2037  1.6932  1.7416
 4278SOL    HW224468   1.122   1.950   3.511 -0.3721 -2.5662  1.6430
 4279SOL     OW24469   2.936   3.121   8.349 -0.6460 -0.5780  0.3990
 4279SOL    HW124470   2.855   3.079   8.319 -1.2716  0.4443  0.6609
 4279SOL    HW224471   2.928   3.214   8.327  0.1988 -0.0818  2.2561
 4280SOL     OW24472   1.800   0.404   2.895 -0.0194  0.1950 -0.3829
 4280SOL    HW124473   1.709   0.424   2.875 -0.6958 -0.9536  1.5321
 4280SOL    HW224474   1.798   0.317   2.936  0.1313  0.3182 -0.1128
 4281SOL     OW24475   3.370   0.477   0.980  0.2702  0.0252 -0.0319
 4281SOL    HW124476   3.449   0.486   0.927  0.1866 -0.4731 -0.2369
 4281SOL    HW224477   3.387   0.543   1.047  0.4954 -0.2833  0.2145
 4282SOL     OW24478   2.577   3.084   6.235  0.1317 -0.0394  0.7727
 4282SOL    HW124479   2.596   3.149   6.167 -0.1930 -0.1220  0.6062
 4282SOL    HW224480   2.513   3.131   6.289  1.7194  1.9253  0.9638
 4283SOL     OW24481   2.089   4.068  17.087 -0.8870  0.4833  0.2125
 4283SOL    HW124482   2.178   4.040  17.067  0.6234  2.7848  3.9303
 4283SOL    HW224483   2.070   4.155  17.052  0.8636  1.0673  0.7485
 4284SOL     OW24484   0.826   2.276   9.395 -0.4414 -1.0395 -0.2069
 4284SOL    HW124485   0.859   2.350   9.445  0.4381 -0.1724 -2.0780
 4284SOL    HW224486   0.902   2.220   9.377 -2.5991 -4.1020  0.1146
 4285SOL     OW24487   0.605   3.300   4.585 -0.0167 -0.6834  0.4021
 4285SOL    HW124488   0.629   3.238   4.516  0.8920  1.7917 -1.4901
 4285SOL    HW224489   0.520   3.335   4.558  1.1599  1.3283 -0.7369
 4286SOL     OW24490   2.798   1.950   6.373  0.4028 -0.0524 -0.3643
 4286SOL    HW124491   2.729   1.887   6.393  0.7874  0.8822  3.9454
 4286SOL    HW224492   2.820   1.979   6.461  2.2723 -2.3270 -0.0889
 4287SOL     OW24493   4.649   2.271  11.693  0.6590 -1.0169  0.1467
 4287SOL    HW124494   4.589   2.235  11.758  1.0140 -0.1784  0.9398
 4287SOL    HW224495   4.726   2.251  11.746  1.9654  2.9508 -0.3077
 4288SOL     OW24496   2.284   0.251   7.524  0.0004  0.5950  0.7094
 4288SOL    HW124497   2.290   0.316   7.594 -1.1073  1.7710 -0.2929
 4288SOL    HW224498   2.261   0.310   7.453 -0.7491  0.1689  0.5991
 4289SOL     OW24499   1.471   2.017   3.052 -0.6184  0.2199  0.3020
 4289SOL    HW124500   1.384   2.035   3.089 -0.5790  0.3141  0.3472
 4289SOL    HW224501   1.532   2.032   3.123 -0.0701 -2.1156  0.3161
 4290SOL     OW24502   4.573   4.661   7.118  0.1850 -0.1408  0.0580
 4290SOL    HW124503   4.561   4.572   7.086 -2.2489 -0.3487  1.5597
 4290SOL    HW224504   4.656   4.687   7.076  0.7911 -0.7589  0.8945
 4291SOL     OW24505   4.121   1.349   4.483 -0.1597  0.4005 -0.4376
 4291SOL    HW124506   4.191   1.377   4.542 -0.4039  2.1586 -0.9935
 4291SOL    HW224507   4.143   1.399   4.404  2.0704  1.2171  0.6916
 4292SOL     OW24508   1.557   2.380   7.291  0.1795  0.1870  0.2912
 4292SOL    HW124509   1.515   2.394   7.376 -1.1071  2.8818 -0.8042
 4292SOL    HW224510   1.491   2.405   7.226 -0.3369  2.7502  1.8046
 4293SOL     OW24511   2.255   0.640   8.845  0.5377 -0.0788  0.3952
 4293SOL    HW124512   2.204   0.720   8.847 -1.4201 -1.3762  1.9012
 4293SOL    HW224513   2.324   0.660   8.781 -0.0952 -1.5926 -0.7798
 4294SOL     OW24514   4.477   3.805   0.368  0.1260  0.8728 -0.2592
 4294SOL    HW124515   4.452   3.804   0.460 -1.5516 -0.7991 -0.7268
 4294SOL    HW224516   4.529   3.884   0.352  0.5079  1.1082  2.1391
 4295SOL     OW24517   2.994   3.898   2.553  0.0561 -0.1552 -0.0307
 4295SOL    HW124518   3.089   3.903   2.557  0.3200 -2.6773 -3.0117
 4295SOL    HW224519   2.983   3.854   2.637 -0.1599 -0.5583 -0.2703
 4296SOL     OW24520   3.061   0.607   7.347 -0.0330 -0.9128  0.7519
 4296SOL    HW124521   3.084   0.576   7.259  0.8630 -0.5446  0.8545
 4296SOL    HW224522   3.136   0.576   7.398  2.1698  1.1781 -1.1667
 4297SOL     OW24523   0.551   2.133   1.449  0.1700  0.7956  0.4635
 4297SOL    HW124524   0.565   2.207   1.508 -1.4347  0.3930  1.3699
 4297SOL    HW224525   0.598   2.076   1.510  0.7304  0.1306 -0.5978
 4298SOL     OW24526   4.449   0.228   2.342 -0.1068  0.2307 -0.3782
 4298SOL    HW124527   4.398   0.167   2.395  0.9738  0.6591  1.1563
 4298SOL    HW224528   4.467   0.178   2.262 -1.4614  1.2476 -1.3145
 4299SOL     OW24529   3.551   2.963   5.086  0.1111  0.3718  0.4344
 4299SOL    HW124530   3.540   3.050   5.048  0.2495 -0.3436 -1.2181
 4299SOL    HW224531   3.464   2.951   5.125  0.1683  1.8269  1.0070
 4300SOL     OW24532   0.722   4.494   3.481  0.5598  0.0224 -0.1712
 4300SOL    HW124533   0.770   4.432   3.426 -1.2244  0.7610 -2.5592
 4300SOL    HW224534   0.788   4.562   3.495  1.0473 -0.5160  0.1311
 4301SOL     OW24535   2.076   3.239   2.614 -0.9183  0.7332 -0.2888
 4301SOL    HW124536   2.093   3.240   2.520  0.9492  1.7686  0.0529
 4301SOL    HW224537   1.989   3.199   2.616 -0.3089 -0.4999  1.9659
 4302SOL     OW24538   1.552   0.426   1.385 -0.0885 -0.2181  0.3113
 4302SOL    HW124539   1.554   0.348   1.330  1.8243 -0.7261  1.1195
 4302SOL    HW224540   1.523   0.384   1.466 -0.4377  0.6963  0.6569
 4303SOL     OW24541   3.758   1.913   0.950  0.4704 -0.5028  0.5801
 4303SOL    HW124542   3.809   1.832   0.962 -1.8068 -1.7924  1.4531
 4303SOL    HW224543   3.708   1.920   1.031  0.4127  1.4032  0.3863
 4304SOL     OW24544   0.242   2.774   2.219 -0.0721  0.1371  0.3575
 4304SOL    HW124545   0.324   2.822   2.207 -0.5586  0.7959 -0.4306
 4304SOL    HW224546   0.187   2.841   2.177 -1.1095 -1.7169 -1.2437
 4305SOL     OW24547   2.943   0.974  17.368  0.2407 -0.1934 -0.4331
 4305SOL    HW124548   2.953   1.066  17.393  0.5503 -0.8800  1.9169
 4305SOL    HW224549   3.006   0.940  17.431  0.6779  1.3210 -0.0394
 4306SOL     OW24550   1.839   0.309  16.723 -0.2592  0.0221  0.0060
 4306SOL    HW124551   1.896   0.238  16.751  0.9517 -0.0434 -2.5929
 4306SOL    HW224552   1.903   0.380  16.718 -1.2509  0.7499 -2.2574
 4307SOL     OW24553   0.643   2.144   3.084  0.5017 -0.0959  0.3947
 4307SOL    HW124554   0.680   2.057   3.071 -0.8089 -0.8226  1.4750
 4307SOL    HW224555   0.711   2.204   3.055  2.0213 -0.9018  2.2715
 4308SOL     OW24556   4.358   0.632   5.110  0.0481 -0.3933  0.2429
 4308SOL    HW124557   4.446   0.663   5.090  0.2258 -0.6908  0.5655
 4308SOL    HW224558   4.374   0.580   5.188  1.7381 -2.6681 -1.6310
 4309SOL     OW24559   4.230   2.641   3.551  0.0076  0.2044 -0.2410
 4309SOL    HW124560   4.196   2.572   3.609  2.0590 -0.3964  0.2371
 4309SOL    HW224561   4.315   2.609   3.520 -1.0544 -1.2403 -1.6926
 4310SOL     OW24562   2.049   1.356  17.216 -0.2191  0.1645  0.5243
 4310SOL    HW124563   2.137   1.336  17.247  1.1203  1.9793 -2.1430
 4310SOL    HW224564   2.004   1.358  17.301 -1.3385 -0.2581 -0.0563
 4311SOL     OW24565   4.544   2.251   2.627 -0.3145  0.0752 -0.3881
 4311SOL    HW124566   4.537   2.238   2.532 -2.0045  0.8547 -0.3670
 4311SOL    HW224567   4.623   2.305   2.632 -0.5244  0.3440  0.0909
 4312SOL     OW24568   2.312   3.186   8.837 -0.2564  0.2351 -0.0911
 4312SOL    HW124569   2.277   3.100   8.859  0.4499  0.7555  2.9496
 4312SOL    HW224570   2.258   3.247   8.887  1.7686  3.5065 -1.8358
 4313SOL     OW24571   4.687   4.477  15.008 -0.3266 -0.2213 -0.0167
 4313SOL    HW124572   4.646   4.531  15.076  0.1178 -0.9286  0.8194
 4313SOL    HW224573   0.023   4.447  15.060 -0.9935  0.7001  1.5023
 4314SOL     OW24574   0.465   3.253   5.280  0.6081  0.1607 -0.3139
 4314SOL    HW124575   0.382   3.217   5.312  0.3417  1.5222  0.5016
 4314SOL    HW224576   0.520   3.266   5.358  2.2313 -0.5591 -1.3182
 4315SOL     OW24577   0.017   2.824   3.168  0.3126 -0.0938  0.3048
 4315SOL    HW124578   0.102   2.779   3.164  1.2166  1.6114  0.3382
 4315SOL    HW224579   0.024   2.891   3.100  1.4802 -1.4363 -0.9031
 4316SOL     OW24580   0.773   4.471   2.737  0.5782  0.3158  0.2126
 4316SOL    HW124581   0.722   4.419   2.799 -2.6239  0.3455 -2.3723
 4316SOL    HW224582   0.699   4.531   2.726 -1.4782 -2.3153 -0.3276
 4317SOL     OW24583   1.948   1.536   8.313 -0.0293 -0.7262 -0.2917
 4317SOL    HW124584   1.897   1.523   8.392  0.0998  2.3152  0.3009
 4317SOL    HW224585   1.876   1.537   8.250  0.7825  1.9033 -1.1925
 4318SOL     OW24586   3.276   1.937   4.024  0.5038 -0.4588 -0.1536
 4318SOL    HW124587   3.283   1.996   3.949 -3.8242  0.2785  0.0214
 4318SOL    HW224588   3.365   1.927   4.058  1.7972  0.5226 -3.3131
 4319SOL     OW24589   2.707   0.704   9.363 -0.0699 -0.1538 -0.2310
 4319SOL    HW124590   2.711   0.768   9.292  1.0880  0.1883  0.1313
 4319SOL    HW224591   2.639   0.643   9.334 -1.1461  0.7082  0.4615
 4320SOL     OW24592   3.979   3.703  17.453 -0.0418  0.1324  0.6468
 4320SOL    HW124593   3.974   3.766  17.381 -0.7235 -0.7962 -0.1274
 4320SOL    HW224594   3.898   3.651  17.452  0.4519 -0.6355  0.5255
 4321SOL     OW24595   2.288   3.320   4.553  0.0244 -0.4678 -0.3655
 4321SOL    HW124596   2.296   3.308   4.458 -0.8143 -0.1284 -0.4830
 4321SOL    HW224597   2.206   3.370   4.546  0.8262  1.2025  2.2143
 4322SOL     OW24598   0.385   0.679   5.851  0.2455 -0.3503 -0.0076
 4322SOL    HW124599   0.426   0.686   5.765  0.7276  1.3245  0.3597
 4322SOL    HW224600   0.326   0.608   5.826  1.0170 -1.6563  1.8753
 4323SOL     OW24601   0.059   3.288   7.641 -0.1962  0.4768  0.0054
 4323SOL    HW124602   0.135   3.346   7.646  2.0129 -2.4089 -0.0649
 4323SOL    HW224603   0.069   3.224   7.712 -2.3035 -0.0574 -0.1911
 4324SOL     OW24604   2.084   4.218   1.140  0.0098  0.4422 -0.4360
 4324SOL    HW124605   2.000   4.257   1.161  0.1213  0.0436  0.7352
 4324SOL    HW224606   2.079   4.227   1.045  0.4316  2.2257 -0.2796
 4325SOL     OW24607   1.316   1.831   0.702 -0.3746  0.0457  0.4237
 4325SOL    HW124608   1.373   1.862   0.631  0.5775 -3.2672 -0.2861
 4325SOL    HW224609   1.364   1.759   0.743  1.6446  0.9036 -0.4039
 4326SOL     OW24610   1.286   2.499   6.239 -0.0019  0.0582  0.3113
 4326SOL    HW124611   1.345   2.573   6.249  1.3958 -0.7330 -1.9681
 4326SOL    HW224612   1.305   2.443   6.315 -0.4350 -0.6494 -0.1010
 4327SOL     OW24613   0.004   2.706   4.996  0.3352  0.0301  0.6009
 4327SOL    HW124614   4.702   2.628   5.034 -2.6790  0.5594 -1.6468
 4327SOL    HW224615   4.714   2.707   4.905  0.6756 -1.5121  0.4759
 4328SOL     OW24616   2.318   1.557   3.166  0.1137  0.4360 -0.4204
 4328SOL    HW124617   2.413   1.561   3.162  0.1147  1.5329  0.8805
 4328SOL    HW224618   2.312   1.523   3.255  1.1093  1.0779 -0.1144
 4329SOL     OW24619   0.724   1.677   6.433 -0.2389  0.2774 -0.0649
 4329SOL    HW124620   0.791   1.609   6.425  1.2590  1.4517  2.5916
 4329SOL    HW224621   0.708   1.686   6.527  3.0675  2.3872  0.2926
 4330SOL     OW24622   0.737   2.295   3.984  0.2400 -0.1585 -0.1744
 4330SOL    HW124623   0.797   2.235   3.940 -0.8200 -1.3759  0.0302
 4330SOL    HW224624   0.672   2.237   4.024 -1.1975  0.7578 -1.1915
 4331SOL     OW24625   4.085   2.925   4.911  0.0774 -0.0661 -0.3346
 4331SOL    HW124626   4.053   2.893   4.995  0.6336  0.1680 -0.0292
 4331SOL    HW224627   4.005   2.947   4.864  1.0144  0.0486 -1.8634
 4332SOL     OW24628   2.093   4.251   5.022 -0.0905  0.2974 -0.1341
 4332SOL    HW124629   2.101   4.157   5.002 -1.5211  0.1193  0.1831
 4332SOL    HW224630   2.187   4.257   5.040 -0.5178  1.4468  1.6622
 4333SOL     OW24631   3.138   2.178   2.831 -0.1077 -0.3754  0.2585
 4333SOL    HW124632   3.209   2.116   2.846  0.1462 -0.0247  0.5140
 4333SOL    HW224633   3.174   2.257   2.872 -0.3757 -1.7528  3.1585
 4334SOL     OW24634   2.876   2.047   6.687  0.3339  0.9460 -0.1955
 4334SOL    HW124635   2.957   2.096   6.704  1.5172 -0.0712 -2.7968
 4334SOL    HW224636   2.823   2.084   6.757 -1.6503  1.2514 -1.8493
 4335SOL     OW24637   3.519   1.220  16.271 -0.2081 -0.5620  0.1916
 4335SOL    HW124638   3.478   1.145  16.313 -1.2195 -1.1435 -1.8062
 4335SOL    HW224639   3.487   1.286  16.333 -2.1694 -0.4565 -0.9328
 4336SOL     OW24640   3.186   1.498   1.279  0.2635 -0.5319  0.5636
 4336SOL    HW124641   3.176   1.573   1.339  1.6160  0.0919  0.0141
 4336SOL    HW224642   3.252   1.541   1.224 -0.9541 -0.6887 -0.9898
 4337SOL     OW24643   4.626   3.444  13.286 -0.0055  0.1373 -0.5878
 4337SOL    HW124644   4.666   3.374  13.235 -1.3449  0.6539 -2.3474
 4337SOL    HW224645   4.595   3.497  13.213 -1.9853 -2.7037 -1.7824
 4338SOL     OW24646   0.271   4.525  16.304  0.2689 -0.0098 -0.4075
 4338SOL    HW124647   0.270   4.522  16.209 -1.4740  1.7357 -0.4511
 4338SOL    HW224648   0.265   4.619  16.322  0.9282 -0.3168  1.3994
 4339SOL     OW24649   1.661   2.068   5.680 -0.2985  0.3218  0.3376
 4339SOL    HW124650   1.753   2.047   5.699 -0.5071 -0.9899 -0.1579
 4339SOL    HW224651   1.666   2.058   5.585 -1.6469 -0.4164  0.3441
 4340SOL     OW24652   2.374   3.967   0.732 -0.3636 -0.2731 -0.0949
 4340SOL    HW124653   2.464   3.986   0.760  0.1946 -2.3529 -0.4755
 4340SOL    HW224654   2.377   3.903   0.660 -1.1972 -0.4340  0.0182
 4341SOL     OW24655   4.374   2.085   1.104  0.3282  0.3480  0.1642
 4341SOL    HW124656   4.467   2.072   1.084 -0.1866 -0.6284 -1.6232
 4341SOL    HW224657   4.339   2.099   1.016 -0.0141 -1.4518  0.0060
 4342SOL     OW24658   0.557   3.953   2.704 -0.0388 -0.2137  0.1303
 4342SOL    HW124659   0.616   3.878   2.699 -1.2791 -1.3984  3.0507
 4342SOL    HW224660   0.471   3.918   2.679  0.0917  1.1002 -2.1747
 4343SOL     OW24661   1.261   0.444   1.851  0.1149  0.1152  0.2727
 4343SOL    HW124662   1.213   0.362   1.867  0.1919  0.3772  1.8525
 4343SOL    HW224663   1.202   0.496   1.796  0.2760  2.1584  2.0634
 4344SOL     OW24664   2.963   2.609   2.149 -0.1591  0.1934 -0.4994
 4344SOL    HW124665   2.952   2.593   2.242 -0.5472 -0.1893 -0.6111
 4344SOL    HW224666   2.962   2.519   2.117 -0.2277 -0.0052  0.0699
 4345SOL     OW24667   2.870   3.358   5.501 -0.2615 -0.6325  0.0706
 4345SOL    HW124668   2.849   3.410   5.579  0.1650  1.3774 -1.1664
 4345SOL    HW224669   2.958   3.384   5.475 -0.3445  0.0633  0.4965
 4346SOL     OW24670   1.949   0.620  14.016  0.0600  0.3289  0.8294
 4346SOL    HW124671   1.877   0.562  14.040 -0.5637  0.0510 -1.7564
 4346SOL    HW224672   2.024   0.561  14.025 -1.4932 -1.7459  0.0132
 4347SOL     OW24673   1.718   2.814   3.861 -0.3223 -0.3824 -0.2908
 4347SOL    HW124674   1.670   2.738   3.826  0.3343 -0.7142 -0.4718
 4347SOL    HW224675   1.707   2.874   3.787  1.4920  0.8679  0.4602
 4348SOL     OW24676   4.005   4.263   3.227  0.1856  0.1034  0.8789
 4348SOL    HW124677   4.046   4.220   3.302 -1.2780  0.5223  1.9259
 4348SOL    HW224678   4.079   4.309   3.187 -0.8641  0.3712 -0.7892
 4349SOL     OW24679   3.062   4.185  13.126 -0.1727 -0.2046  0.0642
 4349SOL    HW124680   2.970   4.209  13.136  0.0595  0.5540  0.3462
 4349SOL    HW224681   3.074   4.154  13.216 -1.4633 -0.8775  0.0009
 4350SOL     OW24682   3.670   1.423   7.860 -0.3988 -0.0158  0.1072
 4350SOL    HW124683   3.652   1.433   7.766  0.7140  0.4438 -0.0545
 4350SOL    HW224684   3.591   1.385   7.898  0.0405 -0.8597  0.1787
 4351SOL     OW24685   0.326   2.001   3.096 -0.3131  0.0434  0.7026
 4351SOL    HW124686   0.342   2.091   3.124 -0.9658 -0.2525  1.9989
 4351SOL    HW224687   0.290   2.026   3.011  0.5943 -1.4076 -0.1130
 4352SOL     OW24688   3.719   0.166   4.262 -0.2888 -0.8747 -0.5140
 4352SOL    HW124689   3.791   0.212   4.305  0.1915 -1.6440 -0.5013
 4352SOL    HW224690   3.645   0.228   4.258  1.4992  1.0984 -3.4031
 4353SOL     OW24691   0.351   1.830  10.961 -0.1317 -0.7279 -0.0473
 4353SOL    HW124692   0.385   1.761  10.904 -2.7842 -0.1704 -2.2795
 4353SOL    HW224693   0.264   1.803  10.989 -0.0955 -0.4268  0.3525
 4354SOL     OW24694   2.805   4.005   2.405 -0.0934  0.3647  0.0509
 4354SOL    HW124695   2.739   3.948   2.444 -1.0934  1.1615 -0.4482
 4354SOL    HW224696   2.885   3.980   2.450 -1.2156 -1.7646  0.8915
 4355SOL     OW24697   3.447   3.956  12.143 -0.8255  0.0896  0.9678
 4355SOL    HW124698   3.458   4.015  12.069  0.4788  1.5364  2.3155
 4355SOL    HW224699   3.527   3.905  12.132 -1.2623 -0.9458  2.4979
 4356SOL     OW24700   1.090   2.141   2.237  0.1551 -0.1258  0.7821
 4356SOL    HW124701   1.083   2.171   2.147  0.9245  1.6871  1.3259
 4356SOL    HW224702   1.172   2.185   2.260 -0.2573  0.9177  0.2624
 4357SOL     OW24703   2.627   3.026  10.590  0.0531 -0.4481 -0.2575
 4357SOL    HW124704   2.686   3.098  10.614 -0.2736 -0.0157 -0.7262
 4357SOL    HW224705   2.544   3.064  10.620  0.8825  2.2351 -1.3780
 4358SOL     OW24706   1.150   1.065  16.563  0.3410  0.4825 -0.3901
 4358SOL    HW124707   1.160   1.026  16.476 -0.9148  2.0295 -1.2283
 4358SOL    HW224708   1.191   1.150  16.544  0.9580  0.3488  0.3414
 4359SOL     OW24709   3.767   2.286   9.071 -0.5075 -0.1126  0.6695
 4359SOL    HW124710   3.827   2.234   9.017  0.1994  0.5274  0.8436
 4359SOL    HW224711   3.770   2.223   9.144  2.7593 -0.1131  0.5361
 4360SOL     OW24712   0.762   1.766   6.979 -0.2827  0.0367  0.5020
 4360SOL    HW124713   0.728   1.716   7.053  2.7697 -0.4692  1.5853
 4360SOL    HW224714   0.806   1.841   7.019  2.3539 -1.2308 -0.0064
 4361SOL     OW24715   4.468   2.531  13.488 -0.3228 -0.1638  0.3390
 4361SOL    HW124716   4.420   2.530  13.571  0.0794  0.1287  0.5758
 4361SOL    HW224717   4.547   2.575  13.519  0.0178  0.5783 -1.5909
 4362SOL     OW24718   4.051   0.832   1.775  0.2087 -0.7299  0.2283
 4362SOL    HW124719   4.005   0.748   1.781 -0.4199 -0.4758 -0.9576
 4362SOL    HW224720   4.056   0.872   1.861 -3.0382 -2.7693  1.3740
 4363SOL     OW24721   2.724   0.981   5.410  0.5069 -0.3189 -0.1922
 4363SOL    HW124722   2.774   0.965   5.490 -1.0461 -0.4868  0.7269
 4363SOL    HW224723   2.782   0.965   5.335 -0.3549 -0.0563 -0.9048
 4364SOL     OW24724   3.475   3.934   4.061  0.1099 -0.5733 -0.7916
 4364SOL    HW124725   3.514   3.955   4.145 -0.4036 -2.6990 -0.0222
 4364SOL    HW224726   3.403   3.876   4.087  0.0440 -1.1248 -2.2090
 4365SOL     OW24727   1.020   2.718   6.634  0.2503  0.2886  0.6777
 4365SOL    HW124728   1.054   2.697   6.546 -0.6537 -1.2768  0.7120
 4365SOL    HW224729   0.927   2.733   6.616  0.0336 -0.6720  1.0016
 4366SOL     OW24730   2.568   1.849   8.494  0.1599 -0.1751  0.0739
 4366SOL    HW124731   2.585   1.886   8.581  0.0817  1.6614 -0.6922
 4366SOL    HW224732   2.602   1.760   8.502  2.1265  0.4297 -1.7370
 4367SOL     OW24733   0.872   3.188   6.099 -0.1184 -0.2034  0.1034
 4367SOL    HW124734   0.895   3.209   6.189  0.5355 -0.1751 -0.0642
 4367SOL    HW224735   0.817   3.114   6.125 -1.0903  0.8024  0.9137
 4368SOL     OW24736   3.793   2.563  14.471 -0.0320 -0.2961 -0.2386
 4368SOL    HW124737   3.745   2.595  14.396 -0.6789  1.8599  1.0860
 4368SOL    HW224738   3.824   2.645  14.511  0.9080 -1.1409  0.7926
 4369SOL     OW24739   0.867   2.995  12.127 -0.3076  0.3509  0.0927
 4369SOL    HW124740   0.951   2.997  12.081 -2.3350  2.1230 -3.6217
 4369SOL    HW224741   0.880   3.064  12.191 -0.3722 -1.0658  1.6120
 4370SOL     OW24742   2.411   3.878  15.997  0.4942  0.1818 -0.0535
 4370SOL    HW124743   2.396   3.944  15.929  0.9898  1.3208  0.9450
 4370SOL    HW224744   2.403   3.927  16.079  2.3053  0.6691 -0.1637
 4371SOL     OW24745   0.626   2.417   6.527  0.5299 -0.6879  0.2010
 4371SOL    HW124746   0.579   2.497   6.551 -0.0464 -1.3184  1.2059
 4371SOL    HW224747   0.553   2.357   6.519 -0.6434  0.5139  1.8534
 4372SOL     OW24748   1.514   2.070   3.476  0.5824  0.3461 -0.0332
 4372SOL    HW124749   1.530   2.017   3.553  1.9699  0.4689 -0.2395
 4372SOL    HW224750   1.432   2.116   3.495  0.7828 -0.1459  2.0005
 4373SOL     OW24751   1.231   4.037   6.691  0.1855  0.5881  0.0421
 4373SOL    HW124752   1.222   4.132   6.680 -1.9925  0.2294 -1.3307
 4373SOL    HW224753   1.169   4.027   6.762 -0.7865  1.1111 -0.7301
 4374SOL     OW24754   1.923   4.104   6.828  0.5872  0.1744  0.1202
 4374SOL    HW124755   1.928   4.012   6.852  1.4333 -0.1597 -1.3227
 4374SOL    HW224756   1.916   4.144   6.915  2.9503  1.5287 -0.2991
 4375SOL     OW24757   0.115   0.210   0.412  0.1354  0.1040  0.0462
 4375SOL    HW124758   0.161   0.138   0.456 -2.3890 -1.6275 -0.1700
 4375SOL    HW224759   0.076   0.255   0.487 -1.6210 -2.0728  0.4243
 4376SOL     OW24760   1.651   0.852   3.977  0.3751 -0.0889 -0.3264
 4376SOL    HW124761   1.620   0.860   3.887  0.0088  1.2156 -0.0774
 4376SOL    HW224762   1.722   0.787   3.978 -0.6839 -1.2350  0.7403
 4377SOL     OW24763   3.379   3.975  17.536 -0.0239  0.3870  0.4128
 4377SOL    HW124764   3.391   3.901  17.476  0.3339  0.2209  0.6856
 4377SOL    HW224765   3.452   4.028  17.503  0.6466 -0.6555  0.2339
 4378SOL     OW24766   2.678   3.144   5.582 -0.0930 -0.0198  0.0349
 4378SOL    HW124767   2.750   3.191   5.540  0.8559 -0.6419  0.9507
 4378SOL    HW224768   2.632   3.096   5.512 -2.8764  0.2964  1.6409
 4379SOL     OW24769   1.464   3.035   6.801  0.0850 -0.8087  0.1834
 4379SOL    HW124770   1.499   3.026   6.890  1.2123  0.6834 -0.1050
 4379SOL    HW224771   1.406   2.960   6.804 -1.7134  0.6342  1.5022
 4380SOL     OW24772   1.495   1.445   7.464 -0.3371 -0.3845  0.5070
 4380SOL    HW124773   1.537   1.493   7.393  0.1991  1.6761  2.1908
 4380SOL    HW224774   1.467   1.522   7.515 -2.0375  0.4070 -1.6295
 4381SOL     OW24775   1.745   4.163   5.093  0.5516 -0.3451  0.6361
 4381SOL    HW124776   1.652   4.162   5.111  0.6249 -0.0886  1.0087
 4381SOL    HW224777   1.745   4.104   5.017 -0.9348 -1.5139  1.5472
 4382SOL     OW24778   2.468   2.289   2.452 -0.0713 -0.1302 -0.5890
 4382SOL    HW124779   2.465   2.371   2.501 -2.3014  0.4113 -1.6351
 4382SOL    HW224780   2.385   2.249   2.477  1.4463 -0.6513  3.6486
 4383SOL     OW24781   4.543   1.084  17.450 -0.1593 -0.2318 -0.1771
 4383SOL    HW124782   4.457   1.069  17.411 -0.3445 -2.0920  0.9475
 4383SOL    HW224783   4.569   1.150  17.386  2.2174 -1.9233 -0.9570
 4384SOL     OW24784   3.165   4.498   7.221  0.4782  0.4260 -0.1144
 4384SOL    HW124785   3.146   4.537   7.136  0.6733 -0.9985 -0.8103
 4384SOL    HW224786   3.093   4.436   7.233  1.4890 -0.6685  0.2309
 4385SOL     OW24787   3.741   2.220   7.484 -0.2706 -0.9035  0.3296
 4385SOL    HW124788   3.686   2.195   7.558 -1.4845  0.3333 -0.1512
 4385SOL    HW224789   3.670   2.265   7.438  1.2966  2.6448  1.3866
 4386SOL     OW24790   0.375   4.190   4.895 -0.0159  0.3135  0.1397
 4386SOL    HW124791   0.462   4.157   4.871  0.7459  2.8013 -0.5522
 4386SOL    HW224792   0.372   4.176   4.990 -2.2383  0.3073  0.0586
 4387SOL     OW24793   3.680   2.411   2.298  0.0982 -0.2416  0.0277
 4387SOL    HW124794   3.768   2.398   2.262  0.5694  0.3450  0.9666
 4387SOL    HW224795   3.691   2.404   2.393 -0.1854  0.5729  0.1234
 4388SOL     OW24796   0.695   4.473   4.807  0.2050 -0.0279 -1.0756
 4388SOL    HW124797   0.667   4.544   4.749 -1.2303  0.4159  0.1633
 4388SOL    HW224798   0.719   4.399   4.752  1.5471 -0.7133  0.4192
 4389SOL     OW24799   3.151   1.674   7.934  0.2255 -0.3541  0.1090
 4389SOL    HW124800   3.087   1.605   7.951 -1.9142  1.6788  0.2701
 4389SOL    HW224801   3.106   1.735   7.875  2.0218  2.1162  1.2695
 4390SOL     OW24802   1.061   0.908  13.707  0.4883 -0.5290  0.5195
 4390SOL    HW124803   1.147   0.908  13.749 -0.4490 -0.5706  2.4457
 4390SOL    HW224804   1.064   0.815  13.687  0.2053 -0.5104  0.3850
 4391SOL     OW24805   1.653   3.206  16.801  0.6758 -0.4408 -0.0529
 4391SOL    HW124806   1.636   3.254  16.882 -0.6040 -0.0806 -0.5419
 4391SOL    HW224807   1.654   3.287  16.751  1.0717 -0.3718  0.0623
 4392SOL     OW24808   3.998   2.694   5.900  0.2117  0.5862 -0.0940
 4392SOL    HW124809   4.025   2.682   5.809  0.9733  1.3819  0.0211
 4392SOL    HW224810   3.998   2.789   5.893  0.3230  0.3658 -3.3311
 4393SOL     OW24811   1.021   4.207   6.853  0.3722  0.3026 -0.1858
 4393SOL    HW124812   1.091   4.248   6.905  1.1061 -0.9194 -0.2315
 4393SOL    HW224813   0.971   4.159   6.920  0.7759 -0.1411 -0.2121
 4394SOL     OW24814   2.163   1.994   9.030  0.1074 -1.0046 -1.0710
 4394SOL    HW124815   2.248   1.956   9.007 -0.2289 -3.2543  1.4910
 4394SOL    HW224816   2.171   2.086   9.004 -1.2011 -0.6727 -0.2529
 4395SOL     OW24817   2.849   4.494   3.120  0.7271  0.1976  0.0716
 4395SOL    HW124818   2.810   4.581   3.113 -0.8432 -0.4326  0.9484
 4395SOL    HW224819   2.782   4.450   3.172  0.9887  2.0493  1.9780
 4396SOL     OW24820   2.623   2.059   2.783 -0.0194  0.6006 -0.2053
 4396SOL    HW124821   2.661   2.076   2.869  2.2347 -1.5301 -0.8180
 4396SOL    HW224822   2.554   2.126   2.788  0.0588  0.6824 -0.2180
 4397SOL     OW24823   1.517   2.570   0.789 -0.3347  0.9009  0.3281
 4397SOL    HW124824   1.548   2.530   0.708  1.0673  1.6685  0.5002
 4397SOL    HW224825   1.433   2.608   0.763 -0.1598 -0.4718 -2.1949
 4398SOL     OW24826   0.161   3.101   7.821 -0.0936 -0.4808 -0.2971
 4398SOL    HW124827   0.136   3.009   7.813 -0.8165 -0.2000 -1.2228
 4398SOL    HW224828   0.158   3.103   7.917  1.4120  0.0172 -0.2596
 4399SOL     OW24829   3.864   4.498  14.744 -1.0717  0.2599 -0.3912
 4399SOL    HW124830   3.782   4.453  14.763  0.9931 -3.3719  0.0202
 4399SOL    HW224831   3.894   4.527  14.831  0.4479  0.7494 -1.0810
 4400SOL     OW24832   0.822   2.810   5.382 -0.3816 -0.1808 -0.4138
 4400SOL    HW124833   0.746   2.754   5.370 -0.9145  0.7142 -1.1959
 4400SOL    HW224834   0.871   2.794   5.301 -0.5279  0.7654 -0.6912
 4401SOL     OW24835   0.710   1.923   8.709  0.1921  0.2577 -0.1054
 4401SOL    HW124836   0.634   1.883   8.751  1.1023 -0.9250  0.4275
 4401SOL    HW224837   0.783   1.876   8.750  0.1755 -0.4648 -0.8941
 4402SOL     OW24838   1.848   2.421   3.134  0.0602  0.4416 -0.0475
 4402SOL    HW124839   1.895   2.416   3.216 -1.0125  1.5928  0.6396
 4402SOL    HW224840   1.836   2.329   3.111  0.6572  0.6155 -1.0513
 4403SOL     OW24841   2.301   3.660   7.906 -0.0672 -0.3873 -0.4214
 4403SOL    HW124842   2.284   3.606   7.983 -0.0139  0.6308  0.3055
 4403SOL    HW224843   2.349   3.601   7.848  1.0647  0.4409 -0.3325
 4404SOL     OW24844   3.352   1.681   8.409 -0.2672  0.2725  0.5329
 4404SOL    HW124845   3.421   1.746   8.410  0.2699 -0.2641 -0.6355
 4404SOL    HW224846   3.303   1.699   8.328  1.1982  0.6283 -0.2741
 4405SOL     OW24847   3.372   4.136   0.774 -0.0677 -0.1739  0.0750
 4405SOL    HW124848   3.392   4.072   0.843 -1.0313 -0.7554 -0.1838
 4405SOL    HW224849   3.460   4.160   0.745  0.7354 -2.9046  0.2159
 4406SOL     OW24850   3.027   1.750   8.944  0.2044  0.2788 -0.2661
 4406SOL    HW124851   3.095   1.808   8.977 -0.4150  2.0369 -2.0501
 4406SOL    HW224852   3.037   1.686   9.015  0.0729  0.8974  0.3068
 4407SOL     OW24853   3.099   3.497   9.385 -0.5705 -0.0399  0.1938
 4407SOL    HW124854   3.043   3.570   9.412 -2.1813 -1.9237  1.9270
 4407SOL    HW224855   3.147   3.467   9.462 -1.9145  0.9020  1.4076
 4408SOL     OW24856   3.440   4.018  15.051  0.1084  0.1550  0.2662
 4408SOL    HW124857   3.433   4.030  14.957  1.9563 -1.1733 -0.0274
 4408SOL    HW224858   3.470   4.106  15.076 -0.0917 -0.3297  2.2743
 4409SOL     OW24859   3.801   2.693  13.188 -0.3643  0.1526  0.0026
 4409SOL    HW124860   3.714   2.726  13.168 -0.5225 -0.7075 -0.7160
 4409SOL    HW224861   3.844   2.777  13.203  1.8639 -1.0790  0.4852
 4410SOL     OW24862   1.779   0.541   4.994  0.6923  0.5121  0.5056
 4410SOL    HW124863   1.850   0.521   5.055  2.6016  2.0197 -1.2225
 4410SOL    HW224864   1.722   0.590   5.054  1.0674 -1.1096  2.1650
 4411SOL     OW24865   3.646   4.283   3.864  0.3039 -1.0141  0.8477
 4411SOL    HW124866   3.577   4.247   3.918 -2.5775  1.1891 -1.3810
 4411SOL    HW224867   3.713   4.219   3.889  1.0998 -0.5249 -0.0143
 4412SOL     OW24868   1.008   1.706   8.801  0.5530 -0.2401  0.7533
 4412SOL    HW124869   1.099   1.729   8.781  1.1245 -2.1979  1.0601
 4412SOL    HW224870   0.986   1.763   8.874  2.0117  1.8706 -0.4666
 4413SOL     OW24871   4.031   3.816   6.763  0.0598  0.0941 -0.5794
 4413SOL    HW124872   4.008   3.728   6.790  0.7462 -0.1311 -0.7243
 4413SOL    HW224873   4.065   3.840   6.849 -1.5652 -0.4342  0.2130
 4414SOL     OW24874   3.859   4.552   3.437 -0.6466  0.2810 -0.5199
 4414SOL    HW124875   3.783   4.526   3.488 -0.7764 -0.3427 -1.0315
 4414SOL    HW224876   3.927   4.554   3.504 -0.5416  0.5696 -0.6337
 4415SOL     OW24877   0.618   3.114  17.077 -0.4290 -0.1553  0.5641
 4415SOL    HW124878   0.606   3.205  17.101 -2.1558  0.0431 -1.0044
 4415SOL    HW224879   0.671   3.124  16.998 -1.5564 -0.0436 -0.1842
 4416SOL     OW24880   4.545   3.011   8.025  0.2796 -0.5237  0.0573
 4416SOL    HW124881   4.503   3.008   7.939 -2.5116 -0.3857  1.4278
 4416SOL    HW224882   4.594   2.929   8.031  0.6531 -0.4589 -2.2668
 4417SOL     OW24883   3.210   4.192   1.083  0.4484  0.3124  0.0671
 4417SOL    HW124884   3.292   4.149   1.106  1.3379  3.0784  2.0419
 4417SOL    HW224885   3.224   4.270   1.137  0.3576 -0.3092  0.9817
 4418SOL     OW24886   1.261   2.562   3.988  0.7413 -0.1918 -0.1401
 4418SOL    HW124887   1.296   2.533   4.073  1.6146  0.8755 -0.1310
 4418SOL    HW224888   1.251   2.657   4.000 -1.7259 -0.3415 -1.2036
 4419SOL     OW24889   4.182   2.975   5.576  0.1826  0.0964 -0.3502
 4419SOL    HW124890   4.256   3.027   5.605  0.9953 -1.5569  0.5462
 4419SOL    HW224891   4.200   2.972   5.482 -2.4250 -0.2937 -0.8491
 4420SOL     OW24892   3.942   0.311   4.935 -0.1253  0.1310 -0.2167
 4420SOL    HW124893   4.014   0.360   4.975 -1.0879  0.6685  0.8520
 4420SOL    HW224894   3.956   0.226   4.975  0.7627 -0.0272 -0.8633
 4421SOL     OW24895   3.346   0.928   8.118  0.1053  0.2751 -0.0610
 4421SOL    HW124896   3.261   0.907   8.157  1.5992 -3.4404  1.1248
 4421SOL    HW224897   3.360   1.018   8.148  1.8946 -0.8717  2.5263
 4422SOL     OW24898   0.334   1.551   5.390  0.2333  0.2695 -0.4357
 4422SOL    HW124899   0.303   1.484   5.451  1.8594 -1.1392 -1.1695
 4422SOL    HW224900   0.271   1.622   5.406 -1.3763 -1.3166  0.1836
 4423SOL     OW24901   3.319   0.599  17.487  0.2651  0.1865 -0.4967
 4423SOL    HW124902   3.320   0.683  17.442  0.5195 -0.3936 -1.5675
 4423SOL    HW224903   3.412   0.579  17.495 -0.4807 -1.0343  5.2536
 4424SOL     OW24904   3.532   2.613   5.541  0.4628  0.3425  1.0354
 4424SOL    HW124905   3.474   2.640   5.611 -0.0670  1.9611 -0.0249
 4424SOL    HW224906   3.586   2.691   5.530  1.2629 -0.0021  2.5379
 4425SOL     OW24907   0.207   0.356   8.288  0.0564 -0.1219  0.2429
 4425SOL    HW124908   0.120   0.347   8.249 -0.8668  3.2639  1.4680
 4425SOL    HW224909   0.255   0.292   8.236  1.5497  1.6330 -0.5637
 4426SOL     OW24910   3.206   1.040  16.711  0.0659 -0.2873 -0.3216
 4426SOL    HW124911   3.136   1.101  16.688  0.3581  0.3366  0.4514
 4426SOL    HW224912   3.281   1.097  16.724  1.0697 -1.4991 -0.8623
 4427SOL     OW24913   0.887   0.344   7.755  0.6444 -0.0716 -0.1055
 4427SOL    HW124914   0.901   0.437   7.739  2.7729 -0.2876  0.4484
 4427SOL    HW224915   0.840   0.317   7.676  0.0030  1.8935 -0.3872
 4428SOL     OW24916   1.485   2.539   9.085 -0.1701  0.1944  0.2690
 4428SOL    HW124917   1.432   2.469   9.047  1.9471 -0.7645 -0.9100
 4428SOL    HW224918   1.488   2.600   9.012 -1.3819  0.8892  0.8102
 4429SOL     OW24919   3.551   1.317   1.117 -0.3488 -0.4028 -0.7203
 4429SOL    HW124920   3.605   1.379   1.069  0.8060 -1.0313 -0.2438
 4429SOL    HW224921   3.616   1.280   1.178 -0.1755 -0.0696 -0.7024
 4430SOL     OW24922   1.887   3.833   6.642 -0.4249  0.1802 -0.1110
 4430SOL    HW124923   1.959   3.817   6.702  1.1442  0.5406 -1.9174
 4430SOL    HW224924   1.817   3.818   6.706  1.1639 -0.1421  1.5402
 4431SOL     OW24925   1.205   2.057   3.155 -0.1751 -1.0901 -0.0228
 4431SOL    HW124926   1.137   2.124   3.160 -0.3747 -1.2059 -1.1392
 4431SOL    HW224927   1.167   1.970   3.163 -1.1944 -0.6589 -0.1916
 4432SOL     OW24928   3.078   4.076   6.801 -0.4484 -0.4287 -0.2953
 4432SOL    HW124929   3.124   4.041   6.725 -0.8443 -1.9145  0.1597
 4432SOL    HW224930   2.986   4.084   6.774 -0.5447  0.8980  0.4355
 4433SOL     OW24931   4.341   0.552  12.762  0.3960  0.1368  0.1988
 4433SOL    HW124932   4.304   0.499  12.692  3.0457 -0.7148 -0.5619
 4433SOL    HW224933   4.434   0.528  12.764  0.8859  1.9663 -0.3290
 4434SOL     OW24934   2.888   4.171   3.254 -0.2658 -0.2486 -0.1752
 4434SOL    HW124935   2.961   4.126   3.296  0.2347  0.2593 -0.4996
 4434SOL    HW224936   2.831   4.186   3.329 -1.4585 -2.2675 -0.6959
 4435SOL     OW24937   3.317   1.529   2.022  0.2502  0.3562  0.5276
 4435SOL    HW124938   3.378   1.498   1.956  0.3751 -0.6118  1.0948
 4435SOL    HW224939   3.373   1.588   2.073  0.3444 -1.5675  2.6354
 4436SOL     OW24940   2.390   3.966   6.793  0.6775 -0.7270 -0.1473
 4436SOL    HW124941   2.333   4.037   6.763  1.1731 -0.1137  0.3646
 4436SOL    HW224942   2.337   3.888   6.779 -0.9018  0.3875 -0.3986
 4437SOL     OW24943   2.241   1.007   1.005  0.2301  0.0321  0.3103
 4437SOL    HW124944   2.289   1.025   1.086 -0.3016  0.7956  0.4609
 4437SOL    HW224945   2.305   1.037   0.941  0.8305 -0.2325  0.7867
 4438SOL     OW24946   3.481   0.506  14.895  0.0370  0.2370 -0.0851
 4438SOL    HW124947   3.539   0.582  14.908 -0.5808  0.4241  1.4746
 4438SOL    HW224948   3.472   0.505  14.799 -0.7335  0.4454 -0.0130
 4439SOL     OW24949   4.524   1.145   8.246 -0.2711 -0.5528  0.3378
 4439SOL    HW124950   4.468   1.092   8.302 -1.1312  1.4557  1.3602
 4439SOL    HW224951   4.610   1.117   8.277 -0.4837 -0.1740  1.2610
 4440SOL     OW24952   0.748   1.272  11.463 -0.3198 -0.2379  0.4223
 4440SOL    HW124953   0.795   1.196  11.430  0.1192 -0.6569  2.0242
 4440SOL    HW224954   0.800   1.282  11.543 -0.6859 -0.0878  0.6451
 4441SOL     OW24955   1.774   0.270   7.718 -0.1504  0.4335  0.1365
 4441SOL    HW124956   1.865   0.283   7.690 -0.1650 -2.2692 -1.1298
 4441SOL    HW224957   1.729   0.304   7.641 -1.7334 -0.7270  0.5518
 4442SOL     OW24958   3.393   1.494   9.793  1.1414  0.2151  0.1883
 4442SOL    HW124959   3.381   1.527   9.704  0.4822 -0.0948  0.1637
 4442SOL    HW224960   3.445   1.415   9.777  0.3646 -0.0399 -1.0941
 4443SOL     OW24961   1.446   1.635  16.795  0.4208  0.6877  0.0570
 4443SOL    HW124962   1.358   1.662  16.767 -0.2474 -1.3040  0.2522
 4443SOL    HW224963   1.433   1.616  16.888  0.1549  0.5857 -0.0025
 4444SOL     OW24964   2.277   3.378   9.440 -0.4309  0.5576 -0.6358
 4444SOL    HW124965   2.248   3.415   9.523  1.8637 -0.8281  0.7555
 4444SOL    HW224966   2.280   3.289   9.475  0.3385 -0.2175 -2.6686
 4445SOL     OW24967   1.623   3.901   1.672  0.0151  0.2148 -0.7368
 4445SOL    HW124968   1.712   3.912   1.640  1.1645 -0.1058  2.3827
 4445SOL    HW224969   1.594   3.991   1.690 -1.8403 -0.7328  1.0041
 4446SOL     OW24970   0.854   3.845   9.030 -0.1056 -0.2156  0.5658
 4446SOL    HW124971   0.884   3.927   9.067 -3.4331  0.9802  0.6412
 4446SOL    HW224972   0.843   3.797   9.112 -0.0821 -0.7064  0.2861
 4447SOL     OW24973   3.612   4.144   7.083 -0.0215  0.0505  0.1701
 4447SOL    HW124974   3.576   4.056   7.094  0.2205 -0.0428  0.2004
 4447SOL    HW224975   3.589   4.180   7.169 -2.6413  1.1997 -0.9881
 4448SOL     OW24976   2.587   4.491  15.094  0.4233  0.4042 -0.5303
 4448SOL    HW124977   2.508   4.544  15.102  0.0050 -0.4293  0.9598
 4448SOL    HW224978   2.553   4.403  15.076  1.9425 -0.2136 -0.3532
 4449SOL     OW24979   0.549   1.230   5.854  0.3473 -0.4144 -0.2131
 4449SOL    HW124980   0.526   1.139   5.837  1.9779 -1.1068  1.3213
 4449SOL    HW224981   0.538   1.241   5.949  0.2493 -0.7480 -0.1843
 4450SOL     OW24982   1.407   2.364   8.900  0.4996  0.3110 -0.4451
 4450SOL    HW124983   1.353   2.377   8.822  0.7529 -3.2918 -1.2454
 4450SOL    HW224984   1.460   2.284   8.893 -0.2573 -0.1621 -0.8086
 4451SOL     OW24985   4.423   3.373   5.038 -0.2296 -0.0708  0.1824
 4451SOL    HW124986   4.350   3.314   5.060 -1.0256  0.7334 -0.3110
 4451SOL    HW224987   4.408   3.391   4.945  1.5347  0.2092 -0.0433
 4452SOL     OW24988   3.277   3.874  12.506  0.2800  0.0927  0.4166
 4452SOL    HW124989   3.309   3.952  12.552 -0.6086 -0.1160  1.3803
 4452SOL    HW224990   3.225   3.824  12.569 -1.0464 -0.1041 -0.8162
 4453SOL     OW24991   1.125   0.076  13.518 -0.1968 -0.4980 -0.4473
 4453SOL    HW124992   1.111   4.726  13.488 -0.5740 -0.1543 -1.3146
 4453SOL    HW224993   1.118   0.133  13.441 -4.5543  3.3510  2.7811
 4454SOL     OW24994   2.974   0.553   4.978 -0.3107 -0.1319  0.1646
 4454SOL    HW124995   2.971   0.543   4.883  1.1679  0.4673  0.0519
 4454SOL    HW224996   2.971   0.648   4.984  1.0759  0.0058 -1.4257
 4455SOL     OW24997   2.758   3.336   9.889 -0.1130 -0.6006  0.2846
 4455SOL    HW124998   2.773   3.317   9.797 -0.6394 -0.2121  0.1167
 4455SOL    HW224999   2.672   3.379   9.892 -0.3963 -1.3906  3.3188
 4456SOL     OW25000   3.390   4.225  14.352 -0.5473 -0.3422  0.0310
 4456SOL    HW125001   3.434   4.276  14.284  0.5943 -2.2990 -0.7150
 4456SOL    HW225002   3.339   4.161  14.302 -2.8469  0.5346  1.2903
 4457SOL     OW25003   0.068   1.646   0.323 -0.1177 -0.2469 -0.1445
 4457SOL    HW125004   0.086   1.707   0.395 -1.7370 -1.7311  1.5189
 4457SOL    HW225005   0.008   1.696   0.268 -2.1820 -0.3838  2.0022
 4458SOL     OW25006   2.356   0.446   7.817  0.4218  0.0754 -0.2959
 4458SOL    HW125007   2.306   0.528   7.826 -0.5755 -0.7499  1.7135
 4458SOL    HW225008   2.433   0.467   7.764  2.9461 -1.5625  2.7382
 4459SOL     OW25009   4.367   2.023   9.436  0.3690 -0.1997 -1.0326
 4459SOL    HW125010   4.435   2.073   9.393  1.4068  1.6350  2.7377
 4459SOL    HW225011   4.318   2.003   9.356 -1.8157  0.5791  0.0911
 4460SOL     OW25012   2.532   0.410  11.199 -0.2790  0.1404  1.2146
 4460SOL    HW125013   2.490   0.365  11.126 -1.1914 -0.2276  1.9709
 4460SOL    HW225014   2.540   0.500  11.167  0.1366 -0.4320 -0.2602
 4461SOL     OW25015   2.819   0.478   0.843  0.6717  0.8762  0.1611
 4461SOL    HW125016   2.868   0.423   0.783 -0.7279 -0.6515  0.4295
 4461SOL    HW225017   2.740   0.490   0.792  1.3813  1.7813 -0.7233
 4462SOL     OW25018   4.736   0.797   6.952 -0.2544 -0.1376 -0.5975
 4462SOL    HW125019   4.678   0.873   6.950 -1.0540 -0.6685  2.1301
 4462SOL    HW225020   0.072   0.830   6.904  1.4112 -1.1070  1.3715
 4463SOL     OW25021   1.855   0.598   1.801  0.6861 -0.4291 -0.2556
 4463SOL    HW125022   1.924   0.552   1.848  0.1508  0.1741  1.1419
 4463SOL    HW225023   1.880   0.575   1.712 -0.9302  1.5436 -1.2316
 4464SOL     OW25024   0.004   2.058   2.136  0.0771  0.2366 -0.3216
 4464SOL    HW125025   4.735   2.015   2.051  0.2072 -1.2373  0.4136
 4464SOL    HW225026   4.690   2.133   2.111  0.4996  1.4131  2.3042
 4465SOL     OW25027   2.792   3.867   7.659  0.4677 -0.2530  0.2152
 4465SOL    HW125028   2.828   3.779   7.650  0.1587 -0.4412  0.8176
 4465SOL    HW225029   2.759   3.881   7.570  2.0823  0.5725 -0.2565
 4466SOL     OW25030   4.026   1.498  10.956 -0.4208  0.2889  0.6559
 4466SOL    HW125031   4.045   1.443  11.032 -1.0052  0.1829  0.7233
 4466SOL    HW225032   3.945   1.537  10.989 -1.2077 -0.0268 -0.8974
 4467SOL     OW25033   3.172   2.058   6.905 -0.0404  0.6116  0.1038
 4467SOL    HW125034   3.266   2.051   6.924 -0.0323  1.7126  0.4957
 4467SOL    HW225035   3.144   1.971   6.931 -0.5669 -0.4831 -4.1195
 4468SOL     OW25036   2.498   1.247   3.416  0.3505  0.3125 -0.3910
 4468SOL    HW125037   2.480   1.164   3.459  0.1442  0.1767 -0.7408
 4468SOL    HW225038   2.511   1.237   3.321  0.6403 -0.5854 -0.2523
 4469SOL     OW25039   0.798   2.001   6.588  0.2312 -0.0556 -0.7081
 4469SOL    HW125040   0.817   2.066   6.656 -1.2825  1.3270 -1.5862
 4469SOL    HW225041   0.817   2.050   6.507  0.3843 -1.1543 -1.3278
 4470SOL     OW25042   2.485   3.887   2.831  0.1490 -0.2463 -0.3851
 4470SOL    HW125043   2.393   3.910   2.818  0.4961  1.3861  0.1085
 4470SOL    HW225044   2.530   3.961   2.790  2.2042 -1.2770 -0.0079
 4471SOL     OW25045   1.118   0.836   5.384 -0.6737  0.5631 -0.8083
 4471SOL    HW125046   1.028   0.826   5.415 -0.1999  0.7847  0.6331
 4471SOL    HW225047   1.102   0.809   5.293  0.7154 -2.9664  0.0379
 4472SOL     OW25048   3.441   0.997   1.324 -0.7106  0.0754  0.8257
 4472SOL    HW125049   3.503   1.063   1.356  0.5328 -1.7868  2.2662
 4472SOL    HW225050   3.356   1.009   1.366 -1.6321  0.2675 -1.0698
 4473SOL     OW25051   0.347   2.996   3.086 -0.3176  0.0904 -0.1050
 4473SOL    HW125052   0.267   3.048   3.100 -0.7463 -0.6451  0.1971
 4473SOL    HW225053   0.339   2.931   3.156  2.2704  0.7675  0.8161
 4474SOL     OW25054   0.175   1.540   7.667 -0.5631 -0.1995  0.0804
 4474SOL    HW125055   0.189   1.474   7.599 -2.5302  1.5120 -2.0377
 4474SOL    HW225056   0.097   1.581   7.629  0.6006  1.4683 -0.5456
 4475SOL     OW25057   3.627   2.793   1.991 -0.1370  0.0119 -0.2344
 4475SOL    HW125058   3.551   2.833   1.948 -0.4268 -0.0504  0.2100
 4475SOL    HW225059   3.673   2.873   2.018  0.0780 -0.4663  0.8163
 4476SOL     OW25060   0.836   1.315   5.068  0.5129 -0.0143  0.0798
 4476SOL    HW125061   0.756   1.301   5.016  0.3733  1.3981 -0.0850
 4476SOL    HW225062   0.891   1.373   5.016  0.5274  0.5053  0.6748
 4477SOL     OW25063   1.459   2.960   5.210 -0.0796  0.4464  0.0879
 4477SOL    HW125064   1.384   2.988   5.158  0.4849 -0.5843 -1.2822
 4477SOL    HW225065   1.407   2.896   5.258  0.9298  0.2488  0.9179
 4478SOL     OW25066   0.459   4.417   5.817  0.3778  0.1230  0.1870
 4478SOL    HW125067   0.418   4.488   5.867  1.9329  1.6397 -0.6956
 4478SOL    HW225068   0.520   4.385   5.883  0.8612  3.0053  1.1082
 4479SOL     OW25069   1.772   2.779   9.134  0.0059 -0.1611 -0.5727
 4479SOL    HW125070   1.864   2.798   9.121 -0.1928  1.4390  0.3326
 4479SOL    HW225071   1.729   2.811   9.054 -1.9017 -0.3948  0.3531
 4480SOL     OW25072   1.189   0.674  11.061  0.4252  0.3809 -0.5746
 4480SOL    HW125073   1.229   0.739  11.118  0.1864  0.6587 -0.7230
 4480SOL    HW225074   1.193   0.602  11.124  1.5669  0.2553 -0.7868
 4481SOL     OW25075   0.914   1.524   7.418  0.0219 -0.0315 -0.0711
 4481SOL    HW125076   0.865   1.456   7.370 -1.0353  0.9163 -0.3306
 4481SOL    HW225077   1.001   1.486   7.430  0.3781  1.0112  0.5926
 4482SOL     OW25078   4.131   3.292   6.159  0.2367  0.1733  0.1633
 4482SOL    HW125079   4.068   3.223   6.182  0.0936 -0.3065 -1.6792
 4482SOL    HW225080   4.103   3.372   6.204 -1.5589  0.1738 -0.9624
 4483SOL     OW25081   1.241   2.712   0.830  0.5260  0.4781  0.6313
 4483SOL    HW125082   1.201   2.646   0.887  3.5325 -1.3668  0.6268
 4483SOL    HW225083   1.157   2.754   0.813  0.8625  1.1604  0.6587
 4484SOL     OW25084   3.675   1.257  13.953  0.0421  0.0763  0.5345
 4484SOL    HW125085   3.664   1.215  14.038 -0.1285 -0.3969  0.2788
 4484SOL    HW225086   3.664   1.182  13.894 -1.5587  1.1266 -0.4801
 4485SOL     OW25087   0.228   1.180  11.125  0.2017 -0.2791  0.1336
 4485SOL    HW125088   0.205   1.147  11.211  0.2875 -0.2238  0.1772
 4485SOL    HW225089   0.139   1.204  11.098  0.9005 -0.2207 -2.1161
 4486SOL     OW25090   0.271   1.371  11.601 -0.4910 -0.2055 -0.0947
 4486SOL    HW125091   0.242   1.327  11.681 -2.8392  0.9837 -0.3077
 4486SOL    HW225092   0.319   1.300  11.558  0.9889  0.4880  0.3750
 4487SOL     OW25093   1.647   4.156   1.901  0.0936  0.2522 -0.2644
 4487SOL    HW125094   1.723   4.172   1.846  0.5806 -3.6445 -0.7521
 4487SOL    HW225095   1.688   4.086   1.952  0.7008 -0.4609 -1.7381
 4488SOL     OW25096   2.980   2.118   4.365 -0.0137 -0.0434  0.0500
 4488SOL    HW125097   3.007   2.209   4.353 -0.2486  0.0713  0.3901
 4488SOL    HW225098   3.020   2.083   4.285  0.2433 -0.0431  0.1801
 4489SOL     OW25099   3.157   2.310   5.252 -0.4586 -0.2818 -0.2498
 4489SOL    HW125100   3.220   2.339   5.318  1.4439 -1.2200 -1.6440
 4489SOL    HW225101   3.222   2.266   5.198 -0.2723 -0.2063 -0.0892
 4490SOL     OW25102   1.661   2.616   3.065  0.3879  0.4096  0.1711
 4490SOL    HW125103   1.731   2.551   3.073  0.5572  0.6503  0.6473
 4490SOL    HW225104   1.693   2.670   2.992  0.8818  0.0995  0.1606
 4491SOL     OW25105   2.112   3.165   0.708  0.3955  0.0032  0.2416
 4491SOL    HW125106   2.057   3.235   0.674  0.5064 -0.2885 -0.5432
 4491SOL    HW225107   2.188   3.217   0.731  1.4670 -0.4086 -2.2976
 4492SOL     OW25108   3.599   0.218  16.145  0.1150 -0.0915  0.1684
 4492SOL    HW125109   3.637   0.205  16.058 -0.0306 -1.4027  0.2897
 4492SOL    HW225110   3.583   0.311  16.135  0.1099 -0.2569 -1.3982
 4493SOL     OW25111   1.669   2.958   5.406 -0.4584  0.5866 -0.6380
 4493SOL    HW125112   1.694   2.877   5.362 -1.7228 -2.1807  3.7592
 4493SOL    HW225113   1.603   2.986   5.342  0.1925 -1.3049 -2.1158
 4494SOL     OW25114   2.094   2.530   8.813  0.2950 -0.1758 -0.2281
 4494SOL    HW125115   2.066   2.622   8.814 -0.4346 -0.3945 -0.1504
 4494SOL    HW225116   2.076   2.506   8.904 -0.9560 -0.4634 -0.5559
 4495SOL     OW25117   2.155   2.740   2.466  0.2908 -0.6605  0.2073
 4495SOL    HW125118   2.071   2.765   2.504  0.8403  0.7875  0.4511
 4495SOL    HW225119   2.215   2.786   2.525 -1.2803  0.4155  0.9541
 4496SOL     OW25120   3.996   2.775   5.150  0.4947  0.1550 -0.1073
 4496SOL    HW125121   3.937   2.756   5.223  0.2875  0.0729 -0.2982
 4496SOL    HW225122   3.991   2.692   5.103  1.0384 -0.5558  1.0847
 4497SOL     OW25123   2.442   4.546   2.237  0.1806 -0.1969 -0.2847
 4497SOL    HW125124   2.468   4.541   2.145  0.8606 -1.1672 -0.0342
 4497SOL    HW225125   2.497   4.619   2.267 -2.7435  1.7307  0.4301
 4498SOL     OW25126   2.672   3.314   5.257 -0.4971 -0.0660 -0.1376
 4498SOL    HW125127   2.762   3.347   5.268 -0.0439 -1.3463  0.0079
 4498SOL    HW225128   2.623   3.375   5.312  0.4374  0.0528  0.5703
 4499SOL     OW25129   1.188   4.701   8.622 -0.7790  0.3086  0.0296
 4499SOL    HW125130   1.095   4.720   8.624 -0.3688  2.2034  1.4159
 4499SOL    HW225131   1.185   4.628   8.685  0.8937  0.7234  0.5908
 4500SOL     OW25132   4.420   1.686  11.008 -0.4494 -0.0875  0.3796
 4500SOL    HW125133   4.477   1.757  10.979 -0.6506 -0.4929 -0.9816
 4500SOL    HW225134   4.344   1.730  10.969  0.1558  0.6398  0.0237
 4501SOL     OW25135   2.907   0.224  14.856  0.4329  0.2701  0.3378
 4501SOL    HW125136   2.909   0.210  14.951 -1.3579  1.5613  0.5674
 4501SOL    HW225137   2.962   0.301  14.840  0.5566 -0.0068 -0.5764
 4502SOL     OW25138   1.007   2.725  16.604 -0.1928  0.2007 -0.8401
 4502SOL    HW125139   1.098   2.736  16.630  0.6815 -3.6777 -2.3173
 4502SOL    HW225140   0.966   2.745  16.688 -0.8059  0.7516 -1.2712
 4503SOL     OW25141   3.520   1.522   6.965  0.6602  0.1170 -0.1921
 4503SOL    HW125142   3.562   1.607   6.977  1.2807 -0.1460 -0.5352
 4503SOL    HW225143   3.454   1.530   7.034  0.5347  1.5999 -0.4814
 4504SOL     OW25144   1.246   3.937   8.788  0.0257  0.2152  0.0826
 4504SOL    HW125145   1.184   3.990   8.738  0.1097 -0.8989 -1.2121
 4504SOL    HW225146   1.315   3.919   8.723  0.6878  0.9915  0.5670
 4505SOL     OW25147   0.074   1.409  15.737 -0.5137 -0.3143 -0.0099
 4505SOL    HW125148   0.154   1.396  15.685  0.7823 -1.7194  2.3347
 4505SOL    HW225149   0.103   1.387  15.826  1.3932  0.3787 -0.4483
 4506SOL     OW25150   3.249   0.960   9.463  0.1493 -0.4189 -0.2539
 4506SOL    HW125151   3.166   0.928   9.430  0.6165 -1.1928 -0.6948
 4506SOL    HW225152   3.274   1.002   9.381  0.8760  1.3511  0.8805
 4507SOL     OW25153   4.542   1.334  17.618 -0.1913  0.6418  0.4045
 4507SOL    HW125154   4.633   1.314  17.593 -0.3203  0.1453  0.3396
 4507SOL    HW225155   4.488   1.273  17.569 -2.1511  2.5248  0.2264
 4508SOL     OW25156   2.785   3.890   1.356  0.6204 -0.6894  0.0237
 4508SOL    HW125157   2.726   3.923   1.288 -0.1391 -0.9437  0.5524
 4508SOL    HW225158   2.867   3.933   1.332  0.2498 -0.1457 -0.2496
 4509SOL     OW25159   4.433   4.216   2.125  0.3786  0.6515 -0.1595
 4509SOL    HW125160   4.478   4.158   2.187 -1.3665 -0.6842 -0.1303
 4509SOL    HW225161   4.361   4.156   2.104 -0.1147  1.4312 -0.6555
 4510SOL     OW25162   2.193   3.799   8.304 -0.0655 -0.1348 -0.2551
 4510SOL    HW125163   2.214   3.721   8.253  0.4403  1.0324 -1.8086
 4510SOL    HW225164   2.252   3.802   8.379 -0.4837  2.5962 -0.0539
 4511SOL     OW25165   2.544   0.911   3.870  0.2175 -0.7118  0.2016
 4511SOL    HW125166   2.479   0.848   3.903 -1.0091  0.6749  0.4415
 4511SOL    HW225167   2.578   0.956   3.948  1.6134  0.7553 -1.2387
 4512SOL     OW25168   3.406   4.446   1.978 -0.7289 -0.0003 -0.1443
 4512SOL    HW125169   3.323   4.433   2.025 -1.8692 -0.7859 -2.4164
 4512SOL    HW225170   3.461   4.457   2.056  0.8537  2.6273 -1.6321
 4513SOL     OW25171   2.025   0.310   9.682 -0.0914 -0.5913 -0.4057
 4513SOL    HW125172   2.109   0.266   9.694 -0.8683 -1.8197  0.4917
 4513SOL    HW225173   1.965   0.248   9.723  0.1877  0.9710  2.3422
 4514SOL     OW25174   2.068   2.507   9.085 -0.1426  0.3655 -0.3309
 4514SOL    HW125175   2.031   2.423   9.113  0.1173  0.7737  1.1868
 4514SOL    HW225176   2.017   2.575   9.131  0.0361 -0.7823  1.5543
 4515SOL     OW25177   0.406   0.125   4.299  0.2565  0.6525  0.3991
 4515SOL    HW125178   0.442   0.058   4.240 -3.8054 -1.0104 -0.2163
 4515SOL    HW225179   0.450   0.104   4.381 -1.0542  0.0749  0.9541
 4516SOL     OW25180   3.698   4.685   8.345  0.4484  0.3549  0.3659
 4516SOL    HW125181   3.687   4.606   8.292 -0.6086 -0.4105  1.7157
 4516SOL    HW225182   3.640   0.012   8.309 -0.7754  0.1663  1.9740
 4517SOL     OW25183   2.140   3.921  11.208  0.7713  0.3184 -0.4503
 4517SOL    HW125184   2.216   3.907  11.152  0.7084 -0.4318 -0.3483
 4517SOL    HW225185   2.118   3.831  11.233  1.9231  0.7699  2.2317
 4518SOL     OW25186   2.461   1.369  10.541  0.6476 -0.1887 -0.6481
 4518SOL    HW125187   2.549   1.386  10.509  0.3144 -0.6912 -1.8344
 4518SOL    HW225188   2.464   1.285  10.586  0.1663 -0.2863 -0.8025
 4519SOL     OW25189   3.149   0.716   0.766  0.0236  0.4183  0.8154
 4519SOL    HW125190   3.086   0.783   0.794 -0.7508  0.2105 -0.4034
 4519SOL    HW225191   3.220   0.774   0.737 -0.1518  0.8944  1.3372
 4520SOL     OW25192   1.986   3.131   1.389  0.3697 -0.6690 -0.4057
 4520SOL    HW125193   2.052   3.075   1.349 -0.0407 -1.3881 -0.0884
 4520SOL    HW225194   2.017   3.221   1.387 -0.3869 -0.3386  2.5667
 4521SOL     OW25195   2.310   1.608   5.803  0.0995  0.4283 -0.2091
 4521SOL    HW125196   2.310   1.570   5.890  3.7971 -0.1029 -0.4354
 4521SOL    HW225197   2.398   1.647   5.804  0.5383 -0.5929  0.8774
 4522SOL     OW25198   2.855   1.593  10.582  0.2535 -0.2864  0.3322
 4522SOL    HW125199   2.780   1.635  10.623  1.1837 -0.9830  2.7680
 4522SOL    HW225200   2.804   1.538  10.523 -0.4115  0.7168 -0.0332
 4523SOL     OW25201   2.571   3.629  15.047  0.2485 -0.5294 -0.1584
 4523SOL    HW125202   2.640   3.648  15.111 -0.0696 -1.5329  0.4748
 4523SOL    HW225203   2.518   3.561  15.089  0.6822 -2.1267 -2.2061
 4524SOL     OW25204   4.308   0.012   2.460 -0.1314 -0.4569 -0.2259
 4524SOL    HW125205   4.255   4.714   2.530 -1.3372  1.8022  0.0718
 4524SOL    HW225206   4.243   0.063   2.412 -1.9688 -1.8017  0.8543
 4525SOL     OW25207   3.748   0.055  14.905 -0.0769 -0.5054 -0.7786
 4525SOL    HW125208   3.693   0.013  14.838 -1.2576 -1.5759  0.8670
 4525SOL    HW225209   3.702   0.138  14.910 -1.0023 -0.9361 -2.1427
 4526SOL     OW25210   0.763   2.738  12.035  0.4059 -0.3498  0.5731
 4526SOL    HW125211   0.849   2.707  12.008 -0.3069  0.0846 -2.1410
 4526SOL    HW225212   0.780   2.832  12.044 -1.8798  0.1895 -0.7674
 4527SOL     OW25213   1.219   4.329   4.585 -0.0487 -0.1688  0.6234
 4527SOL    HW125214   1.302   4.289   4.610  1.4691  2.7355  0.1690
 4527SOL    HW225215   1.166   4.322   4.665 -2.0320 -0.3290 -0.6868
 4528SOL     OW25216   2.863   3.818   6.214  0.2587  0.1113  0.4003
 4528SOL    HW125217   2.841   3.743   6.269  0.0854  0.1426  0.3735
 4528SOL    HW225218   2.954   3.797   6.194  0.4008  0.2561  0.8885
 4529SOL     OW25219   2.016   2.894   8.273 -0.2364 -0.3496  0.2774
 4529SOL    HW125220   1.971   2.892   8.357 -1.3906 -0.8143 -0.3532
 4529SOL    HW225221   1.945   2.871   8.213  0.3448 -1.7130  0.0928
 4530SOL     OW25222   2.693   1.949   2.145 -0.6327 -0.4277  0.0224
 4530SOL    HW125223   2.614   1.986   2.185 -1.0867 -0.3874 -0.9168
 4530SOL    HW225224   2.669   1.856   2.136  2.4044 -1.2713  0.7905
 4531SOL     OW25225   4.727   4.735   7.652  0.0937  0.2347 -0.3075
 4531SOL    HW125226   4.640   0.004   7.690  1.8136  4.3659  2.6325
 4531SOL    HW225227   0.035   0.053   7.711 -2.7612  0.2877  1.9106
 4532SOL     OW25228   4.557   4.209   8.479  0.1868 -0.0392 -0.0481
 4532SOL    HW125229   4.582   4.255   8.399  1.9502  0.5131  0.8341
 4532SOL    HW225230   4.641   4.169   8.501  0.5478  0.2331 -0.9139
 4533SOL     OW25231   4.443   4.072   4.723  0.4059  0.5675  0.4205
 4533SOL    HW125232   4.501   4.056   4.797 -0.2125  1.1446  1.0262
 4533SOL    HW225233   4.504   4.062   4.649  1.6510 -0.8702  1.6264
 4534SOL     OW25234   3.334   2.340   8.376  0.6267  0.3995  0.3998
 4534SOL    HW125235   3.371   2.360   8.462 -0.1759  0.6929  0.6703
 4534SOL    HW225236   3.411   2.333   8.319 -0.2950 -0.0005 -0.7896
 4535SOL     OW25237   3.726   4.434   0.387  0.3375 -0.2742  0.5294
 4535SOL    HW125238   3.710   4.479   0.470  1.0834 -0.1333  0.5898
 4535SOL    HW225239   3.813   4.472   0.375  0.2639 -0.2401  0.1133
 4536SOL     OW25240   3.290   0.697   7.807  0.3514 -0.2942  0.2577
 4536SOL    HW125241   3.366   0.640   7.819 -0.5393 -1.0961  2.0824
 4536SOL    HW225242   3.338   0.779   7.804 -0.0153 -0.0944 -0.1102
 4537SOL     OW25243   2.986   2.170   5.886 -0.8215 -0.3229 -0.7983
 4537SOL    HW125244   3.072   2.211   5.900 -1.2078 -0.5714  2.2540
 4537SOL    HW225245   2.929   2.216   5.947 -0.2346 -0.8402  0.1508
 4538SOL     OW25246   4.435   3.637   2.725  0.0593 -0.1308  0.1585
 4538SOL    HW125247   4.356   3.652   2.673 -1.4497  1.1471  2.8527
 4538SOL    HW225248   4.398   3.608   2.808 -0.3220 -1.2870 -0.4262
 4539SOL     OW25249   3.774   3.882   2.678 -0.4716  0.2091  0.8271
 4539SOL    HW125250   3.831   3.952   2.711 -2.0742  1.8928  0.0085
 4539SOL    HW225251   3.827   3.840   2.611 -1.1057  0.9012 -0.1129
 4540SOL     OW25252   1.467   2.514   4.539 -0.0235  0.1975  0.8362
 4540SOL    HW125253   1.501   2.508   4.628 -0.5976  1.0862  1.1126
 4540SOL    HW225254   1.467   2.607   4.517  0.7431  0.6388  2.7558
 4541SOL     OW25255   0.616   4.022  11.678 -0.1290 -0.0600 -0.4187
 4541SOL    HW125256   0.642   3.932  11.694  0.5122  0.6562  2.4502
 4541SOL    HW225257   0.568   4.021  11.595 -1.3409  2.4190  0.2367
 4542SOL     OW25258   2.178   0.402   3.100 -0.1720  0.1615 -0.0291
 4542SOL    HW125259   2.159   0.321   3.053  1.8862 -0.9480  1.0629
 4542SOL    HW225260   2.107   0.457   3.066  0.0192 -0.0025 -0.6825
 4543SOL     OW25261   3.242   3.650   1.800  0.0767  0.0519 -0.5388
 4543SOL    HW125262   3.148   3.664   1.811 -0.0166 -1.0412  0.0705
 4543SOL    HW225263   3.269   3.730   1.845 -1.9082  0.8941 -0.8758
 4544SOL     OW25264   2.145   0.998   7.082  0.1914  0.5546  0.1437
 4544SOL    HW125265   2.073   1.006   7.145 -0.4526  1.1204 -0.6697
 4544SOL    HW225266   2.206   1.065   7.112  1.7331 -1.5776  1.7941
 4545SOL     OW25267   3.683   2.955  11.829 -0.2072 -1.0584  0.5189
 4545SOL    HW125268   3.624   2.979  11.901  1.3575  0.1374  1.4021
 4545SOL    HW225269   3.639   2.878  11.793 -2.6111  1.4470 -1.8865
 4546SOL     OW25270   3.203   1.455   7.330 -0.0269  0.5113  0.1911
 4546SOL    HW125271   3.192   1.364   7.305  0.9419 -0.0900  1.9867
 4546SOL    HW225272   3.161   1.452   7.416  0.8673  0.1883  0.6157
 4547SOL     OW25273   0.029   0.872   5.346  0.6084 -0.3801  0.0377
 4547SOL    HW125274   4.682   0.855   5.308  1.8277 -1.9919 -2.0590
 4547SOL    HW225275   0.082   0.813   5.292 -0.9050 -0.6182 -1.1785
 4548SOL     OW25276   2.340   1.551   6.058  0.0032  0.1660 -0.2446
 4548SOL    HW125277   2.428   1.513   6.062  0.5880  1.5181 -0.4003
 4548SOL    HW225278   2.311   1.537   6.148  1.4764 -1.2404  0.0021
 4549SOL     OW25279   3.125   1.283   5.384 -0.4997 -0.3956 -0.0344
 4549SOL    HW125280   3.051   1.224   5.375 -0.4248 -0.5765  0.5124
 4549SOL    HW225281   3.156   1.255   5.470 -1.1488 -0.1989  0.2615
 4550SOL     OW25282   0.012   1.813  16.413  0.5521 -0.4226  0.3324
 4550SOL    HW125283   0.107   1.821  16.404  0.3090  2.6257  0.4085
 4550SOL    HW225284   0.006   1.722  16.387 -2.3355 -0.0700 -0.1896
 4551SOL     OW25285   4.630   3.874   4.124  0.5291 -0.2000  1.0098
 4551SOL    HW125286   4.651   3.791   4.081 -2.6263 -0.3352 -0.2497
 4551SOL    HW225287   4.631   3.851   4.217 -0.1987 -1.5482  0.6736
 4552SOL     OW25288   1.526   2.981  15.381 -0.1203 -0.6283  0.4660
 4552SOL    HW125289   1.527   2.915  15.450 -1.4900 -1.6835 -0.5362
 4552SOL    HW225290   1.612   2.987  15.339 -1.7092 -0.2140 -2.6707
 4553SOL     OW25291   3.360   0.424   4.610 -0.2187 -0.0721 -0.1820
 4553SOL    HW125292   3.451   0.427   4.639  1.0282 -0.0844 -4.0979
 4553SOL    HW225293   3.359   0.486   4.537 -1.0110  0.0492 -0.0630
 4554SOL     OW25294   4.373   1.456   8.895  0.9272  0.1649 -0.0118
 4554SOL    HW125295   4.428   1.485   8.822  0.4791  2.4067  0.5350
 4554SOL    HW225296   4.427   1.378   8.911 -0.0896 -0.2549  1.3591
 4555SOL     OW25297   3.015   0.569   0.211  0.4152  0.3325 -0.0362
 4555SOL    HW125298   2.998   0.579   0.305 -0.6850 -2.1590  0.0221
 4555SOL    HW225299   3.102   0.608   0.213  1.3429 -1.7839 -0.1003
 4556SOL     OW25300   3.921   0.305   4.044  0.2069  0.1757  0.0477
 4556SOL    HW125301   3.863   0.253   3.989  2.2849 -1.1437 -0.8732
 4556SOL    HW225302   3.883   0.301   4.132 -0.5265 -2.3506 -0.3814
 4557SOL     OW25303   2.822   2.658   7.437 -0.1150 -0.8353  0.0666
 4557SOL    HW125304   2.869   2.659   7.520  0.8997  0.2337 -0.5200
 4557SOL    HW225305   2.819   2.566   7.411  0.3526 -0.6068 -0.8119
 4558SOL     OW25306   2.589   3.985  10.521 -0.4689 -0.1473 -0.1035
 4558SOL    HW125307   2.615   4.056  10.580 -2.0113  0.5780 -0.2996
 4558SOL    HW225308   2.560   3.917  10.582  2.1111 -1.2836 -0.1291
 4559SOL     OW25309   3.927   2.252  11.077 -0.4791  0.3581  0.2500
 4559SOL    HW125310   3.850   2.196  11.070  1.3973 -1.9855 -1.5939
 4559SOL    HW225311   3.931   2.275  11.170 -0.6009 -1.2542  0.6546
 4560SOL     OW25312   0.268   1.376  13.510  0.0441  0.0476  0.2116
 4560SOL    HW125313   0.176   1.395  13.489 -0.7435 -2.2885  1.4785
 4560SOL    HW225314   0.287   1.293  13.467 -1.6470 -1.0162  1.4860
 4561SOL     OW25315   3.662   3.278   6.723  0.2427  0.1403  0.5773
 4561SOL    HW125316   3.701   3.288   6.810  0.2393 -1.6042  0.7796
 4561SOL    HW225317   3.733   3.253   6.664 -1.3145  0.5235 -1.4738
 4562SOL     OW25318   0.125   1.651   7.168 -0.0612 -0.5429  0.4376
 4562SOL    HW125319   0.151   1.600   7.091 -1.8303 -2.1956  0.9128
 4562SOL    HW225320   0.191   1.718   7.186 -0.3898 -0.2426  0.5395
 4563SOL     OW25321   2.387   1.326  10.888  0.1032 -0.5168 -0.1168
 4563SOL    HW125322   2.428   1.274  10.819  0.6858 -0.5767  0.2723
 4563SOL    HW225323   2.441   1.404  10.880 -1.2965  0.1384 -2.9435
 4564SOL     OW25324   1.946   2.096  16.783  0.0313  0.1061 -0.2807
 4564SOL    HW125325   2.007   2.150  16.733  0.5893 -0.3698 -0.1178
 4564SOL    HW225326   1.890   2.067  16.711 -0.2400  0.3253 -0.1532
 4565SOL     OW25327   3.158   4.325   0.842 -0.4963 -0.1845 -0.5083
 4565SOL    HW125328   3.171   4.281   0.927  0.2050 -0.2041 -0.6284
 4565SOL    HW225329   3.207   4.266   0.785 -0.3684  0.0454 -0.6361
 4566SOL     OW25330   1.464   4.245  10.836 -0.2383  0.2774 -0.7726
 4566SOL    HW125331   1.459   4.333  10.874 -0.2864 -0.5071  1.0354
 4566SOL    HW225332   1.500   4.257  10.748  1.5669  0.0584 -0.0557
 4567SOL     OW25333   1.970   2.749   3.545 -0.2114 -0.4547 -0.3536
 4567SOL    HW125334   2.016   2.783   3.621 -2.9258 -0.1221  1.1709
 4567SOL    HW225335   2.024   2.781   3.474 -1.5559 -0.4038 -1.3559
 4568SOL     OW25336   3.149   3.807  11.538  0.3637 -0.2390  0.2739
 4568SOL    HW125337   3.232   3.772  11.508  0.3250 -0.2259  0.1502
 4568SOL    HW225338   3.105   3.729  11.572 -1.6151  0.6368 -0.2426
 4569SOL     OW25339   1.264   1.366   8.820 -0.2331  0.2638  0.1783
 4569SOL    HW125340   1.322   1.317   8.761 -2.4044 -2.6227  0.4640
 4569SOL    HW225341   1.324   1.439   8.837  1.4962 -1.9001  3.2975
 4570SOL     OW25342   2.760   1.641  11.771 -0.6377 -0.2423 -0.5524
 4570SOL    HW125343   2.806   1.717  11.807 -1.3180  0.6412 -1.5327
 4570SOL    HW225344   2.670   1.671  11.776 -0.4083  0.0843  1.3313
 4571SOL     OW25345   1.021   0.740   0.042 -0.5152  0.3209  0.5232
 4571SOL    HW125346   1.057   0.729   0.130  1.7582  1.3637 -0.2741
 4571SOL    HW225347   1.065   0.666   0.001  0.0291  1.7189 -1.4500
 4572SOL     OW25348   4.322   0.052   2.121 -0.2613 -0.1304 -0.4909
 4572SOL    HW125349   4.347   4.713   2.072 -1.3488 -0.7958  0.0056
 4572SOL    HW225350   4.347   0.030   2.211 -2.1955 -0.8227 -0.1175
 4573SOL     OW25351   0.558   1.280   8.905 -0.0218  0.3648 -0.0753
 4573SOL    HW125352   0.567   1.230   8.987  1.8456  0.9597  0.0905
 4573SOL    HW225353   0.567   1.371   8.934  0.1764  0.1445  0.5532
 4574SOL     OW25354   4.431   3.720   9.724 -0.7530 -0.0775 -0.3125
 4574SOL    HW125355   4.350   3.691   9.680  0.0023 -0.8658 -1.1849
 4574SOL    HW225356   4.482   3.640   9.709 -1.0690 -0.4584  0.6342
 4575SOL     OW25357   1.706   0.378   3.365 -0.0226 -0.5209 -0.1088
 4575SOL    HW125358   1.666   0.301   3.404  0.6214 -0.4712  0.6450
 4575SOL    HW225359   1.787   0.369   3.415  0.3423  3.1870 -0.0011
 4576SOL     OW25360   0.328   1.139   3.855  0.1088  0.5480  0.5605
 4576SOL    HW125361   0.368   1.194   3.788 -2.0459  2.2924  0.6790
 4576SOL    HW225362   0.400   1.086   3.888 -0.1243 -0.0218  0.1511
 4577SOL     OW25363   3.658   1.562   6.326 -0.0092 -0.0115 -0.0345
 4577SOL    HW125364   3.664   1.653   6.298  1.0861  0.6328  2.3044
 4577SOL    HW225365   3.732   1.565   6.386 -0.3594  1.3287  0.3273
 4578SOL     OW25366   3.091   4.706  17.623 -0.6950 -0.1230 -0.1158
 4578SOL    HW125367   3.143   4.632  17.592  0.1164  0.1957  0.4893
 4578SOL    HW225368   3.006   4.692  17.582 -0.3717 -0.5126 -0.6599
 4579SOL     OW25369   1.963   1.514   9.144 -0.1054 -0.8921 -0.3251
 4579SOL    HW125370   2.034   1.462   9.107  0.0329 -0.3184 -0.8763
 4579SOL    HW225371   2.001   1.602   9.136  0.7802 -1.2196  0.2984
 4580SOL     OW25372   0.525   4.199  11.851 -0.1155  0.2863  0.0051
 4580SOL    HW125373   0.431   4.207  11.841 -0.0498  1.5842  0.4871
 4580SOL    HW225374   0.538   4.142  11.775  1.1345  0.7768 -0.1580
 4581SOL     OW25375   0.973   4.034   4.731  0.2913  0.4351  0.0768
 4581SOL    HW125376   1.067   4.044   4.746  0.2312  1.6847 -0.3737
 4581SOL    HW225377   0.956   3.944   4.759 -0.9075  0.6693  0.1094
 4582SOL     OW25378   1.072   4.190   2.509  0.8997  0.1726  0.7231
 4582SOL    HW125379   1.058   4.260   2.573 -1.1136 -0.5748  1.1144
 4582SOL    HW225380   1.080   4.115   2.568 -0.0601 -0.8642 -0.4878
 4583SOL     OW25381   0.381   1.532   4.474  0.9475  0.2767 -1.0336
 4583SOL    HW125382   0.380   1.493   4.562 -2.3602  0.9863 -0.7255
 4583SOL    HW225383   0.362   1.445   4.439  1.6485 -0.6028  0.7999
 4584SOL     OW25384   2.079   1.472  11.361  0.9168 -0.3705  0.3460
 4584SOL    HW125385   2.093   1.404  11.427  0.5628  0.1244  0.9288
 4584SOL    HW225386   2.001   1.439  11.316 -0.2630  3.3090 -0.3726
 4585SOL     OW25387   3.794   0.520   3.121  0.4527  0.4422  0.3959
 4585SOL    HW125388   3.843   0.501   3.201 -0.4495  1.8944  1.2836
 4585SOL    HW225389   3.730   0.572   3.168 -1.6348 -1.8775  0.0811
 4586SOL     OW25390   3.046   0.999  15.171 -0.6304  0.0786  0.5631
 4586SOL    HW125391   3.062   1.004  15.076  1.3009  2.9100  1.0176
 4586SOL    HW225392   2.980   0.932  15.189  0.1534 -0.6138  0.8697
 4587SOL     OW25393   0.266   1.737   4.124  0.0515  0.3859 -0.3047
 4587SOL    HW125394   0.360   1.754   4.118  0.8534 -3.8141  0.4928
 4587SOL    HW225395   0.251   1.681   4.048 -0.0697 -0.5134  0.3883
 4588SOL     OW25396   2.000   3.576   8.001  0.2539  0.0734 -0.7500
 4588SOL    HW125397   2.006   3.646   7.936 -1.5919  2.0946  1.2588
 4588SOL    HW225398   2.029   3.503   7.948  0.9653 -0.8819  0.9380
 4589SOL     OW25399   3.556   0.330   6.297 -0.9024 -1.0925  0.3790
 4589SOL    HW125400   3.621   0.269   6.332  0.6753  0.0629 -0.5370
 4589SOL    HW225401   3.597   0.342   6.211 -0.6888  0.4395  0.6925
 4590SOL     OW25402   2.127   0.632   4.271  0.0169 -0.2235  0.0539
 4590SOL    HW125403   2.044   0.590   4.292  1.4593 -2.1335  1.9403
 4590SOL    HW225404   2.168   0.653   4.355  1.7476  0.8230 -1.0613
 4591SOL     OW25405   1.417   1.613   2.439  0.1693  0.3012 -0.6050
 4591SOL    HW125406   1.437   1.690   2.492  2.3785 -1.2481  0.8368
 4591SOL    HW225407   1.483   1.625   2.371 -0.1098  0.1325 -0.9075
 4592SOL     OW25408   0.892   0.216  13.593 -0.6382 -0.4891  0.3547
 4592SOL    HW125409   0.934   0.291  13.635 -1.0563 -0.3872  0.5847
 4592SOL    HW225410   0.972   0.164  13.584 -2.0205 -2.4763 -0.4328
 4593SOL     OW25411   0.486   2.913  11.459  0.8662 -0.2115  0.6614
 4593SOL    HW125412   0.392   2.901  11.477  0.8642  0.1399  0.8911
 4593SOL    HW225413   0.526   2.857  11.525  1.0187 -1.5783 -0.5772
 4594SOL     OW25414   0.246   0.144   6.893 -0.5311  0.2158 -0.0303
 4594SOL    HW125415   0.202   0.228   6.905  0.5993  0.5170  1.9287
 4594SOL    HW225416   0.187   0.112   6.825 -1.1472 -0.2569  0.7364
 4595SOL     OW25417   1.594   4.234  11.068 -0.2339  0.1745 -0.4031
 4595SOL    HW125418   1.554   4.159  11.113  0.3194  0.2259  0.1615
 4595SOL    HW225419   1.555   4.220  10.981 -2.9591 -0.5586  0.9399
 4596SOL     OW25420   2.195   4.420   5.549  0.1768 -0.4878 -0.2739
 4596SOL    HW125421   2.193   4.449   5.458  0.9926 -2.4117 -0.9172
 4596SOL    HW225422   2.102   4.419   5.571  0.1740  0.9914 -0.2203
 4597SOL     OW25423   1.602   1.907   9.282  0.0160  0.7444  1.2416
 4597SOL    HW125424   1.608   1.821   9.239  1.8154  1.2384  0.4917
 4597SOL    HW225425   1.600   1.882   9.374 -0.6718  0.5603  1.1750
 4598SOL     OW25426   0.783   4.165  10.330  0.0100  0.2427 -0.5333
 4598SOL    HW125427   0.868   4.121  10.329  0.1906  0.4852  3.2678
 4598SOL    HW225428   0.790   4.250  10.288 -1.8552  1.4713  1.6213
 4599SOL     OW25429   3.937   1.547   2.285  0.0694  0.0151  0.9622
 4599SOL    HW125430   3.977   1.634   2.291 -1.7822  0.8850  0.5307
 4599SOL    HW225431   4.002   1.495   2.236 -0.8745 -0.3344  0.0772
 4600SOL     OW25432   0.396   0.023   7.623 -0.5610 -0.2032 -0.0191
 4600SOL    HW125433   0.447   0.038   7.544  0.1554  2.3256  0.9255
 4600SOL    HW225434   0.321   0.073   7.591 -1.3177 -0.5318  1.2135
 4601SOL     OW25435   0.214   1.384   6.516 -0.0195  0.3344  0.0739
 4601SOL    HW125436   0.173   1.459   6.559 -0.8833 -0.5452  0.7780
 4601SOL    HW225437   0.181   1.396   6.427 -0.0972 -1.6692 -0.1577
 4602SOL     OW25438   0.777   1.813  10.381  0.3317 -0.1579  0.0197
 4602SOL    HW125439   0.755   1.894  10.427  0.2781 -1.2200  1.8810
 4602SOL    HW225440   0.852   1.777  10.429 -0.9266  0.3333  2.3913
 4603SOL     OW25441   0.115   4.143   5.833  0.0846  0.0064 -0.2924
 4603SOL    HW125442   0.144   4.091   5.908  0.5472  1.1300  0.3101
 4603SOL    HW225443   0.203   4.166   5.801 -0.5724  0.7109 -1.5652
 4604SOL     OW25444   2.170   4.170   7.614 -0.1236  0.2887 -0.3831
 4604SOL    HW125445   2.181   4.168   7.519 -1.4940 -1.1571 -0.5174
 4604SOL    HW225446   2.258   4.191   7.644 -0.8319 -0.0980  1.9512
 4605SOL     OW25447   1.487   4.737   7.429 -0.2050 -0.1052 -0.1914
 4605SOL    HW125448   1.411   0.003   7.486  0.6387  3.1483  0.6281
 4605SOL    HW225449   1.455   4.704   7.345  0.3523  1.4273 -0.9969
 4606SOL     OW25450   3.303   0.827  17.350 -0.7362  0.5792 -0.2723
 4606SOL    HW125451   3.291   0.920  17.368 -0.7261  0.4818  0.2227
 4606SOL    HW225452   3.350   0.836  17.267  2.1690 -2.4658  1.0600
 4607SOL     OW25453   0.851   0.734  11.481  0.1081  0.6576  0.8823
 4607SOL    HW125454   0.907   0.685  11.422  0.0243  0.5351  0.9028
 4607SOL    HW225455   0.776   0.676  11.469  1.1603 -0.7934  1.3807
 4608SOL     OW25456   2.038   1.169   2.051  0.5638 -0.3170  0.6800
 4608SOL    HW125457   2.039   1.252   2.099 -0.4991  0.4931 -0.7056
 4608SOL    HW225458   2.132   1.151   2.049  0.9962  2.0302 -0.1402
 4609SOL     OW25459   3.092   4.252   8.600  0.7902 -0.4593  0.8835
 4609SOL    HW125460   3.048   4.336   8.608  1.7403  0.1015  0.2440
 4609SOL    HW225461   3.171   4.266   8.653  0.1257  0.4146  1.6317
 4610SOL     OW25462   3.214   3.413   5.344  0.2754 -0.3071 -0.1164
 4610SOL    HW125463   3.259   3.480   5.395  1.4092 -0.7486 -0.5322
 4610SOL    HW225464   3.261   3.423   5.261  0.7409  0.3735  0.2256
 4611SOL     OW25465   0.989   1.696   6.101 -0.2719  0.3755 -0.2097
 4611SOL    HW125466   0.949   1.609   6.105  3.0696 -1.1571  0.0619
 4611SOL    HW225467   1.064   1.683   6.043  1.1989  0.7651  1.6268
 4612SOL     OW25468   3.498   3.339   5.661  0.2699  0.5373 -0.2124
 4612SOL    HW125469   3.540   3.310   5.581 -0.1040 -0.5521 -0.0169
 4612SOL    HW225470   3.429   3.401   5.637 -2.0564 -1.5601  0.9946
 4613SOL     OW25471   2.607   1.255   7.392  0.3336  0.2504 -0.2888
 4613SOL    HW125472   2.625   1.193   7.463  1.5239  0.1073 -0.7189
 4613SOL    HW225473   2.563   1.324   7.441  2.7006 -0.7398  3.2655
 4614SOL     OW25474   3.917   3.246   9.848 -0.2777  0.1547 -0.4351
 4614SOL    HW125475   3.870   3.329   9.856  0.9440  0.8065  0.0885
 4614SOL    HW225476   4.004   3.285   9.836 -0.1154  0.1119  0.5867
 4615SOL     OW25477   3.345   2.663   7.203  0.3245  0.1150 -0.8243
 4615SOL    HW125478   3.380   2.730   7.262 -2.8630  0.8335  0.3004
 4615SOL    HW225479   3.355   2.709   7.120  0.9784  3.3600  1.0048
 4616SOL     OW25480   1.841   1.164  14.923 -0.1368  0.2363  0.0769
 4616SOL    HW125481   1.888   1.104  14.981 -1.7602 -1.8746 -0.8094
 4616SOL    HW225482   1.831   1.237  14.984  0.9440  0.3916  0.0631
 4617SOL     OW25483   0.053   0.686   6.513 -0.0734 -0.8107 -0.4491
 4617SOL    HW125484   0.081   0.657   6.600  1.0316  0.7355 -0.2934
 4617SOL    HW225485   0.108   0.763   6.502 -0.7743 -0.1586  0.6637
 4618SOL     OW25486   0.547   4.366  13.373 -0.1005 -0.6509  0.2336
 4618SOL    HW125487   0.549   4.440  13.434  2.6566  0.9128 -1.7520
 4618SOL    HW225488   0.494   4.311  13.431 -0.9579  0.2621  0.2949
 4619SOL     OW25489   2.864   2.550   5.011  0.1841 -0.6361  0.8403
 4619SOL    HW125490   2.849   2.476   5.070 -0.8281 -0.8479  0.3149
 4619SOL    HW225491   2.957   2.570   5.025 -0.0884 -0.1892  2.0343
 4620SOL     OW25492   1.197   3.975   3.892 -0.0192  0.2505 -0.7842
 4620SOL    HW125493   1.108   3.954   3.863 -0.4628  1.5846 -0.3646
 4620SOL    HW225494   1.232   3.888   3.871  0.7498  0.1147  1.0745
 4621SOL     OW25495   1.864   1.379   8.713  0.1808 -0.6383 -0.4977
 4621SOL    HW125496   1.793   1.375   8.650 -0.1275  1.2385 -0.2643
 4621SOL    HW225497   1.841   1.325   8.788  1.9938  0.7123  1.0217
 4622SOL     OW25498   3.575   0.944   7.253  0.0543 -0.2732 -0.5870
 4622SOL    HW125499   3.576   0.881   7.325 -0.4713  1.5474  1.0128
 4622SOL    HW225500   3.490   0.940   7.210 -1.9632  1.3782  3.2875
 4623SOL     OW25501   4.551   3.673   2.483 -0.1492  0.5903 -0.1591
 4623SOL    HW125502   4.538   3.684   2.577  0.0805 -0.4761 -0.0024
 4623SOL    HW225503   4.498   3.748   2.454 -1.0918 -0.3855 -0.9467
 4624SOL     OW25504   1.646   4.382   4.451 -0.6768 -0.0087  0.0455
 4624SOL    HW125505   1.715   4.448   4.459  1.4699 -1.9944 -1.9573
 4624SOL    HW225506   1.621   4.373   4.543  3.1989 -2.7585  0.8293
 4625SOL     OW25507   2.308   3.550   8.173 -0.0046  0.5873  0.0553
 4625SOL    HW125508   2.243   3.494   8.216 -0.3839 -0.8410 -2.3757
 4625SOL    HW225509   2.358   3.487   8.122 -1.5799  1.0849 -2.1102
 4626SOL     OW25510   0.763   0.282  10.175 -0.5197 -0.0989 -0.1304
 4626SOL    HW125511   0.716   0.354  10.133 -0.8582  0.5188  1.3133
 4626SOL    HW225512   0.850   0.320  10.187 -0.1658 -0.2668 -2.0900
 4627SOL     OW25513   1.764   1.406  15.959  0.2767  0.1403  0.5591
 4627SOL    HW125514   1.682   1.424  15.912  1.7885 -2.0060 -2.9257
 4627SOL    HW225515   1.780   1.492  15.998  1.2701  0.4296 -0.4738
 4628SOL     OW25516   4.615   3.180  14.032 -0.2249 -0.0135 -0.4611
 4628SOL    HW125517   4.585   3.202  13.944  0.8862  0.7748 -0.6410
 4628SOL    HW225518   4.608   3.266  14.073  1.4023 -0.6934  1.2124
 4629SOL     OW25519   3.910   1.075   2.912  0.1062 -0.3596 -0.6289
 4629SOL    HW125520   3.915   1.122   2.829  1.1518 -1.5983 -1.2674
 4629SOL    HW225521   3.824   1.034   2.905 -0.1072 -0.3429  1.6197
 4630SOL     OW25522   2.797   4.315   7.077 -0.3986 -0.6583  0.6615
 4630SOL    HW125523   2.806   4.389   7.018 -1.0505  0.3611  1.8327
 4630SOL    HW225524   2.795   4.242   7.016  3.3310 -0.5897  0.4609
 4631SOL     OW25525   0.741   3.278   5.331  0.5995  0.3215  0.6967
 4631SOL    HW125526   0.807   3.322   5.384  2.0328 -2.6657  1.3723
 4631SOL    HW225527   0.719   3.344   5.265  3.3068  1.5743  1.0556
 4632SOL     OW25528   4.235   2.808   7.531 -0.1584 -0.3893  0.4673
 4632SOL    HW125529   4.229   2.769   7.618 -0.9559 -0.6019  0.3156
 4632SOL    HW225530   4.155   2.767   7.498  0.0416  0.3346 -0.9564
 4633SOL     OW25531   4.589   3.235   2.367 -0.1577 -0.2301 -0.4768
 4633SOL    HW125532   4.563   3.301   2.431  0.9369  2.6465 -3.0466
 4633SOL    HW225533   4.512   3.188   2.334 -0.3595 -2.3007  2.9014
 4634SOL     OW25534   1.181   3.073   4.169  0.4584  0.1983 -0.3686
 4634SOL    HW125535   1.106   3.119   4.206 -1.0552 -2.7595  0.2206
 4634SOL    HW225536   1.251   3.107   4.225  0.6625 -0.5829 -0.1485
 4635SOL     OW25537   3.606   3.926  15.247  0.4798 -0.4938 -0.0845
 4635SOL    HW125538   3.545   3.958  15.181 -1.0048 -1.0679  0.9973
 4635SOL    HW225539   3.668   3.887  15.186  0.5174 -3.8840  2.1171
 4636SOL     OW25540   4.233   4.193   4.864 -0.4306 -0.3903 -0.6800
 4636SOL    HW125541   4.295   4.125   4.839 -0.4141 -0.2709 -0.9733
 4636SOL    HW225542   4.289   4.240   4.926 -0.5073 -1.0656 -0.1122
 4637SOL     OW25543   0.657   3.732   8.660  0.4764 -0.1197  0.0932
 4637SOL    HW125544   0.639   3.765   8.572 -0.4096  1.6717  0.9458
 4637SOL    HW225545   0.659   3.815   8.709 -2.3789  0.3241 -0.5053
 4638SOL     OW25546   0.402   2.220  10.452 -0.4423 -0.4903  0.1274
 4638SOL    HW125547   0.455   2.273  10.393 -1.0394  1.2776  1.1729
 4638SOL    HW225548   0.458   2.215  10.529  0.1096 -1.4076 -0.3423
 4639SOL     OW25549   0.907   3.587   7.010  0.1746 -0.4241 -0.2129
 4639SOL    HW125550   0.963   3.589   7.087  1.7394 -1.2712 -1.3297
 4639SOL    HW225551   0.962   3.543   6.946  0.2866 -2.5757  1.3530
 4640SOL     OW25552   3.301   2.910  10.035  0.0292 -0.0698 -0.6765
 4640SOL    HW125553   3.331   2.989   9.989  0.3117  0.9891  1.3154
 4640SOL    HW225554   3.220   2.940  10.078  0.1738 -1.8648  0.8374
 4641SOL     OW25555   3.007   0.615   1.014 -0.5627  0.4602 -0.2934
 4641SOL    HW125556   2.924   0.593   0.972 -0.7806 -0.9621  0.8823
 4641SOL    HW225557   3.066   0.622   0.939 -0.0471 -0.4485  0.0288
 4642SOL     OW25558   2.994   4.465   4.870  0.5287 -0.1273  0.3073
 4642SOL    HW125559   3.040   4.450   4.788 -1.0760  1.8226 -0.9336
 4642SOL    HW225560   3.028   4.382   4.905  3.2049  0.5046 -0.8552
 4643SOL     OW25561   4.414   3.264   8.334  0.2840  0.0954 -0.0090
 4643SOL    HW125562   4.332   3.237   8.292  0.2238 -0.4939  0.4855
 4643SOL    HW225563   4.446   3.309   8.255 -1.4934  1.4033  0.0112
 4644SOL     OW25564   1.679   1.753   4.002  0.0686 -0.6362  0.2256
 4644SOL    HW125565   1.727   1.720   3.926  1.9057 -0.2277  1.2050
 4644SOL    HW225566   1.680   1.674   4.056  2.0447 -0.3404  0.6239
 4645SOL     OW25567   3.826   0.602   3.780  0.0087 -0.5706  0.5862
 4645SOL    HW125568   3.798   0.694   3.787 -0.1568 -0.4260 -2.0743
 4645SOL    HW225569   3.874   0.590   3.862  2.3390  1.4614 -0.4881
 4646SOL     OW25570   1.765   3.976  10.179 -0.6676 -0.1318 -0.7928
 4646SOL    HW125571   1.758   3.907  10.246 -1.6590 -0.5477 -1.3187
 4646SOL    HW225572   1.674   3.957  10.155 -0.6877  2.2164 -2.5252
 4647SOL     OW25573   3.877   4.634  13.287  0.6260 -0.2190 -0.1168
 4647SOL    HW125574   3.782   4.640  13.298  0.8840  1.0973  1.3451
 4647SOL    HW225575   3.871   4.538  13.281 -2.8240 -0.1833  2.7921
 4648SOL     OW25576   3.697   0.057   1.591 -0.2969  0.2985 -0.8130
 4648SOL    HW125577   3.620   0.073   1.646  1.3829 -1.2907  2.0016
 4648SOL    HW225578   3.684   4.704   1.572 -0.3413 -0.0550  0.8789
 4649SOL     OW25579   1.310   4.340   7.973  0.2729  0.1539  0.2084
 4649SOL    HW125580   1.382   4.367   7.915 -0.2812 -0.2489 -0.6626
 4649SOL    HW225581   1.359   4.275   8.023 -0.8658  0.2076  1.3896
 4650SOL     OW25582   1.937   1.343   7.326  0.6617  0.2039 -0.1534
 4650SOL    HW125583   2.020   1.312   7.364  1.3065  1.1045 -0.8427
 4650SOL    HW225584   1.915   1.273   7.265 -0.2095  1.6429 -1.4644
 4651SOL     OW25585   2.427   3.460  15.190  0.0437 -0.4585  0.0715
 4651SOL    HW125586   2.336   3.431  15.186  0.5132 -1.9674  0.2845
 4651SOL    HW225587   2.458   3.451  15.280 -2.1110 -1.2900  0.7343
 4652SOL     OW25588   4.364   1.936   5.785  0.0547  0.0917 -0.5247
 4652SOL    HW125589   4.273   1.914   5.770 -0.4466  2.2157 -0.6291
 4652SOL    HW225590   4.390   1.954   5.694 -0.3700 -1.4053 -0.9331
 4653SOL     OW25591   3.907   1.109  13.290 -0.3195 -0.2838  0.0271
 4653SOL    HW125592   3.931   1.189  13.242 -0.9807 -1.1186 -1.6777
 4653SOL    HW225593   3.986   1.089  13.340  0.4662  0.7157 -0.8253
 4654SOL     OW25594   1.123   4.003   7.928  0.1461 -0.5612 -0.5917
 4654SOL    HW125595   1.111   4.091   7.892  0.1723 -1.0148 -1.6859
 4654SOL    HW225596   1.046   3.988   7.983 -0.1050 -2.9666 -1.5970
 4655SOL     OW25597   1.510   1.336   8.268  0.0103 -0.1327 -0.4010
 4655SOL    HW125598   1.537   1.390   8.193  1.6543  2.9514  2.4325
 4655SOL    HW225599   1.456   1.274   8.218 -1.6273 -1.2582  2.8066
 4656SOL     OW25600   2.849   2.076   0.988  0.1466  0.0370  0.3564
 4656SOL    HW125601   2.899   2.154   0.963  0.2294 -0.4608 -1.0438
 4656SOL    HW225602   2.826   2.100   1.078  1.4181 -1.5888  1.1147
 4657SOL     OW25603   1.062   3.217  12.271 -0.9917 -0.5047 -0.2733
 4657SOL    HW125604   1.114   3.258  12.202  0.4814 -0.3363  0.9383
 4657SOL    HW225605   0.986   3.276  12.274 -0.7263 -0.1427 -0.5823
 4658SOL     OW25606   3.566   4.306   3.198  0.1510  0.0549  0.4422
 4658SOL    HW125607   3.582   4.235   3.135 -2.4260  0.3269 -0.5185
 4658SOL    HW225608   3.643   4.364   3.196  0.6845 -0.6164  1.4863
 4659SOL     OW25609   4.064   1.875   6.828 -0.0289 -0.3888  0.1099
 4659SOL    HW125610   4.039   1.910   6.914  3.1319  1.2385  0.3702
 4659SOL    HW225611   4.146   1.919   6.808  0.0559 -0.2048  0.8521
 4660SOL     OW25612   2.763   0.977   4.830 -0.1340  0.6338  0.3610
 4660SOL    HW125613   2.751   0.955   4.737 -0.5898 -1.0938  0.8290
 4660SOL    HW225614   2.766   1.072   4.825  0.3416  0.6316  0.6202
 4661SOL     OW25615   3.235   2.913  15.308  0.6503  0.2084 -0.2088
 4661SOL    HW125616   3.255   2.855  15.381 -2.0220 -0.5726 -0.1144
 4661SOL    HW225617   3.141   2.908  15.321  1.1046 -1.5087  2.4962
 4662SOL     OW25618   3.233   1.823   4.445  0.1829 -0.2125  0.1373
 4662SOL    HW125619   3.308   1.767   4.426 -1.3219 -3.0113  2.3944
 4662SOL    HW225620   3.196   1.781   4.522  1.8518  0.6745  1.4301
 4663SOL     OW25621   4.278   3.841   8.387  0.1151 -0.1939  0.5355
 4663SOL    HW125622   4.274   3.793   8.469  1.6952  1.8392  1.8058
 4663SOL    HW225623   4.282   3.933   8.413  0.9406 -0.1061  0.1166
 4664SOL     OW25624   3.665   1.574   5.661 -0.8285  0.0769 -0.1262
 4664SOL    HW125625   3.681   1.652   5.715  0.7422 -1.8998  2.2603
 4664SOL    HW225626   3.592   1.535   5.709 -0.9195 -0.1557 -0.4567
 4665SOL     OW25627   2.483   1.566   1.357 -0.2344 -0.1973  0.0389
 4665SOL    HW125628   2.576   1.584   1.348 -0.6281  0.3035 -3.1193
 4665SOL    HW225629   2.479   1.531   1.446 -0.1334  0.3648  0.2614
 4666SOL     OW25630   0.962   2.947   2.078 -0.2363 -0.1281  0.5596
 4666SOL    HW125631   0.902   3.021   2.089 -0.3275 -0.5095  2.7461
 4666SOL    HW225632   1.047   2.990   2.070 -0.0159 -0.9650 -1.5323
 4667SOL     OW25633   1.165   2.931   4.624 -0.4600  0.7235  0.0655
 4667SOL    HW125634   1.130   2.845   4.599 -0.6913  0.7279  0.3793
 4667SOL    HW225635   1.162   2.919   4.719 -0.9619  1.6969  0.1764
 4668SOL     OW25636   3.530   4.726   2.238  0.1795 -0.1510  0.0674
 4668SOL    HW125637   3.537   4.656   2.303  1.6972  1.4996  1.7083
 4668SOL    HW225638   3.567   0.052   2.297  0.1512  1.3516 -1.6131
 4669SOL     OW25639   3.074   0.906  17.626 -1.0550  0.5377 -0.4546
 4669SOL    HW125640   3.122   0.980  17.664  2.3203 -1.1505 -1.4102
 4669SOL    HW225641   3.011   0.878  17.692  1.1245  0.6186  1.6466
 4670SOL     OW25642   1.247   2.174   3.488 -0.7219  0.6020 -0.5885
 4670SOL    HW125643   1.259   2.232   3.563  0.8279  0.4630 -0.7132
 4670SOL    HW225644   1.229   2.232   3.414  0.9944 -2.5712 -3.5188
 4671SOL     OW25645   1.303   4.112   8.432 -0.2039  0.4159  0.3793
 4671SOL    HW125646   1.312   4.019   8.412  1.1097  0.7501 -0.5716
 4671SOL    HW225647   1.263   4.142   8.350  0.5843  0.8456  0.1514
 4672SOL     OW25648   0.581   2.481  14.590  0.5263  0.2654 -0.4286
 4672SOL    HW125649   0.649   2.523  14.538  1.5560 -0.9962 -0.1220
 4672SOL    HW225650   0.588   2.390  14.561  1.1933 -0.2153  1.2034
 4673SOL     OW25651   3.550   1.434   6.562 -0.0338  0.0589 -0.4599
 4673SOL    HW125652   3.568   1.481   6.480 -0.7365  3.0023  1.0685
 4673SOL    HW225653   3.625   1.469   6.610 -0.7263  1.2543 -0.2501
 4674SOL     OW25654   0.307   1.004   3.450 -0.1541 -0.8744  0.0854
 4674SOL    HW125655   0.396   0.997   3.414 -0.0687 -0.1837  0.1711
 4674SOL    HW225656   0.262   1.070   3.398  0.0345 -2.3134 -1.9183
 4675SOL     OW25657   1.111   1.553   2.870  0.2841 -0.5798  0.3546
 4675SOL    HW125658   1.076   1.508   2.947  0.4344 -0.8065  0.2902
 4675SOL    HW225659   1.204   1.533   2.863  0.6026  0.8286  0.5172
 4676SOL     OW25660   2.948   4.508   8.004 -0.3026  0.2509 -0.1614
 4676SOL    HW125661   2.966   4.423   7.963  3.6373  0.3309  1.4411
 4676SOL    HW225662   3.028   4.512   8.056  0.0355  0.2497 -0.6879
 4677SOL     OW25663   0.209   3.711   7.584  0.1252 -0.3149 -0.4779
 4677SOL    HW125664   0.170   3.670   7.506  0.8621  0.3704 -1.2023
 4677SOL    HW225665   0.138   3.740   7.641  1.1570  0.4530  0.4049
 4678SOL     OW25666   3.302   2.801  16.865 -0.4053 -0.2596 -0.1485
 4678SOL    HW125667   3.231   2.863  16.846 -1.0742 -0.4890  1.6162
 4678SOL    HW225668   3.304   2.810  16.960  0.6206  0.6313 -0.2562
 4679SOL     OW25669   3.699   0.966  13.382  0.1870 -0.8178 -0.3813
 4679SOL    HW125670   3.706   0.965  13.477 -0.4099 -0.5138 -0.3268
 4679SOL    HW225671   3.770   1.023  13.352 -0.4322  0.2732  0.2055
 4680SOL     OW25672   0.105   3.963   6.593  0.5180  0.1395 -0.1132
 4680SOL    HW125673   0.121   3.931   6.504  2.5426  1.2050 -0.1387
 4680SOL    HW225674   0.140   4.052   6.588  3.3913 -0.9956  0.1883
 4681SOL     OW25675   2.227   1.069  11.649  0.3440 -0.3918 -0.4727
 4681SOL    HW125676   2.318   1.057  11.622 -0.0779 -3.4221 -0.4706
 4681SOL    HW225677   2.238   1.102  11.738  0.7214  0.7066 -0.9218
 4682SOL     OW25678   4.622   2.472  11.886  0.2849 -0.4463  0.1176
 4682SOL    HW125679   4.684   2.449  11.956  1.3966  0.5971 -0.5386
 4682SOL    HW225680   4.572   2.392  11.903 -3.2140  1.5997 -0.5131
 4683SOL     OW25681   2.386   1.852   7.725  0.1082  0.2605 -0.1859
 4683SOL    HW125682   2.408   1.839   7.633  1.3893  0.5487  0.0769
 4683SOL    HW225683   2.466   1.810   7.760 -2.4024 -1.9134  2.9469
 4684SOL     OW25684   3.958   2.327  13.477 -0.0587  0.7038 -0.2139
 4684SOL    HW125685   4.002   2.375  13.548 -1.3627  2.1548 -0.3942
 4684SOL    HW225686   3.937   2.389  13.407  3.2038  0.6118 -1.2872
 4685SOL     OW25687   0.943   0.841   7.242  0.2965 -0.3137 -0.3102
 4685SOL    HW125688   1.033   0.874   7.249  0.0550  0.1741  0.5817
 4685SOL    HW225689   0.958   0.761   7.293 -0.3539  1.9712  3.4588
 4686SOL     OW25690   2.022   1.072  12.274  0.3084 -0.7799  0.1885
 4686SOL    HW125691   2.008   0.978  12.288 -2.3785 -0.1899  1.5101
 4686SOL    HW225692   2.094   1.082  12.212 -1.9648  0.6999 -2.2100
 4687SOL     OW25693   1.864   1.547   5.031 -0.3240 -0.0781 -0.0984
 4687SOL    HW125694   1.959   1.543   5.040 -0.3602  0.5326  0.5438
 4687SOL    HW225695   1.856   1.561   4.937  1.0492 -0.7071 -0.3044
 4688SOL     OW25696   0.110   4.191   4.889  0.3112  0.0158 -0.2158
 4688SOL    HW125697   0.195   4.154   4.913  0.8083  0.5469 -1.1611
 4688SOL    HW225698   0.057   4.115   4.910  0.6315 -0.2550 -0.3941
 4689SOL     OW25699   0.616   3.087   6.426  0.7441 -0.4187 -0.2975
 4689SOL    HW125700   0.636   3.138   6.504  0.3685  1.1048 -1.1983
 4689SOL    HW225701   0.523   3.066   6.429  0.6321 -0.1069 -1.3562
 4690SOL     OW25702   4.088   4.628  10.426 -0.4965  0.0959  0.1971
 4690SOL    HW125703   4.179   4.640  10.400 -0.4012  2.1055  1.4701
 4690SOL    HW225704   4.101   4.658  10.516 -0.7989 -1.3065  0.6997
 4691SOL     OW25705   2.733   2.810  12.426  0.0726  0.2183  0.2597
 4691SOL    HW125706   2.823   2.827  12.399  0.5716 -1.4754  0.8341
 4691SOL    HW225707   2.737   2.774  12.515 -0.3646  1.7086  0.8793
 4692SOL     OW25708   4.311   1.981  12.315  0.6320  0.5753  0.0815
 4692SOL    HW125709   4.291   1.901  12.363 -3.8903  2.7155  1.6889
 4692SOL    HW225710   4.400   1.964  12.283  0.7449  0.4132  0.4798
 4693SOL     OW25711   3.499   0.220   2.784 -0.3577  0.4766 -0.1356
 4693SOL    HW125712   3.416   0.267   2.785  0.4387  1.8712  0.0633
 4693SOL    HW225713   3.482   0.157   2.713  1.8316  0.9312 -1.0668
 4694SOL     OW25714   0.958   2.112   4.682 -0.2028  0.9913 -0.1664
 4694SOL    HW125715   0.865   2.116   4.659  0.1182  0.2275 -1.5997
 4694SOL    HW225716   0.978   2.205   4.695 -0.4122  0.9735  0.3077
 4695SOL     OW25717   0.116   2.063   0.029  0.2836  0.3444  0.4572
 4695SOL    HW125718   0.147   2.142  17.740  1.1412  0.5677  1.4213
 4695SOL    HW225719   0.093   2.008  17.711  0.3652 -1.5849  1.8741
 4696SOL     OW25720   4.405   1.359   9.880  0.1227  0.4039  0.2125
 4696SOL    HW125721   4.371   1.303   9.809  4.0109 -0.1641 -1.2137
 4696SOL    HW225722   4.381   1.313   9.961  1.3054  1.5417  1.1981
 4697SOL     OW25723   2.313   3.835   7.301 -0.3407  0.0371 -0.0987
 4697SOL    HW125724   2.353   3.846   7.215 -1.1987 -2.2842 -0.7826
 4697SOL    HW225725   2.354   3.754   7.331  2.2923  0.5415 -2.3792
 4698SOL     OW25726   1.572   2.393   7.900 -0.0283  0.2721  0.1318
 4698SOL    HW125727   1.545   2.306   7.929 -1.1467 -0.2051 -2.3629
 4698SOL    HW225728   1.494   2.445   7.882  0.3885  1.2807  1.2455
 4699SOL     OW25729   1.701   2.114   2.557 -0.1928  0.1374 -0.1919
 4699SOL    HW125730   1.789   2.107   2.521 -0.5196  1.0430 -1.1386
 4699SOL    HW225731   1.715   2.087   2.648  0.7927  1.6099  0.0895
 4700SOL     OW25732   4.496   3.995   6.730 -0.7918 -0.3227 -0.2386
 4700SOL    HW125733   4.553   3.952   6.667 -1.5116 -0.8153 -0.5455
 4700SOL    HW225734   4.555   4.021   6.801  1.6786 -1.3276 -1.9044
 4701SOL     OW25735   3.058   2.799   9.257 -0.0128  0.2211  0.2274
 4701SOL    HW125736   3.133   2.767   9.207 -0.2908  0.7460 -0.5261
 4701SOL    HW225737   3.100   2.793   9.343 -2.3766  1.9830  1.4901
 4702SOL     OW25738   2.557   0.255   7.173 -0.0295  0.2017  0.2178
 4702SOL    HW125739   2.586   0.285   7.086 -0.4294 -1.5862 -0.5415
 4702SOL    HW225740   2.463   0.246   7.159 -0.0791  0.4879  0.3646
 4703SOL     OW25741   1.490   1.002   6.413  0.0486 -0.8247  0.4335
 4703SOL    HW125742   1.551   0.942   6.371  1.7784  0.9004  0.4987
 4703SOL    HW225743   1.400   0.987   6.384  0.2557 -0.3850 -0.4280
 4704SOL     OW25744   3.049   3.446  17.231  0.1196  0.0161 -0.0906
 4704SOL    HW125745   3.050   3.479  17.141  0.4387  0.9696  0.2728
 4704SOL    HW225746   3.137   3.408  17.236 -0.1682 -0.6037  0.3119
 4705SOL     OW25747   4.029   4.152  10.273  0.2731 -0.7948 -0.6903
 4705SOL    HW125748   4.016   4.233  10.322  4.0933 -0.8901  0.4984
 4705SOL    HW225749   4.033   4.186  10.184  2.4729  0.6925 -0.0166
 4706SOL     OW25750   1.162   0.011   9.231  0.0285  0.0582 -0.0273
 4706SOL    HW125751   1.152   4.712   9.318  1.4031  1.6143  0.8196
 4706SOL    HW225752   1.082   4.722   9.187  0.2182  0.9202 -0.9151
 4707SOL     OW25753   1.184   1.700   4.744 -0.1423  0.0103 -0.0129
 4707SOL    HW125754   1.233   1.639   4.799  1.3690 -0.7027 -2.1595
 4707SOL    HW225755   1.239   1.709   4.667  0.4895  0.6465  0.5168
 4708SOL     OW25756   4.169   1.429  16.148  0.2447  0.0934 -0.6556
 4708SOL    HW125757   4.264   1.433  16.148  0.2165  0.7665 -1.0119
 4708SOL    HW225758   4.146   1.507  16.097  2.4019  1.6725  0.8386
 4709SOL     OW25759   0.024   3.139   7.204  0.2243  0.1148  0.3943
 4709SOL    HW125760   0.024   3.060   7.149  0.7467 -0.2164  0.8794
 4709SOL    HW225761   0.069   3.115   7.284  2.0311  2.1918  0.0060
 4710SOL     OW25762   2.476   3.122   2.589  0.3492  0.0642 -0.7840
 4710SOL    HW125763   2.553   3.086   2.633 -0.2626  2.0043  1.8510
 4710SOL    HW225764   2.489   3.216   2.592 -0.2728  0.0855  1.0243
 4711SOL     OW25765   2.950   2.730   5.609 -0.5282  0.1004 -0.5754
 4711SOL    HW125766   2.952   2.825   5.620 -0.2717  0.1152 -0.7309
 4711SOL    HW225767   2.899   2.725   5.528 -1.1969  0.9711 -0.2092
 4712SOL     OW25768   0.163   1.612  12.448 -0.2118 -0.6384 -0.0057
 4712SOL    HW125769   0.079   1.658  12.447 -0.3131 -0.7986  1.0878
 4712SOL    HW225770   0.142   1.543  12.511  0.1528  0.1468  0.9739
 4713SOL     OW25771   0.137   4.645   5.642  0.5324  0.0983 -0.1383
 4713SOL    HW125772   0.057   4.698   5.642 -0.7482 -1.8173  1.3108
 4713SOL    HW225773   0.103   4.570   5.690  1.0408  0.6359  1.0735
 4714SOL     OW25774   2.293   3.505   2.574  0.1496  0.4401  0.4872
 4714SOL    HW125775   2.266   3.444   2.504  0.0918  1.6695 -0.5518
 4714SOL    HW225776   2.221   3.495   2.636 -1.3085 -2.1677 -1.5830
 4715SOL     OW25777   4.663   4.506  12.138 -0.0529 -0.1857 -0.0900
 4715SOL    HW125778   0.019   4.500  12.130 -0.2235 -2.2291 -0.6059
 4715SOL    HW225779   4.643   4.562  12.063 -0.9692 -0.9547 -0.4159
 4716SOL     OW25780   3.986   2.309   6.760 -0.5155 -0.5288  0.3407
 4716SOL    HW125781   4.039   2.247   6.711  2.2881  0.0337  2.6943
 4716SOL    HW225782   4.027   2.392   6.735 -1.3749 -0.7490 -1.8434
 4717SOL     OW25783   1.306   1.930   6.587  0.5537  0.5825  0.0398
 4717SOL    HW125784   1.254   2.009   6.574 -5.7980 -3.1308  2.8571
 4717SOL    HW225785   1.237   1.867   6.608  0.0138  0.5754 -1.6861
 4718SOL     OW25786   0.903   0.882   8.226  0.1950 -0.5271  0.0618
 4718SOL    HW125787   0.948   0.802   8.254  1.1712  0.2572  0.7832
 4718SOL    HW225788   0.922   0.947   8.294 -1.2719 -1.5119  1.4195
 4719SOL     OW25789   3.304   0.663  17.063  0.2871  0.5364  0.5759
 4719SOL    HW125790   3.315   0.585  17.009  2.2634  0.6417  0.8386
 4719SOL    HW225791   3.239   0.715  17.016 -0.1648 -0.0731  0.5271
 4720SOL     OW25792   0.030   4.154   8.188  0.3690  0.8821 -0.1446
 4720SOL    HW125793   0.079   4.224   8.231  1.2997 -1.5356  2.7174
 4720SOL    HW225794   0.024   4.092   8.261 -0.3024 -0.0253 -0.9675
 4721SOL     OW25795   4.253   0.581   3.775 -0.7398  0.1957 -0.5134
 4721SOL    HW125796   4.318   0.511   3.764 -0.8584 -0.2617  1.6507
 4721SOL    HW225797   4.204   0.545   3.848 -0.1141  0.7235  0.1746
 4722SOL     OW25798   4.057   3.222  10.784 -0.4627 -0.3535 -0.3123
 4722SOL    HW125799   3.986   3.165  10.814 -1.3838  1.0404  0.1507
 4722SOL    HW225800   4.138   3.190  10.824 -0.3139  1.4001  0.7896
 4723SOL     OW25801   3.167   2.826   1.782 -0.1636 -0.2025  0.3088
 4723SOL    HW125802   3.096   2.885   1.754  1.3846  0.9506 -1.1948
 4723SOL    HW225803   3.114   2.746   1.782  2.7144 -2.0989  0.0244
 4724SOL     OW25804   2.196   2.241   6.128  0.5766 -0.4985 -0.4869
 4724SOL    HW125805   2.165   2.327   6.156  0.6823 -1.2226  1.8667
 4724SOL    HW225806   2.160   2.235   6.039 -0.8334  0.3567  0.0320
 4725SOL     OW25807   2.593   1.444   6.032  0.2889 -0.4586 -0.0671
 4725SOL    HW125808   2.688   1.450   6.039 -0.0041  2.0962  1.6478
 4725SOL    HW225809   2.587   1.348   6.031 -0.6795 -0.4133  1.6492
 4726SOL     OW25810   2.689   3.776   0.891 -0.0630 -0.5271 -0.2500
 4726SOL    HW125811   2.740   3.763   0.810  1.2657  3.5956 -0.0832
 4726SOL    HW225812   2.661   3.867   0.884 -1.5391 -0.8285  1.8435
 4727SOL     OW25813   0.454   0.753   7.274 -0.3849 -0.2766  0.8009
 4727SOL    HW125814   0.363   0.737   7.249 -0.1004 -1.3657  0.4415
 4727SOL    HW225815   0.483   0.842   7.257  1.4512 -1.0464 -0.1335
 4728SOL     OW25816   1.348   2.776   5.599  0.1845  0.6603  0.4352
 4728SOL    HW125817   1.437   2.765   5.632  0.7514  2.6141 -0.4512
 4728SOL    HW225818   1.303   2.741   5.675 -0.5990  1.8132  0.5142
 4729SOL     OW25819   2.535   1.728  10.929 -0.4403  0.3478 -0.2275
 4729SOL    HW125820   2.453   1.690  10.898 -0.5568 -0.4799  1.1238
 4729SOL    HW225821   2.572   1.653  10.974  0.5094  1.9288  1.6332
 4730SOL     OW25822   1.946   0.666   8.643  0.2726  0.6822 -0.0022
 4730SOL    HW125823   1.878   0.600   8.636  2.0718 -1.4732  3.1061
 4730SOL    HW225824   1.948   0.692   8.736  0.9788  0.3081  0.0902
 4731SOL     OW25825   1.125   0.669   0.280 -0.3472  0.3989 -0.2050
 4731SOL    HW125826   1.152   0.755   0.313 -0.4187  0.3675 -0.0653
 4731SOL    HW225827   1.210   0.629   0.263 -1.6218 -2.2846 -0.2228
 4732SOL     OW25828   2.309   1.699  15.744  0.0322  0.1415 -0.1572
 4732SOL    HW125829   2.352   1.617  15.768  2.7233  2.2801  2.3408
 4732SOL    HW225830   2.385   1.756  15.729 -0.9320  1.0663 -1.5150
 4733SOL     OW25831   3.088   3.816   7.414 -0.1764 -0.2627  0.0084
 4733SOL    HW125832   3.129   3.845   7.496 -0.5794 -0.3617  0.2463
 4733SOL    HW225833   3.000   3.788   7.441  0.7452 -3.1359  0.0368
 4734SOL     OW25834   1.022   4.510  15.462  0.4614 -0.1751  0.6289
 4734SOL    HW125835   1.019   4.563  15.382 -2.5458  0.2150  1.0046
 4734SOL    HW225836   0.982   4.429  15.430  2.4026 -1.7203  2.1033
 4735SOL     OW25837   3.004   2.665   6.347  0.1233 -0.3023  0.4973
 4735SOL    HW125838   3.054   2.667   6.429  0.3608 -0.1522  0.3499
 4735SOL    HW225839   2.915   2.674   6.381 -0.0112 -0.4519  0.1844
 4736SOL     OW25840   2.923   2.219   8.196  0.2714  0.1348  0.1035
 4736SOL    HW125841   2.838   2.260   8.208 -0.3142 -1.1123  0.1720
 4736SOL    HW225842   2.931   2.234   8.101 -0.1468 -2.5419 -0.3498
 4737SOL     OW25843   4.373   1.916  16.002 -0.4384  0.4422  0.3808
 4737SOL    HW125844   4.284   1.933  16.034 -0.8620 -0.8792 -0.1080
 4737SOL    HW225845   4.348   1.848  15.939 -0.7187 -1.0932  2.1528
 4738SOL     OW25846   4.009   3.464  13.479  0.1409  0.6160 -0.4401
 4738SOL    HW125847   4.023   3.444  13.571  1.6070  0.9486 -0.5998
 4738SOL    HW225848   3.991   3.379  13.439  3.0662 -0.8288  1.3387
 4739SOL     OW25849   2.962   0.013   5.256 -0.6231 -0.1910  0.3848
 4739SOL    HW125850   2.923   0.099   5.242  2.8735  1.3021 -0.0049
 4739SOL    HW225851   2.957   4.717   5.167 -1.1963  0.3743  0.1900
 4740SOL     OW25852   2.273   1.117   5.050 -0.1334 -0.0246 -0.5979
 4740SOL    HW125853   2.198   1.172   5.071 -0.0510 -1.0940  2.5053
 4740SOL    HW225854   2.318   1.185   5.001  0.3638  0.1708  0.1285
 4741SOL     OW25855   0.157   2.867  10.942  0.4665  0.3039 -0.6696
 4741SOL    HW125856   0.111   2.904  10.867 -0.9868  2.8723  1.5211
 4741SOL    HW225857   0.243   2.884  10.904  2.1931  2.7565  4.3350
 4742SOL     OW25858   4.500   1.439   6.916 -0.0576  0.2119 -0.2919
 4742SOL    HW125859   4.508   1.534   6.910 -0.6059  0.2044 -1.1577
 4742SOL    HW225860   4.580   1.421   6.866 -0.5645 -2.5203 -0.1298
 4743SOL     OW25861   3.570   4.446   6.258  0.2988 -0.0497  0.0986
 4743SOL    HW125862   3.516   4.523   6.242 -1.3505 -1.2628 -0.2677
 4743SOL    HW225863   3.613   4.473   6.339  1.0055 -0.6835 -0.0652
 4744SOL     OW25864   0.822   4.171   7.369  0.2885  0.1545  0.8275
 4744SOL    HW125865   0.736   4.141   7.400 -0.2001  1.9004  1.1506
 4744SOL    HW225866   0.872   4.171   7.450  1.4640 -1.3189  0.1131
 4745SOL     OW25867   2.132   4.604   8.790  0.0033  0.0285 -0.3737
 4745SOL    HW125868   2.209   4.552   8.813 -0.9034 -2.0022 -1.9073
 4745SOL    HW225869   2.107   4.559   8.709 -1.1002 -1.6936  0.8976
 4746SOL     OW25870   1.502   3.687   3.622 -0.0582  0.1214  0.3183
 4746SOL    HW125871   1.576   3.733   3.580  1.0049 -1.5705  0.3266
 4746SOL    HW225872   1.497   3.737   3.703 -1.7895  1.8844 -0.8702
 4747SOL     OW25873   0.886   0.996  11.461 -0.1362  0.3169  0.1098
 4747SOL    HW125874   0.853   1.005  11.372 -0.7197 -0.7540  0.2176
 4747SOL    HW225875   0.888   0.903  11.485  0.2897 -0.1671 -1.7549
 4748SOL     OW25876   4.557   4.267  11.043  0.1809 -0.8185 -0.5354
 4748SOL    HW125877   4.473   4.267  10.998 -1.1044 -0.0921  1.8428
 4748SOL    HW225878   4.596   4.211  10.976  0.5986 -0.3404 -0.6898
 4749SOL     OW25879   3.248   3.447   8.348  0.1232 -0.8512 -0.1972
 4749SOL    HW125880   3.178   3.498   8.391  1.9604  0.0234  1.7652
 4749SOL    HW225881   3.232   3.469   8.256  1.4118  0.6098 -0.0572
 4750SOL     OW25882   1.262   2.709   1.945 -0.4524 -0.2835 -0.1563
 4750SOL    HW125883   1.228   2.766   2.014  0.2225  0.0505 -0.0887
 4750SOL    HW225884   1.347   2.690   1.987  0.1959 -0.3546 -1.4901
 4751SOL     OW25885   2.630   3.561  13.023  0.0490 -0.5481  0.5516
 4751SOL    HW125886   2.681   3.641  13.030 -1.2750  0.3868 -0.5074
 4751SOL    HW225887   2.618   3.550  12.929 -0.2830  2.0968  0.2793
 4752SOL     OW25888   1.362   4.219   3.885 -1.0889  0.6227  0.2758
 4752SOL    HW125889   1.318   4.136   3.899 -0.4390  0.5642  2.0753
 4752SOL    HW225890   1.452   4.200   3.914 -1.6495 -3.6253 -0.8129
 4753SOL     OW25891   0.678   3.392   1.952  0.5115  0.0068  0.0042
 4753SOL    HW125892   0.611   3.449   1.990 -0.8343  0.1038 -2.5129
 4753SOL    HW225893   0.689   3.326   2.020  3.0728  0.3710 -0.0252
 4754SOL     OW25894   3.443   1.501  13.248 -0.3118  0.3014  0.3262
 4754SOL    HW125895   3.508   1.440  13.284 -1.8274 -2.6058 -1.8061
 4754SOL    HW225896   3.432   1.574  13.309  1.1104  2.1348 -1.6226
 4755SOL     OW25897   2.004   1.334   4.170 -0.8563 -0.6754 -0.0512
 4755SOL    HW125898   2.037   1.384   4.096  3.1264 -0.7415  1.6420
 4755SOL    HW225899   2.063   1.259   4.178 -2.1105 -1.9088 -2.7048
 4756SOL     OW25900   4.417   1.423   3.232 -0.2284 -0.0252 -0.2665
 4756SOL    HW125901   4.346   1.468   3.187  0.7158  0.3140 -1.4380
 4756SOL    HW225902   4.433   1.485   3.303  0.0618 -1.5092  0.9495
 4757SOL     OW25903   1.222   0.657   7.749  0.1950  0.1987 -0.2327
 4757SOL    HW125904   1.254   0.675   7.837 -0.2452  0.0174 -0.0364
 4757SOL    HW225905   1.304   0.648   7.700 -0.3506 -0.3825 -1.0452
 4758SOL     OW25906   2.896   0.420   8.368  0.4918  0.3376  0.3339
 4758SOL    HW125907   2.829   0.425   8.299 -0.0131 -0.5152  0.7573
 4758SOL    HW225908   2.968   0.470   8.329  0.2233  1.1925  0.9515
 4759SOL     OW25909   0.838   3.521  12.892 -0.4854  0.7498  0.2501
 4759SOL    HW125910   0.795   3.558  12.969 -0.8298  2.5751 -0.8082
 4759SOL    HW225911   0.896   3.460  12.937  0.2697 -0.5186 -2.3809
 4760SOL     OW25912   2.842   3.914   1.692  0.0146 -0.1809 -0.6430
 4760SOL    HW125913   2.781   3.938   1.622 -2.5927 -2.3155  0.8416
 4760SOL    HW225914   2.792   3.933   1.771  3.2775 -0.1111  1.3788
 4761SOL     OW25915   1.990   1.495  16.245  0.1071 -0.1218 -0.3524
 4761SOL    HW125916   1.949   1.419  16.285  0.1242  0.2395  0.3513
 4761SOL    HW225917   2.078   1.460  16.257  0.2339  0.7015  1.0529
 4762SOL     OW25918   1.849   1.923  12.448  0.1512  0.3186  0.5822
 4762SOL    HW125919   1.884   1.980  12.516  0.7907  0.7269 -0.0836
 4762SOL    HW225920   1.887   1.839  12.475  0.4940 -0.6256 -2.7718
 4763SOL     OW25921   1.085   4.732  10.941  0.1657  0.2452 -0.5468
 4763SOL    HW125922   1.152   0.061  10.939  0.1238  0.3237  0.7783
 4763SOL    HW225923   1.008   0.040  10.910 -0.9598 -0.1063  1.7490
 4764SOL     OW25924   4.066   3.330   2.990 -0.0088  0.0303  0.2248
 4764SOL    HW125925   4.031   3.381   3.062  2.1832  0.6881  0.8264
 4764SOL    HW225926   3.984   3.290   2.961  0.5885 -1.2960  0.3796
 4765SOL     OW25927   3.816   2.797  15.161  0.2476  0.0247  0.2795
 4765SOL    HW125928   3.820   2.731  15.092 -0.2567 -0.0888  0.3581
 4765SOL    HW225929   3.907   2.826  15.167  0.8897 -1.5657 -1.6913
 4766SOL     OW25930   1.561   2.418   1.940  0.0042 -0.1506 -0.5296
 4766SOL    HW125931   1.638   2.375   1.978  0.0083  0.2535 -0.0885
 4766SOL    HW225932   1.525   2.443   2.025 -0.1096  1.7070 -1.1228
 4767SOL     OW25933   3.295   4.440  17.317 -0.0835 -0.0988  0.4993
 4767SOL    HW125934   3.284   4.359  17.267 -0.6476  0.7630 -0.7866
 4767SOL    HW225935   3.206   4.477  17.311  0.9595  2.5334  1.1973
 4768SOL     OW25936   2.333   2.943   7.306 -0.4815 -0.2173 -0.1670
 4768SOL    HW125937   2.389   2.928   7.230  0.8874  0.8103  0.6307
 4768SOL    HW225938   2.275   2.866   7.306  1.0064 -1.3443 -0.7398
 4769SOL     OW25939   2.719   0.837   5.152  0.2184 -0.1940 -0.6357
 4769SOL    HW125940   2.687   0.771   5.214 -0.5753  0.7888 -0.0035
 4769SOL    HW225941   2.636   0.867   5.115 -0.8504 -0.9909  1.1290
 4770SOL     OW25942   0.969   1.878   4.822  0.9025 -0.2021  0.1206
 4770SOL    HW125943   1.053   1.847   4.788  0.5221  1.1961 -2.1240
 4770SOL    HW225944   0.951   1.964   4.782  0.5715 -0.2380  0.1869
 4771SOL     OW25945   0.916   4.243   1.224  0.1652  0.2325 -0.3094
 4771SOL    HW125946   0.885   4.288   1.302  1.1184 -0.4203  0.4373
 4771SOL    HW225947   0.987   4.189   1.258 -0.4442 -0.8762 -0.8033
 4772SOL     OW25948   3.809   2.676  13.538  0.3423 -0.1926  0.1705
 4772SOL    HW125949   3.714   2.664  13.547  0.6549 -3.1089 -0.6259
 4772SOL    HW225950   3.812   2.704  13.446  1.9291  2.5093  1.0247
 4773SOL     OW25951   2.827   1.149   6.507  0.0664  0.2920  0.9053
 4773SOL    HW125952   2.814   1.192   6.592 -1.4050  1.9472 -0.1673
 4773SOL    HW225953   2.884   1.081   6.544 -0.3015  1.1330  3.0598
 4774SOL     OW25954   2.129   4.667   4.543  0.2036  0.4114  0.1668
 4774SOL    HW125955   2.162   4.718   4.470  2.5234  2.4403  2.6176
 4774SOL    HW225956   2.137   4.728   4.617  0.5099 -1.4583  1.7025
 4775SOL     OW25957   3.315   1.516   8.981 -0.1138 -0.4636 -0.4068
 4775SOL    HW125958   3.272   1.510   8.896  1.3610  1.3663 -1.2990
 4775SOL    HW225959   3.290   1.597   9.026 -0.4869  0.7384 -2.7931
 4776SOL     OW25960   0.156   2.846   5.814  0.2286  0.3817  0.1362
 4776SOL    HW125961   0.186   2.914   5.875 -0.3260 -0.1793  1.0434
 4776SOL    HW225962   0.157   2.888   5.728  0.8544 -0.8969 -0.4875
 4777SOL     OW25963   1.139   2.973   7.774 -0.0759  0.6712 -0.3272
 4777SOL    HW125964   1.168   2.978   7.683  0.9746 -0.6822 -0.0558
 4777SOL    HW225965   1.046   2.949   7.767  0.2889 -1.2837  1.5950
 4778SOL     OW25966   4.198   2.023   8.718 -0.5172 -0.5288 -0.1099
 4778SOL    HW125967   4.119   2.009   8.666  0.9559  0.5305 -2.6624
 4778SOL    HW225968   4.210   1.933   8.748  1.7379  0.5596  2.2291
 4779SOL     OW25969   0.128   4.167   5.206 -0.2445  0.0153 -0.2088
 4779SOL    HW125970   0.059   4.174   5.140 -0.6938 -2.5630 -0.0455
 4779SOL    HW225971   0.071   4.193   5.279 -0.3639 -1.0230  0.0716
 4780SOL     OW25972   0.783   4.307   1.450 -0.3850  0.4795  0.0592
 4780SOL    HW125973   0.738   4.230   1.415  0.4536 -0.6482  1.4494
 4780SOL    HW225974   0.712   4.372   1.444  0.1638  0.9031 -1.6500
 4781SOL     OW25975   0.620   0.871   5.224  0.2870  0.1639 -0.8979
 4781SOL    HW125976   0.627   0.918   5.142 -0.4246  1.7160 -0.0707
 4781SOL    HW225977   0.598   0.783   5.194  0.8261 -0.0030 -0.8091
 4782SOL     OW25978   1.083   2.703  11.504  0.2641 -0.1907  0.6461
 4782SOL    HW125979   0.988   2.696  11.518 -0.2621  0.0455 -2.8403
 4782SOL    HW225980   1.095   2.613  11.472  0.0605  0.8938 -2.5050
 4783SOL     OW25981   1.710   1.691   0.242 -0.3041 -0.3583  0.1010
 4783SOL    HW125982   1.758   1.641   0.308 -0.3906 -0.2100  0.2784
 4783SOL    HW225983   1.761   1.772   0.250  0.5386 -0.8858  0.0217
 4784SOL     OW25984   3.609   3.108   2.817  0.3456 -0.0047 -0.0686
 4784SOL    HW125985   3.573   3.070   2.737  2.3673 -3.1046  0.5039
 4784SOL    HW225986   3.637   3.030   2.864  1.9478  1.7721  1.9589
 4785SOL     OW25987   3.628   1.908   2.252 -0.2280 -0.6316  0.1362
 4785SOL    HW125988   3.701   1.927   2.311  0.3657 -1.6166 -0.2657
 4785SOL    HW225989   3.659   1.826   2.214 -0.0587 -0.8946  0.8298
 4786SOL     OW25990   2.202   0.380  16.922 -0.3267 -0.1383  0.7277
 4786SOL    HW125991   2.116   0.415  16.898  1.2409  1.5759 -2.3208
 4786SOL    HW225992   2.180   0.347  17.010 -0.6645  1.7350  1.3543
 4787SOL     OW25993   4.087   4.158  14.931 -0.1166  0.2671  0.2202
 4787SOL    HW125994   4.079   4.150  15.026  0.1998  1.6996  0.3665
 4787SOL    HW225995   4.138   4.238  14.919  1.8060 -0.7538  1.6048
 4788SOL     OW25996   2.448   3.460  14.078 -0.0330 -0.4469  0.0813
 4788SOL    HW125997   2.382   3.518  14.041  0.1072 -1.3173 -1.5465
 4788SOL    HW225998   2.502   3.440  14.001  1.1600 -0.8388  1.0142
 4789SOL     OW25999   3.045   0.261  12.886 -0.6589  0.3011  0.2584
 4789SOL    HW126000   3.129   0.288  12.923  0.3270 -1.4338 -0.7143
 4789SOL    HW226001   2.996   0.297  12.960  1.1602  0.3191  1.4591
 4790SOL     OW26002   3.516   1.861   6.054 -0.1613  0.7971 -0.1838
 4790SOL    HW126003   3.441   1.833   6.001  2.1357 -2.1295 -1.8676
 4790SOL    HW226004   3.509   1.955   6.037  1.2006  1.1480  1.2429
 4791SOL     OW26005   2.041   2.693  16.018  0.1360 -0.4883 -0.8297
 4791SOL    HW126006   2.112   2.747  15.983 -0.6815  1.1178  0.0232
 4791SOL    HW226007   1.976   2.760  15.997 -0.2634 -0.5952  0.0488
 4792SOL     OW26008   0.784   2.665  14.493  0.2902  0.1035  0.3878
 4792SOL    HW126009   0.805   2.689  14.583 -2.0555 -0.4363  1.0699
 4792SOL    HW226010   0.766   2.753  14.458  1.4056 -0.1600 -0.8556
 4793SOL     OW26011   3.649   0.420   4.237  0.5033 -0.7667  0.0546
 4793SOL    HW126012   3.647   0.502   4.188  0.0541  0.0456  1.4479
 4793SOL    HW226013   3.585   0.438   4.306  2.0245  0.0928  1.2256
 4794SOL     OW26014   3.169   0.837  16.891 -0.3053  0.4751  0.0309
 4794SOL    HW126015   3.187   0.909  16.830  2.4940  0.3673  0.7439
 4794SOL    HW226016   3.128   0.879  16.967  1.1500 -1.5066  1.8730
 4795SOL     OW26017   1.791   1.782  17.502 -0.0167  0.8585 -0.1326
 4795SOL    HW126018   1.725   1.774  17.571  0.6448 -1.7072  0.2096
 4795SOL    HW226019   1.859   1.724  17.537  2.1153  2.9623 -0.8068
 4796SOL     OW26020   2.717   0.007  15.805 -0.0925  0.4197 -0.7590
 4796SOL    HW126021   2.790   0.047  15.852  0.7483 -1.4395 -0.4816
 4796SOL    HW226022   2.735   4.654  15.821 -3.1290  0.0861  0.6299
 4797SOL     OW26023   3.940   4.500   5.723  0.2962  0.4605 -0.6408
 4797SOL    HW126024   3.944   4.430   5.788 -0.8042  0.1624 -0.9049
 4797SOL    HW226025   4.029   4.511   5.689  0.2033 -0.9247 -1.3367
 4798SOL     OW26026   1.325   3.798  11.566  0.2559  0.3934 -0.1698
 4798SOL    HW126027   1.350   3.757  11.483 -0.9460 -3.1131  1.1826
 4798SOL    HW226028   1.236   3.763  11.564  0.9234 -1.3048 -0.3045
 4799SOL     OW26029   1.980   3.294   5.158  0.5158 -0.2965  0.3671
 4799SOL    HW126030   2.046   3.351   5.196 -0.8220 -0.1817  2.5318
 4799SOL    HW226031   1.923   3.279   5.233  0.6010  0.9183  0.6687
 4800SOL     OW26032   0.358   2.681   4.463  0.3159  0.4013  0.2369
 4800SOL    HW126033   0.361   2.636   4.379 -0.8249 -1.3634  1.1267
 4800SOL    HW226034   0.452   2.698   4.469  0.6592 -0.8315 -1.5999
 4801SOL     OW26035   1.373   2.823   3.840 -0.3035  0.5209 -0.0681
 4801SOL    HW126036   1.316   2.900   3.830 -2.2374 -0.9232 -0.0703
 4801SOL    HW226037   1.396   2.810   3.748 -3.0421  1.4156 -0.9108
 4802SOL     OW26038   2.328   4.514   2.790 -0.4475 -0.4195  0.2704
 4802SOL    HW126039   2.318   4.609   2.793  3.2392  0.0536 -2.5964
 4802SOL    HW226040   2.404   4.511   2.849 -0.1838  2.6379  0.0792
 4803SOL     OW26041   3.912   3.447   3.178 -0.1354  0.1495 -0.4614
 4803SOL    HW126042   3.993   3.465   3.226 -1.6294  3.1522  0.9622
 4803SOL    HW226043   3.858   3.409   3.248  0.3428 -1.6522 -1.0839
 4804SOL     OW26044   3.601   3.424  14.872  0.2834  0.2655 -0.3939
 4804SOL    HW126045   3.629   3.352  14.928 -1.4499  1.6247  2.2175
 4804SOL    HW226046   3.635   3.499  14.921  1.2690  0.3546 -1.1965
 4805SOL     OW26047   2.937   2.105   2.234  0.0059 -0.0280  0.0748
 4805SOL    HW126048   2.938   2.088   2.328  1.7904 -0.4029 -0.0106
 4805SOL    HW226049   2.868   2.045   2.208 -0.6996  1.5322 -1.6548
 4806SOL     OW26050   1.232   0.303   9.058  0.9060 -0.2455  0.2716
 4806SOL    HW126051   1.251   0.224   9.008 -1.1009 -0.4530 -0.1727
 4806SOL    HW226052   1.288   0.365   9.011 -0.5415 -0.9710 -2.4134
 4807SOL     OW26053   0.190   3.137   7.425  0.2873  0.1739 -0.2319
 4807SOL    HW126054   0.139   3.197   7.480 -0.5685  1.0637 -1.9833
 4807SOL    HW226055   0.195   3.072   7.495  0.1353  0.1475 -0.2453
 4808SOL     OW26056   2.113   3.887   6.107 -0.1664  0.0020 -0.4684
 4808SOL    HW126057   2.075   3.812   6.061 -0.0270 -0.3221 -0.0583
 4808SOL    HW226058   2.034   3.936   6.132 -0.8316 -0.7322 -1.1525
 4809SOL     OW26059   0.314   3.083  10.265  0.2279  0.3468  0.1694
 4809SOL    HW126060   0.268   3.073  10.349 -0.2131 -0.1067 -0.1250
 4809SOL    HW226061   0.393   3.033  10.279 -0.0187 -0.1394 -0.1978
 4810SOL     OW26062   1.979   0.193   7.147  0.0245  0.6749 -0.0273
 4810SOL    HW126063   1.967   0.169   7.239  1.5227 -1.1402 -0.2956
 4810SOL    HW226064   1.896   0.232   7.119  0.7286  0.7690 -2.0233
 4811SOL     OW26065   4.384   0.103   3.100 -1.1116  0.2989 -0.1535
 4811SOL    HW126066   4.471   0.075   3.129  0.4447  1.2591 -3.9825
 4811SOL    HW226067   4.397   0.148   3.017 -0.6650 -2.7516 -1.7410
 4812SOL     OW26068   4.498   3.988  11.156 -0.3293 -0.1911  0.1975
 4812SOL    HW126069   4.552   4.006  11.079 -1.9136 -0.4055 -0.9743
 4812SOL    HW226070   4.408   3.994  11.125  0.1285  1.0112 -0.9187
 4813SOL     OW26071   1.356   0.381   5.938 -0.5378 -0.0706  0.2906
 4813SOL    HW126072   1.402   0.397   6.021  1.1001 -2.0162 -0.2448
 4813SOL    HW226073   1.265   0.399   5.962 -1.0472 -0.0986 -1.6403
 4814SOL     OW26074   0.539   0.079   6.270 -0.2130  0.5171  0.0599
 4814SOL    HW126075   0.486   0.116   6.199 -0.3626  1.1824  0.5148
 4814SOL    HW226076   0.483   0.089   6.348 -0.5723 -0.0665 -0.1201
 4815SOL     OW26077   2.959   4.497  17.435 -0.6849 -0.2060 -0.2466
 4815SOL    HW126078   3.016   4.482  17.359  0.2637 -0.6917  0.5613
 4815SOL    HW226079   2.952   4.408  17.469  0.3931 -0.4935 -0.7493
 4816SOL     OW26080   2.200   3.765  14.125 -0.2188  0.5702 -0.4318
 4816SOL    HW126081   2.277   3.807  14.086 -0.1006  0.8238  0.0794
 4816SOL    HW226082   2.184   3.702  14.054  0.2025 -1.6524  1.4615
 4817SOL     OW26083   4.599   3.279   5.781 -0.3271 -0.0813  0.2837
 4817SOL    HW126084   4.671   3.330   5.744  0.2965 -0.4704  0.9699
 4817SOL    HW226085   4.567   3.351   5.835 -2.9233 -0.9001 -0.1744
 4818SOL     OW26086   4.148   0.505   4.993 -0.1632  0.0437 -0.6231
 4818SOL    HW126087   4.237   0.535   5.011 -0.1934  0.0830 -0.5413
 4818SOL    HW226088   4.096   0.585   4.983 -0.5949 -0.0623  0.7912
 4819SOL     OW26089   2.851   3.981  13.009 -1.0074 -0.2789 -0.5228
 4819SOL    HW126090   2.805   4.039  13.070 -0.4471 -0.7471  0.3554
 4819SOL    HW226091   2.871   4.042  12.939 -0.1905 -0.6410 -0.6052
 4820SOL     OW26092   1.964   1.245  16.949  0.5116 -0.2531  0.4428
 4820SOL    HW126093   2.021   1.297  17.006  1.5332  0.0456 -0.8364
 4820SOL    HW226094   1.881   1.293  16.949  0.6801  0.0419  0.1368
 4821SOL     OW26095   2.577   4.192   7.545 -0.1842  0.2550  0.5613
 4821SOL    HW126096   2.664   4.175   7.582  0.3385  0.5611 -0.5277
 4821SOL    HW226097   2.545   4.102   7.534 -0.7703  0.4727  0.4607
 4822SOL     OW26098   2.705   2.265   1.170  0.0978  0.0031 -0.0677
 4822SOL    HW126099   2.633   2.327   1.161  1.9230  1.8008 -2.3657
 4822SOL    HW226100   2.702   2.240   1.262 -1.3574 -0.0584 -0.1402
 4823SOL     OW26101   2.118   2.300  16.394 -0.5091 -0.0141 -0.0254
 4823SOL    HW126102   2.063   2.323  16.319  0.5377  0.1965 -0.7427
 4823SOL    HW226103   2.196   2.349  16.367 -0.4495 -0.8548 -1.3521
 4824SOL     OW26104   3.444   0.561   8.461 -0.1693 -0.3691  0.2676
 4824SOL    HW126105   3.531   0.576   8.422 -0.4167 -0.4856 -0.3362
 4824SOL    HW226106   3.405   0.492   8.407 -1.2465 -1.0541  1.9484
 4825SOL     OW26107   0.219   2.038   9.021  0.0064  0.2228 -0.4737
 4825SOL    HW126108   0.132   2.021   9.057 -0.0079  2.0372  0.3351
 4825SOL    HW226109   0.233   1.958   8.970 -2.7585  0.3193 -1.4200
 4826SOL     OW26110   1.690   1.341   3.473  0.0412 -0.2482 -0.2505
 4826SOL    HW126111   1.745   1.305   3.404 -2.6416  0.7958 -2.9320
 4826SOL    HW226112   1.636   1.263   3.480 -0.2804 -0.0181 -0.1159
 4827SOL     OW26113   1.302   0.818   8.561 -0.1728  0.9446 -0.0793
 4827SOL    HW126114   1.282   0.841   8.470 -2.0306 -1.2982 -0.2256
 4827SOL    HW226115   1.389   0.777   8.558  0.7157  2.7862  0.6057
 4828SOL     OW26116   4.678   0.929   8.718  0.3262 -0.3249  0.3455
 4828SOL    HW126117   4.738   0.996   8.750  0.3014 -0.5942  0.9475
 4828SOL    HW226118   4.731   0.852   8.702 -0.9837 -1.5160  1.8130
 4829SOL     OW26119   2.796   3.008  14.294  0.4625  0.2109  0.1657
 4829SOL    HW126120   2.773   3.092  14.254 -0.1352 -0.3433 -0.6650
 4829SOL    HW226121   2.702   2.996  14.307  0.4214 -0.6189 -0.8648
 4830SOL     OW26122   3.278   1.140   0.184 -0.1232  0.2752 -0.2814
 4830SOL    HW126123   3.237   1.200   0.121 -0.3983  0.7318  0.3380
 4830SOL    HW226124   3.361   1.119   0.142  0.3349 -0.4976  1.0251
 4831SOL     OW26125   3.546   1.586  13.737 -0.0072  0.5526 -0.4666
 4831SOL    HW126126   3.588   1.670  13.757 -1.4446  1.2275 -0.3185
 4831SOL    HW226127   3.596   1.516  13.781  1.3527  1.7282 -0.1396
 4832SOL     OW26128   0.026   1.551   3.746 -0.1369 -0.2630 -0.3152
 4832SOL    HW126129   0.009   1.458   3.754  0.5404 -0.4604 -1.1818
 4832SOL    HW226130   4.731   1.554   3.657  0.3028 -3.0399 -0.5693
 4833SOL     OW26131   2.929   1.405   9.928 -0.0299 -0.4165 -0.2585
 4833SOL    HW126132   2.990   1.390   9.855 -1.9826  0.7680 -2.1449
 4833SOL    HW226133   2.901   1.495   9.911 -0.4148  0.0635  2.9051
 4834SOL     OW26134   3.740   4.642   5.101 -0.4697  0.1242 -0.3816
 4834SOL    HW126135   3.672   4.692   5.146 -0.2826  0.1769 -0.1599
 4834SOL    HW226136   3.782   4.606   5.179 -1.0175  0.9940  0.3186
 4835SOL     OW26137   3.940   4.198   2.095 -0.2599  0.7218  0.3179
 4835SOL    HW126138   3.899   4.285   2.089  0.1665  0.8881 -0.1578
 4835SOL    HW226139   3.863   4.142   2.105  0.4607 -0.5423 -1.1463
 4836SOL     OW26140   3.095   2.272   1.895 -0.3900  0.2562  0.0368
 4836SOL    HW126141   3.099   2.360   1.857 -0.3818  1.2352  2.3142
 4836SOL    HW226142   3.091   2.286   1.989  0.2431 -1.1753  0.2642
 4837SOL     OW26143   1.795   3.271   1.229  0.3099 -0.4193 -0.4371
 4837SOL    HW126144   1.757   3.323   1.300 -1.4480 -1.1585 -0.8376
 4837SOL    HW226145   1.844   3.213   1.287 -1.8348 -1.0199  0.7943
 4838SOL     OW26146   3.570   4.528   8.149  0.5006 -0.0209  0.2115
 4838SOL    HW126147   3.566   4.498   8.058 -1.1246  0.4217  0.1321
 4838SOL    HW226148   3.499   4.593   8.145  1.1681  0.5340 -2.3064
 4839SOL     OW26149   3.488   3.409   4.612 -0.2734  0.0334  0.1843
 4839SOL    HW126150   3.551   3.338   4.625  0.1019  0.7822  2.4146
 4839SOL    HW226151   3.439   3.419   4.693 -1.6680 -0.0169 -0.6454
 4840SOL     OW26152   4.738   4.601   7.418 -0.0705 -0.0832  0.4820
 4840SOL    HW126153   4.669   4.636   7.362 -1.7561 -0.4239  2.3934
 4840SOL    HW226154   4.729   4.661   7.492  0.2194  0.6709 -0.0958
 4841SOL     OW26155   2.440   3.620  15.939  0.0906 -0.1743  0.1809
 4841SOL    HW126156   2.461   3.711  15.963 -1.1459  0.2064 -0.1551
 4841SOL    HW226157   2.379   3.638  15.867 -2.2194 -0.9247  1.9591
 4842SOL     OW26158   2.969   2.424   6.184 -0.0971  0.1588  0.1683
 4842SOL    HW126159   2.994   2.506   6.228 -2.3555  0.4852  0.8318
 4842SOL    HW226160   3.055   2.400   6.148 -1.1237  0.9482 -2.8247
 4843SOL     OW26161   3.569   1.821  14.778 -0.4969 -0.0765  0.4834
 4843SOL    HW126162   3.611   1.806  14.693 -0.1321 -0.9820  0.8206
 4843SOL    HW226163   3.629   1.883  14.819  0.8124 -1.2704  0.3780
 4844SOL     OW26164   1.457   1.379   4.035  0.1811  0.2498 -0.0399
 4844SOL    HW126165   1.473   1.408   3.945 -0.6167  1.1483  0.0957
 4844SOL    HW226166   1.544   1.401   4.068  0.5633  0.4898 -1.1763
 4845SOL     OW26167   3.617   0.615   4.022  0.1942  0.4520 -0.4581
 4845SOL    HW126168   3.535   0.647   3.984 -0.9204 -2.0004 -0.1097
 4845SOL    HW226169   3.667   0.697   4.018  2.2402 -0.7862 -0.2331
 4846SOL     OW26170   0.489   3.539   9.353 -0.2365 -0.3401  0.7637
 4846SOL    HW126171   0.482   3.444   9.365 -0.4759 -0.7768 -2.7417
 4846SOL    HW226172   0.440   3.567   9.276  0.7979  0.1988  0.2960
 4847SOL     OW26173   0.371   4.404  13.950  0.1307  0.0608 -0.0423
 4847SOL    HW126174   0.458   4.412  13.990  0.3390 -1.2800 -0.2069
 4847SOL    HW226175   0.345   4.314  13.973 -0.5494  0.6027  1.3242
 4848SOL     OW26176   4.072   0.181   9.166 -0.4037  0.1198 -0.4366
 4848SOL    HW126177   4.157   0.192   9.124 -0.6054  0.3397 -0.7849
 4848SOL    HW226178   4.089   0.173   9.260  0.5877  2.1022 -0.4488
 4849SOL     OW26179   4.737   1.059   3.548  0.1232  0.3251  0.0577
 4849SOL    HW126180   0.005   1.021   3.460 -0.5798  2.2129 -0.8081
 4849SOL    HW226181   0.048   0.996   3.600 -1.5185 -0.9545  0.1274
 4850SOL     OW26182   0.231   4.058  15.518 -0.2273 -0.0850  0.0450
 4850SOL    HW126183   0.299   4.013  15.568 -1.1114 -1.3789  0.1013
 4850SOL    HW226184   0.242   4.025  15.428 -0.4299 -0.5956  0.2048
 4851SOL     OW26185   1.349   2.495   8.134  0.5825 -0.3343 -0.3956
 4851SOL    HW126186   1.345   2.591   8.129 -0.6002 -0.4787 -2.3081
 4851SOL    HW226187   1.406   2.487   8.058 -1.0717  1.6262 -1.8512
 4852SOL     OW26188   1.919   3.435  16.895  0.4493  0.2824 -0.2509
 4852SOL    HW126189   1.838   3.421  16.944  0.8764 -0.3672  0.2665
 4852SOL    HW226190   1.936   3.529  16.904  1.1805 -0.0403  1.7057
 4853SOL     OW26191   2.774   4.687   7.998  0.5327  0.0745 -0.1311
 4853SOL    HW126192   2.841   4.619   8.007 -0.3706 -0.7150  0.6302
 4853SOL    HW226193   2.795   0.010   8.067 -0.6136  1.1562 -0.7708
 4854SOL     OW26194   4.095   0.538   4.668  0.2741  0.0296  0.4075
 4854SOL    HW126195   4.143   0.599   4.612  1.3491 -3.0033 -1.9608
 4854SOL    HW226196   4.076   0.594   4.744 -3.0047 -0.3896 -0.0879
 4855SOL     OW26197   2.037   4.335   8.153 -0.3763 -0.1398  0.2616
 4855SOL    HW126198   2.086   4.330   8.071  0.9541  0.3339  1.0208
 4855SOL    HW226199   2.043   4.245   8.186  1.6805  0.0008  0.2777
 4856SOL     OW26200   2.341   1.082   8.830 -0.3769 -0.5365  0.4947
 4856SOL    HW126201   2.404   1.066   8.759 -1.2016 -0.4993 -0.2479
 4856SOL    HW226202   2.391   1.136   8.891  0.3676 -0.0318 -0.5645
 4857SOL     OW26203   1.994   4.368   1.578 -0.0995 -0.1296 -0.3152
 4857SOL    HW126204   1.941   4.430   1.528 -0.2683  1.2363  1.5403
 4857SOL    HW226205   2.060   4.428   1.614 -1.6856  1.8926 -0.8158
 4858SOL     OW26206   0.906   0.636   3.904 -0.3680  0.0414 -0.3922
 4858SOL    HW126207   0.903   0.596   3.817 -0.6929  1.0014 -0.8264
 4858SOL    HW226208   0.855   0.716   3.888 -0.2024 -0.1701 -2.0190
 4859SOL     OW26209   0.132   4.060   7.943 -0.3071 -0.1576 -0.7989
 4859SOL    HW126210   0.093   4.096   8.023  1.8178 -0.0302  0.1833
 4859SOL    HW226211   0.179   4.134   7.905  0.3722 -2.2739 -4.0693
 4860SOL     OW26212   1.786   4.022   4.194 -0.0416  0.0781  0.8225
 4860SOL    HW126213   1.856   3.991   4.252  0.0422  0.0476  0.7048
 4860SOL    HW226214   1.815   4.113   4.190  0.6449 -0.2363 -0.9784
 4861SOL     OW26215   3.938   1.407   5.950  0.1798  0.7695  0.1316
 4861SOL    HW126216   3.983   1.349   6.012 -0.6865 -0.7187 -0.6078
 4861SOL    HW226217   3.943   1.355   5.869  0.9989 -1.4690  1.6083
 4862SOL     OW26218   2.579   1.050   8.676  0.3572 -0.2201  0.1552
 4862SOL    HW126219   2.608   1.129   8.723  0.7440  0.2646 -0.8963
 4862SOL    HW226220   2.665   1.013   8.655  0.8812  2.0711 -1.6870
 4863SOL     OW26221   2.845   2.961   6.204  0.6205 -0.1399 -0.2180
 4863SOL    HW126222   2.773   3.024   6.197  1.5867  1.0604  0.5762
 4863SOL    HW226223   2.899   2.982   6.129 -0.4883 -0.2645 -1.0498
 4864SOL     OW26224   1.686   1.024   9.498  0.4401 -0.0774 -0.2168
 4864SOL    HW126225   1.592   1.022   9.479  0.1566  0.1442  1.0964
 4864SOL    HW226226   1.717   0.955   9.440  0.0429 -1.0156  0.6852
 4865SOL     OW26227   1.293   2.778  15.603 -0.3750 -0.4333 -0.5673
 4865SOL    HW126228   1.205   2.753  15.630 -0.5419  1.9658  1.0996
 4865SOL    HW226229   1.348   2.741  15.672 -1.9500  0.5405  1.2206
 4866SOL     OW26230   4.298   3.016   4.813  0.6296 -0.2564 -0.1006
 4866SOL    HW126231   4.371   2.954   4.807 -1.3418 -2.4625 -1.2353
 4866SOL    HW226232   4.242   2.963   4.870  0.0838 -0.9254 -1.2597
 4867SOL     OW26233   4.241   2.127  15.255  0.0742 -0.0814  0.1123
 4867SOL    HW126234   4.182   2.143  15.181  0.3464 -0.1087 -0.1091
 4867SOL    HW226235   4.319   2.090  15.215 -0.2736 -0.7072  0.0095
 4868SOL     OW26236   0.184   2.975   1.278  0.5491 -0.5094 -0.0025
 4868SOL    HW126237   0.090   2.962   1.290  0.7240 -1.9534 -0.2671
 4868SOL    HW226238   0.213   2.897   1.230  0.5786 -0.5580  0.0951
 4869SOL     OW26239   3.361   4.077  13.283  0.2439  0.1153 -0.2975
 4869SOL    HW126240   3.338   3.984  13.275 -0.3576  0.2635 -0.2721
 4869SOL    HW226241   3.273   4.101  13.312  0.7520  0.9603  0.5467
 4870SOL     OW26242   0.728   3.447  14.506  0.3515 -0.2512  0.1645
 4870SOL    HW126243   0.679   3.529  14.513  2.0361  0.7552  0.1727
 4870SOL    HW226244   0.747   3.459  14.413  1.3315 -1.8691  0.1541
 4871SOL     OW26245   0.303   3.831   8.281  0.1367  0.4167  0.3346
 4871SOL    HW126246   0.353   3.889   8.224  0.8934 -0.5471  0.0285
 4871SOL    HW226247   0.311   3.744   8.241  1.8117  0.7539 -0.0636
 4872SOL     OW26248   0.520   0.520  14.279 -0.1855 -0.3536 -0.2289
 4872SOL    HW126249   0.590   0.463  14.247  0.3791  0.2892 -0.1279
 4872SOL    HW226250   0.537   0.602  14.233 -1.4804 -0.6443 -1.2492
 4873SOL     OW26251   2.888   1.995   0.366 -0.1542 -0.2914  0.4117
 4873SOL    HW126252   2.855   2.061   0.428  1.9701 -1.5640  2.8496
 4873SOL    HW226253   2.813   1.936   0.356  0.4058 -1.1016  1.0118
 4874SOL     OW26254   3.412   3.354  11.897 -0.4186  0.4003 -0.1181
 4874SOL    HW126255   3.355   3.312  11.962  1.5010 -2.5574 -0.3435
 4874SOL    HW226256   3.356   3.421  11.859 -2.0082 -0.2004  1.1619
 4875SOL     OW26257   3.098   2.518  13.432  0.1978  0.0633  0.4594
 4875SOL    HW126258   3.147   2.592  13.468 -0.5810  0.8629 -0.1366
 4875SOL    HW226259   3.137   2.448  13.485  3.6072 -0.5116 -2.8244
 4876SOL     OW26260   2.066   4.416  17.159  0.2767 -0.5342  0.1358
 4876SOL    HW126261   2.129   4.482  17.187  1.4889 -0.7026 -2.2040
 4876SOL    HW226262   2.116   4.355  17.105  2.2175  0.8621  0.3816
 4877SOL     OW26263   1.086   4.593   8.283  0.2173  0.5999  0.0211
 4877SOL    HW126264   1.117   4.648   8.211 -1.0785  2.6133  0.9965
 4877SOL    HW226265   1.038   4.650   8.343  1.7326  0.9847  0.8814
 4878SOL     OW26266   0.004   3.998  16.980 -0.0969 -0.3658  0.3917
 4878SOL    HW126267   4.675   4.013  16.914  0.6991 -1.0359 -0.5841
 4878SOL    HW226268   4.727   3.909  17.010  0.1194 -0.2378  0.8915
 4879SOL     OW26269   1.084   3.749  11.802  0.1645  0.1424  0.4526
 4879SOL    HW126270   1.116   3.828  11.846 -1.1631  0.4659  0.8562
 4879SOL    HW226271   1.030   3.714  11.874 -0.6246 -2.0978 -1.2602
 4880SOL     OW26272   3.510   4.188   8.026 -0.1117  0.1080 -0.1069
 4880SOL    HW126273   3.476   4.102   8.048  1.3006 -0.6466 -0.8311
 4880SOL    HW226274   3.425   4.230   8.031  0.0992  1.1021 -4.6583
 4881SOL     OW26275   0.480   2.474   9.221  0.0066 -0.2036  0.2801
 4881SOL    HW126276   0.492   2.469   9.126 -1.6120 -0.7090  0.0995
 4881SOL    HW226277   0.387   2.497   9.226  0.7131  3.1278 -1.5227
 4882SOL     OW26278   3.144   2.633   6.587  0.4868 -0.2927 -0.1198
 4882SOL    HW126279   3.112   2.606   6.673  1.2667 -0.4564  0.1208
 4882SOL    HW226280   3.226   2.673   6.615 -0.7062  0.5851  2.0844
 4883SOL     OW26281   3.609   0.904   8.698 -0.3477  0.3782  0.3294
 4883SOL    HW126282   3.606   0.810   8.717  1.6833  0.3628  0.5096
 4883SOL    HW226283   3.594   0.946   8.783  1.0839  0.1236  0.6982
 4884SOL     OW26284   2.668   2.900   4.211  0.4426 -0.1705  0.6650
 4884SOL    HW126285   2.686   2.858   4.295 -0.2059 -1.1611  0.3029
 4884SOL    HW226286   2.583   2.863   4.189 -1.3202  3.1780  1.7543
 4885SOL     OW26287   2.011   3.118   6.523  0.3098  0.2549 -0.4449
 4885SOL    HW126288   2.092   3.086   6.483  2.0082  2.1530  1.4042
 4885SOL    HW226289   1.966   3.152   6.445 -0.1048 -1.6205 -1.0175
 4886SOL     OW26290   0.780   3.644  16.389  0.6781 -0.4765 -0.2384
 4886SOL    HW126291   0.848   3.710  16.408  1.1792 -1.5516  1.7608
 4886SOL    HW226292   0.832   3.587  16.332  1.8476 -0.9354  1.2700
 4887SOL     OW26293   2.604   3.964   1.174  0.2308  0.3551  0.3508
 4887SOL    HW126294   2.606   4.055   1.143  1.5373  0.2041  0.0011
 4887SOL    HW226295   2.543   3.959   1.248 -0.5077  1.0347 -0.2135
 4888SOL     OW26296   1.670   3.208  14.615 -0.0842  0.0936  0.3255
 4888SOL    HW126297   1.723   3.284  14.592  0.5954 -0.1779  0.9662
 4888SOL    HW226298   1.583   3.246  14.624  0.0851  0.6408 -0.3847
 4889SOL     OW26299   3.477   0.010  15.120 -0.3134 -0.0796 -0.1026
 4889SOL    HW126300   3.453   0.021  15.029  0.2034 -2.3847 -0.5255
 4889SOL    HW226301   3.436   0.090  15.154  0.1129  1.1347 -2.4519
 4890SOL     OW26302   0.171   4.084  10.941 -0.4807 -0.4162 -0.3108
 4890SOL    HW126303   0.187   4.088  11.035 -0.1467  2.0666 -0.4501
 4890SOL    HW226304   0.250   4.131  10.915  0.6636 -1.6570  0.9530
 4891SOL     OW26305   3.888   2.156   6.106  0.5887 -0.1703  0.2447
 4891SOL    HW126306   3.898   2.068   6.070  1.2599 -1.2672  3.1066
 4891SOL    HW226307   3.933   2.206   6.038  1.8099 -1.0261  0.4299
 4892SOL     OW26308   0.688   2.682   6.034  0.1230 -1.0795  0.6510
 4892SOL    HW126309   0.760   2.682   5.972 -2.2464 -2.7494 -2.0744
 4892SOL    HW226310   0.720   2.715   6.118 -0.4207  0.4094  0.2754
 4893SOL     OW26311   1.796   3.038   3.003 -0.2169 -0.0186  0.1629
 4893SOL    HW126312   1.786   3.124   2.961 -2.4385 -1.3497 -2.0348
 4893SOL    HW226313   1.845   2.983   2.942  0.7666 -0.5514  1.4391
 4894SOL     OW26314   1.122   2.824   7.503  0.1167 -0.1548 -0.2163
 4894SOL    HW126315   1.031   2.852   7.511  0.1002 -0.7651  1.6421
 4894SOL    HW226316   1.132   2.821   7.408  0.9969  0.8602 -0.1549
 4895SOL     OW26317   4.035   1.712   3.234 -0.3430  0.6620  0.2789
 4895SOL    HW126318   3.998   1.767   3.165 -0.0863  1.7035  0.9752
 4895SOL    HW226319   4.112   1.680   3.186 -1.7167 -0.0515 -1.4884
 4896SOL     OW26320   4.074   3.904   9.457 -0.1219 -0.0447  0.2433
 4896SOL    HW126321   4.023   3.983   9.475  0.1411 -0.4722  2.7796
 4896SOL    HW226322   4.039   3.875   9.373 -1.0065 -0.2294  0.6882
 4897SOL     OW26323   3.453   2.764   2.514 -0.7952 -0.1273 -0.0578
 4897SOL    HW126324   3.386   2.738   2.577  0.9819 -2.2314  0.9600
 4897SOL    HW226325   3.407   2.761   2.430 -0.0928 -1.4763 -0.3834
 4898SOL     OW26326   0.619   1.935   7.974 -0.7434  0.4571  0.3745
 4898SOL    HW126327   0.568   1.976   7.904  1.3224  1.3561 -0.6202
 4898SOL    HW226328   0.547   1.918   8.035 -1.4524  1.4813 -0.1830
 4899SOL     OW26329   4.283   2.016  14.336 -0.1417 -0.4045  0.7000
 4899SOL    HW126330   4.297   2.048  14.425  4.2764 -2.0745  0.6326
 4899SOL    HW226331   4.218   2.080  14.307 -0.5245 -0.4066  1.5604
 4900SOL     OW26332   3.706   3.226   7.758  0.0274  0.0681 -0.2695
 4900SOL    HW126333   3.790   3.269   7.743 -0.2331 -0.3011 -2.7695
 4900SOL    HW226334   3.663   3.271   7.830 -4.0493 -0.2009 -2.5473
 4901SOL     OW26335   2.363   4.559   9.445  0.8529  0.3038 -0.2561
 4901SOL    HW126336   2.459   4.561   9.446  0.8177  2.4941 -1.6051
 4901SOL    HW226337   2.339   4.652   9.441  0.5751  0.3448  2.6871
 4902SOL     OW26338   1.921   4.263   4.205  0.7055  0.2046  0.2286
 4902SOL    HW126339   1.953   4.262   4.295  0.7523  0.3248  0.2133
 4902SOL    HW226340   1.926   4.356   4.186 -0.5457  0.0400 -0.9442
 4903SOL     OW26341   3.122   3.922   1.801  0.4599  0.2343 -0.1606
 4903SOL    HW126342   3.040   3.950   1.760 -0.8560 -2.8377  0.4005
 4903SOL    HW226343   3.105   3.939   1.893  0.1367 -1.6880  0.1437
 4904SOL     OW26344   0.603   2.110   4.155 -0.1836  0.1179 -0.3963
 4904SOL    HW126345   0.632   2.154   4.235 -2.4072 -0.3487  0.6783
 4904SOL    HW226346   0.509   2.102   4.170 -0.0113  1.4720  1.4634
 4905SOL     OW26347   2.353   4.707   7.515 -0.3289  0.2554  0.6442
 4905SOL    HW126348   2.333   0.057   7.543 -2.1755 -0.1223  0.5907
 4905SOL    HW226349   2.320   4.710   7.425  0.3677  0.8956  0.4172
 4906SOL     OW26350   1.174   3.395   1.177  0.0925 -0.1951 -0.0075
 4906SOL    HW126351   1.109   3.440   1.232 -0.6451 -1.2183 -0.0606
 4906SOL    HW226352   1.137   3.308   1.165 -0.1820 -0.1654  0.6073
 4907SOL     OW26353   2.472   3.782   8.063  0.0486 -0.4108  0.6770
 4907SOL    HW126354   2.537   3.807   7.998 -1.2331  0.4768 -0.2800
 4907SOL    HW226355   2.401   3.739   8.016 -0.1462  0.9496 -0.2984
 4908SOL     OW26356   3.788   4.472   2.130  0.2693  0.3413  0.3057
 4908SOL    HW126357   3.837   4.480   2.212  0.3635 -0.5402  0.3356
 4908SOL    HW226358   3.705   4.439   2.163  1.8181 -2.2223  1.6154
 4909SOL     OW26359   1.574   1.589   7.240  0.2408 -0.6120 -0.5743
 4909SOL    HW126360   1.576   1.678   7.205 -0.0633  0.2261  1.5532
 4909SOL    HW226361   1.624   1.543   7.173 -0.9079 -0.3808 -1.6058
 4910SOL     OW26362   1.575   3.435   8.183  0.3199  0.4377 -0.0102
 4910SOL    HW126363   1.659   3.389   8.187 -1.0157 -1.9369  0.0895
 4910SOL    HW226364   1.597   3.522   8.149  0.9958  0.2273 -0.1111
 4911SOL     OW26365   2.616   4.204   1.640  0.2689  0.6321  0.0590
 4911SOL    HW126366   2.558   4.222   1.566 -0.0185  1.5267  0.5008
 4911SOL    HW226367   2.608   4.109   1.642  0.7459  0.5934  0.1443
 4912SOL     OW26368   1.765   3.210   5.337  0.4529  0.4704 -0.3288
 4912SOL    HW126369   1.728   3.265   5.406  0.0861  0.7067 -0.7177
 4912SOL    HW226370   1.795   3.132   5.384  2.6972  2.1582  1.0459
 4913SOL     OW26371   3.321   1.349   6.341 -0.0536 -0.7536  0.0487
 4913SOL    HW126372   3.229   1.372   6.346  0.3595  0.8214  0.2824
 4913SOL    HW226373   3.351   1.425   6.292  0.1696 -0.3959  0.7347
 4914SOL     OW26374   4.148   4.080   2.922  0.1242 -0.7831 -0.1786
 4914SOL    HW126375   4.187   4.164   2.896  1.6025 -0.1611  4.0587
 4914SOL    HW226376   4.230   4.033   2.936  1.2799  1.1763 -0.2889
 4915SOL     OW26377   0.444   1.306   6.653  0.5212  0.2198  0.1674
 4915SOL    HW126378   0.452   1.401   6.658  0.4955  0.2713 -0.6713
 4915SOL    HW226379   0.371   1.310   6.591 -2.2466 -1.9973  3.2905
 4916SOL     OW26380   4.508   3.167   4.050 -0.0039  0.4501 -0.0594
 4916SOL    HW126381   4.592   3.153   4.093 -0.7686  1.0009  1.6331
 4916SOL    HW226382   4.490   3.082   4.011  1.5723  0.5701 -1.0643
 4917SOL     OW26383   2.542   0.908   3.330 -0.1820 -0.0389 -0.1838
 4917SOL    HW126384   2.608   0.839   3.324  0.5002  0.5482  0.4648
 4917SOL    HW226385   2.509   0.897   3.419  0.8640  1.6090  0.4165
 4918SOL     OW26386   3.936   3.851  16.879  0.3815 -0.1066  0.1570
 4918SOL    HW126387   4.032   3.852  16.874  0.4473 -0.3916  1.5068
 4918SOL    HW226388   3.927   3.804  16.961  1.8783 -3.9557 -1.8771
 4919SOL     OW26389   3.522   2.606   8.003 -0.0101 -0.2239 -0.3026
 4919SOL    HW126390   3.541   2.562   8.086  0.9131  1.2718  0.2735
 4919SOL    HW226391   3.603   2.651   7.979  0.6008 -0.2514  1.7121
 4920SOL     OW26392   2.170   0.165   8.125 -0.1213  0.0646 -0.0464
 4920SOL    HW126393   2.212   0.149   8.040 -0.3859  1.3201 -0.4229
 4920SOL    HW226394   2.243   0.165   8.187  0.3635 -1.5046 -0.6235
 4921SOL     OW26395   0.691   2.565  11.554 -0.1860  0.0400 -0.2085
 4921SOL    HW126396   0.757   2.596  11.616  1.4918 -0.9556 -1.4803
 4921SOL    HW226397   0.614   2.576  11.610  0.8960  3.6633  0.5811
 4922SOL     OW26398   2.724   4.442   1.721 -0.3178  0.2984  0.2482
 4922SOL    HW126399   2.687   4.364   1.680 -2.1118  0.4148  1.6342
 4922SOL    HW226400   2.696   4.510   1.659  1.1777  0.2599 -0.4797
 4923SOL     OW26401   2.885   4.340   0.871 -0.3003  0.0173 -0.4022
 4923SOL    HW126402   2.979   4.346   0.883 -0.4102  1.1424 -0.1484
 4923SOL    HW226403   2.863   4.295   0.953 -1.1790 -1.8093 -1.6347
 4924SOL     OW26404   1.998   1.173   5.571  0.0922  0.3950 -0.4923
 4924SOL    HW126405   2.073   1.184   5.513  0.5414  0.6023  0.1295
 4924SOL    HW226406   1.987   1.268   5.579  2.9835  0.7579 -0.7175
 4925SOL     OW26407   0.936   0.802  10.123 -0.2296 -0.8275  0.2386
 4925SOL    HW126408   0.884   0.751  10.061  1.1269 -0.2022 -1.4228
 4925SOL    HW226409   0.872   0.866  10.157 -0.0539 -0.2331 -0.5407
 4926SOL     OW26410   1.143   1.129   5.425  0.1212 -0.1129  0.3232
 4926SOL    HW126411   1.186   1.173   5.351 -2.2037 -0.6738 -1.3590
 4926SOL    HW226412   1.152   1.034   5.412 -0.2986 -0.3187  1.5919
 4927SOL     OW26413   3.800   4.346   2.910 -0.2006 -0.4890 -0.3545
 4927SOL    HW126414   3.767   4.310   2.992 -0.6538  3.4057  1.1903
 4927SOL    HW226415   3.796   4.440   2.927 -0.6165 -0.5403 -0.1625
 4928SOL     OW26416   3.769   2.303   6.593  0.4638  0.4533  0.3346
 4928SOL    HW126417   3.814   2.289   6.510 -0.9121  0.0900 -0.3619
 4928SOL    HW226418   3.839   2.277   6.653  1.5157  0.3881 -0.9153
 4929SOL     OW26419   4.709   1.970  16.002 -0.3490 -0.7733 -0.6267
 4929SOL    HW126420   4.707   2.003  15.912 -0.3699 -0.2145 -0.4218
 4929SOL    HW226421   0.044   2.015  16.041 -3.0096  0.6782  2.8079
 4930SOL     OW26422   0.882   4.068   3.183 -0.3132  0.3431 -0.0251
 4930SOL    HW126423   0.908   3.977   3.199  0.0873  0.6526  1.0762
 4930SOL    HW226424   0.916   4.076   3.094  0.2668 -0.7499  0.0951
 4931SOL     OW26425   0.809   1.974   4.382 -0.3913  0.3109  0.4537
 4931SOL    HW126426   0.769   2.060   4.396  0.5179  0.9188 -0.6485
 4931SOL    HW226427   0.734   1.919   4.360  1.1468 -1.9264  0.8161
 4932SOL     OW26428   0.929   0.023   8.433 -0.8739 -0.2663  0.8948
 4932SOL    HW126429   0.931   0.109   8.476 -0.8067  0.4972 -0.6163
 4932SOL    HW226430   0.845   0.022   8.385  0.5751  0.2092 -1.6725
 4933SOL     OW26431   0.695   0.990   1.634  0.0689 -0.5836  0.4604
 4933SOL    HW126432   0.762   0.924   1.646  0.5088  0.1807  2.1746
 4933SOL    HW226433   0.722   1.059   1.695  0.6496 -0.7783  0.4210
 4934SOL     OW26434   0.141   1.078   8.790  0.1013  0.3828 -0.0812
 4934SOL    HW126435   0.181   1.119   8.714  0.6199  0.1334  0.0596
 4934SOL    HW226436   0.215   1.068   8.849 -2.5960 -0.9012  3.0793
 4935SOL     OW26437   2.743   2.571   6.726  0.4772 -0.6978 -0.3761
 4935SOL    HW126438   2.777   2.572   6.816 -1.0991 -0.8233  0.2251
 4935SOL    HW226439   2.676   2.504   6.740 -0.7212  0.1125 -2.2005
 4936SOL     OW26440   3.371   2.049  11.251 -0.1770 -0.1057 -0.2265
 4936SOL    HW126441   3.396   1.964  11.216  1.7669  0.8169 -1.0981
 4936SOL    HW226442   3.276   2.052  11.247 -0.1145 -0.6790 -2.0633
 4937SOL     OW26443   4.681   2.856   8.485  0.6540 -0.4289  0.0374
 4937SOL    HW126444   4.676   2.935   8.432  1.4742 -1.1826 -1.1624
 4937SOL    HW226445   0.027   2.880   8.521  1.8585 -1.0861 -2.3829
 4938SOL     OW26446   1.616   0.318  12.083 -0.0331  0.2981 -0.4728
 4938SOL    HW126447   1.660   0.305  11.999  0.8291  2.1939 -0.3083
 4938SOL    HW226448   1.627   0.413  12.091  0.2282  0.2590 -0.3701
 4939SOL     OW26449   1.019   3.510  10.061 -0.2899  0.1802 -0.2133
 4939SOL    HW126450   0.993   3.587  10.012 -1.2586  1.1481  1.7955
 4939SOL    HW226451   0.952   3.528  10.127  0.0136 -3.2339  1.0337
 4940SOL     OW26452   4.324   1.170   9.693 -0.2786 -0.0491 -0.0126
 4940SOL    HW126453   4.295   1.138   9.608 -0.1826 -0.6667  0.1893
 4940SOL    HW226454   4.279   1.102   9.743 -1.3592  0.8254  0.2119
 4941SOL     OW26455   3.149   4.493   1.155 -0.0342  0.0514  0.2803
 4941SOL    HW126456   3.136   4.572   1.103 -0.3999 -1.0441 -1.2903
 4941SOL    HW226457   3.223   4.513   1.212 -0.9157  0.6596  1.1940
 4942SOL     OW26458   2.407   4.213   9.390 -0.1855  0.0673 -0.0615
 4942SOL    HW126459   2.341   4.281   9.375 -0.0949 -0.0344 -0.9410
 4942SOL    HW226460   2.473   4.247   9.329 -0.4627 -0.2497 -0.5439
 4943SOL     OW26461   4.169   3.749   5.784  0.1901 -0.2030  0.1352
 4943SOL    HW126462   4.193   3.781   5.697 -0.6227 -2.3064 -0.8717
 4943SOL    HW226463   4.218   3.666   5.785 -1.9493 -1.4838  0.6592
 4944SOL     OW26464   3.965   3.717   6.026 -0.0185  0.2225  0.2803
 4944SOL    HW126465   4.005   3.749   6.107  0.0875 -1.5474  0.9405
 4944SOL    HW226466   4.027   3.745   5.960 -1.9053  1.6213 -0.8913
 4945SOL     OW26467   2.009   0.906   6.358 -0.4197  0.2379  0.0919
 4945SOL    HW126468   2.100   0.876   6.350 -0.0178  1.0633  1.5703
 4945SOL    HW226469   1.963   0.857   6.290 -0.0966 -1.3049  0.9930
 4946SOL     OW26470   2.906   0.348  13.130  0.0484 -0.0217 -0.8234
 4946SOL    HW126471   2.852   0.269  13.139  0.8780 -0.4526  0.3982
 4946SOL    HW226472   2.837   0.414  13.133  0.5283  0.5633 -3.0774
 4947SOL     OW26473   0.606   0.686   4.247  0.2961 -0.3599 -0.2789
 4947SOL    HW126474   0.628   0.765   4.199  2.7556 -1.4490 -0.9435
 4947SOL    HW226475   0.515   0.681   4.218  0.2252 -0.4900 -0.0388
 4948SOL     OW26476   1.101   4.377   5.490 -0.2778  0.0237 -0.1589
 4948SOL    HW126477   1.039   4.395   5.420 -0.4916 -0.0664  0.0073
 4948SOL    HW226478   1.071   4.287   5.501 -1.3440  0.7006  2.2853
 4949SOL     OW26479   1.016   3.607   7.269 -0.3053  0.3497 -0.4098
 4949SOL    HW126480   0.958   3.552   7.322 -1.1228  0.3739 -1.2780
 4949SOL    HW226481   1.066   3.656   7.335 -0.3631 -0.7211  0.4358
 4950SOL     OW26482   4.564   3.632  12.205  0.5476 -0.1199 -0.5939
 4950SOL    HW126483   4.504   3.628  12.130 -0.1843 -2.4260  0.1184
 4950SOL    HW226484   4.530   3.709  12.250 -2.5306 -1.0409 -1.3636
 4951SOL     OW26485   0.403   0.378   3.278  0.1475  0.1440 -0.1530
 4951SOL    HW126486   0.380   0.291   3.309  2.5474 -1.0203 -1.6646
 4951SOL    HW226487   0.444   0.418   3.355 -1.0981 -0.2621  0.7333
 4952SOL     OW26488   4.590   1.620   8.335  0.1938  0.1730 -0.3277
 4952SOL    HW126489   4.595   1.598   8.428 -0.5161  0.6342 -0.1821
 4952SOL    HW226490   4.677   1.655   8.319  0.3483  0.4114  0.9857
 4953SOL     OW26491   4.678   0.750   3.490  0.7398  0.0851 -0.0504
 4953SOL    HW126492   4.668   0.655   3.493  0.5974  0.0786 -0.7962
 4953SOL    HW226493   4.588   0.771   3.464 -0.2283  1.9761  4.9133
 4954SOL     OW26494   2.610   2.130   8.386  0.9449 -0.0262  0.7823
 4954SOL    HW126495   2.577   2.067   8.450  0.4558  1.9227  2.4384
 4954SOL    HW226496   2.616   2.213   8.433  0.1804  0.0266  0.7769
 4955SOL     OW26497   2.235   3.432   6.979  0.0823 -0.0630  0.1685
 4955SOL    HW126498   2.244   3.434   6.884 -2.6513 -1.4079 -0.1046
 4955SOL    HW226499   2.205   3.343   6.999 -1.7208  0.3964 -0.5779
 4956SOL     OW26500   4.699   1.714   6.168  0.1982  0.6277 -0.1769
 4956SOL    HW126501   0.024   1.715   6.097  2.0094 -0.6442  1.4462
 4956SOL    HW226502   4.610   1.707   6.133 -0.1341  0.5668  0.6836
 4957SOL     OW26503   2.357   0.798   7.061  0.4367  0.0195 -0.0067
 4957SOL    HW126504   2.414   0.836   6.994  0.8426 -2.1341 -0.8826
 4957SOL    HW226505   2.279   0.852   7.053  3.4150  4.0365 -2.0879
 4958SOL     OW26506   2.796   0.114  15.308 -0.4547  0.3628  0.8002
 4958SOL    HW126507   2.800   0.022  15.334 -1.4468 -0.4418 -1.9657
 4958SOL    HW226508   2.759   0.152  15.388  0.0220  2.6880 -0.0548
 4959SOL     OW26509   2.655   4.623   5.624  0.0133  0.5482  0.1580
 4959SOL    HW126510   2.623   4.672   5.549 -1.7500  1.1540  1.3047
 4959SOL    HW226511   2.748   4.634   5.603 -0.3612  2.5025 -0.4693
 4960SOL     OW26512   0.717   1.960   9.210  0.3857  0.0978 -0.1359
 4960SOL    HW126513   0.765   1.948   9.292 -0.4857  0.1041  0.3751
 4960SOL    HW226514   0.735   1.872   9.176 -0.0048 -0.3966  0.9163
 4961SOL     OW26515   4.100   0.329   7.508  0.3708  0.0077 -0.0492
 4961SOL    HW126516   4.125   0.237   7.521 -3.2409 -0.9765 -0.2675
 4961SOL    HW226517   4.011   0.324   7.541 -0.3667 -0.8628 -2.1360
 4962SOL     OW26518   0.495   0.105   1.009 -0.1851  0.3097 -0.1098
 4962SOL    HW126519   0.562   0.064   1.063 -0.3590 -0.0091 -0.1369
 4962SOL    HW226520   0.537   0.149   0.935  1.9132 -1.1560  0.2132
 4963SOL     OW26521   1.202   1.985   9.290  0.1929  0.0323  0.3534
 4963SOL    HW126522   1.267   1.963   9.357 -0.6102 -2.1385  0.4214
 4963SOL    HW226523   1.266   2.012   9.224 -0.0252  0.9276  0.5071
 4964SOL     OW26524   3.695   1.811   6.247 -0.1072  0.2415  0.0803
 4964SOL    HW126525   3.652   1.837   6.166 -2.3172 -0.7908  0.9339
 4964SOL    HW226526   3.676   1.874   6.316 -2.6985 -0.4122 -0.0531
 4965SOL     OW26527   3.374   3.282   2.571 -0.4840 -0.1090  0.4170
 4965SOL    HW126528   3.388   3.193   2.601  0.6447 -1.0403 -2.8678
 4965SOL    HW226529   3.283   3.289   2.542 -0.8555  0.8092  1.8178
 4966SOL     OW26530   3.441   1.216   6.963 -0.6595  0.0622  0.4612
 4966SOL    HW126531   3.408   1.286   6.906 -0.1961 -0.0417  0.0629
 4966SOL    HW226532   3.532   1.210   6.935 -1.1250 -0.0990 -1.0355
 4967SOL     OW26533   0.842   1.658  13.604 -0.3616 -0.5845 -0.3208
 4967SOL    HW126534   0.908   1.591  13.624  0.6877  1.0407  1.6771
 4967SOL    HW226535   0.779   1.658  13.676 -0.9006 -0.5483 -0.7883
 4968SOL     OW26536   0.046   3.700   6.268  0.0492  0.3313  0.0620
 4968SOL    HW126537   0.061   3.672   6.178  0.9701  1.4678 -0.1453
 4968SOL    HW226538   0.067   3.793   6.255  0.7052  0.1726 -0.0124
 4969SOL     OW26539   2.083   3.500   4.880 -0.0437 -0.0819 -0.0405
 4969SOL    HW126540   2.046   3.433   4.823  0.1623 -0.5932  0.4268
 4969SOL    HW226541   2.006   3.522   4.932 -0.2567  0.3121 -0.5245
 4970SOL     OW26542   4.238   4.727  13.937 -0.1941 -0.4033  0.1205
 4970SOL    HW126543   4.333   4.720  13.944 -0.5459 -2.5142  2.5535
 4970SOL    HW226544   4.228   4.716  13.842  1.1624  0.0279 -0.0796
 4971SOL     OW26545   2.358   2.528   7.067  0.1456  0.5751 -0.1480
 4971SOL    HW126546   2.311   2.513   6.985 -0.2936  0.0204  0.2006
 4971SOL    HW226547   2.343   2.442   7.108 -0.3444  0.1421 -1.2283
 4972SOL     OW26548   2.378   4.258   6.571  0.2128  0.2076 -0.0307
 4972SOL    HW126549   2.342   4.199   6.637 -0.7412  1.4436  0.5304
 4972SOL    HW226550   2.307   4.266   6.507 -0.2698 -0.4154  0.4247
 4973SOL     OW26551   4.304   4.045   1.536 -0.0758 -0.1512 -0.1318
 4973SOL    HW126552   4.395   4.067   1.555 -0.1633 -0.9223  1.1349
 4973SOL    HW226553   4.258   4.067   1.617 -1.5694  2.6959 -1.7146
 4974SOL     OW26554   3.678   1.719   4.292 -0.0898  0.0131 -0.3120
 4974SOL    HW126555   3.749   1.655   4.286 -1.5811 -1.8147  1.6381
 4974SOL    HW226556   3.607   1.678   4.340 -0.6939  0.9035 -0.4507
 4975SOL     OW26557   0.438   0.164   1.991 -0.4654  0.5341  0.5359
 4975SOL    HW126558   0.443   0.259   2.007 -0.9208  0.8671 -1.3817
 4975SOL    HW226559   0.401   0.137   2.075 -2.1959 -1.8288 -1.0034
 4976SOL     OW26560   0.060   2.348   2.657  0.4532 -0.0234  0.1745
 4976SOL    HW126561   0.122   2.396   2.711  0.2228  1.7476 -1.1390
 4976SOL    HW226562   0.080   2.361   2.565  0.7880  1.8457  0.5121
 4977SOL     OW26563   0.489   1.821   2.515  0.3150  0.2788  0.0952
 4977SOL    HW126564   0.421   1.789   2.574  1.1363 -1.3213  0.1508
 4977SOL    HW226565   0.434   1.859   2.446  1.4870 -1.1800 -1.6325
 4978SOL     OW26566   2.225   0.095   4.320 -0.2124 -0.2366  0.1275
 4978SOL    HW126567   2.156   0.154   4.291  0.2447  0.6038  0.7622
 4978SOL    HW226568   2.260   0.152   4.389  1.9344 -1.5003  0.0837
 4979SOL     OW26569   4.651   2.460   5.102 -0.1489 -0.2379  0.1633
 4979SOL    HW126570   4.641   2.371   5.067 -0.4153 -1.1032  2.3772
 4979SOL    HW226571   4.685   2.442   5.190  0.5677  0.5365  0.0381
 4980SOL     OW26572   4.446   4.059   8.808  0.0958 -0.4790 -0.5035
 4980SOL    HW126573   4.419   3.977   8.767  4.5553 -1.9673 -0.4576
 4980SOL    HW226574   4.388   4.122   8.766  0.1926  0.5201  0.8324
 4981SOL     OW26575   1.114   1.071   1.519  0.3067  0.0795 -0.2220
 4981SOL    HW126576   1.095   0.981   1.544 -1.8119  0.6326  0.2071
 4981SOL    HW226577   1.184   1.064   1.455  0.0735  0.2633 -0.4962
 4982SOL     OW26578   3.119   2.730   2.418  0.3741  0.7554  0.0850
 4982SOL    HW126579   3.038   2.684   2.438 -0.0512  1.9401  1.0497
 4982SOL    HW226580   3.185   2.668   2.450 -0.7200  0.4109  1.6791
 4983SOL     OW26581   1.242   3.845   8.371  0.3339 -0.3824 -0.1048
 4983SOL    HW126582   1.216   3.756   8.346 -0.9998  0.2674 -1.0318
 4983SOL    HW226583   1.274   3.836   8.461 -1.7946  1.6085  0.8381
 4984SOL     OW26584   1.266   3.235   2.451 -0.2116 -0.1517 -0.2750
 4984SOL    HW126585   1.257   3.280   2.535 -0.4630  0.1224 -0.4456
 4984SOL    HW226586   1.252   3.143   2.475  1.4363  0.1419  1.8265
 4985SOL     OW26587   1.130   0.649   6.600  0.9268  0.6616 -0.0268
 4985SOL    HW126588   1.088   0.685   6.679 -0.1011 -0.5321 -0.0255
 4985SOL    HW226589   1.219   0.625   6.624  0.4959 -0.8538  0.1189
 4986SOL     OW26590   1.206   1.399  14.388  0.4179 -0.2754 -0.4463
 4986SOL    HW126591   1.164   1.471  14.341 -1.6698 -1.5273 -0.5203
 4986SOL    HW226592   1.263   1.364  14.320  1.9069  0.5485  0.3758
 4987SOL     OW26593   1.988   3.923   2.218 -0.3733  0.3528  0.1701
 4987SOL    HW126594   1.939   3.990   2.169  0.4896 -1.8469 -3.6919
 4987SOL    HW226595   1.967   3.954   2.306 -1.4787 -0.9787  0.3660
 4988SOL     OW26596   0.724   1.015   4.340 -0.0505 -0.8543 -0.0483
 4988SOL    HW126597   0.799   0.957   4.350  0.0345 -0.3909  1.9920
 4988SOL    HW226598   0.692   0.997   4.428  0.4844 -0.6542  0.1874
 4989SOL     OW26599   3.910   2.085   0.779 -0.0288  0.0204 -0.1411
 4989SOL    HW126600   3.894   2.027   0.854  0.9494  1.6722  1.3551
 4989SOL    HW226601   3.858   2.043   0.711 -1.0040  0.4298  0.3492
 4990SOL     OW26602   3.582   4.211  12.872 -0.0044 -0.2811 -0.1653
 4990SOL    HW126603   3.670   4.246  12.864  0.7405 -1.9973  0.7433
 4990SOL    HW226604   3.580   4.171  12.958  2.3572  1.8268  0.8474
 4991SOL     OW26605   1.471   4.246   1.678 -0.5725 -0.5649  0.4937
 4991SOL    HW126606   1.497   4.319   1.735 -2.5220  0.2819  0.2991
 4991SOL    HW226607   1.452   4.171   1.735  0.1399 -0.5342  0.7711
 4992SOL     OW26608   2.095   0.357   5.635 -0.2119  0.2978 -0.2174
 4992SOL    HW126609   2.170   0.410   5.609  0.8339 -1.6114 -1.0514
 4992SOL    HW226610   2.136   0.272   5.646 -1.3468 -0.0352  1.5128
 4993SOL     OW26611   0.143   1.420   9.763 -0.1703  0.2312 -0.3628
 4993SOL    HW126612   0.070   1.372   9.803  1.5387 -2.2558 -0.2178
 4993SOL    HW226613   0.113   1.509   9.778  1.9458  0.6012  1.6940
 4994SOL     OW26614   2.444   0.803   0.727  0.2596  0.0055  0.7162
 4994SOL    HW126615   2.434   0.850   0.644  0.2564  1.8020  1.7263
 4994SOL    HW226616   2.466   0.870   0.792 -1.2860  0.2368  1.0019
 4995SOL     OW26617   3.532   2.292   8.196 -0.4971 -0.0124  0.1492
 4995SOL    HW126618   3.613   2.289   8.247 -1.0562 -2.6972  0.8969
 4995SOL    HW226619   3.560   2.246   8.117  0.4586  0.1535  0.3804
 4996SOL     OW26620   1.734   3.558   0.691  0.7422 -0.0708 -0.4964
 4996SOL    HW126621   1.787   3.614   0.635  1.9601 -0.3814  0.3251
 4996SOL    HW226622   1.661   3.619   0.696  1.3527  0.7453 -1.7421
 4997SOL     OW26623   3.778   0.762   8.121  0.0418 -0.0397 -0.2806
 4997SOL    HW126624   3.843   0.796   8.060  0.1766  0.2618  0.0308
 4997SOL    HW226625   3.705   0.809   8.082 -0.4936  0.6882  1.5989
 4998SOL     OW26626   1.873   2.760   6.203 -0.4492  0.6426  0.3549
 4998SOL    HW126627   1.792   2.781   6.156 -0.7498  0.2008  0.6731
 4998SOL    HW226628   1.922   2.693   6.155  1.4664  3.3191 -1.3628
 4999SOL     OW26629   1.033   0.870   5.898  0.0107  0.0425 -0.0646
 4999SOL    HW126630   1.026   0.816   5.820 -1.5020  0.2785 -0.0920
 4999SOL    HW226631   1.128   0.871   5.914 -0.7136  1.1813  4.2549
 5000SOL     OW26632   3.918   0.955   6.492  0.4101  0.3808 -0.0149
 5000SOL    HW126633   3.883   1.042   6.510 -1.7518 -0.4457 -0.2074
 5000SOL    HW226634   3.989   0.965   6.555  1.1123  1.3690 -0.9513
 5001SOL     OW26635   0.229   0.437   3.656  0.0104  0.2581  0.2137
 5001SOL    HW126636   0.257   0.348   3.676 -0.6585 -0.3458 -1.5054
 5001SOL    HW226637   0.296   0.468   3.594 -0.6173 -1.0113 -1.1213
 5002SOL     OW26638   1.381   3.467   0.628 -0.1743  0.2260  0.2955
 5002SOL    HW126639   1.439   3.498   0.697  2.4386 -0.4224 -1.5976
 5002SOL    HW226640   1.299   3.489   0.670 -1.5221 -2.8496 -0.7349
 5003SOL     OW26641   0.006   0.560   4.829 -0.5989  0.0623  0.6031
 5003SOL    HW126642   0.075   0.612   4.786 -2.2195  1.0536 -0.8101
 5003SOL    HW226643   4.697   0.521   4.756  1.9222 -1.3392 -0.3384
 5004SOL     OW26644   0.701   4.342  15.958 -0.0868 -0.7802 -0.1685
 5004SOL    HW126645   0.689   4.247  15.951 -1.0561 -0.4652 -2.6620
 5004SOL    HW226646   0.787   4.362  15.996 -0.7084  1.3645  0.0649
 5005SOL     OW26647   0.099   3.665   5.996  0.0733 -0.4386 -0.4108
 5005SOL    HW126648   0.077   3.702   5.911 -0.2165 -1.3568 -0.7340
 5005SOL    HW226649   0.193   3.654   5.986  0.0862 -0.6997  0.0134
 5006SOL     OW26650   0.590   4.280   7.864  0.5188  0.3624 -0.1455
 5006SOL    HW126651   0.605   4.204   7.920 -4.6547 -1.0032 -0.5852
 5006SOL    HW226652   0.532   4.250   7.794  0.2829  0.8599 -0.1678
 5007SOL     OW26653   0.442   2.175   8.861 -0.0050  0.1231  0.3234
 5007SOL    HW126654   0.369   2.150   8.919 -0.5902 -1.4288 -1.0622
 5007SOL    HW226655   0.446   2.103   8.798  0.5345  1.4815 -1.1872
 5008SOL     OW26656   2.578   2.473   3.987  0.2582  0.0909  0.5262
 5008SOL    HW126657   2.524   2.537   3.941  1.5243 -1.8369 -3.6941
 5008SOL    HW226658   2.521   2.456   4.062  0.4694  0.0902  0.6868
 5009SOL     OW26659   1.284   0.895   0.463 -0.3474  0.3118 -0.6683
 5009SOL    HW126660   1.368   0.850   0.462 -0.5773 -0.1244  0.1767
 5009SOL    HW226661   1.238   0.864   0.541  3.6374  1.8643  2.2516
 5010SOL     OW26662   0.573   0.640  11.728  0.6098  0.4333  0.3575
 5010SOL    HW126663   0.627   0.719  11.721  0.5847  0.5573  1.6005
 5010SOL    HW226664   0.533   0.643  11.641  1.3504  0.0241  0.0014
 5011SOL     OW26665   3.405   2.427   8.648 -0.5561 -0.1026 -0.0496
 5011SOL    HW126666   3.435   2.341   8.678 -0.9032 -0.7689 -1.6309
 5011SOL    HW226667   3.488   2.474   8.652 -1.4500  1.4701 -0.0784
 5012SOL     OW26668   2.145   2.346   4.695  0.6718 -0.0261  0.7448
 5012SOL    HW126669   2.236   2.346   4.667  0.8346 -2.2297  1.3101
 5012SOL    HW226670   2.114   2.268   4.650 -0.7689  1.0605 -0.1850
 5013SOL     OW26671   1.565   4.291  15.368  0.3139  1.1509  0.4215
 5013SOL    HW126672   1.581   4.339  15.287  0.2657  0.1467 -0.1874
 5013SOL    HW226673   1.638   4.232  15.386 -1.9492 -1.1428  2.2017
 5014SOL     OW26674   1.636   1.430   8.022 -0.0837 -0.0815  0.0176
 5014SOL    HW126675   1.713   1.485   8.032 -0.1937 -0.1003  1.0004
 5014SOL    HW226676   1.675   1.365   7.964 -0.5672 -1.1278  0.8492
 5015SOL     OW26677   0.177   4.077  11.219 -0.4612  0.0150  0.4830
 5015SOL    HW126678   0.256   4.088  11.272 -0.4807  0.3151  0.4471
 5015SOL    HW226679   0.146   3.996  11.260  1.5094 -0.4882  1.0118
 5016SOL     OW26680   4.569   4.036   2.256  0.0832 -0.3575  0.8665
 5016SOL    HW126681   4.585   4.016   2.163  0.7384 -1.7286  1.2732
 5016SOL    HW226682   4.656   4.066   2.284  1.0644 -2.8364  0.4848
 5017SOL     OW26683   2.961   0.360  17.525  0.2158 -0.0328 -0.8436
 5017SOL    HW126684   2.967   0.379  17.619 -3.2886  1.0667 -0.8268
 5017SOL    HW226685   3.001   0.441  17.495 -0.9662  1.6150  2.0958
 5018SOL     OW26686   0.026   4.168   3.058 -0.0069  0.7206  0.0403
 5018SOL    HW126687   0.067   4.090   3.020  0.7516  0.3212  1.6842
 5018SOL    HW226688   0.097   4.231   3.073 -0.2928  0.6661  1.6070
 5019SOL     OW26689   1.302   1.252   5.252  0.3850  0.0317 -0.8765
 5019SOL    HW126690   1.322   1.214   5.167 -0.7692 -0.7553 -0.7950
 5019SOL    HW226691   1.271   1.339   5.227 -2.3087 -1.7847 -3.8550
 5020SOL     OW26692   3.398   3.436   1.196  0.2687 -0.5087 -0.1693
 5020SOL    HW126693   3.376   3.528   1.181 -2.3118 -1.2134 -0.6594
 5020SOL    HW226694   3.327   3.395   1.147  1.3904 -3.3273  0.6093
 5021SOL     OW26695   2.184   4.482   2.305  0.6476  0.2407  0.2252
 5021SOL    HW126696   2.278   4.499   2.292  0.5149 -2.1941 -3.9744
 5021SOL    HW226697   2.189   4.389   2.325  0.6871  0.1290 -0.2972
 5022SOL     OW26698   2.101   1.550   3.966 -0.1274 -0.0749  0.4195
 5022SOL    HW126699   2.086   1.644   3.967 -0.9576 -0.2093  0.2026
 5022SOL    HW226700   2.197   1.554   3.974  0.0384 -0.2159 -1.4767
 5023SOL     OW26701   1.824   3.958   1.985 -0.1468  0.7044  0.1122
 5023SOL    HW126702   1.884   3.984   1.915  0.6559  2.3917  1.4211
 5023SOL    HW226703   1.852   3.868   2.004 -1.4627  0.6929  1.9387
 5024SOL     OW26704   2.595   3.566   2.578  0.2698 -0.1067 -0.4237
 5024SOL    HW126705   2.503   3.552   2.555  0.3919 -0.2340 -0.8319
 5024SOL    HW226706   2.603   3.552   2.673  0.2420  0.5250 -0.3313
 5025SOL     OW26707   3.542   4.239  17.251  0.1275  0.4285 -0.1078
 5025SOL    HW126708   3.594   4.209  17.324 -0.9396 -0.4690  0.2863
 5025SOL    HW226709   3.487   4.311  17.283 -1.3210 -0.2368 -1.0630
 5026SOL     OW26710   4.137   1.251  16.888 -0.2797  0.1874  0.4185
 5026SOL    HW126711   4.209   1.274  16.947 -0.4221 -0.2690  0.7735
 5026SOL    HW226712   4.150   1.315  16.818 -2.7857 -1.2228 -1.2825
 5027SOL     OW26713   1.293   1.649  11.458 -0.2000 -0.3818  0.7819
 5027SOL    HW126714   1.236   1.718  11.423  0.0728 -1.1189 -1.1035
 5027SOL    HW226715   1.231   1.585  11.491  0.2950  0.0830  2.6780
 5028SOL     OW26716   2.432   0.720   2.352  0.2474  0.7200 -0.1692
 5028SOL    HW126717   2.518   0.734   2.392  0.1241  1.0392 -0.0080
 5028SOL    HW226718   2.375   0.733   2.428  2.4766  0.6112  1.5164
 5029SOL     OW26719   2.946   4.037   5.615 -0.3382  0.1537  0.1970
 5029SOL    HW126720   2.981   4.099   5.679 -0.4093  1.5565 -1.1408
 5029SOL    HW226721   2.960   4.084   5.533 -1.7555 -0.7605 -0.5569
 5030SOL     OW26722   1.242   1.490   0.025  0.3946  0.2702 -0.4053
 5030SOL    HW126723   1.203   1.463   0.108  0.0083 -1.0875 -1.0248
 5030SOL    HW226724   1.332   1.491   0.057  0.2762  0.9286 -0.1015
 5031SOL     OW26725   0.828   4.255  11.295 -0.2591 -0.3789  0.4405
 5031SOL    HW126726   0.823   4.254  11.391  1.6451 -1.1907  0.5225
 5031SOL    HW226727   0.814   4.161  11.280 -1.7831 -0.1793  0.5763
 5032SOL     OW26728   2.313   3.055   6.604 -0.4253 -0.6002  0.0330
 5032SOL    HW126729   2.344   2.998   6.674 -0.7468 -0.1182  0.5661
 5032SOL    HW226730   2.403   3.080   6.585 -0.6927 -0.3316 -0.8575
 5033SOL     OW26731   4.162   2.815   6.347 -0.2212 -0.2453 -0.2629
 5033SOL    HW126732   4.232   2.764   6.387 -0.7203 -0.3792  0.4417
 5033SOL    HW226733   4.089   2.759   6.374 -0.1595 -1.0773 -1.8547
 5034SOL     OW26734   0.177   0.204   5.445 -0.3023 -0.4820  0.0727
 5034SOL    HW126735   0.219   0.118   5.451  1.4267  0.3681  0.2015
 5034SOL    HW226736   0.096   0.177   5.402 -0.2094 -2.1314  0.9338
 5035SOL     OW26737   4.553   4.066  17.173  0.2393  0.5394  0.0515
 5035SOL    HW126738   4.555   4.152  17.215  1.5739  1.5614 -2.0990
 5035SOL    HW226739   4.622   4.076  17.108 -0.2914 -2.4142 -0.9490
 5036SOL     OW26740   3.422   2.415   1.289  0.2675  0.0780  0.1460
 5036SOL    HW126741   3.427   2.380   1.200 -0.2401 -1.8262  0.8503
 5036SOL    HW226742   3.352   2.476   1.268  3.4730  3.8185  0.3631
 5037SOL     OW26743   3.614   3.014   2.408 -0.0399  0.1954  0.2808
 5037SOL    HW126744   3.570   3.084   2.361  1.4393  0.7269 -0.3376
 5037SOL    HW226745   3.556   2.938   2.402 -0.5901  0.5692  0.9363
 5038SOL     OW26746   0.281   0.477   2.309 -0.2839 -0.5832 -0.0723
 5038SOL    HW126747   0.309   0.402   2.361 -0.7985 -0.1222  0.8712
 5038SOL    HW226748   0.296   0.539   2.381 -1.5288  1.4826 -1.5879
 5039SOL     OW26749   4.387   4.643   5.011 -0.3297 -0.2387 -0.4088
 5039SOL    HW126750   4.469   4.647   4.960 -0.5232 -0.5215 -0.7486
 5039SOL    HW226751   4.387   4.549   5.030 -0.1921  0.0245  0.8347
 5040SOL     OW26752   4.518   3.438   0.013  0.1285  0.1051 -0.4383
 5040SOL    HW126753   4.471   3.508   0.060  2.8709  2.1791 -0.7823
 5040SOL    HW226754   4.578   3.403   0.079  2.4715  0.1961 -2.5329
 5041SOL     OW26755   1.974   1.989   5.691 -0.1766 -0.0106  0.0698
 5041SOL    HW126756   2.006   2.004   5.602 -1.8183 -0.1757 -0.5444
 5041SOL    HW226757   1.976   1.894   5.701 -0.2229 -0.1361 -1.1079
 5042SOL     OW26758   4.514   3.481   2.127 -0.3351  0.2936 -0.6793
 5042SOL    HW126759   4.443   3.428   2.090 -1.0517  0.7835  0.0091
 5042SOL    HW226760   4.464   3.560   2.148  0.0015 -0.3310  2.3825
 5043SOL     OW26761   3.892   0.581   4.473  0.3230 -0.1889 -0.5372
 5043SOL    HW126762   3.969   0.576   4.416  0.8193 -1.6290  0.2730
 5043SOL    HW226763   3.923   0.539   4.552  0.2167  2.3200  0.8437
 5044SOL     OW26764   3.898   1.794  12.674 -0.0802 -0.4129  0.4708
 5044SOL    HW126765   3.821   1.739  12.690 -1.5609  1.1109 -1.3546
 5044SOL    HW226766   3.895   1.852  12.750 -0.8180  0.5017 -0.2567
 5045SOL     OW26767   2.397   1.580  10.745  0.0991 -0.1781 -0.0432
 5045SOL    HW126768   2.373   1.643  10.677 -0.8581 -1.4382 -0.8742
 5045SOL    HW226769   2.340   1.510  10.712  0.9596 -0.3645 -1.1244
 5046SOL     OW26770   3.549   4.205   7.396  0.2039 -0.2200 -1.1216
 5046SOL    HW126771   3.509   4.187   7.481  2.2851  1.1403  0.1474
 5046SOL    HW226772   3.462   4.211   7.355 -0.0539  3.2466 -0.0925
 5047SOL     OW26773   3.826   4.407   9.259 -0.2791  0.3166 -0.4716
 5047SOL    HW126774   3.848   4.361   9.178 -3.0506 -0.4516 -0.7693
 5047SOL    HW226775   3.907   4.383   9.304 -0.7223 -0.5568 -0.1550
 5048SOL     OW26776   4.356   4.414  16.782 -0.2431 -0.3806 -0.3023
 5048SOL    HW126777   4.324   4.470  16.712 -0.2546  1.2231  0.9778
 5048SOL    HW226778   4.309   4.334  16.757  0.7970 -0.2734 -2.6497
 5049SOL     OW26779   0.768   0.562   3.438 -0.5874  0.4100  0.3374
 5049SOL    HW126780   0.763   0.537   3.346 -2.1184 -0.2798  0.6169
 5049SOL    HW226781   0.833   0.632   3.438 -0.7458  0.5511  2.8781
 5050SOL     OW26782   3.955   4.653   8.425 -0.1534 -0.1360  0.3473
 5050SOL    HW126783   3.863   4.653   8.399 -0.2749  0.8093  0.7779
 5050SOL    HW226784   3.959   4.710   8.502 -0.7819 -0.0617  0.3240
 5051SOL     OW26785   2.910   3.695  14.671  0.5842 -0.1100  0.3491
 5051SOL    HW126786   2.899   3.789  14.658 -0.0162 -0.2027  0.1685
 5051SOL    HW226787   2.982   3.694  14.734 -0.3321 -2.6483  1.3578
 5052SOL     OW26788   3.914   2.214   4.626  0.2714 -0.3258 -0.8683
 5052SOL    HW126789   3.820   2.227   4.618  0.5629  0.8713 -2.3542
 5052SOL    HW226790   3.921   2.147   4.693  0.9552  1.8861  1.2861
 5053SOL     OW26791   4.347   0.445   2.840 -0.0694  0.0490  0.6579
 5053SOL    HW126792   4.321   0.482   2.924 -0.5217  1.3709 -0.0610
 5053SOL    HW226793   4.270   0.466   2.787 -1.1115 -2.2669  1.2997
 5054SOL     OW26794   0.633   4.433   9.456  0.2135 -0.3539 -0.3291
 5054SOL    HW126795   0.621   4.349   9.500 -2.1176 -0.4006 -1.0606
 5054SOL    HW226796   0.555   4.479   9.487 -0.2971 -1.8050  0.5806
 5055SOL     OW26797   3.258   4.636   6.615  0.8487  0.1731 -0.7838
 5055SOL    HW126798   3.303   4.697   6.556  2.1380 -0.7830 -0.7871
 5055SOL    HW226799   3.182   4.622   6.559  1.1531 -0.1451 -1.1262
 5056SOL     OW26800   2.116   1.184  16.145 -0.3196  0.1017  0.0812
 5056SOL    HW126801   2.028   1.188  16.183 -0.4964  0.1540 -0.3308
 5056SOL    HW226802   2.162   1.260  16.180 -0.8284 -0.0603  1.1112
 5057SOL     OW26803   4.351   1.781   8.925 -0.0740  0.1136 -0.0030
 5057SOL    HW126804   4.356   1.725   9.003  1.6337  1.0260  0.5170
 5057SOL    HW226805   4.282   1.732   8.879 -1.8497  1.5140  1.1420
 5058SOL     OW26806   0.740   2.252   9.117  0.0620  0.8308  0.2700
 5058SOL    HW126807   0.712   2.162   9.131 -0.3380  0.8954 -0.1124
 5058SOL    HW226808   0.781   2.271   9.202 -1.3777 -1.0182  1.3715
 5059SOL     OW26809   2.243   3.415  10.948  0.5656  0.7385 -0.4853
 5059SOL    HW126810   2.238   3.341  10.888  0.3349  2.0617 -2.0932
 5059SOL    HW226811   2.238   3.374  11.034 -1.1527  1.9431 -0.0106
 5060SOL     OW26812   4.640   4.013   9.119 -0.5884  0.1278  0.0900
 5060SOL    HW126813   4.554   4.044   9.146 -0.9845 -1.5843  0.7432
 5060SOL    HW226814   4.645   3.942   9.182 -4.3524 -2.1696 -2.2305
 5061SOL     OW26815   4.466   0.211   3.426  0.5532  0.2354 -0.0665
 5061SOL    HW126816   4.383   0.247   3.458  0.2622  1.3168 -2.0664
 5061SOL    HW226817   4.450   0.204   3.332  0.8618 -0.4334 -0.0699
 5062SOL     OW26818   2.606   3.937   3.990 -0.4155  0.6464  0.1839
 5062SOL    HW126819   2.676   4.002   4.004  0.2786 -0.3413  1.2549
 5062SOL    HW226820   2.522   3.983   3.990 -2.0497 -2.3883  1.2630
 5063SOL     OW26821   2.474   2.677   5.929  0.4170  0.1109 -0.1752
 5063SOL    HW126822   2.437   2.764   5.944  2.0313  0.7402  0.1916
 5063SOL    HW226823   2.532   2.683   5.852  0.8384  1.1453  0.2320
 5064SOL     OW26824   3.259   0.373  16.996  0.3806 -0.1580 -0.0957
 5064SOL    HW126825   3.187   0.315  16.972 -0.8015  1.2919 -0.0697
 5064SOL    HW226826   3.320   0.305  17.021  0.9771  1.1295  1.9252
 5065SOL     OW26827   3.262   0.512   6.506 -0.4317  0.3304 -0.3433
 5065SOL    HW126828   3.245   0.543   6.595 -1.3805  0.6162 -0.6208
 5065SOL    HW226829   3.268   0.602   6.473  0.1619 -0.3828 -2.1317
 5066SOL     OW26830   3.337   0.372   6.125  0.0385  0.4238 -0.3877
 5066SOL    HW126831   3.417   0.418   6.100  0.6400  0.6254  1.8294
 5066SOL    HW226832   3.371   0.360   6.214  1.0173  1.0336 -0.6808
 5067SOL     OW26833   4.344   4.340   3.628  0.8688 -0.0731 -0.8458
 5067SOL    HW126834   4.312   4.423   3.664 -0.5446 -1.1962  0.5039
 5067SOL    HW226835   4.412   4.310   3.687 -0.8345 -0.7079  0.8049
 5068SOL     OW26836   4.385   1.419   2.051 -0.1255 -0.1357 -0.5184
 5068SOL    HW126837   4.388   1.513   2.037  0.8342 -0.3456 -1.7763
 5068SOL    HW226838   4.477   1.397   2.033  0.3172  2.4923 -1.5110
 5069SOL     OW26839   4.694   1.712  12.710  0.2872  0.2613  0.4598
 5069SOL    HW126840   4.680   1.797  12.754 -1.8150 -0.5046  1.2704
 5069SOL    HW226841   0.036   1.679  12.746  0.4168 -0.6822 -0.7199
 5070SOL     OW26842   1.514   0.153  13.740 -1.1273 -0.1915  0.2737
 5070SOL    HW126843   1.572   0.085  13.708 -0.4532  1.1364 -1.3080
 5070SOL    HW226844   1.563   0.224  13.700  1.9182 -3.0359 -1.0265
 5071SOL     OW26845   3.626   2.500   4.991 -0.0970  0.2140 -0.1485
 5071SOL    HW126846   3.626   2.572   5.054  1.4747  1.4738 -1.5514
 5071SOL    HW226847   3.714   2.470   5.013 -0.0207  1.0569  0.7252
 5072SOL     OW26848   0.102   2.610   7.613  0.4974 -0.1679  0.3078
 5072SOL    HW126849   0.119   2.558   7.535  2.1109  3.4790 -1.7603
 5072SOL    HW226850   0.070   2.542   7.673  2.6802  0.8178  2.6002
 5073SOL     OW26851   2.084   0.099   7.790  0.5702 -0.3213  0.8027
 5073SOL    HW126852   2.155   0.035   7.788 -0.6034 -1.5943 -0.5454
 5073SOL    HW226853   2.012   0.049   7.828 -0.0455  0.4778  0.6868
 5074SOL     OW26854   3.416   1.935   0.760  0.3330 -0.3578 -0.4115
 5074SOL    HW126855   3.401   1.904   0.671 -0.2644  0.3849 -0.5670
 5074SOL    HW226856   3.330   1.951   0.800  1.0112  0.9793  0.5117
 5075SOL     OW26857   3.480   2.901  16.663 -0.7692  0.6177  0.9914
 5075SOL    HW126858   3.448   2.863  16.745  0.8892 -2.6195  0.1753
 5075SOL    HW226859   3.503   2.989  16.691  0.1764 -0.0301  2.2849
 5076SOL     OW26860   3.136   4.577   8.829  0.0034 -0.4296  0.6602
 5076SOL    HW126861   3.162   4.545   8.743 -1.8568 -0.1651  0.0009
 5076SOL    HW226862   3.215   4.617   8.866 -1.0455  2.3353 -0.0862
 5077SOL     OW26863   1.390   1.341  17.605  0.5370 -0.8967 -0.0416
 5077SOL    HW126864   1.375   1.257  17.649 -0.0324 -0.5370  0.4476
 5077SOL    HW226865   1.309   1.386  17.627  2.5265  2.7160 -0.1679
 5078SOL     OW26866   3.910   1.220  14.619  0.3195 -0.5695  0.1607
 5078SOL    HW126867   3.986   1.194  14.568 -0.6886 -1.8623 -0.6516
 5078SOL    HW226868   3.839   1.172  14.577  0.3212  1.0116 -1.6476
 5079SOL     OW26869   4.714   3.783   9.236 -0.0717 -0.2751  0.4560
 5079SOL    HW126870   0.056   3.740   9.261  0.6020  0.1739 -0.9754
 5079SOL    HW226871   4.650   3.720   9.205 -2.1578  1.9364  0.2071
 5080SOL     OW26872   1.722   3.277   9.562  0.0824 -0.4708 -0.0899
 5080SOL    HW126873   1.681   3.209   9.615 -1.0505 -1.4677 -2.2849
 5080SOL    HW226874   1.789   3.317   9.618  0.0497  0.6356 -0.8558
 5081SOL     OW26875   0.493   3.867   1.799 -0.2053 -0.3676  0.5771
 5081SOL    HW126876   0.460   3.929   1.864  0.2188  1.3069 -0.8196
 5081SOL    HW226877   0.540   3.928   1.744 -0.6712 -0.3630  0.1804
 5082SOL     OW26878   1.782   3.187   3.456  0.1019  0.1711 -0.2829
 5082SOL    HW126879   1.780   3.107   3.404 -1.1340  0.4426 -0.6514
 5082SOL    HW226880   1.687   3.201   3.462 -0.3117 -2.6180 -0.1110
 5083SOL     OW26881   2.111   0.534   3.844 -0.0411 -0.4183  0.0039
 5083SOL    HW126882   2.184   0.478   3.819  0.9161  0.2063  1.4348
 5083SOL    HW226883   2.106   0.522   3.938 -0.5527 -0.4630 -0.0280
 5084SOL     OW26884   1.434   1.230   9.773 -0.0418  0.8706 -0.2487
 5084SOL    HW126885   1.482   1.255   9.852  0.7403 -1.3889 -0.0105
 5084SOL    HW226886   1.341   1.238   9.795 -0.5374 -0.7812 -1.8026
 5085SOL     OW26887   0.159   4.462   9.203 -0.5772 -0.5549 -0.2002
 5085SOL    HW126888   0.224   4.485   9.137 -0.5571  2.4479  0.8399
 5085SOL    HW226889   0.151   4.367   9.197  0.9808 -0.5893 -1.7475
 5086SOL     OW26890   3.794   4.673  16.060  0.1408  0.2567  0.2447
 5086SOL    HW126891   3.805   4.649  15.969  0.7280  2.1614 -0.1973
 5086SOL    HW226892   3.713   4.626  16.082 -0.4487  0.2685 -1.9551
 5087SOL     OW26893   0.302   1.193   9.142  0.3876 -0.4774  0.1904
 5087SOL    HW126894   0.320   1.127   9.075  3.2552 -1.1671  1.6278
 5087SOL    HW226895   0.314   1.141   9.222  1.0643 -1.6306 -0.6607
 5088SOL     OW26896   3.316   0.232  15.139  0.1213  0.1576  0.3845
 5088SOL    HW126897   3.255   0.273  15.077  1.8111  1.5227 -0.3833
 5088SOL    HW226898   3.312   0.302  15.205  1.1325 -2.1861  2.9509
 5089SOL     OW26899   2.686   3.534   3.700  0.1104 -0.2619 -0.1018
 5089SOL    HW126900   2.643   3.504   3.619  0.4179  0.8027 -0.6598
 5089SOL    HW226901   2.755   3.593   3.668 -0.7820 -0.0197 -1.5965
 5090SOL     OW26902   1.688   3.447   1.478 -0.4635  0.4056  1.0227
 5090SOL    HW126903   1.598   3.426   1.450 -0.1821  1.1758 -0.4675
 5090SOL    HW226904   1.708   3.516   1.414 -1.3870  0.8856  1.2406
 5091SOL     OW26905   2.216   0.999   5.871 -0.4381  0.8956  0.1006
 5091SOL    HW126906   2.260   1.050   5.940  0.9874 -1.1856  0.7427
 5091SOL    HW226907   2.267   0.918   5.872 -1.2460  0.3812  0.0479
 5092SOL     OW26908   2.778   3.065   7.457  0.0382  0.0867 -0.0238
 5092SOL    HW126909   2.758   2.978   7.423 -3.5182  0.7551  0.3906
 5092SOL    HW226910   2.693   3.109   7.454  1.3843  2.8412  2.7004
 5093SOL     OW26911   3.818   2.431   5.490 -0.6441  0.1799  0.3976
 5093SOL    HW126912   3.882   2.374   5.448 -1.4104 -1.1731  1.0921
 5093SOL    HW226913   3.795   2.380   5.567  0.4303  1.1364  1.3595
 5094SOL     OW26914   2.502   2.531   2.543 -0.2078  0.2756 -0.1872
 5094SOL    HW126915   2.518   2.594   2.473 -2.1916  1.0284  0.0251
 5094SOL    HW226916   2.431   2.574   2.593  0.2773 -1.1870  1.7608
 5095SOL     OW26917   2.370   4.578   3.411  0.2769 -0.0565 -0.2482
 5095SOL    HW126918   2.336   4.504   3.462  1.0032  0.8397  1.5500
 5095SOL    HW226919   2.395   4.532   3.331 -0.3690  1.4377 -1.3072
 5096SOL     OW26920   0.818   1.733   2.951 -0.1063 -0.2191 -0.7246
 5096SOL    HW126921   0.755   1.690   2.893 -1.1659 -0.8719  0.9059
 5096SOL    HW226922   0.838   1.657   3.006 -2.6671 -0.8452 -0.6474
 5097SOL     OW26923   4.169   3.183   8.228  0.0671 -0.1289 -1.2784
 5097SOL    HW126924   4.137   3.238   8.157  0.5908 -1.0631 -2.2341
 5097SOL    HW226925   4.177   3.099   8.182 -3.1586 -1.2408  0.2073
 5098SOL     OW26926   1.632   3.219   0.998 -0.2092  0.4826  0.3626
 5098SOL    HW126927   1.701   3.249   1.056 -0.3795  0.4550  0.5820
 5098SOL    HW226928   1.558   3.269   1.034 -1.2601 -0.9288  0.1805
 5099SOL     OW26929   2.515   2.542   2.069  0.2282 -0.6062  0.0934
 5099SOL    HW126930   2.606   2.511   2.064  0.1813 -0.3809 -2.0101
 5099SOL    HW226931   2.475   2.460   2.095 -0.8705  0.1526  0.7944
 5100SOL     OW26932   2.982   3.387   7.056  0.1088 -0.3178 -0.2956
 5100SOL    HW126933   2.948   3.347   6.975  2.6799 -0.4323 -1.3402
 5100SOL    HW226934   3.074   3.381   7.031 -0.5758  0.4856 -3.0289
 5101SOL     OW26935   2.625   0.997  10.776 -0.4496 -0.3767  0.4586
 5101SOL    HW126936   2.602   0.921  10.828 -0.6257  0.0054  0.9380
 5101SOL    HW226937   2.718   1.012  10.792 -0.3521  0.9315 -1.2456
 5102SOL     OW26938   3.643   3.522  12.070  0.4964 -0.0769 -0.5374
 5102SOL    HW126939   3.565   3.467  12.065 -0.1624  0.8332 -0.1864
 5102SOL    HW226940   3.665   3.489  12.157 -3.8170 -0.3231  0.4596
 5103SOL     OW26941   4.693   3.648  13.445  0.0478  0.0083 -0.8983
 5103SOL    HW126942   4.671   3.573  13.390  2.1896 -0.1024 -1.6121
 5103SOL    HW226943   0.037   3.664  13.402  1.8451 -0.6667  2.3245
 5104SOL     OW26944   3.031   1.757  16.625  0.1590 -0.4834  0.0712
 5104SOL    HW126945   3.108   1.714  16.662  0.5894  0.7694  0.6266
 5104SOL    HW226946   2.986   1.785  16.705 -1.1800  2.2277 -1.6156
 5105SOL     OW26947   4.034   1.811  13.438 -0.2916 -0.2333  0.5453
 5105SOL    HW126948   4.056   1.867  13.363 -0.1646 -0.8130  0.1426
 5105SOL    HW226949   4.029   1.883  13.501  0.4733 -0.2853  0.6762
 5106SOL     OW26950   0.500   3.625  15.772 -0.5313 -0.5328 -0.1772
 5106SOL    HW126951   0.539   3.668  15.696 -0.6135 -2.8641 -1.5458
 5106SOL    HW226952   0.410   3.657  15.770 -0.1533  0.6644  1.9722
 5107SOL     OW26953   1.737   4.577   5.423 -0.2273  0.2412 -0.0015
 5107SOL    HW126954   1.700   4.528   5.349  0.1218 -0.2792  0.1657
 5107SOL    HW226955   1.693   4.538   5.499  2.8556  0.6857  2.0239
 5108SOL     OW26956   1.829   2.341  15.940  0.7619 -0.0564 -0.2555
 5108SOL    HW126957   1.789   2.339  15.853 -0.3369  3.5525  0.1479
 5108SOL    HW226958   1.776   2.271  15.978 -0.0186  1.8577  2.1918
 5109SOL     OW26959   4.367   2.103   2.776 -0.1936  0.1062 -0.0376
 5109SOL    HW126960   4.431   2.147   2.721 -1.2038  0.4010 -0.9927
 5109SOL    HW226961   4.312   2.063   2.708 -0.9068 -0.8598  1.1002
 5110SOL     OW26962   3.129   2.495  13.819 -0.2827 -0.2226 -0.3863
 5110SOL    HW126963   3.214   2.528  13.790  0.0397  0.8489  1.7798
 5110SOL    HW226964   3.121   2.570  13.878 -0.5105  0.0668 -0.7821
 5111SOL     OW26965   0.850   0.157  10.959 -0.2482  0.3575  0.3208
 5111SOL    HW126966   0.827   0.118  10.875 -0.9348 -0.6897  0.9858
 5111SOL    HW226967   0.796   0.112  11.024  2.2898 -1.1046  1.4254
 5112SOL     OW26968   2.901   4.182   1.818 -0.1918  0.2798 -0.2447
 5112SOL    HW126969   2.929   4.176   1.727  0.5149  1.5834 -0.0995
 5112SOL    HW226970   2.813   4.145   1.809  0.4202 -0.7001 -2.2678
 5113SOL     OW26971   2.119   1.483   7.682 -0.1466  0.3398 -0.3786
 5113SOL    HW126972   2.035   1.474   7.638  0.1082 -0.8870 -0.6161
 5113SOL    HW226973   2.103   1.439   7.765 -1.8172  1.7520  0.0542
 5114SOL     OW26974   1.544   3.447  10.887  0.1595  0.0295 -0.8429
 5114SOL    HW126975   1.593   3.365  10.893 -0.6465 -0.4115 -0.2974
 5114SOL    HW226976   1.613   3.512  10.896  0.8768 -1.0019  0.9922
 5115SOL     OW26977   1.581   0.159   0.312 -0.4224  0.0836  0.2706
 5115SOL    HW126978   1.650   0.221   0.290 -1.5837  1.3896  0.3365
 5115SOL    HW226979   1.513   0.218   0.282 -0.3506 -0.8977 -1.8002
 5116SOL     OW26980   1.483   4.478   3.411  0.1610  0.8291 -0.6523
 5116SOL    HW126981   1.427   4.467   3.335 -1.7681 -0.6478  0.9729
 5116SOL    HW226982   1.459   4.569   3.429 -1.1826  0.4310 -0.4357
 5117SOL     OW26983   0.286   1.996   7.874 -0.3804  0.2673  0.1738
 5117SOL    HW126984   0.240   2.066   7.920 -0.9994  0.8036 -1.2584
 5117SOL    HW226985   0.371   2.039   7.866 -0.2348 -0.4458 -2.0790
 5118SOL     OW26986   2.208   2.692   7.284  0.7299  0.5201 -0.4751
 5118SOL    HW126987   2.138   2.698   7.219 -0.9777 -1.1294  1.1892
 5118SOL    HW226988   2.259   2.620   7.249 -0.7684 -0.1587 -1.2438
 5119SOL     OW26989   3.722   3.667   3.230 -0.1761 -0.0949  0.3526
 5119SOL    HW126990   3.769   3.740   3.268  1.3603 -0.9993  0.2047
 5119SOL    HW226991   3.795   3.613   3.200  0.1429  0.9645 -0.7607
 5120SOL     OW26992   1.762   0.592   7.568 -0.2383 -0.1772  0.3700
 5120SOL    HW126993   1.781   0.586   7.661 -0.5148  0.3603  0.4665
 5120SOL    HW226994   1.849   0.564   7.540 -1.3821 -2.2482 -1.0875
 5121SOL     OW26995   2.636   1.929   1.612 -0.0830  0.6746 -0.3898
 5121SOL    HW126996   2.624   1.954   1.704  2.0536 -1.6921  0.5217
 5121SOL    HW226997   2.731   1.917   1.615 -0.0874  0.7383  0.0075
 5122SOL     OW26998   4.661   1.596   1.735 -0.4949  0.4409 -0.5473
 5122SOL    HW126999   4.732   1.630   1.680 -1.3077  1.5226 -0.9206
 5122SOL    HW227000   4.643   1.508   1.701 -0.3615 -0.1306  0.8297
 5123SOL     OW27001   0.546   3.620   4.755 -0.3474 -0.0392 -0.2899
 5123SOL    HW127002   0.534   3.525   4.754  0.5390 -0.1559  0.4457
 5123SOL    HW227003   0.626   3.641   4.804 -1.2995 -1.0466  1.7218
 5124SOL     OW27004   4.103   1.748  12.928  0.3005 -0.4340 -0.0395
 5124SOL    HW127005   4.166   1.790  12.986  0.3881 -0.0161 -0.4440
 5124SOL    HW227006   4.022   1.796  12.942  1.3091  1.2629 -0.1216
 5125SOL     OW27007   4.623   4.253  16.868  0.3229  0.0420 -0.0976
 5125SOL    HW127008   4.699   4.248  16.925 -0.3225 -1.0165  0.6717
 5125SOL    HW227009   4.590   4.340  16.890 -1.2175 -0.7654  0.7986
 5126SOL     OW27010   4.271   0.802   7.360 -0.3975 -0.7781  0.0934
 5126SOL    HW127011   4.183   0.799   7.322  0.0278  0.7191 -1.0444
 5126SOL    HW227012   4.283   0.897   7.358  1.0380 -1.0128 -3.2847
 5127SOL     OW27013   2.124   4.055   8.687  0.0903  0.2071 -0.6468
 5127SOL    HW127014   2.036   4.031   8.659  0.2808  2.2785 -3.0592
 5127SOL    HW227015   2.163   3.973   8.718 -0.1956 -0.0570 -0.9850
 5128SOL     OW27016   0.849   2.222   1.559  0.0369  0.2746  0.2675
 5128SOL    HW127017   0.813   2.302   1.521 -2.0964 -0.7148  0.2247
 5128SOL    HW227018   0.775   2.162   1.558  0.8918 -0.8057  1.2701
 5129SOL     OW27019   3.065   0.263   7.694  0.0468  0.1817 -0.1082
 5129SOL    HW127020   2.976   0.290   7.718 -0.6513 -0.4238 -2.0232
 5129SOL    HW227021   3.083   0.289   7.604  1.2638  2.7577  0.8711
 5130SOL     OW27022   1.605   0.377  16.870  0.5050  0.5462 -0.1603
 5130SOL    HW127023   1.688   0.343  16.836  1.1270  2.4886 -0.6116
 5130SOL    HW227024   1.607   0.346  16.960 -2.1025  1.2309  0.1381
 5131SOL     OW27025   2.180   0.021   5.373 -0.2975  0.0766  0.6009
 5131SOL    HW127026   2.087   0.014   5.396  0.2764  0.5475  2.9730
 5131SOL    HW227027   2.189   4.670   5.345 -0.0627 -0.0288  1.0192
 5132SOL     OW27028   2.037   2.268   7.072  0.2080 -0.1901  0.4661
 5132SOL    HW127029   1.988   2.295   7.149 -0.6113 -0.4092  0.0267
 5132SOL    HW227030   2.115   2.322   7.084 -0.2950  1.1657 -2.3073
 5133SOL     OW27031   4.632   0.535   0.789 -0.4254 -0.7021  0.6891
 5133SOL    HW127032   4.693   0.569   0.855  0.8680  0.9224 -1.3528
 5133SOL    HW227033   4.578   0.613   0.776  0.7301  0.0264  0.3156
 5134SOL     OW27034   4.160   4.073   7.678  0.3162  0.4676  0.3917
 5134SOL    HW127035   4.214   3.999   7.650  0.3191  0.3760  0.6392
 5134SOL    HW227036   4.171   4.121   7.596 -1.5259 -0.4196 -0.3876
 5135SOL     OW27037   1.769   0.388   7.331  0.2299 -0.0477  0.1861
 5135SOL    HW127038   1.848   0.350   7.369  1.5343  2.5269  0.0260
 5135SOL    HW227039   1.702   0.333   7.372 -0.6479  0.7603 -0.1693
 5136SOL     OW27040   4.727   0.289  16.181 -0.3025  0.4795  0.6212
 5136SOL    HW127041   0.082   0.294  16.199  0.4717 -1.1139 -3.0544
 5136SOL    HW227042   4.695   0.337  16.258 -1.4087 -0.2396  0.6011
 5137SOL     OW27043   2.823   1.784   6.669 -0.3679  0.3874  0.1866
 5137SOL    HW127044   2.861   1.765   6.754 -0.0884  0.6277  0.1174
 5137SOL    HW227045   2.848   1.876   6.664 -0.3800  0.3098 -1.3998
 5138SOL     OW27046   1.854   1.492   4.610 -0.4371  0.0179  0.4861
 5138SOL    HW127047   1.911   1.417   4.628  0.3697 -0.0191 -2.2178
 5138SOL    HW227048   1.914   1.565   4.627 -1.9184  1.0713  1.1286
 5139SOL     OW27049   2.209   0.796   1.528  0.0333  0.1536 -0.4073
 5139SOL    HW127050   2.204   0.799   1.623  1.2168 -0.6975 -0.3319
 5139SOL    HW227051   2.302   0.787   1.510 -0.2531 -0.8359 -1.4409
 5140SOL     OW27052   1.105   3.410   3.985  0.2100 -0.2269 -0.3843
 5140SOL    HW127053   1.069   3.408   4.074 -0.9262  3.7717 -0.7584
 5140SOL    HW227054   1.079   3.497   3.957  1.3337  0.6807  1.3989
 5141SOL     OW27055   3.332   1.177  11.535 -0.1159 -0.2827  0.2510
 5141SOL    HW127056   3.264   1.151  11.598 -0.4954 -0.0917 -0.0760
 5141SOL    HW227057   3.294   1.258  11.503  2.0031 -0.1278 -1.8730
 5142SOL     OW27058   1.573   3.037   8.319 -0.1449 -0.3774 -0.2446
 5142SOL    HW127059   1.586   2.943   8.331 -0.0394 -0.1969  1.0722
 5142SOL    HW227060   1.487   3.052   8.358 -0.1827  1.1543 -0.9146
 5143SOL     OW27061   1.101   2.349   8.085 -0.2197  0.0197 -0.0489
 5143SOL    HW127062   1.098   2.391   7.999  2.1872  0.8033  0.2428
 5143SOL    HW227063   1.189   2.375   8.113 -0.6328  1.3620  0.0283
 5144SOL     OW27064   0.549   1.320   5.017 -0.6312  0.3875 -0.2748
 5144SOL    HW127065   0.537   1.243   5.072 -2.4524  0.4743 -0.5421
 5144SOL    HW227066   0.531   1.396   5.072 -0.4983  1.8137 -2.1785
 5145SOL     OW27067   2.387   2.082   9.305 -0.0870 -0.5980 -0.1630
 5145SOL    HW127068   2.356   2.172   9.299  0.5333 -0.3384  0.5261
 5145SOL    HW227069   2.460   2.073   9.243 -0.3892  0.0573 -0.6179
 5146SOL     OW27070   2.623   3.165   4.326  0.4593  0.4298 -0.0818
 5146SOL    HW127071   2.655   3.078   4.303 -1.0874 -0.3222  0.6719
 5146SOL    HW227072   2.622   3.169   4.422 -3.5391  3.5293 -0.2627
 5147SOL     OW27073   2.609   3.520  12.349  0.3068  0.2802  0.0158
 5147SOL    HW127074   2.599   3.533  12.255  0.2156  2.3245  0.3038
 5147SOL    HW227075   2.515   3.512  12.369  0.3268 -1.5497 -0.6935
 5148SOL     OW27076   2.491   3.386   9.872  0.3006 -0.6978  0.1887
 5148SOL    HW127077   2.499   3.361   9.780 -1.5869  0.4488 -0.2954
 5148SOL    HW227078   2.449   3.307   9.907  0.6141 -0.4013  1.2385
 5149SOL     OW27079   0.262   2.279  11.044 -0.5290  0.4347 -0.0279
 5149SOL    HW127080   0.170   2.272  11.069 -0.8635  0.3260 -1.2592
 5149SOL    HW227081   0.244   2.301  10.952  0.1514 -1.8418 -0.7167
 5150SOL     OW27082   2.562   0.486   8.109  0.4749 -1.0094 -0.2210
 5150SOL    HW127083   2.623   0.560   8.114 -1.2646  0.5121 -1.7961
 5150SOL    HW227084   2.518   0.510   8.028 -0.6586 -0.1272  0.6542
 5151SOL     OW27085   1.523   0.200   1.954  0.7451  0.8239  0.3350
 5151SOL    HW127086   1.484   0.219   2.040 -1.0998 -0.2470 -0.2710
 5151SOL    HW227087   1.548   0.289   1.929  3.5279  0.2259  1.0225
 5152SOL     OW27088   0.250   0.044  16.334 -0.2587 -0.4585  0.1614
 5152SOL    HW127089   0.325   0.098  16.308 -1.6447  1.9695  1.1630
 5152SOL    HW227090   0.215   0.099  16.404 -1.4547 -2.0278  0.7988
 5153SOL     OW27091   1.542   3.540   7.113 -0.2921  1.0580  1.2802
 5153SOL    HW127092   1.636   3.546   7.099 -0.4117 -0.9201 -0.4257
 5153SOL    HW227093   1.527   3.634   7.119  1.6539  1.5474 -1.6103
 5154SOL     OW27094   0.224   3.761  14.767 -0.8874 -0.2053 -0.4066
 5154SOL    HW127095   0.204   3.770  14.674  0.7214  1.7960 -0.5582
 5154SOL    HW227096   0.179   3.678  14.782 -2.0052  0.8012  1.6751
 5155SOL     OW27097   0.658   3.247  17.429 -0.2097 -0.2160 -0.1237
 5155SOL    HW127098   0.653   3.256  17.334 -0.0034  3.3763  0.2283
 5155SOL    HW227099   0.602   3.315  17.465  0.1078 -1.1307  2.1159
 5156SOL     OW27100   3.090   1.676   4.615 -0.0573  0.1489  0.0600
 5156SOL    HW127101   3.007   1.669   4.663  0.1395 -2.9282 -0.0464
 5156SOL    HW227102   3.096   1.588   4.579 -1.8412 -0.1553  0.5247
 5157SOL     OW27103   1.719   1.563   8.472  0.1238 -0.0179  0.0117
 5157SOL    HW127104   1.685   1.474   8.482 -1.3664  0.6891  1.2171
 5157SOL    HW227105   1.637   1.608   8.491  1.7523  1.6396  3.1710
 5158SOL     OW27106   3.140   1.147  11.717 -0.4101 -0.4261 -0.2946
 5158SOL    HW127107   3.173   1.106  11.797 -2.0876 -1.8674 -0.3460
 5158SOL    HW227108   3.088   1.072  11.690 -0.0869 -0.7321 -0.0673
 5159SOL     OW27109   4.093   2.015  13.274 -0.5600 -0.2902  0.0680
 5159SOL    HW127110   4.070   2.096  13.230 -0.1546 -1.0581 -1.5753
 5159SOL    HW227111   4.147   1.976  13.205  0.5324 -0.2243  0.8712
 5160SOL     OW27112   3.483   0.747   4.292  0.1331 -0.4510 -0.1674
 5160SOL    HW127113   3.452   0.657   4.299 -0.1971 -0.2484  0.8697
 5160SOL    HW227114   3.504   0.771   4.201 -2.4794 -2.0105 -1.1895
 5161SOL     OW27115   3.390   0.778   2.576  0.7964 -0.3359 -0.1278
 5161SOL    HW127116   3.469   0.782   2.630  0.1436  0.8315  0.7394
 5161SOL    HW227117   3.423   0.707   2.521 -0.4275 -2.0406  1.3403
 5162SOL     OW27118   1.714   0.074   4.720  0.1725  0.4542  0.3947
 5162SOL    HW127119   1.665   0.089   4.640  1.2313  3.6987  0.3341
 5162SOL    HW227120   1.695   0.154   4.770  1.0604  0.3805  0.8575
 5163SOL     OW27121   0.939   3.627   2.491  0.3464  0.5351  0.4979
 5163SOL    HW127122   1.004   3.645   2.423  0.1803 -0.5886  0.0366
 5163SOL    HW227123   0.995   3.579   2.552 -1.2544  0.0789  1.6178
 5164SOL     OW27124   4.552   1.241  13.165  0.4249 -0.3051 -0.1781
 5164SOL    HW127125   4.620   1.185  13.203 -0.6451 -0.5565  1.3505
 5164SOL    HW227126   4.527   1.190  13.088  0.0686  0.9519 -0.8807
 5165SOL     OW27127   4.488   1.623  17.555  0.1406  0.5352  0.3833
 5165SOL    HW127128   4.425   1.664  17.614  1.4427  0.2986  1.9404
 5165SOL    HW227129   4.500   1.531  17.582 -0.7340  0.6035  0.9796
 5166SOL     OW27130   1.119   4.657   2.707  0.4480 -0.7127 -0.4228
 5166SOL    HW127131   1.182   4.624   2.770 -0.3874 -1.3633  0.0724
 5166SOL    HW227132   1.057   4.714   2.753  0.7203 -1.5502  0.9582
 5167SOL     OW27133   0.150   0.108   4.192 -0.0206 -0.3541 -0.1588
 5167SOL    HW127134   0.095   0.181   4.221  0.0836 -1.4328  2.8151
 5167SOL    HW227135   0.235   0.130   4.231 -0.1929  0.3949 -0.2149
 5168SOL     OW27136   1.636   0.323  13.553  0.1727 -0.0594  0.1689
 5168SOL    HW127137   1.630   0.380  13.630  2.0088  0.5122 -0.0966
 5168SOL    HW227138   1.730   0.333  13.535  0.2271 -0.5526  0.1977
 5169SOL     OW27139   3.015   0.145   2.169  0.3992 -0.3699 -0.4267
 5169SOL    HW127140   2.976   0.091   2.238 -2.7604  1.4460 -0.8093
 5169SOL    HW227141   3.098   0.097   2.164  0.3184 -0.4402 -1.0572
 5170SOL     OW27142   1.149   4.670   7.845 -0.1164 -0.0109  0.6193
 5170SOL    HW127143   1.077   4.617   7.881 -2.2795  2.5546  0.0329
 5170SOL    HW227144   1.217   4.607   7.819 -0.3348  0.3193 -0.7672
 5171SOL     OW27145   1.164   3.851   4.252  0.7357  1.1576  0.9390
 5171SOL    HW127146   1.146   3.797   4.329  1.2772 -0.2192  0.0840
 5171SOL    HW227147   1.090   3.843   4.192  1.3664 -1.2912  0.5074
 5172SOL     OW27148   1.706   1.082   4.193 -0.1741  0.0804  0.9689
 5172SOL    HW127149   1.614   1.063   4.209 -0.7087  0.3343 -1.7995
 5172SOL    HW227150   1.714   1.013   4.127  1.3158 -0.1938  1.4410
 5173SOL     OW27151   3.333   0.259   1.506  0.1509 -0.3869  0.3797
 5173SOL    HW127152   3.349   0.329   1.570 -1.0330 -0.4653  0.7677
 5173SOL    HW227153   3.290   0.187   1.552 -0.2620 -0.3110  0.1142
 5174SOL     OW27154   1.789   1.369  11.887 -0.0972  0.7041  0.3566
 5174SOL    HW127155   1.742   1.300  11.839  1.9987 -1.2693  1.1396
 5174SOL    HW227156   1.875   1.330  11.871  0.7116  1.2488  3.3512
 5175SOL     OW27157   3.445   2.293  11.145 -0.1262  0.0021  0.1752
 5175SOL    HW127158   3.459   2.245  11.063 -1.5181  1.5811 -0.9900
 5175SOL    HW227159   3.399   2.215  11.176  0.5844 -0.6354 -0.3681
 5176SOL     OW27160   4.435   3.395  12.925 -0.2489 -0.1680  0.0325
 5176SOL    HW127161   4.447   3.440  12.842 -2.4886  1.7555  0.7517
 5176SOL    HW227162   4.347   3.359  12.925 -1.1373  1.9846  1.1503
 5177SOL     OW27163   2.674   4.478   1.053 -0.3245 -0.1785 -0.1739
 5177SOL    HW127164   2.597   4.535   1.046  0.3275  0.7086 -0.1101
 5177SOL    HW227165   2.738   4.535   1.096 -0.5556  0.0468 -0.1281
 5178SOL     OW27166   1.796   1.171  12.133 -0.3583  0.4729  0.0724
 5178SOL    HW127167   1.871   1.132  12.177  0.0730 -0.4104 -1.4274
 5178SOL    HW227168   1.794   1.106  12.062  0.2032  2.0774 -1.4210
 5179SOL     OW27169   2.024   4.317   3.207 -0.0521 -0.6872  0.5839
 5179SOL    HW127170   1.990   4.229   3.216 -1.1582 -0.2622  0.5743
 5179SOL    HW227171   2.096   4.299   3.146  0.0029 -2.3742  1.1668
 5180SOL     OW27172   4.449   4.731   9.139 -0.4887 -0.0161  0.2368
 5180SOL    HW127173   4.389   4.662   9.167  0.6328 -1.2402 -0.3934
 5180SOL    HW227174   4.534   4.705   9.174  1.6553  1.7945 -3.6625
 5181SOL     OW27175   0.194   2.075   7.423 -0.4881  0.4050  0.4461
 5181SOL    HW127176   0.272   2.019   7.427 -0.9620 -0.3929 -1.5231
 5181SOL    HW227177   0.156   2.082   7.511  0.5108  0.8114  0.8358
 5182SOL     OW27178   4.582   3.859   0.824 -0.0004 -0.4799  0.0743
 5182SOL    HW127179   4.628   3.916   0.763 -1.5086  2.0814  1.3199
 5182SOL    HW227180   4.510   3.828   0.768 -2.7058  3.7816  1.1295
 5183SOL     OW27181   1.016   0.994   7.783  0.0273 -0.7100  0.2566
 5183SOL    HW127182   0.989   0.941   7.859  2.4538 -0.9546  0.9516
 5183SOL    HW227183   0.975   0.940   7.716  1.2583  0.9028 -1.7935
 5184SOL     OW27184   1.621   4.305   0.845 -0.4006 -0.5265  0.2558
 5184SOL    HW127185   1.614   4.375   0.780  1.9663 -1.2413 -0.7687
 5184SOL    HW227186   1.569   4.232   0.810  2.8501 -1.9780 -1.5303
 5185SOL     OW27187   4.279   3.059   7.451 -0.6407  0.5473  0.1002
 5185SOL    HW127188   4.255   2.980   7.498 -0.0758  0.4999  0.3078
 5185SOL    HW227189   4.366   3.074   7.487 -0.7629 -3.9067  2.2095
 5186SOL     OW27190   2.966   0.898   1.317  0.0567 -0.0881  0.6016
 5186SOL    HW127191   3.022   0.971   1.342 -0.6553  0.6091  0.1537
 5186SOL    HW227192   3.004   0.831   1.374  2.8368  0.9203 -0.0829
 5187SOL     OW27193   2.662   0.251  10.769 -0.3426 -0.0034  0.0225
 5187SOL    HW127194   2.689   0.253  10.677  1.0301  1.0444  0.4398
 5187SOL    HW227195   2.738   0.293  10.811 -0.4009  0.4008 -0.2743
 5188SOL     OW27196   4.508   2.143  16.005 -0.3018  0.0546  0.3875
 5188SOL    HW127197   4.587   2.091  15.988  0.5154  1.9452 -1.6380
 5188SOL    HW227198   4.442   2.074  15.997 -0.9407  0.6905  0.1577
 5189SOL     OW27199   1.389   0.216  17.421 -0.6194  0.6336  0.0446
 5189SOL    HW127200   1.302   0.256  17.431 -0.6996  0.2663  0.8235
 5189SOL    HW227201   1.376   0.131  17.378  0.7202  0.4221  0.0560
 5190SOL     OW27202   3.128   3.930   4.481 -0.0817  0.1983 -0.1373
 5190SOL    HW127203   3.095   3.845   4.455  0.6649 -0.2721  0.4491
 5190SOL    HW227204   3.189   3.959   4.413  0.1077 -3.8055 -1.6191
 5191SOL     OW27205   2.916   2.702   7.725 -0.1337  0.1152 -0.8849
 5191SOL    HW127206   2.857   2.632   7.749  1.3066 -0.9329 -0.3916
 5191SOL    HW227207   2.996   2.663   7.761  0.5680  0.9632 -1.5108
 5192SOL     OW27208   1.907   4.282   9.865  0.2150  0.4738  0.2804
 5192SOL    HW127209   1.995   4.251   9.886 -0.2780 -0.0492  1.6401
 5192SOL    HW227210   1.874   4.284   9.955 -0.9531 -0.7987 -0.1177
 5193SOL     OW27211   4.380   0.185   8.215 -0.8906  0.5405 -0.0202
 5193SOL    HW127212   4.309   0.236   8.177 -1.9716 -1.0387 -0.1262
 5193SOL    HW227213   4.360   0.096   8.185  1.2608 -0.3184  1.0863
 5194SOL     OW27214   3.866   0.180   2.631  0.3884 -0.4403 -0.0766
 5194SOL    HW127215   3.897   0.089   2.635  0.1513 -0.6425 -2.5459
 5194SOL    HW227216   3.869   0.217   2.719 -0.4980 -3.1046  1.0978
 5195SOL     OW27217   1.453   0.302   7.188  0.1404 -0.0211  0.0005
 5195SOL    HW127218   1.464   0.207   7.195 -1.7682 -0.3989 -2.2821
 5195SOL    HW227219   1.470   0.334   7.277  3.5635  0.2975 -0.7574
 5196SOL     OW27220   3.859   3.382   4.068 -0.2765 -0.2903 -0.3409
 5196SOL    HW127221   3.791   3.395   4.134  2.1266  2.1425  1.6867
 5196SOL    HW227222   3.817   3.335   3.996 -2.6734  2.4955 -0.7217
 5197SOL     OW27223   3.239   1.313   5.978  0.2161 -0.1172 -0.2926
 5197SOL    HW127224   3.277   1.359   6.053  0.6088 -0.8014 -0.0773
 5197SOL    HW227225   3.268   1.223   5.995 -1.5346 -0.8527 -1.2997
 5198SOL     OW27226   1.279   2.782   2.312  0.5228 -0.6918 -0.3568
 5198SOL    HW127227   1.322   2.839   2.376 -1.0108 -1.6217  1.5127
 5198SOL    HW227228   1.262   2.842   2.239  0.2100 -1.1007 -0.6175
 5199SOL     OW27229   4.326   0.256   4.583 -0.3904  0.2918  0.0032
 5199SOL    HW127230   4.316   0.307   4.503 -0.6596  0.6927  0.3005
 5199SOL    HW227231   4.370   0.175   4.554 -1.4359 -0.2323 -0.1217
 5200SOL     OW27232   3.647   4.650   4.209  0.0967 -0.1651  0.2032
 5200SOL    HW127233   3.728   4.606   4.234  1.8364  2.0893 -1.4558
 5200SOL    HW227234   3.666   0.003   4.223 -0.5916  0.1173 -0.6717
 5201SOL     OW27235   2.196   2.079   4.616  0.4073  1.1174  0.1879
 5201SOL    HW127236   2.273   2.108   4.567  1.4802  0.6566  1.5727
 5201SOL    HW227237   2.232   1.995   4.643  0.1446  0.7412 -0.6480
 5202SOL     OW27238   2.327   2.249   6.686  0.1461 -0.2863 -0.0987
 5202SOL    HW127239   2.368   2.214   6.607  0.1950  0.4730 -0.4066
 5202SOL    HW227240   2.347   2.188   6.758  0.0447 -1.5210 -1.1074
 5203SOL     OW27241   0.071   2.747   1.486  0.0293 -0.5089  0.0964
 5203SOL    HW127242   0.028   2.780   1.407  0.1688 -0.2933  0.1092
 5203SOL    HW227243   4.734   2.693   1.502 -2.5352  2.9479 -0.5664
 5204SOL     OW27244   0.226   4.279   7.812 -0.4125 -0.3463 -0.0642
 5204SOL    HW127245   0.237   4.228   7.732  0.4309  0.2889 -0.3386
 5204SOL    HW227246   0.175   4.347   7.767  0.7583  0.5782  0.0218
 5205SOL     OW27247   2.738   3.430   7.226 -0.3141  0.3168 -0.5405
 5205SOL    HW127248   2.821   3.418   7.179  0.6430  0.2937  1.1786
 5205SOL    HW227249   2.690   3.353   7.197 -0.3385  0.6276 -1.3544
 5206SOL     OW27250   1.753   2.353   2.390 -0.3291 -0.4675  0.0383
 5206SOL    HW127251   1.749   2.423   2.456 -0.1247 -0.4793  0.0626
 5206SOL    HW227252   1.736   2.275   2.443  0.7293  0.2193  1.3829
 5207SOL     OW27253   3.201   1.409   3.913 -0.3566  0.0371 -0.1413
 5207SOL    HW127254   3.266   1.449   3.856 -0.3645  0.1037 -0.1040
 5207SOL    HW227255   3.158   1.355   3.847 -0.0111  0.1112 -0.4214
 5208SOL     OW27256   0.337   2.372  15.106  0.1406 -0.0233 -0.3837
 5208SOL    HW127257   0.424   2.334  15.094 -0.4449 -0.8924 -1.9098
 5208SOL    HW227258   0.329   2.419  15.023 -0.1854 -0.5850 -0.6771
 5209SOL     OW27259   0.971   4.394  15.073 -0.7388 -0.0778  0.2079
 5209SOL    HW127260   1.020   4.369  15.151  4.2589  0.9300 -2.6308
 5209SOL    HW227261   0.920   4.314  15.063  1.1757 -1.1302 -1.1535
 5210SOL     OW27262   2.803   4.262   8.475 -0.2661  0.3431  0.0023
 5210SOL    HW127263   2.860   4.336   8.498 -0.5808  1.6156 -3.2645
 5210SOL    HW227264   2.786   4.222   8.560  1.3376 -0.4701 -0.0736
 5211SOL     OW27265   3.439   4.371   4.799 -0.0353 -0.1998 -0.3423
 5211SOL    HW127266   3.439   4.460   4.764 -0.4042  0.5985  1.6670
 5211SOL    HW227267   3.533   4.357   4.798 -0.0141 -0.1168  0.5135
 5212SOL     OW27268   3.600   1.686   8.651  0.0033 -0.8621 -0.3124
 5212SOL    HW127269   3.693   1.695   8.631  0.3861 -0.4708  1.6016
 5212SOL    HW227270   3.574   1.618   8.590  0.6451  0.1683 -1.7473
 5213SOL     OW27271   0.392   1.550  10.580 -0.2741  0.5588  0.1436
 5213SOL    HW127272   0.412   1.551  10.673  0.7839 -1.1039 -0.0578
 5213SOL    HW227273   0.476   1.559  10.535  0.2425 -0.5674  0.8710
 5214SOL     OW27274   2.031   2.113  16.052 -0.4527 -0.3000 -0.7216
 5214SOL    HW127275   2.002   2.203  16.071 -0.5909 -0.4841 -0.0811
 5214SOL    HW227276   1.963   2.074  16.106 -0.0372 -1.9047 -1.3483
 5215SOL     OW27277   0.601   0.557   5.412 -0.5045  0.2456  0.2606
 5215SOL    HW127278   0.646   0.562   5.327 -0.3318 -2.9463  0.1649
 5215SOL    HW227279   0.548   0.479   5.398 -2.3364  1.6497 -0.6325
 5216SOL     OW27280   1.688   0.300  17.099  0.8747 -0.1533 -0.8450
 5216SOL    HW127281   1.775   0.326  17.128 -1.0690  0.9789  4.0472
 5216SOL    HW227282   1.684   0.214  17.141 -0.6765  0.6482  0.6834
 5217SOL     OW27283   2.465   1.292  17.072 -0.3160 -0.2678  0.1059
 5217SOL    HW127284   2.433   1.231  17.006  1.0973 -0.3765 -0.4832
 5217SOL    HW227285   2.505   1.359  17.017  0.3268 -1.2881 -0.6510
 5218SOL     OW27286   0.988   3.849  15.351  0.1119  0.0612 -0.0830
 5218SOL    HW127287   0.938   3.824  15.429  1.7906  1.5531  1.4763
 5218SOL    HW227288   1.073   3.805  15.354  0.7113  1.2635  0.6499
 5219SOL     OW27289   3.249   3.735  13.024  0.4617 -0.3767  0.0949
 5219SOL    HW127290   3.173   3.678  13.011  0.4866 -0.6154  0.9615
 5219SOL    HW227291   3.246   3.757  12.931 -1.5959  2.6361  0.8892
 5220SOL     OW27292   2.401   0.471   2.245 -0.4459  0.1939  0.4651
 5220SOL    HW127293   2.452   0.427   2.314  2.3807 -0.8774 -2.3175
 5220SOL    HW227294   2.397   0.558   2.285 -2.6249  0.6170 -0.6771
 5221SOL     OW27295   3.197   3.969   8.581  0.3029  0.4285 -0.0994
 5221SOL    HW127296   3.105   3.991   8.594 -0.0377 -1.2352  0.2783
 5221SOL    HW227297   3.179   3.889   8.532 -1.1168 -0.1281  1.3479
 5222SOL     OW27298   2.283   1.502   5.304  0.0756 -0.4201  0.1094
 5222SOL    HW127299   2.373   1.513   5.334  0.3448  0.1130 -0.8886
 5222SOL    HW227300   2.256   1.423   5.350 -0.6911  0.8470  1.8610
 5223SOL     OW27301   3.952   0.574   9.999 -0.1767 -0.4078 -1.1591
 5223SOL    HW127302   3.975   0.607  10.086 -2.3585 -2.6051  0.2647
 5223SOL    HW227303   3.956   0.656   9.951 -0.5047  0.3449  0.0807
 5224SOL     OW27304   3.105   0.854  16.532  0.4750  0.0338 -0.2989
 5224SOL    HW127305   3.101   0.772  16.581  0.8976  1.4427  2.0521
 5224SOL    HW227306   3.159   0.903  16.594 -1.2725  0.8494  0.5638
 5225SOL     OW27307   0.047   1.507   5.617  0.3974 -0.2924  0.2519
 5225SOL    HW127308   0.093   1.549   5.544  0.4181 -0.0712  0.3915
 5225SOL    HW227309   4.705   1.555   5.602 -0.4677 -1.5759  0.8686
 5226SOL     OW27310   3.906   2.898  14.182 -0.1777 -0.1575  0.4106
 5226SOL    HW127311   3.864   2.977  14.149  0.7012 -0.1437 -0.6656
 5226SOL    HW227312   3.849   2.826  14.157  2.2224 -1.0036 -2.5864
 5227SOL     OW27313   3.892   4.431  12.842  0.2877 -0.1555  0.1194
 5227SOL    HW127314   3.827   4.494  12.873  1.0883  0.2542  0.9258
 5227SOL    HW227315   3.876   4.361  12.905  0.3622 -0.1148  0.1821
 5228SOL     OW27316   1.882   4.179   2.310 -0.3331  0.0791 -0.1076
 5228SOL    HW127317   1.869   4.216   2.223  2.1696 -1.4091 -1.1146
 5228SOL    HW227318   1.833   4.236   2.369 -1.1701  0.6105 -1.3342
 5229SOL     OW27319   3.373   4.455   8.660 -0.6310  0.2883  0.1187
 5229SOL    HW127320   3.451   4.509   8.645 -1.2008  1.0712 -0.0323
 5229SOL    HW227321   3.407   4.366   8.673  1.6113  1.3337  1.2512
 5230SOL     OW27322   4.637   2.882   3.784 -0.6927  0.2978  0.1379
 5230SOL    HW127323   4.588   2.820   3.838 -1.0676  1.2705  0.9040
 5230SOL    HW227324   4.586   2.896   3.704  1.4163 -1.4323 -1.5191
 5231SOL     OW27325   1.971   3.621   0.548  0.5034 -0.8618  0.2235
 5231SOL    HW127326   2.045   3.619   0.486 -0.3745  0.4184 -0.8856
 5231SOL    HW227327   1.965   3.717   0.555  1.3310 -0.9621  2.1341
 5232SOL     OW27328   3.435   4.610  17.497  0.1997 -0.5249 -0.0815
 5232SOL    HW127329   3.384   4.559  17.434  0.2184 -0.5568 -0.0707
 5232SOL    HW227330   3.409   4.570  17.580  1.4467 -0.5080  0.3240
 5233SOL     OW27331   3.241   4.470   7.790  0.0140 -0.4400  0.3173
 5233SOL    HW127332   3.166   4.523   7.764  0.5782 -0.0651 -0.5525
 5233SOL    HW227333   3.311   4.532   7.767  0.9696 -1.9241 -0.7773
 5234SOL     OW27334   3.726   2.049   3.954  0.3423 -0.3367 -0.2452
 5234SOL    HW127335   3.724   1.958   3.926  0.4753 -0.9501  1.7697
 5234SOL    HW227336   3.819   2.068   3.942  0.4463  0.2760  1.4937
 5235SOL     OW27337   3.302   4.687   1.893 -0.0613 -0.1953  0.2886
 5235SOL    HW127338   3.281   4.710   1.984 -1.1294 -2.4008  0.6250
 5235SOL    HW227339   3.336   4.598   1.906  0.4299 -0.1779 -0.8642
 5236SOL     OW27340   1.730   2.748   3.442 -0.3993  0.8555 -0.1603
 5236SOL    HW127341   1.814   2.722   3.481 -0.9386  0.4562  0.7307
 5236SOL    HW227342   1.760   2.826   3.396 -0.5093  0.6681 -0.5531
 5237SOL     OW27343   1.427   3.054   4.609  0.6385 -0.1859  0.3462
 5237SOL    HW127344   1.335   3.028   4.616  0.6928 -0.7939 -1.3167
 5237SOL    HW227345   1.453   3.011   4.691  1.4717 -0.2671  0.0306
 5238SOL     OW27346   3.643   2.002  13.540  0.1177  0.0648  0.2722
 5238SOL    HW127347   3.568   1.958  13.579  0.9202 -2.0981 -0.6314
 5238SOL    HW227348   3.662   1.933  13.477 -0.2130  2.6888 -2.7372
 5239SOL     OW27349   0.521   1.155   4.162  1.1914  0.7631 -0.5287
 5239SOL    HW127350   0.570   1.126   4.239 -0.4678  2.0006  1.0075
 5239SOL    HW227351   0.520   1.081   4.101 -1.3866  0.1890  0.2226
 5240SOL     OW27352   1.005   3.809  16.493  0.3046 -0.0889  0.1037
 5240SOL    HW127353   1.097   3.824  16.471  0.6858 -1.0200  1.0863
 5240SOL    HW227354   0.993   3.868  16.567  0.4159  0.2666 -0.1605
 5241SOL     OW27355   2.457   0.214   6.494 -0.5255  0.2166  0.2628
 5241SOL    HW127356   2.490   0.302   6.476  0.9599 -0.1151  1.4099
 5241SOL    HW227357   2.523   0.161   6.449 -1.0796  1.6758 -2.2664
 5242SOL     OW27358   0.695   2.825   2.532 -0.5299 -0.0928  0.3006
 5242SOL    HW127359   0.708   2.920   2.524 -0.5071  0.0740  2.2680
 5242SOL    HW227360   0.784   2.795   2.513  0.4244  3.9725 -1.7442
 5243SOL     OW27361   3.787   3.172   8.454  0.4016 -0.6299  0.6778
 5243SOL    HW127362   3.764   3.192   8.544 -0.7699  1.9657 -0.2169
 5243SOL    HW227363   3.711   3.115   8.438 -1.0802  1.2765  0.9879
 5244SOL     OW27364   2.236   3.087  16.053 -0.4292  0.3610  0.4006
 5244SOL    HW127365   2.231   3.136  15.971 -2.7080 -1.2174 -0.3937
 5244SOL    HW227366   2.253   3.150  16.123  0.8147  0.7229 -0.2366
 5245SOL     OW27367   2.993   0.331   7.099 -0.6058  0.5580  0.2804
 5245SOL    HW127368   2.974   0.255   7.155  1.2449  0.2656  0.5244
 5245SOL    HW227369   2.928   0.389   7.138 -1.3742  0.1625 -0.4244
 5246SOL     OW27370   0.738   3.005  13.139  0.2859  0.5691  0.1332
 5246SOL    HW127371   0.670   2.938  13.140  1.5882 -0.8053 -1.5831
 5246SOL    HW227372   0.794   2.984  13.214 -1.1215 -1.0843  0.7053
 5247SOL     OW27373   0.617   1.707  13.394 -0.1775  0.7072  0.2996
 5247SOL    HW127374   0.698   1.683  13.439 -0.7832 -2.0478 -0.0832
 5247SOL    HW227375   0.559   1.663  13.455  0.5520  0.3776  0.7532
 5248SOL     OW27376   2.085   0.199   2.807 -0.3249  0.1002  0.2319
 5248SOL    HW127377   2.067   0.105   2.801 -1.2897  0.3999 -1.5623
 5248SOL    HW227378   1.995   0.230   2.801 -0.4094 -0.5750 -1.9669
 5249SOL     OW27379   1.541   4.028  11.265 -0.2747 -0.8239  0.0684
 5249SOL    HW127380   1.565   3.994  11.351 -1.0440  0.0112  0.6110
 5249SOL    HW227381   1.477   3.964  11.234  0.1067 -2.1060  1.8923
 5250SOL     OW27382   3.506   2.790  13.053  0.4333 -0.3073 -0.1038
 5250SOL    HW127383   3.483   2.732  13.126  0.2188 -0.7664 -0.5379
 5250SOL    HW227384   3.480   2.872  13.096  0.9185 -0.3132  0.2082
 5251SOL     OW27385   3.911   1.954   7.075  0.2859 -0.1328 -0.0999
 5251SOL    HW127386   3.912   1.959   7.170  1.1516 -0.2160 -0.1071
 5251SOL    HW227387   3.897   2.044   7.044  0.1725 -0.6659 -1.6225
 5252SOL     OW27388   0.124   1.514  11.441  0.3076 -0.0489 -0.0206
 5252SOL    HW127389   0.171   1.449  11.495 -0.9055 -2.3882 -1.7665
 5252SOL    HW227390   0.040   1.469  11.431  0.5450  0.1209 -2.7605
 5253SOL     OW27391   2.580   3.740   5.861 -0.1387 -0.0624  0.5075
 5253SOL    HW127392   2.604   3.804   5.928 -0.1226  1.8425 -1.3322
 5253SOL    HW227393   2.515   3.786   5.810  1.1064 -2.3634 -3.1541
 5254SOL     OW27394   4.497   1.665   2.234 -0.1529 -0.3234 -0.0809
 5254SOL    HW127395   4.509   1.570   2.240  0.4989 -0.4915 -3.6326
 5254SOL    HW227396   4.585   1.684   2.201  0.0217  1.0412  1.1763
 5255SOL     OW27397   1.044   3.425   7.510  0.1681 -0.0340  0.1543
 5255SOL    HW127398   1.110   3.469   7.564  0.8290 -2.2761  1.2206
 5255SOL    HW227399   1.000   3.370   7.575  0.6599  1.3654  1.6693
 5256SOL     OW27400   1.830   0.450  11.399 -0.0453 -0.9063  0.1473
 5256SOL    HW127401   1.863   0.404  11.321  1.4971  1.2217 -0.4599
 5256SOL    HW227402   1.786   0.522  11.354  0.3998  0.4612  1.9383
 5257SOL     OW27403   1.321   2.272   2.246  0.2376 -0.0869 -0.2686
 5257SOL    HW127404   1.291   2.360   2.269  2.5898  0.1844  1.7266
 5257SOL    HW227405   1.390   2.248   2.307 -0.3296  1.2223  0.8908
 5258SOL     OW27406   1.079   0.647  11.355 -0.1626 -0.2864  0.2174
 5258SOL    HW127407   1.140   0.577  11.334  0.7876  0.0704  1.8499
 5258SOL    HW227408   1.136   0.724  11.356 -0.2282 -0.2151 -0.8204
 5259SOL     OW27409   2.270   4.437   1.995 -0.0528  0.2515 -0.3382
 5259SOL    HW127410   2.261   4.463   2.086 -0.2534 -0.4338 -0.1611
 5259SOL    HW227411   2.272   4.526   1.960 -0.0178  0.1602 -0.5700
 5260SOL     OW27412   3.627   0.310   3.431 -0.0116  0.7519  0.4006
 5260SOL    HW127413   3.639   0.237   3.370  3.0218  2.8474 -1.5003
 5260SOL    HW227414   3.593   0.265   3.508  0.4181 -2.2688 -1.1369
 5261SOL     OW27415   3.700   3.922  17.569  0.1314 -0.4636  0.2619
 5261SOL    HW127416   3.693   3.921  17.664 -1.3935  1.6525  0.1854
 5261SOL    HW227417   3.733   3.836  17.544  1.5160  0.6734 -1.9187
 5262SOL     OW27418   1.371   2.275  16.444  0.4693  0.0258  0.0605
 5262SOL    HW127419   1.396   2.185  16.424 -2.4878 -1.3318  2.4965
 5262SOL    HW227420   1.280   2.269  16.472  0.5372 -1.2686 -0.0348
 5263SOL     OW27421   2.100   0.087   6.188 -0.7978 -0.0211 -0.2620
 5263SOL    HW127422   2.168   0.137   6.234 -1.0598  0.4135 -0.3458
 5263SOL    HW227423   2.054   0.046   6.262 -1.9178  3.2016  0.8340
 5264SOL     OW27424   3.799   4.440   3.171  0.1379  0.2797  0.4826
 5264SOL    HW127425   3.869   4.375   3.176  0.5891  0.6440 -1.0692
 5264SOL    HW227426   3.821   4.498   3.244 -3.0102  1.5014  0.4785
 5265SOL     OW27427   4.391   3.689   3.608  0.1534  0.2562 -0.2200
 5265SOL    HW127428   4.356   3.628   3.673  1.2831  0.9614  1.0625
 5265SOL    HW227429   4.469   3.730   3.647  0.9849 -1.7404  0.1997
 5266SOL     OW27430   2.342   3.147   9.638  0.3916  0.6332  0.4311
 5266SOL    HW127431   2.334   3.144   9.734  0.5865 -3.7114  0.2928
 5266SOL    HW227432   2.349   3.055   9.614  1.5459  0.9438 -0.3834
 5267SOL     OW27433   2.294   3.942  10.243 -0.9183  0.5813 -0.0135
 5267SOL    HW127434   2.357   4.012  10.259 -0.1955 -0.2190  0.7108
 5267SOL    HW227435   2.282   3.904  10.330 -0.6670 -1.6105 -0.9252
 5268SOL     OW27436   2.537   0.059  10.980 -0.0161 -0.1175  0.1549
 5268SOL    HW127437   2.499   4.732  10.924 -0.4851 -0.1623  0.5286
 5268SOL    HW227438   2.538   0.138  10.925  2.1263  1.0147  1.7960
 5269SOL     OW27439   3.464   4.154   1.232  0.6384 -0.4605 -0.4168
 5269SOL    HW127440   3.532   4.120   1.173 -1.4310 -2.7253 -1.4749
 5269SOL    HW227441   3.496   4.237   1.268  2.2422 -0.9178 -0.7725
 5270SOL     OW27442   3.689   3.824   3.902  0.1852  0.5955  0.2130
 5270SOL    HW127443   3.614   3.853   3.955  0.1655  1.5058 -0.3040
 5270SOL    HW227444   3.750   3.773   3.954  0.8899  1.7323  0.5173
 5271SOL     OW27445   2.005   0.500   7.458 -0.2856 -0.1831  0.2594
 5271SOL    HW127446   2.093   0.503   7.420 -0.2897  2.2385  0.4120
 5271SOL    HW227447   2.028   0.446   7.533 -1.3942 -1.1134 -0.0845
 5272SOL     OW27448   4.463   3.932   6.440  0.1226  0.0548 -0.4620
 5272SOL    HW127449   4.502   3.852   6.477 -0.3514  0.8945  1.8144
 5272SOL    HW227450   4.373   3.910   6.462  0.8236 -2.9902 -0.6320
 5273SOL     OW27451   2.436   3.177   8.162 -0.1175 -0.5226 -0.3512
 5273SOL    HW127452   2.412   3.085   8.158 -2.8626  0.0762  1.6453
 5273SOL    HW227453   2.406   3.223   8.084  1.3309 -0.5316 -0.9016
 5274SOL     OW27454   2.048   3.984   1.800 -0.3220  0.6222 -0.6636
 5274SOL    HW127455   2.135   3.967   1.764 -0.6712  0.4554 -1.4313
 5274SOL    HW227456   2.080   4.044   1.867 -1.4695 -0.8176  1.1738
 5275SOL     OW27457   0.536   2.346   8.475  0.1987  0.3018 -0.2133
 5275SOL    HW127458   0.589   2.295   8.537 -0.6611  2.6579  2.4761
 5275SOL    HW227459   0.466   2.375   8.533 -1.1575  0.6519 -2.0560
 5276SOL     OW27460   2.216   2.784   3.701 -0.2609 -0.0315  0.5638
 5276SOL    HW127461   2.225   2.794   3.795 -1.1782 -0.0389  0.6515
 5276SOL    HW227462   2.296   2.828   3.672 -1.3913  1.4668 -0.2943
 5277SOL     OW27463   1.527   3.262   1.780 -0.1453  0.4436  0.6489
 5277SOL    HW127464   1.468   3.321   1.828 -1.6418 -0.1833 -0.3890
 5277SOL    HW227465   1.585   3.320   1.731 -1.0108 -0.1477 -1.0848
 5278SOL     OW27466   3.445   1.374   4.960  0.4020  0.2473  0.2884
 5278SOL    HW127467   3.368   1.316   4.961  0.1984  0.5062 -1.2411
 5278SOL    HW227468   3.517   1.326   4.920  0.1205 -1.0232  1.2944
 5279SOL     OW27469   0.036   2.770   6.367  0.1793  0.4867  0.3640
 5279SOL    HW127470   0.088   2.721   6.431  0.9452  1.6837  0.6621
 5279SOL    HW227471   4.718   2.702   6.332 -0.2405  0.5771  0.8969
 5280SOL     OW27472   3.542   1.697   7.675 -0.0417 -0.2402  0.6039
 5280SOL    HW127473   3.612   1.633   7.681  0.1921  0.0661  1.2309
 5280SOL    HW227474   3.467   1.638   7.666 -0.6953  0.3493  2.0339
 5281SOL     OW27475   0.950   2.742   2.418 -0.3881  0.2598  0.0730
 5281SOL    HW127476   0.959   2.712   2.327  1.2167 -0.3426  0.4170
 5281SOL    HW227477   0.959   2.836   2.402  0.4679  0.5222  2.0727
 5282SOL     OW27478   3.891   1.712   2.791 -0.0958 -0.4727 -0.3597
 5282SOL    HW127479   3.813   1.755   2.756 -0.7631 -1.7297 -0.4139
 5282SOL    HW227480   3.934   1.672   2.715 -1.7615 -0.6310 -1.2197
 5283SOL     OW27481   4.660   2.330   5.736  0.5245  0.2101  0.2450
 5283SOL    HW127482   4.652   2.411   5.786 -0.3400 -0.0090  0.4714
 5283SOL    HW227483   4.569   2.320   5.706  0.1715  1.0199  1.0431
 5284SOL     OW27484   0.555   4.129  15.654  0.4221  0.0469  0.2342
 5284SOL    HW127485   0.634   4.156  15.607  1.8876  1.4990  3.5851
 5284SOL    HW227486   0.535   4.042  15.619  0.6768 -0.2594  0.8634
 5285SOL     OW27487   0.463   2.727   8.569 -0.2446  0.4403  0.1845
 5285SOL    HW127488   0.423   2.722   8.656 -0.9152 -0.5324 -0.1783
 5285SOL    HW227489   0.539   2.669   8.578 -1.7138 -1.2043  2.0959
 5286SOL     OW27490   1.249   0.123  13.773  0.1896  0.2455  0.5287
 5286SOL    HW127491   1.204   0.133  13.690  0.9120  2.0073  0.3667
 5286SOL    HW227492   1.336   0.162  13.770 -0.1357  1.0800  1.9962
 5287SOL     OW27493   3.645   2.677  11.515  0.5810  0.0679  0.2218
 5287SOL    HW127494   3.619   2.751  11.461  1.4772 -1.2684 -2.0100
 5287SOL    HW227495   3.617   2.605  11.460  0.4672  1.4464 -1.5086
 5288SOL     OW27496   0.732   0.310   4.550  0.0477 -0.0858  0.4226
 5288SOL    HW127497   0.808   0.357   4.517 -1.0957  1.0216 -0.6269
 5288SOL    HW227498   0.660   0.340   4.494  0.9998 -0.1159 -0.8057
 5289SOL     OW27499   3.626   4.043  14.378  0.3281  0.2484 -0.0437
 5289SOL    HW127500   3.633   4.042  14.473  0.6432  0.4704 -0.0659
 5289SOL    HW227501   3.544   4.090  14.361 -0.0733 -0.5751 -0.3934
 5290SOL     OW27502   1.081   0.893  12.886  0.1483 -0.6962 -0.1309
 5290SOL    HW127503   1.068   0.971  12.940 -0.7825 -2.2927  1.9556
 5290SOL    HW227504   1.127   0.925  12.809  1.0987  0.5267  0.9439
 5291SOL     OW27505   3.916   4.413   6.741 -0.0862  0.7739  0.1163
 5291SOL    HW127506   3.997   4.449   6.778  0.9564 -0.7091 -0.7168
 5291SOL    HW227507   3.880   4.374   6.821  0.0040  0.8433  0.1909
 5292SOL     OW27508   3.244   0.488   3.399  0.4151  0.7801  0.2396
 5292SOL    HW127509   3.224   0.581   3.407 -4.1581 -0.1479 -0.0392
 5292SOL    HW227510   3.215   0.453   3.483 -1.8110  0.1561 -0.7644
 5293SOL     OW27511   2.212   3.801   6.634 -0.0559 -0.8290 -0.2291
 5293SOL    HW127512   2.216   3.832   6.543  0.5096 -1.7154 -0.5125
 5293SOL    HW227513   2.218   3.711   6.600  0.7115 -2.1162  3.3568
 5294SOL     OW27514   2.129   0.567   6.105 -0.1432  0.8218  0.2152
 5294SOL    HW127515   2.202   0.528   6.058 -1.7060 -0.7655 -0.9400
 5294SOL    HW227516   2.074   0.594   6.031  0.8093 -1.1145 -1.2064
 5295SOL     OW27517   0.039   0.179  12.285  0.1464 -0.2520  0.3796
 5295SOL    HW127518   0.084   0.095  12.274 -0.7817 -0.8891  1.5194
 5295SOL    HW227519   0.087   0.221  12.357  0.9854  0.7604 -0.7545
 5296SOL     OW27520   3.256   0.769   3.378 -0.6004  0.0729 -0.0354
 5296SOL    HW127521   3.342   0.807   3.396  0.2858 -2.1024  0.2676
 5296SOL    HW227522   3.209   0.847   3.348 -0.1040  1.1149  1.9311
 5297SOL     OW27523   0.607   0.244   8.548  0.3676 -0.0949  0.0548
 5297SOL    HW127524   0.654   0.274   8.470 -0.8228 -0.2938 -0.7434
 5297SOL    HW227525   0.688   0.236   8.599  1.0826  0.5967 -0.9621
 5298SOL     OW27526   0.216   3.398   5.017  0.7340 -0.0249  0.0199
 5298SOL    HW127527   0.223   3.321   4.961 -0.9989  1.6645 -2.5153
 5298SOL    HW227528   0.190   3.360   5.100  0.0477  1.4685  0.4929
 5299SOL     OW27529   2.333   1.632   9.711  0.2538 -0.0635 -0.4511
 5299SOL    HW127530   2.281   1.591   9.780  1.5820  0.7313  1.0347
 5299SOL    HW227531   2.267   1.653   9.645 -0.8967  2.0302  1.3813
 5300SOL     OW27532   4.591   3.348   1.857  0.2351  0.1223  0.1537
 5300SOL    HW127533   4.505   3.329   1.821  0.0325  0.3415  0.5215
 5300SOL    HW227534   4.573   3.398   1.937 -1.7389  1.2240 -0.9941
 5301SOL     OW27535   0.404   1.915   8.741  0.8692 -0.4478 -0.1257
 5301SOL    HW127536   0.432   1.826   8.718 -0.1907 -1.1503  1.2890
 5301SOL    HW227537   0.324   1.921   8.689  0.5088 -2.0439  0.2362
 5302SOL     OW27538   0.379   1.438  13.976  0.2126 -0.0027  0.2317
 5302SOL    HW127539   0.342   1.477  13.897  0.1027  1.0818  0.8176
 5302SOL    HW227540   0.302   1.436  14.034 -0.0984  0.9286 -0.1440
 5303SOL     OW27541   2.058   3.850   6.857  0.1223  0.5578  0.4448
 5303SOL    HW127542   2.096   3.810   6.935 -0.8787 -2.0669 -0.4092
 5303SOL    HW227543   2.126   3.839   6.791  0.2673 -1.0128  0.8435
 5304SOL     OW27544   0.900   4.345   5.968  0.1404  0.2580  0.0537
 5304SOL    HW127545   0.811   4.374   5.987  0.0658  1.8093 -2.6334
 5304SOL    HW227546   0.951   4.426   5.967  1.1687 -0.3941 -1.5360
 5305SOL     OW27547   1.352   2.367  12.470  0.1554 -0.3724 -0.1319
 5305SOL    HW127548   1.390   2.428  12.534  0.3324 -0.4211 -0.1907
 5305SOL    HW227549   1.428   2.320  12.436 -0.3354 -1.0781 -0.2434
 5306SOL     OW27550   1.231   0.213  10.902  0.0806 -0.1376  0.4227
 5306SOL    HW127551   1.320   0.217  10.868  0.4130 -0.5644  1.2406
 5306SOL    HW227552   1.210   0.307  10.903 -0.8232 -0.3345 -1.2303
 5307SOL     OW27553   2.716   0.916   2.111  0.1358  0.4249  0.0254
 5307SOL    HW127554   2.746   0.907   2.021  2.4181 -0.8809  0.8803
 5307SOL    HW227555   2.621   0.908   2.106  0.0075  2.8291 -1.3114
 5308SOL     OW27556   1.949   4.125   3.615  0.2399  0.2201 -0.2103
 5308SOL    HW127557   1.946   4.089   3.527 -1.8138 -2.8580  1.1290
 5308SOL    HW227558   1.945   4.220   3.603  0.8514  0.0250 -2.0067
 5309SOL     OW27559   2.289   1.301  17.303  0.3069 -0.8752 -0.2233
 5309SOL    HW127560   2.341   1.317  17.225 -0.6106  0.7463 -0.4996
 5309SOL    HW227561   2.309   1.207  17.306  2.1205 -0.4683  0.9236
 5310SOL     OW27562   3.148   1.679   2.751  0.7986  0.2989  0.0434
 5310SOL    HW127563   3.119   1.638   2.832 -0.3841 -1.6038 -1.3428
 5310SOL    HW227564   3.097   1.760   2.765  0.8658  0.1581  1.1084
 5311SOL     OW27565   0.325   3.828   8.584  0.3800 -0.2552 -0.4577
 5311SOL    HW127566   0.302   3.883   8.509  0.9514  0.3281 -0.2001
 5311SOL    HW227567   0.368   3.888   8.645  1.0668  2.2518 -3.4082
 5312SOL     OW27568   0.499   2.100   4.905 -0.2922 -0.3788  0.1430
 5312SOL    HW127569   0.500   2.009   4.873 -1.2447  0.0420 -1.1095
 5312SOL    HW227570   0.565   2.105   4.974 -0.9875 -1.4015  0.8817
 5313SOL     OW27571   2.522   4.225  15.159 -0.1996  0.4757  0.2938
 5313SOL    HW127572   2.537   4.135  15.185  2.7946  1.9854  3.7535
 5313SOL    HW227573   2.445   4.248  15.212  0.4396  0.5142  1.1944
 5314SOL     OW27574   3.950   2.557   1.312 -0.3957  0.1240 -0.5102
 5314SOL    HW127575   3.890   2.546   1.386 -0.4191  1.3366 -0.3598
 5314SOL    HW227576   3.915   2.638   1.275  0.0655  0.0296 -1.1580
 5315SOL     OW27577   0.596   4.259   0.070 -0.2334  0.5603 -0.3353
 5315SOL    HW127578   0.638   4.343   0.090 -0.0116  0.4852 -0.4858
 5315SOL    HW227579   0.629   4.246  17.738 -2.7027 -2.3848 -0.7997
 5316SOL     OW27580   1.593   3.054  12.984  0.0585  0.7294 -0.3399
 5316SOL    HW127581   1.581   3.124  12.921 -0.6379  1.7791  0.9667
 5316SOL    HW227582   1.520   2.992  12.976 -1.0672  2.2316 -1.5240
 5317SOL     OW27583   0.585   4.507   6.296  1.1240 -0.1412  0.0719
 5317SOL    HW127584   0.615   4.528   6.384 -2.2464  2.0699  0.7228
 5317SOL    HW227585   0.535   4.587   6.279 -3.3121 -3.0497 -0.4786
 5318SOL     OW27586   2.287   3.814   5.145  0.2285  0.8367  0.1277
 5318SOL    HW127587   2.322   3.730   5.115 -1.0564  0.7477 -1.1387
 5318SOL    HW227588   2.214   3.789   5.202  0.8856  1.6597  1.3322
 5319SOL     OW27589   1.758   1.294   9.826  0.3385  0.2259 -0.0933
 5319SOL    HW127590   1.797   1.207   9.814 -1.9030 -0.9832  1.2349
 5319SOL    HW227591   1.727   1.298   9.916 -0.6529 -3.4619 -0.2614
 5320SOL     OW27592   3.432   0.329   7.319  0.3324 -0.4534  0.2071
 5320SOL    HW127593   3.462   0.248   7.361  0.5289 -1.1075 -1.1867
 5320SOL    HW227594   3.375   0.291   7.252  1.5491 -0.7065 -0.6928
 5321SOL     OW27595   4.058   1.548   4.063 -0.0039 -0.1283  0.2510
 5321SOL    HW127596   3.981   1.571   4.011 -0.2043  0.5563  0.8500
 5321SOL    HW227597   4.121   1.534   3.993 -2.4100  0.1371 -1.9431
 5322SOL     OW27598   0.912   0.176  12.819 -0.0372 -0.1567 -0.1453
 5322SOL    HW127599   0.853   0.249  12.803  1.7490  1.4345  0.5656
 5322SOL    HW227600   0.964   0.173  12.738  0.5022 -0.4219  0.2074
 5323SOL     OW27601   4.164   1.694   9.952 -0.3727 -0.4880  0.0420
 5323SOL    HW127602   4.176   1.773  10.005  0.6527 -1.4020  1.1819
 5323SOL    HW227603   4.253   1.681   9.920 -0.9067 -0.9562 -1.2540
 5324SOL     OW27604   2.864   0.256   5.758  0.0747  0.0979 -0.2127
 5324SOL    HW127605   2.945   0.209   5.737  0.3065  2.0981 -3.7340
 5324SOL    HW227606   2.806   0.186   5.788  0.0962 -0.5333 -1.6010
 5325SOL     OW27607   3.511   1.024   4.991 -0.3671  0.1088  0.9950
 5325SOL    HW127608   3.470   0.954   4.941  0.1157  1.0748 -0.7415
 5325SOL    HW227609   3.596   1.038   4.950 -1.1037 -1.1597 -0.9248
 5326SOL     OW27610   0.669   3.239   8.804 -0.2663 -0.1783 -0.6149
 5326SOL    HW127611   0.592   3.244   8.746 -1.8758 -0.3939  1.4891
 5326SOL    HW227612   0.709   3.157   8.774  0.8370 -0.2897  1.1638
 5327SOL     OW27613   0.619   1.172   8.656  0.0256  0.5904  0.2689
 5327SOL    HW127614   0.620   1.190   8.750 -1.4775 -3.0747  1.0222
 5327SOL    HW227615   0.575   1.255   8.638 -1.5146 -0.7555 -2.1450
 5328SOL     OW27616   2.718   3.096   1.774  0.2119 -0.5532 -0.3839
 5328SOL    HW127617   2.679   3.009   1.765  1.6630 -1.3993  1.5734
 5328SOL    HW227618   2.641   3.153   1.767  0.6060  0.3471  2.7882
 5329SOL     OW27619   3.655   3.693   7.548  0.2387 -0.0460 -0.3947
 5329SOL    HW127620   3.567   3.731   7.546  0.1980 -0.1311 -0.2910
 5329SOL    HW227621   3.687   3.724   7.464  0.8776 -3.1573 -1.3119
 5330SOL     OW27622   3.816   1.055   4.322 -0.6442 -0.3118 -0.3345
 5330SOL    HW127623   3.780   0.970   4.349  2.0040 -0.9128  1.2722
 5330SOL    HW227624   3.877   1.060   4.395  1.5113 -1.7601 -2.0269
 5331SOL     OW27625   1.279   4.358   9.416 -0.4767  0.1949 -0.5713
 5331SOL    HW127626   1.239   4.324   9.336  4.2648 -2.2544 -1.8773
 5331SOL    HW227627   1.346   4.413   9.377  0.9972 -0.6697  0.7582
 5332SOL     OW27628   3.563   3.009  17.080  0.2622 -1.3461 -0.3950
 5332SOL    HW127629   3.615   3.026  17.001 -0.8175  0.3237 -0.7568
 5332SOL    HW227630   3.607   2.926  17.095  0.8321 -1.1122 -0.7481
 5333SOL     OW27631   3.070   1.018  15.458  0.3655  0.4800 -0.0372
 5333SOL    HW127632   3.063   0.965  15.379 -0.1551  1.2087 -0.4836
 5333SOL    HW227633   3.056   1.107  15.425 -1.8975  0.2201  0.1620
 5334SOL     OW27634   4.300   0.939   4.620  0.3831 -0.1570 -0.2374
 5334SOL    HW127635   4.381   0.988   4.638  0.4162  0.7342 -2.7291
 5334SOL    HW227636   4.300   0.878   4.693  0.1581  0.4937  0.3060
 5335SOL     OW27637   2.629   3.606  12.105 -0.0374 -0.6532  0.5316
 5335SOL    HW127638   2.709   3.627  12.153  1.2563 -2.7211 -0.7227
 5335SOL    HW227639   2.665   3.613  12.016 -0.7894 -0.6195  0.2322
 5336SOL     OW27640   0.564   3.172  11.280 -0.0474  0.2348  0.2461
 5336SOL    HW127641   0.638   3.135  11.231 -0.8751 -1.5686  0.3638
 5336SOL    HW227642   0.533   3.088  11.314 -0.8358  0.5768  0.3520
 5337SOL     OW27643   3.676   3.578   2.438 -0.3405 -0.0737 -0.0554
 5337SOL    HW127644   3.722   3.555   2.357  1.1454 -1.1539  1.0924
 5337SOL    HW227645   3.599   3.522   2.433 -0.6146  0.1137  2.1295
 5338SOL     OW27646   4.250   1.303   8.682  0.2700  0.3990  0.4399
 5338SOL    HW127647   4.284   1.369   8.742 -1.9090  2.3927 -0.5391
 5338SOL    HW227648   4.155   1.300   8.688  0.1212  2.9735 -0.9478
 5339SOL     OW27649   0.731   0.235  12.043 -0.2005 -0.7116 -0.6445
 5339SOL    HW127650   0.767   0.305  11.988  0.5301  0.6805  1.5879
 5339SOL    HW227651   0.679   0.288  12.104  1.1125 -0.1932  0.0296
 5340SOL     OW27652   3.673   3.635   2.883 -0.0758 -0.3008 -0.1939
 5340SOL    HW127653   3.586   3.605   2.859 -0.1057 -0.4478  0.0991
 5340SOL    HW227654   3.644   3.719   2.919 -2.7391 -1.2403 -0.1769
 5341SOL     OW27655   3.841   0.349   9.855 -0.2670 -0.5095 -0.3733
 5341SOL    HW127656   3.875   0.346   9.766 -2.0648 -1.5625 -1.0198
 5341SOL    HW227657   3.894   0.420   9.890 -0.8198  0.4312 -1.4840
 5342SOL     OW27658   2.403   4.462   5.693  0.0619  0.1267 -0.0234
 5342SOL    HW127659   2.448   4.517   5.629 -0.1193 -1.8629 -1.8261
 5342SOL    HW227660   2.324   4.448   5.641  0.6159 -1.0466 -0.5300
 5343SOL     OW27661   4.583   0.720   4.991 -0.4138  0.0161 -0.8209
 5343SOL    HW127662   4.646   0.654   4.962 -1.3384 -0.8938 -0.7530
 5343SOL    HW227663   4.632   0.802   4.987 -0.1592  0.0252  2.6640
 5344SOL     OW27664   0.547   4.003  17.607 -0.0161  0.2340  0.5077
 5344SOL    HW127665   0.641   3.996  17.592 -0.0958 -0.2885  0.2429
 5344SOL    HW227666   0.538   4.003  17.702  1.4393  0.3174  0.6358
 5345SOL     OW27667   3.623   4.200   0.278  0.1782  0.1775  0.6814
 5345SOL    HW127668   3.668   4.284   0.290 -1.5705  0.9290  2.0143
 5345SOL    HW227669   3.698   4.144   0.297 -0.0554  0.1137  1.4044
 5346SOL     OW27670   2.401   4.321   1.797  0.0932 -0.3154  0.5619
 5346SOL    HW127671   2.427   4.394   1.740 -1.5934 -0.3328 -0.2386
 5346SOL    HW227672   2.350   4.363   1.866 -0.6465 -0.0404 -0.1544
 5347SOL     OW27673   1.436   4.168  12.345  0.3749 -0.3542 -0.0525
 5347SOL    HW127674   1.390   4.221  12.410 -1.2688  0.2514 -1.6827
 5347SOL    HW227675   1.513   4.146  12.397 -0.0294  0.9749  1.1230
 5348SOL     OW27676   1.504   2.647   2.436  0.3921  0.2822 -0.4879
 5348SOL    HW127677   1.466   2.643   2.524 -1.1115 -0.9186 -1.2038
 5348SOL    HW227678   1.434   2.694   2.391 -1.9616  0.6385  3.5243
 5349SOL     OW27679   0.404   1.251   3.597 -0.3729  0.2950  0.5212
 5349SOL    HW127680   0.456   1.329   3.577  1.4169 -0.0641  3.7432
 5349SOL    HW227681   0.348   1.236   3.521 -1.0801 -2.9822  1.6866
 5350SOL     OW27682   3.983   4.310   4.822  0.2026 -0.4277 -0.1856
 5350SOL    HW127683   4.067   4.274   4.851 -0.1259 -1.0350  0.0166
 5350SOL    HW227684   3.996   4.404   4.834  0.4322 -0.7690  2.2898
 5351SOL     OW27685   4.328   2.568   5.350  0.2744  0.0436 -0.8465
 5351SOL    HW127686   4.356   2.614   5.271  2.8192 -0.3123 -0.1280
 5351SOL    HW227687   4.386   2.493   5.355 -0.3019 -0.3067  0.5813
 5352SOL     OW27688   1.972   4.716   6.392 -0.4211 -0.1753 -0.2515
 5352SOL    HW127689   1.878   4.703   6.396 -0.4335  0.2905  0.9777
 5352SOL    HW227690   1.999   4.648   6.454 -3.0487 -1.1194 -0.1455
 5353SOL     OW27691   3.802   4.281   6.953  0.7545 -0.7521 -0.0164
 5353SOL    HW127692   3.879   4.227   6.969  1.3744 -0.3549 -1.6240
 5353SOL    HW227693   3.746   4.231   7.012 -1.1430  1.4224  0.0308
 5354SOL     OW27694   4.335   1.542   9.671 -0.1931  0.2953  0.0718
 5354SOL    HW127695   4.386   1.538   9.752 -1.2367  2.3819  0.8385
 5354SOL    HW227696   4.347   1.633   9.645  0.2144  0.5326  1.0975
 5355SOL     OW27697   3.318   2.724   6.919 -0.0488  0.0806 -0.6144
 5355SOL    HW127698   3.258   2.713   6.845  1.1856  0.9394 -1.7402
 5355SOL    HW227699   3.325   2.817   6.940  0.1789  0.2457 -1.4363
 5356SOL     OW27700   0.270   4.200   1.733  0.5977 -0.3550 -0.2536
 5356SOL    HW127701   0.354   4.244   1.748  0.9733 -0.7562 -1.1720
 5356SOL    HW227702   0.293   4.150   1.654 -1.0690  1.2458 -1.7452
 5357SOL     OW27703   0.936   3.945   3.889 -0.3510  0.0591 -0.4135
 5357SOL    HW127704   0.937   4.030   3.935  0.7791 -0.1396 -0.0647
 5357SOL    HW227705   0.901   3.891   3.960 -1.3373 -0.1462 -1.0611
 5358SOL     OW27706   0.114   4.379   8.311 -0.4893  0.5652  0.3343
 5358SOL    HW127707   0.118   4.418   8.398 -0.1888 -0.0839  0.6074
 5358SOL    HW227708   0.069   4.450   8.263 -0.8774 -0.8349 -1.3753
 5359SOL     OW27709   1.384   1.719   2.015 -0.7519  0.2233 -0.3597
 5359SOL    HW127710   1.289   1.722   2.020 -0.8150 -1.2324 -0.9194
 5359SOL    HW227711   1.407   1.718   2.108 -3.3749  1.6033  0.2767
 5360SOL     OW27712   4.164   0.770   5.270 -0.6540 -0.2846 -0.4508
 5360SOL    HW127713   4.215   0.746   5.192 -2.4232 -1.1313 -1.3560
 5360SOL    HW227714   4.084   0.813   5.241 -0.0223  0.3548 -1.2453
 5361SOL     OW27715   4.296   2.569   4.573 -0.5404 -0.3602  0.3935
 5361SOL    HW127716   4.318   2.626   4.499  1.3574 -0.3364  0.9831
 5361SOL    HW227717   4.210   2.602   4.598 -0.8677  0.4499 -1.7759
 5362SOL     OW27718   0.306   4.234   4.505 -0.1933 -0.1516  0.0556
 5362SOL    HW127719   0.214   4.239   4.531 -0.4751 -0.0213 -0.9691
 5362SOL    HW227720   0.310   4.139   4.505 -0.9548 -0.1917  1.3914
 5363SOL     OW27721   3.780   3.470   9.938 -0.3257  0.1662 -0.9002
 5363SOL    HW127722   3.772   3.549   9.992  2.5226 -0.3781  0.3140
 5363SOL    HW227723   3.724   3.422   9.998 -1.7684 -0.0295 -2.4152
 5364SOL     OW27724   3.764   2.738   6.356  0.5620 -0.2674 -0.0260
 5364SOL    HW127725   3.844   2.685   6.358 -0.6452 -2.0505  0.7798
 5364SOL    HW227726   3.705   2.703   6.423  0.9795  1.5528  1.2855
 5365SOL     OW27727   2.677   4.559   5.153  0.4801  0.0092 -0.2160
 5365SOL    HW127728   2.753   4.595   5.108  1.2057 -0.4271  0.6614
 5365SOL    HW227729   2.710   4.475   5.185 -0.0519  0.0632  0.4586
 5366SOL     OW27730   4.638   2.717   7.497 -0.8713 -0.1662  0.1832
 5366SOL    HW127731   4.585   2.657   7.550  1.2140 -1.0415  1.2946
 5366SOL    HW227732   4.723   2.692   7.534 -1.3333 -1.1171  0.6214
 5367SOL     OW27733   3.610   1.024   4.547  0.5169  0.3281  0.4398
 5367SOL    HW127734   3.635   0.944   4.502  0.7900 -0.0309  1.2305
 5367SOL    HW227735   3.560   1.070   4.480  1.6622 -2.0620 -2.0129
 5368SOL     OW27736   2.607   0.718   0.430  0.1020  0.3153  0.2794
 5368SOL    HW127737   2.680   0.754   0.379  0.2937 -2.1977 -1.2284
 5368SOL    HW227738   2.573   0.803   0.458  0.5856  1.0790 -1.3950
 5369SOL     OW27739   2.595   1.322   6.970 -0.0307 -0.1673 -0.0153
 5369SOL    HW127740   2.524   1.286   6.917  1.2599 -0.2093 -1.7113
 5369SOL    HW227741   2.611   1.259   7.041 -2.6113 -1.1663 -0.3001
 5370SOL     OW27742   2.408   2.115   6.316 -0.2553 -0.6088 -0.1963
 5370SOL    HW127743   2.366   2.185   6.267  1.2887  1.7886  1.9531
 5370SOL    HW227744   2.425   2.056   6.243 -0.6896 -0.6758 -0.2455
 5371SOL     OW27745   1.705   4.428   5.187 -0.2821 -0.0519  0.1536
 5371SOL    HW127746   1.785   4.466   5.152 -1.0674  2.4791  1.1430
 5371SOL    HW227747   1.727   4.341   5.153 -1.1670  0.2885 -1.2967
 5372SOL     OW27748   1.423   1.576   0.706 -0.3927 -0.6152  0.3543
 5372SOL    HW127749   1.491   1.551   0.770  0.2495  0.6739  0.1921
 5372SOL    HW227750   1.342   1.538   0.739 -0.7555 -0.4962 -0.4012
 5373SOL     OW27751   0.126   4.175   7.279  0.2116 -0.0855 -0.2645
 5373SOL    HW127752   0.032   4.190   7.268 -0.3406 -1.5368  2.3641
 5373SOL    HW227753   0.116   4.084   7.250  1.5410  0.6381 -2.8792
 5374SOL     OW27754   3.357   1.150   0.779 -0.4230 -0.0797  0.1788
 5374SOL    HW127755   3.333   1.128   0.689 -0.3460  1.5526 -0.2508
 5374SOL    HW227756   3.451   1.161   0.767 -0.2319 -0.3455  1.4978
 5375SOL     OW27757   2.579   4.463  14.211 -0.2644 -0.0099 -0.0399
 5375SOL    HW127758   2.566   4.539  14.155  0.1465  0.1874  0.1320
 5375SOL    HW227759   2.601   4.393  14.150  1.0647 -0.9414  1.4978
 5376SOL     OW27760   3.704   0.791   6.410 -0.5205 -0.4342 -0.0923
 5376SOL    HW127761   3.787   0.837   6.421 -0.4830 -0.4814 -0.1767
 5376SOL    HW227762   3.631   0.852   6.424  0.9307  1.0187  1.1819
 5377SOL     OW27763   0.838   1.647  10.887 -0.0633  0.2644  0.2085
 5377SOL    HW127764   0.825   1.735  10.852 -1.8784  0.4873  1.4161
 5377SOL    HW227765   0.787   1.664  10.966  0.4815  1.7301  0.2570
 5378SOL     OW27766   0.669   4.527   5.216 -0.3983  0.1394 -0.1537
 5378SOL    HW127767   0.711   4.613   5.216  2.1465 -1.1033 -0.9911
 5378SOL    HW227768   0.732   4.475   5.267  0.5141  0.1657 -1.2395
 5379SOL     OW27769   0.359   3.349   8.752  0.2164 -0.4056  0.2153
 5379SOL    HW127770   0.395   3.427   8.709  1.5230 -2.1246 -1.8422
 5379SOL    HW227771   0.351   3.368   8.845  1.6953 -2.3189  0.7293
 5380SOL     OW27772   4.035   3.100   3.983  0.1539 -0.0037 -0.6052
 5380SOL    HW127773   3.975   3.025   3.979 -0.5039  0.5257 -0.5422
 5380SOL    HW227774   4.013   3.142   4.066 -0.8267 -2.0908  0.1939
 5381SOL     OW27775   1.309   3.734   3.880  0.2519  0.1433 -0.1420
 5381SOL    HW127776   1.331   3.642   3.864  1.5308  0.3488  0.4016
 5381SOL    HW227777   1.400   3.763   3.878 -0.0520  1.0742 -0.2219
 5382SOL     OW27778   1.258   2.975   2.073 -0.3760  0.1394 -0.1555
 5382SOL    HW127779   1.262   3.066   2.100  2.3275 -0.1674  0.4861
 5382SOL    HW227780   1.348   2.971   2.040  0.7544  0.5215  2.9370
 5383SOL     OW27781   0.892   3.084  17.594 -0.0227  0.0415 -0.2973
 5383SOL    HW127782   0.869   3.084  17.686  1.3717 -0.4023  0.0605
 5383SOL    HW227783   0.900   2.989  17.581 -0.7540  0.0600 -0.8438
 5384SOL     OW27784   3.993   0.273   3.441 -0.3123  0.3772 -0.1534
 5384SOL    HW127785   3.991   0.244   3.533 -1.1098 -3.8079 -1.5075
 5384SOL    HW227786   3.975   0.187   3.403  0.5310  0.5806 -1.0214
 5385SOL     OW27787   3.449   2.905  13.664  0.0692  0.5705 -0.2110
 5385SOL    HW127788   3.474   2.926  13.574 -0.3470  2.9188  0.2308
 5385SOL    HW227789   3.477   2.981  13.716  0.8329  0.3087 -0.2319
 5386SOL     OW27790   1.976   1.083   5.835 -0.0728  0.2076 -0.3154
 5386SOL    HW127791   1.999   1.103   5.744 -0.7175  2.6709  0.0583
 5386SOL    HW227792   2.066   1.070   5.865  0.5714  1.6238 -1.6068
 5387SOL     OW27793   0.649   0.374  13.518 -0.2547 -0.1447 -0.1017
 5387SOL    HW127794   0.739   0.347  13.500 -0.3934 -1.1314  0.6754
 5387SOL    HW227795   0.602   0.357  13.436 -1.0893  0.6330  0.2093
 5388SOL     OW27796   4.118   3.632   4.391 -0.2520  0.1181  0.6286
 5388SOL    HW127797   4.155   3.701   4.336 -4.3996  1.1593 -0.8986
 5388SOL    HW227798   4.166   3.626   4.473  0.1347 -2.3040  0.2111
 5389SOL     OW27799   4.387   3.951  12.716  0.2448 -0.1864  0.0679
 5389SOL    HW127800   4.468   3.930  12.762 -0.1893 -2.0064 -0.0214
 5389SOL    HW227801   4.353   4.007  12.786  1.9697  0.4439  0.4021
 5390SOL     OW27802   0.674   3.927   8.833 -0.3922  0.0312 -0.1520
 5390SOL    HW127803   0.606   3.966   8.887  0.3828 -0.9151  1.5007
 5390SOL    HW227804   0.725   3.885   8.902 -0.1211  0.2045 -0.2483
 5391SOL     OW27805   4.157   1.357   8.097  0.2181 -0.4032 -0.4146
 5391SOL    HW127806   4.212   1.328   8.169  0.7555 -1.3364 -1.1975
 5391SOL    HW227807   4.188   1.297   8.029 -0.4769 -0.7977 -0.3824
 5392SOL     OW27808   3.143   2.040  14.777 -0.0702  0.0680  0.6393
 5392SOL    HW127809   3.192   1.979  14.722 -0.6371 -1.0810  1.3869
 5392SOL    HW227810   3.145   1.984  14.855  0.3112 -1.9155 -0.7909
 5393SOL     OW27811   4.737   0.274  12.637  0.3387  0.5232  0.3947
 5393SOL    HW127812   4.663   0.217  12.614  1.2661 -0.2433 -0.7236
 5393SOL    HW227813   0.039   0.225  12.708 -1.5194 -0.6708  0.6687
 5394SOL     OW27814   4.578   3.393   7.790  0.7397  0.3097 -0.0233
 5394SOL    HW127815   4.648   3.384   7.725  1.9253 -2.7011  1.6606
 5394SOL    HW227816   4.587   3.488   7.804 -0.6145  0.2541  1.2281
 5395SOL     OW27817   3.674   0.722   6.045  0.0109 -0.0065  0.2550
 5395SOL    HW127818   3.673   0.792   6.110 -1.0048 -0.2178  0.4738
 5395SOL    HW227819   3.709   0.763   5.966  3.1354 -0.5643  1.3453
 5396SOL     OW27820   0.225   3.390   3.320  0.1693 -0.5494 -1.4408
 5396SOL    HW127821   0.252   3.435   3.239 -0.1991  0.3722 -1.0529
 5396SOL    HW227822   0.137   3.355   3.307 -0.1803 -0.1244 -0.2114
 5397SOL     OW27823   2.371   2.778   5.621  0.0723  0.3358  0.1778
 5397SOL    HW127824   2.441   2.773   5.556 -0.9738 -0.7335 -0.8856
 5397SOL    HW227825   2.346   2.690   5.648 -2.1013  0.8492 -0.1167
 5398SOL     OW27826   3.983   1.495   8.546 -0.5603  0.3612  0.3604
 5398SOL    HW127827   3.962   1.423   8.487  0.2241  1.8665 -1.7810
 5398SOL    HW227828   4.069   1.510   8.506  0.1692 -0.2390  1.7293
 5399SOL     OW27829   0.609   0.990   6.388  0.1715 -0.5838  0.2447
 5399SOL    HW127830   0.672   1.005   6.459  0.9039  0.2716 -0.5808
 5399SOL    HW227831   0.573   0.902   6.396  0.9960 -0.9106  0.4273
 5400SOL     OW27832   1.317   3.326   5.825 -0.4363  0.2444 -0.3870
 5400SOL    HW127833   1.387   3.272   5.860 -2.2436 -1.8411 -0.0049
 5400SOL    HW227834   1.241   3.282   5.863 -0.4716 -1.2822 -2.2433
 5401SOL     OW27835   4.334   3.535   5.720  0.1732 -0.0585  0.1836
 5401SOL    HW127836   4.341   3.462   5.781  1.0608  1.1853  1.5534
 5401SOL    HW227837   4.428   3.552   5.718  0.3142 -0.8665 -0.0389
 5402SOL     OW27838   0.616   3.324   3.069 -0.1603 -0.0499  0.3885
 5402SOL    HW127839   0.540   3.278   3.103  0.0559  0.3267  1.3576
 5402SOL    HW227840   0.635   3.382   3.143 -1.1246  0.6733  0.0675
 5403SOL     OW27841   2.774   1.962   5.935 -0.4481  0.3538  0.3027
 5403SOL    HW127842   2.788   1.980   5.842  1.2357 -2.3383  0.0331
 5403SOL    HW227843   2.811   1.874   5.946  1.6916  1.5304  2.4130
 5404SOL     OW27844   2.673   0.921   2.511  0.4576  0.2854  0.1204
 5404SOL    HW127845   2.590   0.969   2.508  0.4106  0.1623 -0.4146
 5404SOL    HW227846   2.670   0.879   2.597  2.5487 -0.6591 -0.2819
 5405SOL     OW27847   4.053   4.161   6.978  0.4486 -0.5877  0.0258
 5405SOL    HW127848   4.059   4.227   7.048  1.9863 -1.0136  0.2959
 5405SOL    HW227849   4.128   4.179   6.922  0.7259 -0.4821  0.4255
 5406SOL     OW27850   3.265   3.002   5.184 -0.7471 -0.1631  0.3015
 5406SOL    HW127851   3.173   2.986   5.202 -0.5774  1.2770  2.5296
 5406SOL    HW227852   3.255   3.073   5.120 -0.4663  1.7709  2.3841
 5407SOL     OW27853   0.861   3.553   3.744  0.1507 -0.1251  0.2087
 5407SOL    HW127854   0.836   3.645   3.748 -1.5523 -0.6521  1.6361
 5407SOL    HW227855   0.794   3.532   3.809 -0.0247  0.8486  0.3370
 5408SOL     OW27856   1.334   4.062   1.825 -0.1041  0.1079 -1.0454
 5408SOL    HW127857   1.327   3.975   1.784 -3.5658 -0.6986  1.2802
 5408SOL    HW227858   1.243   4.084   1.845  0.6486  3.2253 -1.1062
 5409SOL     OW27859   1.409   4.471   1.344  0.1450 -0.0656 -0.1271
 5409SOL    HW127860   1.447   4.474   1.256  0.6450  0.0809  0.0927
 5409SOL    HW227861   1.329   4.521   1.331 -1.0161 -1.7992  0.5019
 5410SOL     OW27862   1.286   4.269   8.905 -0.2068  0.5628  0.0138
 5410SOL    HW127863   1.253   4.241   8.820  2.1837  0.7926 -1.0058
 5410SOL    HW227864   1.329   4.191   8.941  0.0786  0.5200 -0.4135
 5411SOL     OW27865   2.877   1.876   7.953 -0.1789  0.1234 -0.0541
 5411SOL    HW127866   2.943   1.895   8.020 -1.1481 -1.0121  1.2247
 5411SOL    HW227867   2.817   1.812   7.993  0.9690  0.4308  2.1983
 5412SOL     OW27868   4.007   2.959   5.854 -0.8008  0.3836  0.0739
 5412SOL    HW127869   4.088   2.981   5.900 -0.6203 -0.1245  0.0008
 5412SOL    HW227870   4.041   2.970   5.765  0.0181  1.6322  0.5419
 5413SOL     OW27871   2.519   3.365   6.174 -0.5967  0.5593 -0.0543
 5413SOL    HW127872   2.551   3.441   6.223  2.0813 -0.6378  0.0533
 5413SOL    HW227873   2.452   3.400   6.116 -1.7936 -0.0643  0.9401
 5414SOL     OW27874   1.955   1.231   8.102  0.1869 -0.5108 -0.2286
 5414SOL    HW127875   1.897   1.306   8.114  0.3567 -0.5677  0.9154
 5414SOL    HW227876   2.011   1.259   8.029 -0.6405 -2.9305 -1.7962
 5415SOL     OW27877   3.210   2.050   0.932  0.2135  0.3699  0.4185
 5415SOL    HW127878   3.237   2.122   0.875 -0.5519  0.1543 -0.2296
 5415SOL    HW227879   3.116   2.066   0.940 -0.6226 -3.2061 -1.7126
 5416SOL     OW27880   3.571   4.717  14.488  0.3823 -0.0838  0.3954
 5416SOL    HW127881   3.658   4.686  14.514 -0.3190 -1.0479  1.5213
 5416SOL    HW227882   3.548   4.644  14.431 -0.1798 -0.7617  1.4956
 5417SOL     OW27883   1.901   2.639   1.833 -0.2845  0.2284 -0.3408
 5417SOL    HW127884   1.947   2.698   1.893  1.4820 -1.3901 -0.0989
 5417SOL    HW227885   1.815   2.682   1.831 -0.0009  0.6751 -3.0493
 5418SOL     OW27886   3.048   2.328   4.962 -0.1644  0.3942  0.1151
 5418SOL    HW127887   3.067   2.411   4.918 -1.9478  0.2442 -0.9578
 5418SOL    HW227888   3.077   2.339   5.052 -0.2146 -0.6063  0.2491
 5419SOL     OW27889   3.246   3.772   3.716  0.6462 -0.0016 -0.0194
 5419SOL    HW127890   3.198   3.734   3.642 -0.1997  2.3001 -0.6704
 5419SOL    HW227891   3.181   3.768   3.786 -0.6793  1.7360 -1.1320
 5420SOL     OW27892   4.563   4.488   8.948  0.2404  0.2377  0.3336
 5420SOL    HW127893   4.472   4.515   8.937 -0.3536 -1.5623  0.8374
 5420SOL    HW227894   4.559   4.394   8.929 -0.1805  1.2143 -4.2277
 5421SOL     OW27895   1.373   1.495   2.841 -0.5309 -0.1650  0.3533
 5421SOL    HW127896   1.411   1.568   2.890 -0.7712  0.8549 -0.9819
 5421SOL    HW227897   1.452   1.447   2.818 -1.6760 -0.7816 -2.2360
 5422SOL     OW27898   1.823   2.591  10.809 -0.0726 -0.2508  0.1153
 5422SOL    HW127899   1.852   2.528  10.743 -0.6976  1.1851 -1.5304
 5422SOL    HW227900   1.867   2.548  10.882  0.5754 -0.5422 -0.4385
 5423SOL     OW27901   0.101   2.003  11.199  0.5705 -0.1803 -0.9286
 5423SOL    HW127902   0.089   2.070  11.132 -1.8421 -0.3824 -0.6980
 5423SOL    HW227903   0.066   2.054  11.273  1.1117 -2.3152  0.7931
 5424SOL     OW27904   0.532   1.539  17.700  0.1559 -0.2880 -0.2242
 5424SOL    HW127905   0.441   1.542  17.729 -0.1377 -1.5830 -1.0079
 5424SOL    HW227906   0.575   1.522   0.027  0.2687  2.1178  0.1849
 5425SOL     OW27907   3.027   1.855   2.029  0.0635  0.0946 -0.3020
 5425SOL    HW127908   2.999   1.927   1.971  1.8877 -0.0126 -1.3092
 5425SOL    HW227909   3.084   1.909   2.084 -0.2781 -0.6365  0.7601
 5426SOL     OW27910   1.092   2.056   6.798  0.3013  0.0395  0.1778
 5426SOL    HW127911   1.101   2.087   6.708  1.3227  0.6372  0.4840
 5426SOL    HW227912   1.003   2.087   6.815 -0.6170 -2.3935 -0.3036
 5427SOL     OW27913   1.290   3.792   8.103 -0.3215 -0.1461  0.1077
 5427SOL    HW127914   1.257   3.839   8.180  1.8143  0.8535  0.4109
 5427SOL    HW227915   1.258   3.857   8.041 -0.2009  1.4876  1.7539
 5428SOL     OW27916   4.205   1.765   7.067 -0.1892 -0.1586 -0.1993
 5428SOL    HW127917   4.183   1.760   6.974 -1.1953 -1.8944  0.1260
 5428SOL    HW227918   4.298   1.742   7.066 -0.0387  0.4438 -0.1802
 5429SOL     OW27919   2.095   0.619   9.890 -0.9874 -0.1597  0.2619
 5429SOL    HW127920   2.170   0.662   9.930 -1.2323 -0.4312  1.0133
 5429SOL    HW227921   2.132   0.555   9.828  1.7502  1.6958  0.0006
 5430SOL     OW27922   4.715   2.578   6.657  0.3047  0.3906  0.4310
 5430SOL    HW127923   0.003   2.499   6.611  1.3641  2.7184 -2.8568
 5430SOL    HW227924   4.648   2.541   6.715 -2.8125  3.9863 -0.8305
 5431SOL     OW27925   2.033   1.349  15.904  0.1180 -0.0952 -0.6547
 5431SOL    HW127926   2.049   1.263  15.943 -0.4106  0.1394  0.0797
 5431SOL    HW227927   1.944   1.369  15.934  0.1445 -0.0599 -0.5999
 5432SOL     OW27928   1.304   2.580   6.659  0.5086 -0.2653 -0.3525
 5432SOL    HW127929   1.219   2.624   6.666  0.3148 -0.4621 -1.4829
 5432SOL    HW227930   1.368   2.651   6.647 -0.4482  0.1728 -2.9986
 5433SOL     OW27931   2.382   4.277   5.018 -0.3302 -0.0348  0.3126
 5433SOL    HW127932   2.436   4.266   5.096 -1.0046  0.6460  0.8786
 5433SOL    HW227933   2.442   4.297   4.946  0.9765 -2.8342  0.6747
 5434SOL     OW27934   1.443   3.703   8.891 -0.4869  0.0013 -0.0254
 5434SOL    HW127935   1.411   3.735   8.807  1.2967  0.1001 -0.6538
 5434SOL    HW227936   1.359   3.695   8.936 -0.9945  3.1370 -0.4045
 5435SOL     OW27937   4.386   2.397   1.028 -0.5049  0.0823 -0.5487
 5435SOL    HW127938   4.305   2.448   1.041 -0.2449  0.0797  1.1279
 5435SOL    HW227939   4.358   2.309   1.003 -3.4184  0.9374 -0.3626
 5436SOL     OW27940   1.310   0.384  13.556  0.0895  0.3218  0.1638
 5436SOL    HW127941   1.402   0.357  13.563 -0.7153 -3.1257 -2.2293
 5436SOL    HW227942   1.319   0.463  13.502  1.3364 -0.7665 -1.2524
 5437SOL     OW27943   4.514   4.569  16.960 -0.0190 -0.2041  0.4001
 5437SOL    HW127944   4.444   4.602  17.016  1.4216  0.8146  1.5981
 5437SOL    HW227945   4.468   4.542  16.880 -0.9537 -0.0308  0.8861
 5438SOL     OW27946   4.559   1.544  15.899  0.0358  0.0632 -0.2645
 5438SOL    HW127947   4.645   1.535  15.856  0.4284 -0.9029  0.7281
 5438SOL    HW227948   4.512   1.473  15.857  1.6447 -0.4269 -1.2701
 5439SOL     OW27949   0.331   4.702   5.401  0.0475  0.5250  0.2517
 5439SOL    HW127950   0.271   4.628   5.393  0.5454  0.1809 -0.2420
 5439SOL    HW227951   0.357   4.712   5.310 -1.6542  0.0497 -0.2795
 5440SOL     OW27952   4.660   0.756   6.073 -0.2250  0.8655 -0.4390
 5440SOL    HW127953   4.730   0.752   6.007  2.1029  0.2648  2.0493
 5440SOL    HW227954   4.696   0.703   6.144  0.2841  0.5618 -0.9214
 5441SOL     OW27955   2.725   3.572  11.827 -0.2440 -0.0808 -0.5361
 5441SOL    HW127956   2.639   3.614  11.824 -1.3817 -2.3248  0.3089
 5441SOL    HW227957   2.758   3.638  11.767  3.4135 -2.6393 -1.2740
 5442SOL     OW27958   4.689   3.652   3.060 -0.2263 -0.2292  0.6717
 5442SOL    HW127959   4.672   3.560   3.043  2.8014 -0.6082 -0.3860
 5442SOL    HW227960   4.682   3.654   3.155 -0.7467 -0.9437  0.6418
 5443SOL     OW27961   2.948   3.090  15.774 -0.2492  0.1758 -0.0374
 5443SOL    HW127962   2.858   3.121  15.780 -0.7382 -1.0604 -0.9604
 5443SOL    HW227963   2.945   3.019  15.837  1.2466  1.6268  1.6889
 5444SOL     OW27964   4.125   2.912   3.491  0.0635  0.3095  0.4627
 5444SOL    HW127965   4.171   2.829   3.502  2.7415  1.4507 -2.0001
 5444SOL    HW227966   4.107   2.912   3.397  0.1765  3.4979  0.4343
 5445SOL     OW27967   3.190   2.153  14.527 -0.3229  0.3225 -1.0146
 5445SOL    HW127968   3.274   2.108  14.542 -0.0845  0.6841 -1.2602
 5445SOL    HW227969   3.135   2.104  14.588  0.3598  0.2620 -0.4465
 5446SOL     OW27970   2.503   1.082   0.854  0.2798  0.2598  0.0097
 5446SOL    HW127971   2.595   1.101   0.837  0.4826 -0.8153 -0.0757
 5446SOL    HW227972   2.508   1.010   0.917 -1.0854 -0.3624 -0.5900
 5447SOL     OW27973   3.171   2.312  13.619 -0.1113  0.1385  0.0313
 5447SOL    HW127974   3.139   2.366  13.692  1.1444 -1.2011  1.5798
 5447SOL    HW227975   3.093   2.260  13.599  1.3530 -1.7477 -0.7396
 5448SOL     OW27976   4.092   1.440  14.684  0.0028  0.0226  0.4990
 5448SOL    HW127977   4.019   1.502  14.689 -1.6953 -2.1301  1.9831
 5448SOL    HW227978   4.043   1.365  14.650 -0.2002 -0.1747  1.2415
 5449SOL     OW27979   0.105   2.655  15.311 -0.1395  0.8546 -0.1278
 5449SOL    HW127980   0.031   2.715  15.318 -0.5284  0.6539 -2.4975
 5449SOL    HW227981   0.152   2.671  15.393 -1.0659  2.8147  0.0339
 5450SOL     OW27982   4.010   2.603  10.656 -0.1476 -0.0552 -0.2867
 5450SOL    HW127983   3.918   2.577  10.658 -0.0955 -0.3131 -1.0708
 5450SOL    HW227984   4.050   2.535  10.711  0.0125 -0.1155 -0.4765
 5451SOL     OW27985   3.864   4.080  11.132 -0.1589 -0.5711 -0.5515
 5451SOL    HW127986   3.855   4.090  11.227  0.3636  0.1936 -0.5810
 5451SOL    HW227987   3.787   4.024  11.122  0.3596 -1.0831 -1.6663
 5452SOL     OW27988   2.958   1.397   5.940  0.4701 -0.1638 -0.9171
 5452SOL    HW127989   2.978   1.471   5.997  1.0945  0.5293 -2.0274
 5452SOL    HW227990   3.041   1.349   5.947  0.5454  0.5694  2.8847
 5453SOL     OW27991   3.673   0.107   2.447 -0.0314  0.1332 -0.1195
 5453SOL    HW127992   3.744   0.137   2.504  1.4102 -2.2107 -0.6896
 5453SOL    HW227993   3.680   0.013   2.462  1.6130 -0.0214 -1.7863
 5454SOL     OW27994   2.156   4.379   9.549 -0.3391  0.4579 -0.3164
 5454SOL    HW127995   2.236   4.427   9.526  0.4773 -1.0986 -0.7073
 5454SOL    HW227996   2.083   4.411   9.496 -0.5933 -0.3730 -0.4646
 5455SOL     OW27997   3.622   2.644   6.892 -0.4109 -0.4622 -0.0792
 5455SOL    HW127998   3.670   2.567   6.923 -0.7965 -1.2681 -1.5331
 5455SOL    HW227999   3.565   2.592   6.836  0.4783 -0.3396 -1.0935
 5456SOL     OW28000   0.165   2.295   8.999  0.8173 -0.5147 -0.5420
 5456SOL    HW128001   0.204   2.211   9.024  0.9988 -0.0246  0.7968
 5456SOL    HW228002   0.082   2.264   8.961  0.2214 -0.0206  0.3618
 5457SOL     OW28003   3.217   4.270   8.870 -0.2008 -0.1132 -0.5313
 5457SOL    HW128004   3.242   4.179   8.857  1.6106  0.2878 -0.0026
 5457SOL    HW228005   3.265   4.285   8.952 -1.5250 -2.6896  0.6889
 5458SOL     OW28006   0.869   1.166   1.438  0.7351  0.2105  0.2880
 5458SOL    HW128007   0.959   1.160   1.470  1.1920  1.0089 -0.8177
 5458SOL    HW228008   0.834   1.086   1.477  1.9520 -0.4049  0.1122
 5459SOL     OW28009   0.012   1.742  14.529  0.8293  0.2694  0.4003
 5459SOL    HW128010   0.005   1.837  14.541 -2.1703  0.0016  0.8841
 5459SOL    HW228011   4.680   1.715  14.587  0.6808  0.2605  0.2126
 5460SOL     OW28012   3.890   2.930  10.688 -0.6494 -0.3397  0.2602
 5460SOL    HW128013   3.830   2.856  10.677 -1.1768  0.4511 -2.2605
 5460SOL    HW228014   3.857   2.969  10.769 -0.0371  0.7115  0.0015
 5461SOL     OW28015   4.722   1.604   4.298 -0.0049 -0.0585  1.0830
 5461SOL    HW128016   0.047   1.540   4.267 -3.2451 -2.5841 -0.6287
 5461SOL    HW228017   4.647   1.545   4.306 -0.6295  0.5831 -0.1471
 5462SOL     OW28018   3.434   3.290   3.319 -0.3319 -0.0698  0.4063
 5462SOL    HW128019   3.432   3.194   3.315 -0.8009  0.0467 -2.7035
 5462SOL    HW228020   3.484   3.307   3.239 -0.1335  0.4622  0.6427
 5463SOL     OW28021   3.592   2.007   3.275 -0.0151  0.4716 -0.5755
 5463SOL    HW128022   3.682   2.006   3.243  0.5268  2.1378  0.8250
 5463SOL    HW228023   3.603   2.011   3.370  1.0238 -0.0226 -0.6836
 5464SOL     OW28024   0.965   2.809   3.924 -0.3935  0.4824  0.5511
 5464SOL    HW128025   0.877   2.786   3.953 -0.9718  0.4193 -1.2317
 5464SOL    HW228026   0.952   2.865   3.847 -0.8658 -1.0006 -0.4561
 5465SOL     OW28027   3.629   2.577   4.722  0.6067 -0.3965  0.1617
 5465SOL    HW128028   3.568   2.505   4.707  0.0205  0.1973 -0.2598
 5465SOL    HW228029   3.637   2.568   4.817  0.9201 -0.5117  0.1245
 5466SOL     OW28030   1.640   2.141  11.156  0.3078 -0.6048 -0.1403
 5466SOL    HW128031   1.596   2.079  11.213 -1.1438  1.0109  0.5134
 5466SOL    HW228032   1.639   2.215  11.217 -2.9342 -0.0974 -0.7730
 5467SOL     OW28033   3.900   2.903   3.692  0.5426  0.7404  0.0007
 5467SOL    HW128034   3.914   2.815   3.727 -1.8986 -0.8776 -3.0427
 5467SOL    HW228035   3.953   2.902   3.612  0.3310 -0.7873 -0.1152
 5468SOL     OW28036   0.168   2.823   6.721 -0.1080  0.0160 -0.0784
 5468SOL    HW128037   0.104   2.754   6.703  0.1376 -0.1310 -0.3941
 5468SOL    HW228038   0.239   2.765   6.749  0.1713 -0.5499 -1.9622
 5469SOL     OW28039   3.925   0.600   0.122 -0.4902  0.3630  0.1266
 5469SOL    HW128040   3.874   0.598   0.203  0.8532 -0.0773  0.9543
 5469SOL    HW228041   3.893   0.679   0.079 -0.1534 -0.0089 -0.8145
 5470SOL     OW28042   0.775   1.724   8.112 -0.0292  0.5258  0.5649
 5470SOL    HW128043   0.724   1.779   8.053  1.9489 -0.8825 -2.4668
 5470SOL    HW228044   0.781   1.782   8.188 -1.9862  2.3483 -0.6841
 5471SOL     OW28045   0.784   1.339   4.708 -0.3509 -0.1704 -0.3713
 5471SOL    HW128046   0.729   1.316   4.633  0.5851 -0.0888 -1.0787
 5471SOL    HW228047   0.826   1.422   4.687 -1.8605  1.0351  1.3363
 5472SOL     OW28048   0.792   3.762  12.595  0.1779 -0.2225 -0.1376
 5472SOL    HW128049   0.739   3.789  12.671 -0.5866  0.7394 -1.0161
 5472SOL    HW228050   0.722   3.718  12.548 -1.3341  0.8867  1.0681
 5473SOL     OW28051   1.709   2.081   0.355 -0.0065  0.6228 -0.3798
 5473SOL    HW128052   1.707   2.060   0.448  0.6207 -0.0605 -0.5188
 5473SOL    HW228053   1.765   2.014   0.316  2.8136  2.0886  1.1975
 5474SOL     OW28054   3.094   0.516  11.994  0.2450 -0.2496 -0.1208
 5474SOL    HW128055   3.039   0.594  11.981  1.3026  0.3220 -1.2837
 5474SOL    HW228056   3.039   0.455  11.945  1.8220 -1.9152  0.2007
 5475SOL     OW28057   1.201   4.570   3.824 -0.3192  0.3133 -0.3222
 5475SOL    HW128058   1.187   4.476   3.816 -2.6415  0.5626  0.9185
 5475SOL    HW228059   1.289   4.582   3.788 -0.0561  1.4813  0.6896
 5476SOL     OW28060   3.710   3.077   3.713  0.0953 -0.1656  0.6076
 5476SOL    HW128061   3.778   3.010   3.701  0.9408  0.8640 -0.4193
 5476SOL    HW228062   3.650   3.050   3.644 -1.4994 -0.4126  2.1133
 5477SOL     OW28063   2.159   4.229  10.367 -0.3015 -0.3515 -0.4584
 5477SOL    HW128064   2.113   4.217  10.284 -0.6096  0.6679 -0.4371
 5477SOL    HW228065   2.241   4.271  10.343  0.1366 -1.4397 -0.8512
 5478SOL     OW28066   1.492   1.774  10.580 -0.8331 -0.1922 -0.2741
 5478SOL    HW128067   1.583   1.775  10.611  0.0944 -0.7399 -3.0288
 5478SOL    HW228068   1.461   1.864  10.580 -0.5321 -0.1037 -3.0113
 5479SOL     OW28069   1.584   4.652   2.122 -0.0868  0.5944  0.0185
 5479SOL    HW128070   1.636   4.695   2.054 -1.7217  1.1948 -0.8480
 5479SOL    HW228071   1.517   4.610   2.068 -0.4931  1.4380 -0.1278
 5480SOL     OW28072   1.980   1.515  12.042 -0.0415  0.2041 -0.3855
 5480SOL    HW128073   1.948   1.474  11.962 -0.9246  1.4026 -0.6465
 5480SOL    HW228074   2.040   1.449  12.078  0.8180 -1.0817 -4.1894
 5481SOL     OW28075   1.717   3.122   5.626  0.2084  0.5546 -0.9962
 5481SOL    HW128076   1.809   3.094   5.630 -0.4067 -1.2661  0.7351
 5481SOL    HW228077   1.673   3.056   5.572 -0.4232 -0.8240  1.2241
 5482SOL     OW28078   0.664   2.350   3.599 -0.4149 -0.0592  0.2214
 5482SOL    HW128079   0.642   2.332   3.508 -0.6828  1.9770 -0.1086
 5482SOL    HW228080   0.734   2.288   3.622 -1.8405 -2.4516 -1.9043
 5483SOL     OW28081   2.619   1.851   3.096 -1.1629  0.0062 -1.1787
 5483SOL    HW128082   2.622   1.946   3.087 -2.7613  0.1170 -0.6663
 5483SOL    HW228083   2.704   1.849   3.054 -1.2400 -2.0390 -1.2367
 5484SOL     OW28084   4.644   0.120  13.225  0.0209 -0.2252 -0.2425
 5484SOL    HW128085   4.635   0.213  13.205  1.6352  0.4001  1.9641
 5484SOL    HW228086   4.551   0.100  13.216  0.4473 -1.2672 -2.4180
 5485SOL     OW28087   2.430   1.555   8.065  0.1934  0.1041  0.0101
 5485SOL    HW128088   2.354   1.612   8.077  1.2253  1.9045 -2.0721
 5485SOL    HW228089   2.440   1.528   8.157  2.1244 -2.7205 -1.0270
 5486SOL     OW28090   2.584   3.560  17.589 -0.1073  0.0173 -0.6338
 5486SOL    HW128091   2.562   3.646  17.623 -1.8538 -1.1986  1.3149
 5486SOL    HW228092   2.675   3.583  17.571 -0.0378  0.4098  0.2338
 5487SOL     OW28093   2.501   2.004  15.793 -0.4619 -0.5104  0.3714
 5487SOL    HW128094   2.507   1.971  15.703 -1.3293 -1.2536  0.5806
 5487SOL    HW228095   2.555   1.933  15.826  2.5396  1.2380 -0.8300
 5488SOL     OW28096   1.907   2.636   2.884 -0.0778  0.2466  0.3372
 5488SOL    HW128097   1.930   2.566   2.823  3.1379  1.7272 -0.1569
 5488SOL    HW228098   1.963   2.626   2.961 -1.2653 -0.2384  1.1388
 5489SOL     OW28099   4.689   4.536  10.010 -0.3016 -0.5171  0.2319
 5489SOL    HW128100   4.622   4.601   9.986 -1.4387 -1.9803 -0.5770
 5489SOL    HW228101   0.026   4.576   9.969 -2.1091 -0.3060 -2.9950
 5490SOL     OW28102   3.240   2.090   6.234  0.5079 -0.0224 -0.0533
 5490SOL    HW128103   3.168   2.116   6.291  0.2414  0.1604 -0.4677
 5490SOL    HW228104   3.253   2.163   6.174 -0.4457  1.6874  1.8190
 5491SOL     OW28105   0.168   0.490   5.787 -0.8539 -0.6542 -0.9594
 5491SOL    HW128106   0.196   0.402   5.763  1.3352 -0.4335  0.8244
 5491SOL    HW228107   0.104   0.504   5.717 -0.1776  0.8109 -1.3015
 5492SOL     OW28108   1.799   0.536   6.861  0.0746 -0.2021  0.0795
 5492SOL    HW128109   1.847   0.614   6.886  1.0012 -1.0982  1.1021
 5492SOL    HW228110   1.823   0.478   6.934 -0.1854 -0.6665 -0.2007
 5493SOL     OW28111   0.075   3.041   6.570  0.0414  0.2824  0.7100
 5493SOL    HW128112   0.079   2.980   6.644  2.1617 -1.2800 -0.7079
 5493SOL    HW228113   4.728   3.022   6.534  0.2763  0.9453 -0.1923
 5494SOL     OW28114   2.483   0.820   1.482  0.6195 -0.0151 -0.1354
 5494SOL    HW128115   2.569   0.825   1.441 -0.0015  0.8762 -1.3439
 5494SOL    HW228116   2.488   0.903   1.530  0.6800  0.3620 -0.7856
 5495SOL     OW28117   3.596   0.814   3.623 -0.2046 -0.1724 -0.3545
 5495SOL    HW128118   3.517   0.763   3.641  0.6316 -1.1934  0.4427
 5495SOL    HW228119   3.643   0.742   3.581  1.8044  2.1026 -1.9964
 5496SOL     OW28120   1.713   1.045   2.522 -0.6225  0.2200  0.0891
 5496SOL    HW128121   1.643   0.984   2.500 -1.7469  0.4756  2.9401
 5496SOL    HW228122   1.723   1.107   2.450  2.1281  0.3079  0.5452
 5497SOL     OW28123   3.670   2.882   5.526 -0.5303  0.2406  0.1405
 5497SOL    HW128124   3.650   2.943   5.597  0.5936 -0.4624  1.0627
 5497SOL    HW228125   3.588   2.885   5.477  0.0447  1.4125 -0.7734
 5498SOL     OW28126   2.592   0.044   2.313 -0.5698  0.0461 -0.3356
 5498SOL    HW128127   2.610   0.118   2.371  0.0278 -0.2579 -0.1296
 5498SOL    HW228128   2.624   0.075   2.228 -1.0364 -2.3480 -1.3892
 5499SOL     OW28129   2.376   0.044  11.228  0.5673  0.0390 -0.3044
 5499SOL    HW128130   2.446   0.057  11.293 -0.1824 -1.9495  0.8854
 5499SOL    HW228131   2.422   0.055  11.145 -1.2470  0.3988 -1.2456
 5500SOL     OW28132   3.270   0.618   9.445  0.9674 -0.4020 -0.1474
 5500SOL    HW128133   3.341   0.632   9.382  2.6941 -0.0513  1.8636
 5500SOL    HW228134   3.330   0.583   9.511 -0.8960 -2.6866  0.3048
 5501SOL     OW28135   3.911   1.037   6.221 -0.2607 -0.1045 -0.0369
 5501SOL    HW128136   3.920   1.119   6.269  0.2042  0.1655 -0.5845
 5501SOL    HW228137   3.918   0.976   6.295  0.5966  1.4130  1.1241
 5502SOL     OW28138   3.884   3.291   3.611 -0.0539 -0.8899  0.6787
 5502SOL    HW128139   3.839   3.221   3.658 -3.2416 -0.6330 -2.0039
 5502SOL    HW228140   3.962   3.299   3.666 -0.8070 -3.8005  2.1544
 5503SOL     OW28141   1.198   0.432   4.631  0.4426  0.2765  0.0681
 5503SOL    HW128142   1.274   0.377   4.647  1.6723  2.1020  0.4546
 5503SOL    HW228143   1.149   0.417   4.713 -3.1141 -1.0197 -2.2769
 5504SOL     OW28144   3.746   3.267   2.021  0.4132 -0.2080  0.1014
 5504SOL    HW128145   3.819   3.321   2.050  0.5658  0.1004 -0.8512
 5504SOL    HW228146   3.679   3.335   2.008  0.3640 -0.6010 -1.7140
 5505SOL     OW28147   3.888   2.432   7.256 -0.3577  0.2750 -0.3676
 5505SOL    HW128148   3.933   2.514   7.236 -0.6895  0.7629  0.9091
 5505SOL    HW228149   3.824   2.454   7.324  0.1671 -0.5121  0.3791
 5506SOL     OW28150   4.528   1.246   5.683 -0.2159 -0.2299  0.2024
 5506SOL    HW128151   4.524   1.300   5.761 -1.0764 -1.1887  0.8233
 5506SOL    HW228152   4.584   1.172   5.706 -2.4909 -1.4431  1.8952
 5507SOL     OW28153   1.937   3.783  11.744  0.3725 -0.1526  0.0411
 5507SOL    HW128154   1.859   3.761  11.796  0.1498  0.0808 -0.1928
 5507SOL    HW228155   1.896   3.828  11.670  0.4644  2.1597  1.3576
 5508SOL     OW28156   1.904   3.750   7.154  0.1272  0.5952  0.1474
 5508SOL    HW128157   1.931   3.756   7.246  0.2509  1.7761  0.0290
 5508SOL    HW228158   1.991   3.729   7.119  0.1020 -0.8030  0.9278
 5509SOL     OW28159   2.867   3.615   2.498 -0.4930 -0.3685  0.2072
 5509SOL    HW128160   2.849   3.682   2.563 -0.4798  0.1945 -0.3752
 5509SOL    HW228161   2.776   3.589   2.483 -1.3221  2.2359  0.8469
 5510SOL     OW28162   4.107   3.642   2.617 -0.1346 -0.4206  0.0934
 5510SOL    HW128163   4.113   3.696   2.696  0.1584 -1.3503  0.7112
 5510SOL    HW228164   4.015   3.618   2.609  0.1013 -1.5318  0.7077
 5511SOL     OW28165   3.927   2.027   4.857 -0.1098 -0.4873 -0.1525
 5511SOL    HW128166   3.929   1.999   4.949  2.9935  0.0354 -0.0609
 5511SOL    HW228167   3.922   1.941   4.814  2.2204 -0.2357 -0.9531
 5512SOL     OW28168   3.211   2.807   8.399 -0.0716 -0.1653  0.3986
 5512SOL    HW128169   3.190   2.783   8.308 -0.8543 -0.0386  0.5477
 5512SOL    HW228170   3.152   2.743   8.439 -0.6562  1.8098  2.6258
 5513SOL     OW28171   2.377   4.272  10.694 -0.1372  0.3521  0.3488
 5513SOL    HW128172   2.351   4.191  10.737 -0.0950  1.0254  1.6627
 5513SOL    HW228173   2.470   4.248  10.694 -0.4722 -0.8976 -0.0845
 5514SOL     OW28174   1.059   4.315   7.892 -0.6258  0.1337 -0.6350
 5514SOL    HW128175   1.147   4.342   7.920 -0.7664  0.5293 -0.5800
 5514SOL    HW228176   1.065   4.282   7.802 -0.6727  0.8585 -0.9014
 5515SOL     OW28177   0.042   1.929   9.821  0.5658  0.2041  0.1312
 5515SOL    HW128178   0.065   2.021   9.835  0.6884  0.4399 -1.5242
 5515SOL    HW228179   4.687   1.929   9.831  0.5250 -0.3331 -0.2253
 5516SOL     OW28180   1.497   4.421   9.186  0.3606 -1.0747 -0.1862
 5516SOL    HW128181   1.512   4.345   9.242  0.6902 -0.6611  0.2916
 5516SOL    HW228182   1.466   4.375   9.108  1.8509 -0.2690 -1.2728
 5517SOL     OW28183   1.255   4.667   5.530 -0.4572 -0.2698  0.3690
 5517SOL    HW128184   1.266   4.626   5.616  1.6732 -1.0635 -0.2877
 5517SOL    HW228185   1.235   4.589   5.478 -0.9085  0.0882  0.0061
 5518SOL     OW28186   3.041   1.688   7.615 -0.1166 -1.1796  0.6035
 5518SOL    HW128187   3.013   1.599   7.591 -1.2048 -1.1039  1.6393
 5518SOL    HW228188   2.959   1.714   7.655 -0.5265 -0.3593 -0.7644
 5519SOL     OW28189   3.095   4.039   4.983 -0.0541  0.2253  0.1375
 5519SOL    HW128190   3.128   4.115   4.933 -0.4898  0.1722 -0.2310
 5519SOL    HW228191   3.005   4.028   4.951 -0.1997  1.7030  0.0032
 5520SOL     OW28192   2.882   2.107   4.965 -0.2206  0.3220 -1.1325
 5520SOL    HW128193   2.928   2.179   5.010 -4.0036  2.4350 -0.6421
 5520SOL    HW228194   2.926   2.118   4.881  1.2212 -0.5544 -0.5010
 5521SOL     OW28195   3.197   3.252   5.067  0.2039  0.0961 -0.1423
 5521SOL    HW128196   3.201   3.212   4.980 -0.6237 -0.4024  0.0464
 5521SOL    HW228197   3.286   3.288   5.070  0.5847 -0.8549  0.2753
 5522SOL     OW28198   1.525   2.471   9.616 -0.1163 -0.0606 -0.1131
 5522SOL    HW128199   1.529   2.567   9.624 -3.4051 -0.2383  3.4633
 5522SOL    HW228200   1.552   2.480   9.524 -0.5848 -0.9576 -0.3372
 5523SOL     OW28201   0.616   4.720  12.001  0.4664 -0.0756  0.1892
 5523SOL    HW128202   0.654   0.069  12.002  0.8888 -0.2509 -0.6048
 5523SOL    HW228203   0.696   4.668  11.989  0.6530  0.1705  0.3401
 5524SOL     OW28204   2.641   1.190   5.113  0.3198 -0.1983 -0.1102
 5524SOL    HW128205   2.648   1.253   5.042  0.8283 -0.6536 -0.4570
 5524SOL    HW228206   2.694   1.228   5.183  0.0219  0.2252 -0.1135
 5525SOL     OW28207   0.808   0.562  15.654  0.5231 -0.8844 -0.3141
 5525SOL    HW128208   0.808   0.527  15.743 -3.4030  2.5572  1.0844
 5525SOL    HW228209   0.899   0.590  15.659 -0.1546  1.0730  1.0489
 5526SOL     OW28210   4.110   0.230   7.816 -1.0000  0.3965  0.3294
 5526SOL    HW128211   4.187   0.200   7.768  0.8614  3.7188  1.2649
 5526SOL    HW228212   4.052   0.162   7.781  2.2419 -0.7539 -2.7529
 5527SOL     OW28213   2.683   0.307   1.801 -0.3620 -0.5206 -0.3921
 5527SOL    HW128214   2.593   0.336   1.821 -0.5034 -1.3495  0.1436
 5527SOL    HW228215   2.729   0.343   1.877  2.7049 -1.9512 -1.5855
 5528SOL     OW28216   0.358   4.706   7.900 -0.3001 -0.0708  0.1574
 5528SOL    HW128217   0.418   4.637   7.873 -1.3334  0.1708 -2.6695
 5528SOL    HW228218   0.312   4.713   7.817 -2.1192  0.7982  1.2222
 5529SOL     OW28219   1.208   1.453   0.312 -1.1584  0.3008  0.2491
 5529SOL    HW128220   1.154   1.432   0.389 -0.7664 -0.2218  0.3810
 5529SOL    HW228221   1.209   1.548   0.318 -1.7453  0.4162 -1.5539
 5530SOL     OW28222   3.110   4.677   3.945  0.2409 -0.5162  0.6321
 5530SOL    HW128223   3.178   4.657   3.881 -1.0600  0.5425 -1.0737
 5530SOL    HW228224   3.030   4.639   3.907  1.3892 -1.0953 -1.1792
 5531SOL     OW28225   2.261   1.282   8.580 -0.1390 -0.2489  0.3151
 5531SOL    HW128226   2.181   1.259   8.533  0.1922  1.2564 -0.9822
 5531SOL    HW228227   2.221   1.345   8.640  0.4721  0.8766 -0.4650
 5532SOL     OW28228   4.081   0.508   9.417  0.1035 -1.2166  0.5350
 5532SOL    HW128229   4.154   0.477   9.363  0.9692 -0.4865  1.2825
 5532SOL    HW228230   4.114   0.578   9.474 -0.9075  0.1156 -0.5136
 5533SOL     OW28231   1.691   1.844   8.066 -0.2656  0.0318 -0.1581
 5533SOL    HW128232   1.645   1.894   8.133  0.4552 -1.5207  1.4637
 5533SOL    HW228233   1.759   1.908   8.045  0.7752 -1.0354 -0.0270
 5534SOL     OW28234   4.275   2.383   1.802 -0.8068 -0.3863  0.6972
 5534SOL    HW128235   4.269   2.321   1.729 -0.8169  0.0875  0.3033
 5534SOL    HW228236   4.244   2.465   1.766 -0.9412 -0.7007  0.0893
 5535SOL     OW28237   0.911   1.958  10.039 -0.2929 -0.1940 -0.0499
 5535SOL    HW128238   0.972   1.979   9.969  1.5269 -2.3508  0.8793
 5535SOL    HW228239   0.933   2.023  10.106 -1.6121 -0.6123  0.7950
 5536SOL     OW28240   4.407   3.262   6.170 -0.3408  0.6954  0.0045
 5536SOL    HW128241   4.412   3.185   6.228 -0.5050 -1.2853 -2.6200
 5536SOL    HW228242   4.311   3.266   6.166 -0.3243 -1.2501 -2.3496
 5537SOL     OW28243   3.232   2.725   5.348  0.2782  0.4759  0.0673
 5537SOL    HW128244   3.176   2.802   5.359 -0.6412  0.1153 -2.1113
 5537SOL    HW228245   3.313   2.741   5.396 -1.3563 -1.0394  3.3426
 5538SOL     OW28246   1.316   0.960   8.983  0.9953 -0.0612 -0.7255
 5538SOL    HW128247   1.328   0.942   9.076  1.9153  2.7902 -0.2651
 5538SOL    HW228248   1.232   1.004   8.992  1.4404  0.3003  1.6522
 5539SOL     OW28249   1.769   1.025   5.519  0.1933  0.5348  0.3843
 5539SOL    HW128250   1.847   1.075   5.543  0.4905  0.1468  0.2356
 5539SOL    HW228251   1.814   0.952   5.476  1.7172  0.5882  1.8971
 5540SOL     OW28252   3.700   4.437   4.862  0.6060  0.3181  1.2133
 5540SOL    HW128253   3.762   4.509   4.846  1.5725 -0.6659  0.5138
 5540SOL    HW228254   3.677   4.463   4.951  0.8450  0.6843  1.1698
 5541SOL     OW28255   3.196   1.894  16.480 -0.0852 -0.0486  0.6227
 5541SOL    HW128256   3.278   1.898  16.530  1.8346 -2.7493 -2.3653
 5541SOL    HW228257   3.129   1.868  16.543 -3.6386  2.9680 -1.9020
 5542SOL     OW28258   2.348   0.671   4.721 -0.5560  0.0918 -0.2642
 5542SOL    HW128259   2.371   0.741   4.782  0.5010 -3.2316  3.2202
 5542SOL    HW228260   2.258   0.644   4.736 -1.4135  2.8449 -0.5903
 5543SOL     OW28261   2.893   3.273   1.452 -0.5428  0.1881 -0.0918
 5543SOL    HW128262   2.834   3.289   1.379 -1.0429  1.0865  0.5112
 5543SOL    HW228263   2.832   3.217   1.501 -0.2701  1.0331  1.2018
 5544SOL     OW28264   2.392   3.149  14.288 -0.2023 -0.0451  1.0455
 5544SOL    HW128265   2.449   3.218  14.321 -2.0278  2.6454 -1.4345
 5544SOL    HW228266   2.452   3.096  14.236  0.9307  1.4503  0.8297
 5545SOL     OW28267   3.887   1.522   7.047 -0.0525 -0.2162 -0.4622
 5545SOL    HW128268   3.831   1.600   7.052  1.5641  0.7993  1.8348
 5545SOL    HW228269   3.868   1.489   7.135 -1.2501  0.5881 -0.4099
 5546SOL     OW28270   2.079   0.287   3.357 -0.1384 -0.2660  0.6706
 5546SOL    HW128271   2.108   0.201   3.326 -0.9386 -0.5371  0.6776
 5546SOL    HW228272   2.084   0.346   3.281 -1.0589 -1.7685 -0.5613
 5547SOL     OW28273   0.786   2.107  17.129  0.1417 -0.8250  0.2811
 5547SOL    HW128274   0.709   2.085  17.183  0.1912  0.4637  0.8629
 5547SOL    HW228275   0.844   2.165  17.177 -0.0401  0.2588 -0.8051
 5548SOL     OW28276   3.269   2.985   6.934 -0.3107  0.8574  0.1800
 5548SOL    HW128277   3.301   3.074   6.954  1.2871  0.9631 -2.8882
 5548SOL    HW228278   3.213   2.999   6.857  0.3158  0.2290 -0.3771
 5549SOL     OW28279   3.378   0.851  10.921 -0.2006  0.2503 -0.2669
 5549SOL    HW128280   3.344   0.781  10.977  2.5089 -0.4690  0.4781
 5549SOL    HW228281   3.339   0.826  10.837  2.9550 -2.2596 -0.9764
 5550SOL     OW28282   4.279   4.597   6.956  0.0666 -0.1719 -0.3096
 5550SOL    HW128283   4.359   4.545   6.959  1.7282  2.3719 -0.0210
 5550SOL    HW228284   4.282   4.648   6.875  0.3641  0.8567  0.3464
 5551SOL     OW28285   4.052   4.700   6.535  0.1915  0.4730 -0.3902
 5551SOL    HW128286   4.010   4.736   6.457  0.1195  0.3834 -0.3925
 5551SOL    HW228287   4.011   0.019   6.598  0.5587 -0.3363  0.6133
 5552SOL     OW28288   3.618   1.780   2.674  0.3906  0.2255 -0.4546
 5552SOL    HW128289   3.550   1.845   2.657  0.8193  0.5668 -0.8477
 5552SOL    HW228290   3.579   1.735   2.749  1.5166 -1.5641 -0.9259
 5553SOL     OW28291   4.214   1.503  12.921  0.6595 -0.2737  0.4538
 5553SOL    HW128292   4.170   1.588  12.926  0.7839 -0.1715 -0.2620
 5553SOL    HW228293   4.304   1.527  12.897  0.9444 -1.4996  0.3038
 5554SOL     OW28294   0.253   1.811  16.200 -0.5934 -0.4254 -0.1344
 5554SOL    HW128295   0.246   1.887  16.141  0.5095  0.0645  0.3827
 5554SOL    HW228296   0.340   1.827  16.235 -1.0289  0.9370  0.3360
 5555SOL     OW28297   3.465   0.777   4.817  0.1657  0.2616 -0.0798
 5555SOL    HW128298   3.389   0.784   4.874 -0.5053 -0.9288 -0.8228
 5555SOL    HW228299   3.415   0.766   4.736  0.2032  0.3094 -0.1094
 5556SOL     OW28300   4.428   4.338   3.365  0.2545  0.2072  0.6458
 5556SOL    HW128301   4.406   4.353   3.457  0.2001 -0.1398  0.6915
 5556SOL    HW228302   4.411   4.243   3.364  0.1405  0.2864 -3.6098
 5557SOL     OW28303   0.398   1.906  13.337 -0.4772 -0.4409  0.0743
 5557SOL    HW128304   0.383   1.812  13.343 -0.8346 -0.4383 -0.8985
 5557SOL    HW228305   0.320   1.928  13.389  0.0897  0.3120  0.6209
 5558SOL     OW28306   3.996   1.979   3.717 -0.4399  0.2236 -0.1676
 5558SOL    HW128307   4.004   2.017   3.804 -1.0877 -0.2646  0.1047
 5558SOL    HW228308   4.025   1.888   3.728  0.2785  0.6095  1.1377
 5559SOL     OW28309   0.749   3.406   7.329  0.3207 -0.4648  0.0364
 5559SOL    HW128310   0.825   3.349   7.314  0.6717 -0.8206  3.2450
 5559SOL    HW228311   0.702   3.353   7.393  1.7467 -2.0390 -0.2134
 5560SOL     OW28312   4.700   2.197   5.047  0.2579 -0.2143 -0.2145
 5560SOL    HW128313   0.036   2.202   5.105 -0.7581  0.4728  1.0485
 5560SOL    HW228314   4.734   2.136   4.982  0.6746  1.6709 -1.7847
 5561SOL     OW28315   3.917   4.045   4.164  0.1994  0.0621 -0.0293
 5561SOL    HW128316   3.894   4.060   4.256 -0.0477 -0.3643 -0.0218
 5561SOL    HW228317   3.980   4.108   4.129 -0.4977 -1.3928 -3.8158
 5562SOL     OW28318   1.412   2.000  10.109  0.4144 -0.5199 -0.0953
 5562SOL    HW128319   1.457   1.976  10.190  0.2561 -0.8690 -0.1094
 5562SOL    HW228320   1.413   1.914  10.066  1.2213 -1.3796  1.6431
 5563SOL     OW28321   0.534   1.349   3.163 -0.2011 -0.7585  0.1779
 5563SOL    HW128322   0.489   1.424   3.202 -1.8085 -0.2239 -2.7110
 5563SOL    HW228323   0.607   1.334   3.223 -1.5671  2.6441  2.6748
 5564SOL     OW28324   3.738   2.667  13.811  0.6634  0.0452 -0.0162
 5564SOL    HW128325   3.755   2.665  13.717  1.1967 -2.2804  0.1254
 5564SOL    HW228326   3.728   2.758  13.838 -0.4314 -0.5265  1.4966
 5565SOL     OW28327   3.879   1.484   3.848 -0.2621 -0.4222 -0.1230
 5565SOL    HW128328   3.847   1.399   3.876 -1.0615 -0.2055 -0.3700
 5565SOL    HW228329   3.835   1.498   3.764  0.3912  1.2583 -0.1897
 5566SOL     OW28330   3.689   3.485   5.822  0.3286 -0.7545 -0.1557
 5566SOL    HW128331   3.675   3.430   5.899  1.2479 -1.0466 -0.1938
 5566SOL    HW228332   3.658   3.432   5.749 -3.6811 -0.0415  1.0647
 5567SOL     OW28333   2.712   0.981  14.936  0.0448 -0.0627 -0.3418
 5567SOL    HW128334   2.624   0.949  14.958  0.2223 -0.1909  0.1801
 5567SOL    HW228335   2.687   1.004  14.846  2.7346  2.0661 -0.5541
 5568SOL     OW28336   1.074   2.041   6.060  0.2582 -0.0316 -0.2174
 5568SOL    HW128337   1.140   2.111   6.053 -1.0348  1.0242 -1.8430
 5568SOL    HW228338   1.092   2.017   6.151 -0.1724  1.1032  0.1706
 5569SOL     OW28339   0.700   1.642   4.638  0.4719  0.0396 -0.8561
 5569SOL    HW128340   0.700   1.629   4.543  0.1532  0.9556 -0.9779
 5569SOL    HW228341   0.649   1.722   4.632 -0.6976 -0.5816  0.7766
 5570SOL     OW28342   4.515   1.547   5.874 -0.2039 -0.4177 -0.3964
 5570SOL    HW128343   4.427   1.544   5.912 -0.5869 -0.0746 -1.2419
 5570SOL    HW228344   4.500   1.589   5.789  2.1832 -0.5159 -0.8512
 5571SOL     OW28345   0.197   3.622   9.430 -0.0866 -0.2720 -0.5614
 5571SOL    HW128346   0.131   3.554   9.422  0.2325 -0.1803 -4.1267
 5571SOL    HW228347   0.262   3.577   9.485 -1.0184  0.0100  0.7663
 5572SOL     OW28348   0.914   2.957   1.309 -0.3966 -0.3865  0.1069
 5572SOL    HW128349   1.002   2.936   1.341  1.1292  3.1441 -1.7199
 5572SOL    HW228350   0.878   2.993   1.391  0.3562  0.8882 -0.1141
 5573SOL     OW28351   0.293   4.549  16.036 -0.4681 -0.0292  0.2839
 5573SOL    HW128352   0.250   4.522  15.955  1.2065  1.8906 -1.2426
 5573SOL    HW228353   0.296   4.642  16.012  1.0746 -0.1073  0.1217
 5574SOL     OW28354   1.612   0.480  13.763  0.0834 -0.1460 -0.0419
 5574SOL    HW128355   1.622   0.483  13.858  2.4508  0.6946 -0.3219
 5574SOL    HW228356   1.520   0.509  13.766  0.0307 -0.2397 -0.6333
 5575SOL     OW28357   2.265   3.948   2.720  0.4391  0.0491 -0.5721
 5575SOL    HW128358   2.300   4.033   2.696  0.7683 -0.6129 -2.5310
 5575SOL    HW228359   2.264   3.904   2.634  1.4431  2.4917 -1.8339
 5576SOL     OW28360   1.316   3.268   9.606 -0.0342  0.2106  0.0030
 5576SOL    HW128361   1.337   3.330   9.676 -0.9395 -1.2169  1.5410
 5576SOL    HW228362   1.349   3.314   9.529  2.0835 -0.0862  0.7381
 5577SOL     OW28363   2.350   0.176   7.880 -0.0632 -0.2959  0.2782
 5577SOL    HW128364   2.344   0.270   7.862  2.0331 -0.1754  0.1329
 5577SOL    HW228365   2.433   0.150   7.839  0.1503 -0.0469  0.5493
 5578SOL     OW28366   4.448   2.865   3.583 -0.2765 -0.5033 -0.2188
 5578SOL    HW128367   4.492   2.841   3.502 -0.1738 -4.5010  1.0489
 5578SOL    HW228368   4.395   2.785   3.588  0.1668 -0.8281 -0.7110
 5579SOL     OW28369   2.562   4.711  17.226 -0.5380 -0.0386  0.4218
 5579SOL    HW128370   2.641   0.026  17.229 -1.2626  1.1597 -1.9289
 5579SOL    HW228371   2.498   0.030  17.265 -1.7414 -1.4045  0.4753
 5580SOL     OW28372   0.947   4.379  12.948 -0.4862  0.1254 -0.1544
 5580SOL    HW128373   1.015   4.323  12.986  2.0268  1.1473 -3.1377
 5580SOL    HW228374   0.888   4.308  12.924  0.3926 -1.1300  1.3795
 5581SOL     OW28375   2.555   2.570   3.454 -0.0551  0.5310  0.0971
 5581SOL    HW128376   2.559   2.533   3.365 -0.6754  0.8631 -0.0666
 5581SOL    HW228377   2.553   2.483   3.494  0.0489  1.0586  1.2177
 5582SOL     OW28378   3.837   3.042   2.587  0.6481 -0.4831  0.7211
 5582SOL    HW128379   3.765   3.039   2.523  0.2441  1.2782  1.0986
 5582SOL    HW228380   3.849   3.137   2.594  2.3995 -0.8094  1.9204
 5583SOL     OW28381   3.860   2.216   1.957  0.4787 -0.0085 -0.1171
 5583SOL    HW128382   3.857   2.241   1.865  1.2032  0.3245 -0.0462
 5583SOL    HW228383   3.765   2.203   1.962  0.3820  0.6705 -0.2705
 5584SOL     OW28384   1.994   3.152   7.195  1.0143 -0.0102  0.1338
 5584SOL    HW128385   1.900   3.135   7.188  0.7407  1.4272  0.2673
 5584SOL    HW228386   1.996   3.247   7.183  0.7866  0.1265  1.2395
 5585SOL     OW28387   2.899   4.174   5.367 -0.0317  0.0072  0.1023
 5585SOL    HW128388   2.826   4.231   5.393 -0.4095  0.3436 -1.6942
 5585SOL    HW228389   2.852   4.100   5.329  0.3026  0.0712 -0.4421
 5586SOL     OW28390   3.489   3.839   6.195  0.1176 -0.4581 -0.6725
 5586SOL    HW128391   3.558   3.787   6.154  0.2967 -0.1141 -0.8022
 5586SOL    HW228392   3.542   3.870   6.268  0.4650  0.3763 -1.2838
 5587SOL     OW28393   4.411   0.017   5.487 -0.6233 -0.1351 -0.5318
 5587SOL    HW128394   4.404   0.113   5.487  0.6667 -0.0411  0.6335
 5587SOL    HW228395   4.434   0.003   5.395  2.1734 -1.5667  0.3850
 5588SOL     OW28396   2.057   4.117   1.483  0.1017  0.1012  0.2174
 5588SOL    HW128397   2.021   4.206   1.489 -0.8438 -0.1229 -2.0696
 5588SOL    HW228398   2.142   4.112   1.526  1.5002  0.6625 -2.4742
 5589SOL     OW28399   1.854   3.664   9.271  0.0418  0.3491 -0.1552
 5589SOL    HW128400   1.771   3.707   9.289 -0.0920  0.7973 -1.8972
 5589SOL    HW228401   1.897   3.710   9.199  1.3187 -1.2516 -0.4155
 5590SOL     OW28402   3.269   1.653   2.500 -0.0933  0.1186  0.5710
 5590SOL    HW128403   3.227   1.651   2.587  0.6292  1.0074  0.9372
 5590SOL    HW228404   3.233   1.724   2.447  0.8337  0.6549  0.6544
 5591SOL     OW28405   0.235   3.905  15.286  0.1946  0.1127  0.9456
 5591SOL    HW128406   0.277   3.882  15.203  0.6419  2.1970  0.5903
 5591SOL    HW228407   0.143   3.887  15.267  0.0456  1.1322  0.7000
 5592SOL     OW28408   2.196   4.239   2.958 -0.6414  0.3061  0.3976
 5592SOL    HW128409   2.217   4.268   2.869 -0.4234  1.9172  0.9813
 5592SOL    HW228410   2.283   4.226   2.994 -0.4764  0.7240  0.1438
 5593SOL     OW28411   4.236   1.693   2.345  0.4786  0.0382  0.7974
 5593SOL    HW128412   4.313   1.683   2.288 -0.4855 -2.0985 -0.1341
 5593SOL    HW228413   4.176   1.709   2.273  3.3256  2.7376 -1.0201
 5594SOL     OW28414   4.067   0.424   6.005 -0.2371 -0.8397 -0.2768
 5594SOL    HW128415   3.973   0.437   6.015  0.2647  3.0253 -0.5766
 5594SOL    HW228416   4.077   0.351   6.066 -0.6571 -0.0066  0.8200
 5595SOL     OW28417   0.659   2.325   8.850  0.2954  0.1941 -0.1882
 5595SOL    HW128418   0.672   2.310   8.944 -2.9185 -0.5353  0.1688
 5595SOL    HW228419   0.578   2.279   8.828  0.3688 -0.8859  1.7930
 5596SOL     OW28420   3.532   0.522   7.038  0.2159  0.3298  0.0624
 5596SOL    HW128421   3.596   0.451   7.033  0.1906  0.3794 -0.9464
 5596SOL    HW228422   3.527   0.545   6.945 -2.9643 -0.6405  0.0051
 5597SOL     OW28423   3.439   1.630  13.492  0.1221 -0.7320 -0.3492
 5597SOL    HW128424   3.476   1.608  13.577 -1.4708 -0.7905  0.3321
 5597SOL    HW228425   3.512   1.667  13.443  0.3210 -0.6601  0.0055
 5598SOL     OW28426   4.173   3.421   3.289 -0.1279  0.5602 -0.0384
 5598SOL    HW128427   4.180   3.395   3.380  1.8482 -1.2639 -0.7133
 5598SOL    HW228428   4.206   3.346   3.239  0.1517  0.8526 -0.2936
 5599SOL     OW28429   1.873   4.276   8.859  0.1510  0.3052  0.1953
 5599SOL    HW128430   1.806   4.250   8.795  1.8073  0.4919 -1.6311
 5599SOL    HW228431   1.872   4.370   8.846 -1.7170  0.5938  2.4931
 5600SOL     OW28432   3.345   0.677   3.650 -0.4693 -0.1572 -0.1981
 5600SOL    HW128433   3.270   0.651   3.703  0.3734 -0.8833  0.6329
 5600SOL    HW228434   3.295   0.737   3.594  2.4917  0.1584 -2.4939
 5601SOL     OW28435   2.257   4.420   9.208 -0.0740  0.1868 -0.4029
 5601SOL    HW128436   2.266   4.481   9.135  0.8374  0.5304 -0.0043
 5601SOL    HW228437   2.230   4.341   9.162  1.7485  0.2057 -1.4871
 5602SOL     OW28438   0.173   0.801   8.265  0.6664 -0.2950  0.0070
 5602SOL    HW128439   0.211   0.738   8.203  1.9160 -0.0403  0.5257
 5602SOL    HW228440   0.148   0.734   8.329  0.7964  1.0722  1.4875
 5603SOL     OW28441   3.529   1.378  16.984  0.6872 -0.1396 -0.6430
 5603SOL    HW128442   3.595   1.345  17.045  1.0518  2.7361  0.5371
 5603SOL    HW228443   3.565   1.463  16.958  0.8249  0.0916  0.2967
 5604SOL     OW28444   3.616   3.670  12.998 -0.4495 -0.3310  0.1046
 5604SOL    HW128445   3.633   3.751  13.047  4.5409 -0.7717 -0.9852
 5604SOL    HW228446   3.592   3.694  12.909  0.4263  1.5697  0.3798
 5605SOL     OW28447   2.580   1.320  14.264  0.4437  0.4241  0.3412
 5605SOL    HW128448   2.535   1.275  14.335 -1.3635 -1.0786 -1.7334
 5605SOL    HW228449   2.561   1.410  14.288  1.9299  0.4743  1.3305
 5606SOL     OW28450   0.288   2.482   2.214 -0.2153 -0.6700  0.3210
 5606SOL    HW128451   0.208   2.465   2.264 -0.9430 -0.6103 -0.8301
 5606SOL    HW228452   0.290   2.577   2.222 -1.3548 -0.7539  1.4464
 5607SOL     OW28453   0.786   0.484   0.311  0.0851 -0.0948 -0.1661
 5607SOL    HW128454   0.741   0.535   0.244 -1.7074 -1.3738  0.0764
 5607SOL    HW228455   0.852   0.548   0.338 -0.6059  0.8752 -0.7684
 5608SOL     OW28456   0.409   4.686   5.665 -0.1618  0.1423 -0.0840
 5608SOL    HW128457   0.314   4.674   5.669 -0.0378 -0.1301  2.1725
 5608SOL    HW228458   0.415   4.701   5.570 -1.0966  3.8789  0.4348
 5609SOL     OW28459   4.417   1.273   7.278 -0.6553  0.1199 -0.0240
 5609SOL    HW128460   4.495   1.280   7.333 -0.2589  0.2436 -0.5912
 5609SOL    HW228461   4.398   1.365   7.262  1.9731  0.6893  0.1247
 5610SOL     OW28462   0.071   3.405   7.299  0.3128  0.2560 -0.0625
 5610SOL    HW128463   0.149   3.444   7.261  0.7585 -0.2771  0.3049
 5610SOL    HW228464   0.057   3.336   7.234  1.9190  0.2544 -0.4055
 5611SOL     OW28465   1.221   4.489   4.171  0.0118  0.1356 -0.0704
 5611SOL    HW128466   1.265   4.544   4.236 -1.0663  0.3485  0.4746
 5611SOL    HW228467   1.276   4.411   4.179  0.4810  0.3399 -1.4462
 5612SOL     OW28468   3.057   3.729   3.917 -0.3361 -0.4486  0.1683
 5612SOL    HW128469   2.999   3.782   3.971 -0.7170  1.3459 -2.0105
 5612SOL    HW228470   3.023   3.641   3.935 -1.2418 -0.2405 -0.5257
 5613SOL     OW28471   4.117   0.481   4.327 -0.1095  0.1521  0.6822
 5613SOL    HW128472   4.205   0.445   4.338 -0.8954 -1.2004  2.5236
 5613SOL    HW228473   4.135   0.567   4.289 -0.1193 -0.3757 -0.5223
 5614SOL     OW28474   3.311   1.702  17.263 -0.2984  0.0720 -0.3569
 5614SOL    HW128475   3.379   1.729  17.325  0.4308  3.2882 -2.5617
 5614SOL    HW228476   3.245   1.666  17.322 -1.0781  0.2729 -1.1130
 5615SOL     OW28477   3.906   2.598  13.999  0.9814 -0.2798 -0.5877
 5615SOL    HW128478   3.836   2.628  13.940 -1.4241  0.0410  2.4668
 5615SOL    HW228479   3.982   2.633  13.953  2.3766 -1.1090  1.0869
 5616SOL     OW28480   3.596   1.275   4.722  0.4003 -0.2009  0.2791
 5616SOL    HW128481   3.690   1.285   4.735  0.3584  0.2870  0.1806
 5616SOL    HW228482   3.591   1.179   4.714 -0.8152 -0.0519 -0.7643
 5617SOL     OW28483   4.073   4.470  16.845  0.4405  0.7056 -0.4250
 5617SOL    HW128484   4.002   4.530  16.868 -0.2327 -0.6035  0.9604
 5617SOL    HW228485   4.140   4.514  16.899  0.1306  1.6485 -0.8114
 5618SOL     OW28486   2.322   4.578  13.246  0.9152  0.2458 -0.0239
 5618SOL    HW128487   2.391   4.547  13.304  1.4893 -0.2914 -0.9936
 5618SOL    HW228488   2.348   4.542  13.161  0.2116 -2.1938  0.7902
 5619SOL     OW28489   0.751   0.374  11.786 -0.5059  0.0148 -0.1071
 5619SOL    HW128490   0.846   0.378  11.783 -0.5722  0.2830 -2.4692
 5619SOL    HW228491   0.732   0.450  11.730 -1.1244 -0.8068 -1.0159
 5620SOL     OW28492   3.154   4.229  12.202  0.3569 -0.0494  0.7526
 5620SOL    HW128493   3.096   4.154  12.208  0.9438 -0.5506  0.2204
 5620SOL    HW228494   3.179   4.227  12.294  1.9087 -0.5361  0.3227
 5621SOL     OW28495   3.988   3.145  15.061  0.2362 -0.1651 -0.0183
 5621SOL    HW128496   3.973   3.177  15.150  1.6600  0.1589  0.1174
 5621SOL    HW228497   3.904   3.135  15.016  0.5919 -0.6595 -0.5755
 5622SOL     OW28498   1.859   3.518   5.036 -0.1130  0.1824 -0.7084
 5622SOL    HW128499   1.896   3.440   5.077  1.2158  1.6791  0.9636
 5622SOL    HW228500   1.799   3.537   5.109 -1.4921 -2.5451 -1.1341
 5623SOL     OW28501   0.696   0.259   2.201 -0.0839 -0.5066 -0.2126
 5623SOL    HW128502   0.782   0.274   2.240  0.0468  0.6027 -0.9380
 5623SOL    HW228503   0.708   0.258   2.107 -0.3159 -1.0815 -0.2401
 5624SOL     OW28504   3.322   0.180   3.977  0.3288  0.1054 -0.0563
 5624SOL    HW128505   3.399   0.233   3.957  0.2452 -0.2859 -1.4465
 5624SOL    HW228506   3.329   0.103   3.921  0.5734  0.2021 -0.1598
 5625SOL     OW28507   3.698   2.662   3.534 -0.7752  0.5483 -0.9616
 5625SOL    HW128508   3.665   2.575   3.554  1.0246 -0.2526 -1.4289
 5625SOL    HW228509   3.786   2.652   3.570 -2.2215 -1.3229  2.0682
 5626SOL     OW28510   2.939   2.510   3.213 -0.5013 -0.2572  0.1334
 5626SOL    HW128511   2.890   2.486   3.292  1.6376 -2.4122  0.8205
 5626SOL    HW228512   3.009   2.559   3.256  0.2991 -0.3128 -1.1007
 5627SOL     OW28513   2.414   2.795   7.774 -0.3734  0.0927 -0.5337
 5627SOL    HW128514   2.470   2.872   7.777  0.7042 -0.6723 -0.7243
 5627SOL    HW228515   2.336   2.830   7.817  0.3536  1.2902 -0.2049
 5628SOL     OW28516   2.710   1.967   3.924  0.7257  0.2048  0.4494
 5628SOL    HW128517   2.792   1.922   3.904 -0.3392 -2.0613  1.2034
 5628SOL    HW228518   2.734   2.037   3.986 -0.4670  0.1905  0.9179
 5629SOL     OW28519   2.594   2.351  10.233  0.1624  0.0798 -0.3141
 5629SOL    HW128520   2.630   2.398  10.307 -0.4621 -0.5732  0.4130
 5629SOL    HW228521   2.623   2.261  10.248 -1.0252  0.0419  1.7005
 5630SOL     OW28522   3.525   3.999   2.587  0.4887  0.3807  0.2192
 5630SOL    HW128523   3.587   3.940   2.630  0.6820  0.1834 -0.3255
 5630SOL    HW228524   3.505   3.948   2.508 -0.1049 -0.3434  0.8432
 5631SOL     OW28525   2.772   0.721   3.066 -0.3691 -0.1859 -0.1510
 5631SOL    HW128526   2.822   0.720   2.984 -0.1491  1.9964 -0.0630
 5631SOL    HW228527   2.683   0.742   3.038 -0.7867 -1.0919  0.5052
 5632SOL     OW28528   4.604   1.107  12.383  0.2791  0.3914 -0.1338
 5632SOL    HW128529   4.605   1.203  12.374  0.8947  0.3225 -0.8176
 5632SOL    HW228530   4.531   1.095  12.322 -0.8349 -2.6854  1.8321
 5633SOL     OW28531   4.696   1.351   9.372  0.2192  0.3555 -0.5870
 5633SOL    HW128532   0.040   1.399   9.373 -0.1110  0.9082  0.4949
 5633SOL    HW228533   4.665   1.366   9.462  0.4897  0.7290 -0.5518
 5634SOL     OW28534   2.783   1.567  17.131 -0.4958  0.5578 -0.1273
 5634SOL    HW128535   2.815   1.542  17.044  0.4721 -0.6822  0.5955
 5634SOL    HW228536   2.734   1.646  17.106  0.0633  1.0827  0.4547
 5635SOL     OW28537   2.058   3.239   4.228  0.1512 -0.0684  0.1144
 5635SOL    HW128538   2.010   3.276   4.154 -1.6724 -2.6073 -0.0110
 5635SOL    HW228539   2.141   3.209   4.192 -0.3554 -1.5361  0.1544
 5636SOL     OW28540   3.639   0.759   2.731  0.3840 -0.1400  0.9629
 5636SOL    HW128541   3.636   0.667   2.757 -1.3955 -0.3567 -0.0626
 5636SOL    HW228542   3.610   0.793   2.815  1.3926 -0.8738  1.6188
 5637SOL     OW28543   0.468   0.435  11.875 -0.7423 -0.3264 -0.4739
 5637SOL    HW128544   0.485   0.519  11.834 -1.3553  0.7230  1.4183
 5637SOL    HW228545   0.558   0.403  11.871 -0.5844  0.0668 -0.0472
 5638SOL     OW28546   1.002   1.389   6.327 -0.2079 -0.0522 -0.3109
 5638SOL    HW128547   0.984   1.381   6.233  1.5726  1.1766 -0.7518
 5638SOL    HW228548   1.079   1.334   6.333  0.4706  1.0464  0.9975
 5639SOL     OW28549   3.703   0.528   8.377  0.0543  0.7338 -0.4087
 5639SOL    HW128550   3.712   0.490   8.290 -2.5099  1.1636 -0.8732
 5639SOL    HW228551   3.751   0.474   8.440  1.9870  2.3710 -0.4828
 5640SOL     OW28552   4.378   2.026   2.488 -0.0880  0.5705 -0.0047
 5640SOL    HW128553   4.323   2.100   2.460  0.1861  1.1147  0.8783
 5640SOL    HW228554   4.404   1.994   2.402 -2.4695 -0.5887 -0.2899
 5641SOL     OW28555   0.391   0.836  15.480  0.0393 -0.3059  0.0591
 5641SOL    HW128556   0.482   0.812  15.498  0.2359 -0.3313 -1.0106
 5641SOL    HW228557   0.356   0.760  15.434 -0.2223 -0.0109 -0.2275
 5642SOL     OW28558   0.788   4.666   9.018  0.5091  0.1884 -0.1517
 5642SOL    HW128559   0.707   4.658   8.967  0.8517  0.1405 -0.6827
 5642SOL    HW228560   0.768   0.000   9.076  1.1219 -0.4293  0.8605
 5643SOL     OW28561   0.452   3.985   6.734 -0.1199 -0.4640  0.8603
 5643SOL    HW128562   0.531   4.038   6.742  0.3775 -0.8952 -1.2775
 5643SOL    HW228563   0.487   3.902   6.703  0.7922  0.2422 -0.0169
 5644SOL     OW28564   2.540   2.318   1.589 -0.0732  0.2912 -0.7613
 5644SOL    HW128565   2.467   2.298   1.647  0.1161 -0.9563 -0.9549
 5644SOL    HW228566   2.536   2.242   1.531  0.2343 -0.5131  0.2629
 5645SOL     OW28567   2.337   2.315   8.320  0.1633  0.0269  0.3973
 5645SOL    HW128568   2.323   2.265   8.401 -0.7339  1.4660  1.1267
 5645SOL    HW228569   2.384   2.391   8.354  1.9961 -1.0060  0.1868
 5646SOL     OW28570   2.982   1.879   6.166 -0.4257 -0.1017 -0.0625
 5646SOL    HW128571   3.050   1.946   6.166  0.7661 -1.3037  0.5171
 5646SOL    HW228572   2.916   1.924   6.218 -0.2557  1.8376 -1.5451
 5647SOL     OW28573   3.632   3.752   4.362 -0.3691  0.2289 -0.3720
 5647SOL    HW128574   3.585   3.669   4.358  1.3630 -0.8372  1.7495
 5647SOL    HW228575   3.717   3.723   4.394  0.6412  3.8277  0.2185
 5648SOL     OW28576   2.744   0.033   7.220 -0.1494 -0.0708 -0.3759
 5648SOL    HW128577   2.710   0.024   7.131  1.4938  0.5324 -1.0610
 5648SOL    HW228578   2.694   0.113   7.237  0.0341  0.1674 -0.9599
 5649SOL     OW28579   4.073   1.496   6.613 -0.1449  0.6230 -0.1248
 5649SOL    HW128580   4.112   1.525   6.696 -1.2484  1.5420  0.0814
 5649SOL    HW228581   4.125   1.550   6.554  0.4509 -0.6354 -0.7431
 5650SOL     OW28582   2.592   0.452  17.344  0.3140 -0.0103  0.0433
 5650SOL    HW128583   2.658   0.513  17.377  2.6453 -1.3032 -2.1779
 5650SOL    HW228584   2.538   0.520  17.304  0.6893 -0.5070 -1.3187
 5651SOL     OW28585   4.480   1.249  11.663  0.3209 -0.3652 -0.2927
 5651SOL    HW128586   4.418   1.300  11.611  1.1529  0.5491 -0.3822
 5651SOL    HW228587   4.562   1.273  11.620 -0.7780  1.4224 -1.3772
 5652SOL     OW28588   3.353   4.325   5.622  0.2407  0.4432 -0.4303
 5652SOL    HW128589   3.277   4.325   5.564  0.6570 -1.0457 -0.9780
 5652SOL    HW228590   3.312   4.295   5.703  2.4872  1.3139  1.0212
 5653SOL     OW28591   0.966   3.422   9.161 -0.2319  0.7161 -0.1618
 5653SOL    HW128592   0.936   3.511   9.179 -2.5097 -0.1921  0.4729
 5653SOL    HW228593   1.000   3.438   9.073 -0.6218 -3.1436 -1.0155
 5654SOL     OW28594   2.027   3.782   3.913  0.1258 -0.1649  0.2257
 5654SOL    HW128595   2.072   3.803   3.831 -0.6526  0.7319  0.0230
 5654SOL    HW228596   2.097   3.807   3.973  2.0952 -0.2238 -2.0442
 5655SOL     OW28597   4.523   1.771  17.315 -0.0839  0.1729 -0.4366
 5655SOL    HW128598   4.606   1.725  17.298  0.3541  1.4428 -1.7347
 5655SOL    HW228599   4.508   1.724  17.397 -1.2017 -1.0081 -1.3168
 5656SOL     OW28600   3.857   1.302   5.643 -0.1093  0.1854  0.1598
 5656SOL    HW128601   3.868   1.257   5.559  1.5434  1.9921 -0.5973
 5656SOL    HW228602   3.764   1.290   5.660 -0.0941  0.5029  0.4570
 5657SOL     OW28603   2.854   1.000   1.081  0.3839 -0.3774  0.3817
 5657SOL    HW128604   2.798   1.045   1.145 -0.9098 -1.2339 -0.1584
 5657SOL    HW228605   2.907   0.946   1.140  0.7591 -1.6745 -1.1560
 5658SOL     OW28606   3.043   1.304   1.792  0.5367  0.4377 -0.0633
 5658SOL    HW128607   3.010   1.356   1.718  1.8105 -0.0866 -0.9946
 5658SOL    HW228608   3.037   1.214   1.761  0.4246  0.1717  0.7171
 5659SOL     OW28609   2.094   4.166   0.836  0.2415 -0.0885 -0.4734
 5659SOL    HW128610   2.097   4.073   0.857 -0.7605 -0.0799 -0.2753
 5659SOL    HW228611   2.116   4.186   0.745 -0.6990  1.1170 -0.4509
 5660SOL     OW28612   2.496   4.100   4.482  0.4946  0.4452 -0.1227
 5660SOL    HW128613   2.547   4.132   4.408  1.4238  2.3886  1.3844
 5660SOL    HW228614   2.477   4.008   4.462 -1.2714  0.9607 -0.8564
 5661SOL     OW28615   1.926   1.221  13.864 -0.2183 -0.1020  0.2041
 5661SOL    HW128616   1.985   1.278  13.815  1.5519 -1.7465  0.3966
 5661SOL    HW228617   1.967   1.140  13.833  0.0623  0.3745 -0.6402
 5662SOL     OW28618   2.438   3.512   9.022 -0.2502 -0.5058 -0.1120
 5662SOL    HW128619   2.359   3.483   9.068 -0.0993 -0.1106  0.3951
 5662SOL    HW228620   2.419   3.600   8.990 -1.4161 -0.6840  0.0920
 5663SOL     OW28621   0.217   0.842   4.797 -0.0875  0.1453 -0.2296
 5663SOL    HW128622   0.231   0.922   4.747 -1.1598 -0.6093 -1.7393
 5663SOL    HW228623   0.177   0.785   4.731  3.0732 -0.7691 -1.3343
 5664SOL     OW28624   4.582   4.420   5.149 -0.5132 -0.0014 -0.3203
 5664SOL    HW128625   4.620   4.425   5.237 -1.3753  1.3118 -0.0311
 5664SOL    HW228626   4.660   4.411   5.094 -0.8751  0.5318 -0.9164
 5665SOL     OW28627   2.009   2.414   3.364 -0.3145  0.1207  0.2234
 5665SOL    HW128628   1.947   2.401   3.435 -0.2645  1.6552  0.5642
 5665SOL    HW228629   2.065   2.479   3.407  2.4627 -0.4489 -2.5449
 5666SOL     OW28630   0.188   4.041  14.877  0.1314  0.1382  0.6128
 5666SOL    HW128631   0.112   4.005  14.832 -0.5787 -0.4391  2.2617
 5666SOL    HW228632   0.240   4.070  14.802 -0.4710 -0.6604 -0.1157
 5667SOL     OW28633   3.162   2.618   8.637 -0.1527  0.4577  0.5734
 5667SOL    HW128634   3.114   2.541   8.668  1.4245 -0.5790  0.4246
 5667SOL    HW228635   3.255   2.595   8.636 -0.6411 -1.4349 -2.5502
 5668SOL     OW28636   1.406   2.698   3.129 -0.9179  0.2920  0.2019
 5668SOL    HW128637   1.493   2.671   3.102 -1.4879 -0.5633 -0.8090
 5668SOL    HW228638   1.415   2.786   3.092  0.2448  0.7539  1.5934
 5669SOL     OW28639   2.427   3.831   9.027 -0.2737  0.0997 -0.0759
 5669SOL    HW128640   2.417   3.883   9.106  1.5385  1.3393 -0.6759
 5669SOL    HW228641   2.508   3.789   9.056 -0.1158  1.2575  1.1904
 5670SOL     OW28642   3.324   2.034   7.814 -0.1433 -0.0852 -0.0923
 5670SOL    HW128643   3.309   1.964   7.750 -1.4366 -1.3702  1.6210
 5670SOL    HW228644   3.351   1.977   7.886 -1.7868 -0.9833 -0.1974
 5671SOL     OW28645   2.993   3.943  14.610 -0.3133 -0.1148  0.4645
 5671SOL    HW128646   3.019   3.968  14.522  1.1256  0.3836  1.0243
 5671SOL    HW228647   3.054   3.992  14.666 -1.6160  2.1257 -0.1039
 5672SOL     OW28648   0.946   2.440   0.619  0.2874 -0.3031 -0.2049
 5672SOL    HW128649   0.861   2.431   0.576  0.3471 -1.1427 -0.1390
 5672SOL    HW228650   0.996   2.496   0.560  1.1653  0.5383  1.3409
 5673SOL     OW28651   3.525   0.838  16.063 -0.1149  0.0649  0.1162
 5673SOL    HW128652   3.432   0.816  16.075  0.5354 -3.1288 -0.8248
 5673SOL    HW228653   3.524   0.934  16.066  0.9402  0.0481  1.1056
 5674SOL     OW28654   4.517   0.505   6.540 -0.1508  0.5419  0.4866
 5674SOL    HW128655   4.611   0.524   6.541 -0.0208 -0.1626  1.9136
 5674SOL    HW228656   4.487   0.572   6.603 -0.8763 -1.2041  1.9941
 5675SOL     OW28657   3.660   1.979   1.832 -0.4382  0.5218 -0.4389
 5675SOL    HW128658   3.649   2.073   1.837 -0.1143  0.4122  2.3665
 5675SOL    HW228659   3.747   1.964   1.869 -0.8430 -0.7596 -0.0024
 5676SOL     OW28660   2.967   0.346   2.553  0.7624 -0.2703 -0.1858
 5676SOL    HW128661   2.912   0.393   2.616 -0.3484 -3.3234  1.1380
 5676SOL    HW228662   3.051   0.391   2.565 -0.8288  2.1476  2.0945
 5677SOL     OW28663   4.201   1.523   4.308 -0.5346 -0.0784  0.2296
 5677SOL    HW128664   4.169   1.542   4.220  0.1961 -2.3520 -0.5318
 5677SOL    HW228665   4.224   1.608   4.345  0.3223 -0.2380  0.0559
 5678SOL     OW28666   1.764   1.410   5.603  0.0758  0.4149 -0.2417
 5678SOL    HW128667   1.741   1.502   5.586 -3.2526 -0.7258 -1.9491
 5678SOL    HW228668   1.779   1.418   5.697 -1.9670 -0.7711  0.1892
 5679SOL     OW28669   3.079   3.279   2.490 -0.2620 -0.0714 -0.4656
 5679SOL    HW128670   3.002   3.321   2.452  3.0438  3.4513 -3.3650
 5679SOL    HW228671   3.074   3.198   2.439 -1.4977 -0.4436  0.2735
 5680SOL     OW28672   0.990   4.318   0.073 -0.7746 -0.6430 -0.4724
 5680SOL    HW128673   0.949   4.239   0.039 -2.3151  0.2916 -0.7980
 5680SOL    HW228674   0.911   4.371   0.075  0.6607  1.5344 -0.8379
 5681SOL     OW28675   3.223   2.253   3.394  0.2150 -0.1447  0.2884
 5681SOL    HW128676   3.178   2.252   3.478  3.3512 -0.7645  1.9265
 5681SOL    HW228677   3.316   2.258   3.416 -0.5184  0.6995  3.1349
 5682SOL     OW28678   3.810   1.097   7.285 -0.2289  0.0969  0.2176
 5682SOL    HW128679   3.825   1.143   7.203 -1.3747 -0.9651 -0.5822
 5682SOL    HW228680   3.742   1.033   7.264  0.7531 -0.3400 -1.5534
 5683SOL     OW28681   4.273   3.258   6.630 -0.3543  0.4191 -0.2214
 5683SOL    HW128682   4.345   3.292   6.578 -0.2306 -1.4879 -1.3001
 5683SOL    HW228683   4.220   3.337   6.639 -0.9835 -0.3964  3.4229
 5684SOL     OW28684   4.236   2.800   2.774 -0.1154  0.1671  0.0934
 5684SOL    HW128685   4.196   2.769   2.693  1.3005 -2.1814  0.2808
 5684SOL    HW228686   4.310   2.739   2.779 -0.3755 -0.3159 -1.9640
 5685SOL     OW28687   0.233   1.223   6.954 -0.1787 -0.5303 -0.2064
 5685SOL    HW128688   0.323   1.195   6.936 -0.2751 -1.3848  0.6343
 5685SOL    HW228689   0.208   1.237   6.863  0.1560  1.4005  0.0089
 5686SOL     OW28690   1.742   2.809   8.387  0.2042  0.0370 -0.2845
 5686SOL    HW128691   1.809   2.749   8.354  0.6116  0.4692 -0.2365
 5686SOL    HW228692   1.783   2.871   8.447 -3.2891  1.2251  0.9229
 5687SOL     OW28693   0.948   2.057   7.912 -0.4396 -0.3839 -0.4719
 5687SOL    HW128694   0.929   2.110   7.835 -1.9569 -2.1876 -1.3308
 5687SOL    HW228695   0.889   2.093   7.979  1.5988  1.7772  0.1523
 5688SOL     OW28696   4.633   1.565  11.133  0.3269  0.2663  0.8648
 5688SOL    HW128697   4.554   1.594  11.088  1.3675  2.6516  0.5932
 5688SOL    HW228698   4.701   1.611  11.085 -1.1548 -1.4565 -2.8977
 5689SOL     OW28699   2.901   1.360  16.512 -0.0815 -0.1569  0.0909
 5689SOL    HW128700   2.989   1.388  16.486 -1.0458  2.6937 -0.0329
 5689SOL    HW228701   2.923   1.301  16.585 -1.4483  0.1089  0.7217
 5690SOL     OW28702   3.671   1.740   7.292 -0.1286 -0.9313  0.0497
 5690SOL    HW128703   3.731   1.813   7.311  2.0054 -2.5277 -0.4723
 5690SOL    HW228704   3.724   1.666   7.262  0.2128 -0.6771  0.0227
 5691SOL     OW28705   4.718   3.929   8.864 -0.2620  0.4415 -0.1933
 5691SOL    HW128706   4.729   3.998   8.799  1.3450  0.8980  0.5842
 5691SOL    HW228707   4.680   3.985   8.931 -0.4337  0.1584 -0.0515
 5692SOL     OW28708   3.542   3.078  15.494  0.0912 -0.4184  0.5894
 5692SOL    HW128709   3.555   3.164  15.536 -1.5211 -0.8020  1.8809
 5692SOL    HW228710   3.456   3.088  15.454  0.1850  2.1707  1.0002
 5693SOL     OW28711   4.226   3.425   4.279 -0.0934 -0.7505 -0.3330
 5693SOL    HW128712   4.165   3.359   4.248 -1.8821  0.5328  0.4782
 5693SOL    HW228713   4.167   3.490   4.317 -0.1362  0.3750 -2.3069
 5694SOL     OW28714   1.526   2.885   2.027  0.1839  0.1702 -0.4847
 5694SOL    HW128715   1.573   2.935   1.960  0.2663  0.1658 -0.4310
 5694SOL    HW228716   1.558   2.798   2.004 -1.0535 -0.8077  1.4824
 5695SOL     OW28717   3.693   0.872   5.196 -0.6808 -0.1175 -0.0428
 5695SOL    HW128718   3.625   0.853   5.260  1.4270 -0.3170  2.1102
 5695SOL    HW228719   3.640   0.928   5.139 -1.6549  0.1642  1.1492
 5696SOL     OW28720   4.726   1.058   5.731  0.2626 -0.0654 -0.2850
 5696SOL    HW128721   0.050   0.988   5.716 -3.8135 -3.4036 -2.3494
 5696SOL    HW228722   0.035   1.128   5.774 -1.0798  1.0327 -0.5323
 5697SOL     OW28723   4.585   1.326   9.613  0.3897 -0.1782 -0.0098
 5697SOL    HW128724   4.589   1.328   9.709  2.7594  0.0071 -0.1151
 5697SOL    HW228725   4.524   1.253   9.602  0.1299 -0.2342  1.6847
 5698SOL     OW28726   2.114   1.754  16.024  0.3079  0.5263 -0.4847
 5698SOL    HW128727   2.099   1.801  16.106 -2.7133 -2.4564  0.6505
 5698SOL    HW228728   2.180   1.688  16.045 -0.7204 -0.0188  1.0233
 5699SOL     OW28729   0.575   3.853   7.240  0.6447  0.4855 -0.0476
 5699SOL    HW128730   0.599   3.887   7.326 -0.9267 -0.9960  0.9693
 5699SOL    HW228731   0.651   3.806   7.205 -0.7249 -0.2748 -2.0216
 5700SOL     OW28732   0.237   2.473  16.497  0.5038 -0.0197 -0.4799
 5700SOL    HW128733   0.192   2.422  16.430  0.1277 -1.4527  0.8756
 5700SOL    HW228734   0.268   2.400  16.550  1.4817  1.0917  0.5126
 5701SOL     OW28735   1.147   0.050   7.278 -0.1063  0.5964  0.1624
 5701SOL    HW128736   1.193   0.029   7.359 -0.4088  0.5875  0.3329
 5701SOL    HW228737   1.059   0.018   7.299 -0.6385  1.7963 -0.2154
 5702SOL     OW28738   2.150   4.543   6.086  0.4513  0.0802  0.6667
 5702SOL    HW128739   2.107   4.620   6.124 -0.4563  0.9660 -2.1401
 5702SOL    HW228740   2.242   4.568   6.098  0.8173 -1.0214  0.1691
 5703SOL     OW28741   1.375   0.615  13.800  0.1555  0.0963 -0.3811
 5703SOL    HW128742   1.370   0.711  13.798  2.3674  0.1973 -1.1997
 5703SOL    HW228743   1.302   0.590  13.856  0.1887 -1.3140 -0.9747
 5704SOL     OW28744   4.535   4.597   4.340 -0.2855 -0.1764  0.4185
 5704SOL    HW128745   4.512   4.505   4.327 -0.1886 -0.3396  1.4719
 5704SOL    HW228746   4.629   4.590   4.320 -0.1081  0.4285  1.0402
 5705SOL     OW28747   1.106   3.908   2.524 -0.2446  0.0270 -0.2889
 5705SOL    HW128748   1.018   3.896   2.489 -1.3093  1.5304  1.8938
 5705SOL    HW228749   1.158   3.939   2.450 -0.5936 -0.1807 -0.6273
 5706SOL     OW28750   2.075   1.745   7.629 -0.5496 -0.1215 -1.2575
 5706SOL    HW128751   2.102   1.656   7.652 -4.3632 -1.1039 -0.5444
 5706SOL    HW228752   2.138   1.798   7.678 -0.1757  0.2015 -2.0940
 5707SOL     OW28753   4.611   3.002   5.906 -0.8543  0.2176  0.3651
 5707SOL    HW128754   4.611   3.097   5.891  0.3844  0.2381  0.4839
 5707SOL    HW228755   4.703   2.981   5.919 -1.3954 -2.2148  0.3055
 5708SOL     OW28756   3.232   4.542   4.682 -0.1914  0.3336 -0.2294
 5708SOL    HW128757   3.292   4.559   4.608 -0.8039 -1.3132 -1.0995
 5708SOL    HW228758   3.295   4.571   4.748  0.1532 -1.2584  0.1323
 5709SOL     OW28759   0.892   3.989   7.585  1.2067  0.0296 -0.4273
 5709SOL    HW128760   0.898   4.066   7.642  1.3105  0.1903 -0.6518
 5709SOL    HW228761   0.977   3.988   7.540  1.9850  0.1211  1.0405
 5710SOL     OW28762   1.928   2.010   3.378 -0.0203 -0.3560 -0.1955
 5710SOL    HW128763   1.902   2.032   3.468 -1.1740  0.1975 -0.6633
 5710SOL    HW228764   1.842   1.981   3.348  0.3375 -2.1323  0.4895
 5711SOL     OW28765   1.512   4.472   9.619 -0.3997 -0.2290 -0.0646
 5711SOL    HW128766   1.603   4.458   9.642 -0.3848  1.5281  0.9123
 5711SOL    HW228767   1.507   4.553   9.669 -1.3566 -0.6683  0.5504
 5712SOL     OW28768   3.647   2.363   3.269  0.1900 -0.0671  0.1525
 5712SOL    HW128769   3.739   2.350   3.244 -0.5621  0.0064 -2.6175
 5712SOL    HW228770   3.623   2.427   3.203 -0.2859  0.3102  0.6882
 5713SOL     OW28771   2.530   0.095   0.937  0.4775  0.5588 -0.6672
 5713SOL    HW128772   2.453   0.123   0.887 -0.8072  0.1655  1.0717
 5713SOL    HW228773   2.574   0.037   0.875  2.4023  0.4853  0.7437
 5714SOL     OW28774   1.815   2.573   2.155 -0.4171  0.2943  0.0927
 5714SOL    HW128775   1.873   2.550   2.228  0.3557  1.0051 -0.2856
 5714SOL    HW228776   1.820   2.494   2.101  1.8098 -0.0585  0.8183
 5715SOL     OW28777   0.075   3.712   8.659  0.1875  0.0399  0.5733
 5715SOL    HW128778   0.056   3.718   8.752  1.3752  1.9366  0.6871
 5715SOL    HW228779   0.153   3.766   8.650  1.6772 -2.4091 -1.1461
 5716SOL     OW28780   3.739   2.656  14.203 -0.2217 -0.7066  0.2991
 5716SOL    HW128781   3.662   2.625  14.155  0.1561  0.3181 -0.9627
 5716SOL    HW228782   3.802   2.607  14.150 -2.5628 -1.5557 -1.6579
 5717SOL     OW28783   4.623   2.838   6.768  0.2354 -0.7063 -0.3716
 5717SOL    HW128784   4.603   2.755   6.725 -1.0798  1.2150 -3.4562
 5717SOL    HW228785   4.605   2.908   6.705  2.3554  0.2238  0.0628
 5718SOL     OW28786   2.306   3.328   4.837 -0.6493  0.3157  0.6563
 5718SOL    HW128787   2.227   3.375   4.861 -0.8554  0.0198  0.5511
 5718SOL    HW228788   2.292   3.308   4.744 -2.0905 -0.7377  1.1023
 5719SOL     OW28789   4.023   3.574   3.920 -0.6413 -0.3189  0.1802
 5719SOL    HW128790   3.973   3.499   3.952 -0.8656 -2.2323 -4.5811
 5719SOL    HW228791   3.974   3.606   3.844  0.1252 -0.2707 -0.3011
 5720SOL     OW28792   2.000   4.033   3.022  0.0535 -0.1935 -0.4446
 5720SOL    HW128793   2.039   3.945   3.014  3.6547  1.3687 -0.1981
 5720SOL    HW228794   2.074   4.089   3.000 -0.3041  0.0976 -0.9159
 5721SOL     OW28795   2.734   2.551  10.519 -0.0982  0.6306  1.2015
 5721SOL    HW128796   2.796   2.512  10.581 -0.9712 -3.0822 -0.2624
 5721SOL    HW228797   2.644   2.524  10.537 -0.5657 -0.1718 -2.3861
 5722SOL     OW28798   1.273   3.546  13.716  0.0755  0.4973 -0.2444
 5722SOL    HW128799   1.361   3.535  13.750  0.5541  0.5220 -1.4476
 5722SOL    HW228800   1.238   3.458  13.731  2.0906 -0.2904 -0.2277
 5723SOL     OW28801   2.297   3.312   3.784  0.2731  0.1339 -0.3230
 5723SOL    HW128802   2.212   3.269   3.797  0.8798 -0.5838  1.2590
 5723SOL    HW228803   2.269   3.396   3.747 -1.0357 -0.0530  0.2234
 5724SOL     OW28804   3.935   4.241   7.531 -0.2339 -0.1445  0.0305
 5724SOL    HW128805   3.924   4.154   7.493  3.6788 -1.0118  0.8418
 5724SOL    HW228806   4.030   4.237   7.542  0.1362  1.7416 -2.7093
 5725SOL     OW28807   0.530   2.899  17.224 -0.3879  0.1485 -0.2712
 5725SOL    HW128808   0.585   2.913  17.301  3.4095  0.1350 -2.9419
 5725SOL    HW228809   0.575   2.962  17.168 -1.3582  2.0335  1.0930
 5726SOL     OW28810   2.448   2.154   3.973  0.3152  0.1256  0.1960
 5726SOL    HW128811   2.468   2.245   3.992  1.1748 -0.2004  0.8829
 5726SOL    HW228812   2.500   2.149   3.893  1.8830 -0.1078  1.2323
 5727SOL     OW28813   2.322   0.749  15.872 -0.2729 -0.0981  0.1594
 5727SOL    HW128814   2.334   0.743  15.777 -0.2312 -1.8228  0.2762
 5727SOL    HW228815   2.237   0.793  15.877 -0.6323 -0.7136 -0.5760
 5728SOL     OW28816   1.404   4.150  14.239  0.2945  0.3488 -0.0968
 5728SOL    HW128817   1.351   4.156  14.319 -1.1054  1.4365 -1.1172
 5728SOL    HW228818   1.329   4.170  14.183  1.6610  2.7281 -1.1009
 5729SOL     OW28819   1.492   2.193   2.421  0.0185  0.3912  0.4063
 5729SOL    HW128820   1.557   2.149   2.476  0.3273  1.4592  0.8972
 5729SOL    HW228821   1.460   2.260   2.481 -0.4782  0.1668  0.3863
 5730SOL     OW28822   2.932   2.981   0.370 -0.1560  0.3128 -0.5227
 5730SOL    HW128823   2.903   2.924   0.299  2.6980 -1.9585  0.1379
 5730SOL    HW228824   2.943   2.918   0.441 -1.0464 -0.5478 -1.1482
 5731SOL     OW28825   3.798   4.403   6.482  0.1974 -0.5814  0.2449
 5731SOL    HW128826   3.873   4.431   6.429  0.1301 -1.2113 -0.1847
 5731SOL    HW228827   3.833   4.389   6.570  3.6578  1.4742 -0.7959
 5732SOL     OW28828   2.201   3.942   0.447  0.0605  0.4686 -0.6056
 5732SOL    HW128829   2.252   3.974   0.521  0.5177  0.5753 -0.9699
 5732SOL    HW228830   2.120   3.925   0.496  0.0871 -1.9348 -1.3897
 5733SOL     OW28831   4.517   4.452   5.771  0.1529  0.2328  0.3430
 5733SOL    HW128832   4.528   4.362   5.802 -1.0107 -0.0698 -0.1418
 5733SOL    HW228833   4.501   4.434   5.679  1.9048 -0.7386  0.2179
 5734SOL     OW28834   1.786   0.631   5.703  0.1439  0.3997  0.8343
 5734SOL    HW128835   1.690   0.627   5.707  0.2210 -1.3287  0.9656
 5734SOL    HW228836   1.793   0.595   5.614  1.4238  0.2390  1.0098
 5735SOL     OW28837   3.717   3.168  15.020  0.0062  0.5124 -0.3344
 5735SOL    HW128838   3.654   3.110  14.977  0.2092 -2.3972  3.3199
 5735SOL    HW228839   3.727   3.123  15.104  2.0947 -0.3600 -1.0394
 5736SOL     OW28840   2.931   1.062   0.044 -0.2743  0.3490 -0.1887
 5736SOL    HW128841   2.963   1.151   0.051  1.1505 -0.2234  0.5544
 5736SOL    HW228842   2.859   1.060   0.107 -0.0429 -0.7767  0.0467
 5737SOL     OW28843   2.091   3.147  15.742 -0.2752 -0.3366 -0.6121
 5737SOL    HW128844   2.020   3.160  15.805  0.8561 -1.7555  0.9425
 5737SOL    HW228845   2.048   3.158  15.657  0.9155  2.3945 -0.8352
 5738SOL     OW28846   0.618   4.287   8.887 -0.2949  0.2259 -0.4042
 5738SOL    HW128847   0.686   4.259   8.947  0.6195 -1.1015 -2.0582
 5738SOL    HW228848   0.562   4.326   8.954  1.8612 -0.2342  1.6638
 5739SOL     OW28849   3.784   2.026  10.612 -0.3516 -0.2267  0.5037
 5739SOL    HW128850   3.741   1.978  10.541 -1.1206  1.8147 -0.4089
 5739SOL    HW228851   3.779   2.121  10.601 -2.6775 -0.6842 -2.3869
 5740SOL     OW28852   2.139   3.970  10.031 -0.5640 -0.1926 -0.3841
 5740SOL    HW128853   2.191   3.969  10.112 -1.0915 -0.3672 -0.0516
 5740SOL    HW228854   2.096   3.885  10.027  0.5501 -0.7533 -0.7143
 5741SOL     OW28855   2.519   0.937   6.910 -0.2127  0.2239  0.5401
 5741SOL    HW128856   2.499   1.014   6.857 -4.6498  0.2610  2.2416
 5741SOL    HW228857   2.593   0.955   6.967  0.6177  0.5093 -0.6168
 5742SOL     OW28858   1.348   2.649   7.358  0.1206  0.2095  0.4370
 5742SOL    HW128859   1.328   2.555   7.363  1.0709 -0.1148 -2.0405
 5742SOL    HW228860   1.370   2.664   7.450  0.4807  0.2995  0.3352
 5743SOL     OW28861   3.774   3.897   8.139  0.0651  0.5090 -0.1551
 5743SOL    HW128862   3.833   3.964   8.173  0.3056  0.5572 -0.6733
 5743SOL    HW228863   3.738   3.855   8.217  1.4955  0.3384  0.4008
 5744SOL     OW28864   0.658   3.117   2.497 -0.4009 -0.7150 -0.3230
 5744SOL    HW128865   0.715   3.114   2.421 -0.6453  0.3823 -0.5471
 5744SOL    HW228866   0.644   3.211   2.492 -0.3549 -0.8005 -2.1108
 5745SOL     OW28867   0.209   0.434  12.519  0.2051 -0.5826 -0.0683
 5745SOL    HW128868   0.131   0.386  12.547 -0.3420  1.0778  1.2046
 5745SOL    HW228869   0.189   0.524  12.545 -1.0816  0.0685 -3.2600
 5746SOL     OW28870   3.954   4.021   3.105 -0.3583  0.1302  0.2894
 5746SOL    HW128871   3.967   4.099   3.159 -0.1401 -0.2400  0.7697
 5746SOL    HW228872   4.018   4.026   3.033  0.9664  1.4416  1.5589
 5747SOL     OW28873   0.801   3.112   7.536 -0.0002  0.5309  0.2973
 5747SOL    HW128874   0.831   3.147   7.452  0.5412 -0.4600  0.0822
 5747SOL    HW228875   0.820   3.189   7.590  2.2729  2.3364 -3.1130
 5748SOL     OW28876   2.116   2.201   5.841  0.2441 -0.0982 -0.3667
 5748SOL    HW128877   2.023   2.178   5.851 -0.0866  1.8314  0.9416
 5748SOL    HW228878   2.134   2.133   5.776  0.3481 -1.3783  0.9955
 5749SOL     OW28879   1.988   4.671   3.005 -0.2536 -0.2153 -0.2948
 5749SOL    HW128880   1.996   4.669   2.910 -1.9740  0.1493 -0.4462
 5749SOL    HW228881   2.077   4.695   3.033 -0.5132  1.4595 -0.8779
 5750SOL     OW28882   4.622   1.552   8.617  0.4088 -0.2827 -0.6491
 5750SOL    HW128883   4.631   1.457   8.606  2.1306 -0.0779 -1.0256
 5750SOL    HW228884   4.699   1.573   8.670  0.3757  0.1495 -0.7764
 5751SOL     OW28885   1.622   1.150   6.589  0.2617  0.2442  0.2053
 5751SOL    HW128886   1.586   1.088   6.525  1.2523  1.4395 -1.4859
 5751SOL    HW228887   1.615   1.231   6.539 -1.7393 -0.8761 -1.3412
 5752SOL     OW28888   0.833   0.591   9.244 -0.0298 -0.1712 -0.4761
 5752SOL    HW128889   0.873   0.504   9.242  0.0655 -0.1364 -0.1200
 5752SOL    HW228890   0.758   0.574   9.301  0.7972 -1.1983  0.3003
 5753SOL     OW28891   3.006   2.581  12.140 -0.6235  0.4981 -0.9841
 5753SOL    HW128892   2.916   2.549  12.144  0.3689 -2.0111  1.2772
 5753SOL    HW228893   2.995   2.658  12.196  0.6983 -1.7338  2.3603
 5754SOL     OW28894   2.744   2.746   4.436 -0.6248  0.1459  0.7302
 5754SOL    HW128895   2.751   2.760   4.530 -1.6113 -1.9759  1.1329
 5754SOL    HW228896   2.697   2.664   4.451  0.6246 -0.2397  2.4842
 5755SOL     OW28897   4.183   2.884   4.524 -0.0118 -0.0328  0.3325
 5755SOL    HW128898   4.109   2.856   4.469 -0.9161  2.0514  0.4685
 5755SOL    HW228899   4.158   2.867   4.615  2.7878 -1.2335  0.8806
 5756SOL     OW28900   1.972   4.058   3.331 -0.1709  0.1955 -0.9768
 5756SOL    HW128901   1.934   3.985   3.282 -0.8201 -1.4607  1.9842
 5756SOL    HW228902   2.048   4.015   3.371 -0.1455  0.8862 -0.2696
 5757SOL     OW28903   4.474   1.857   8.152 -0.1679  0.4498 -0.2390
 5757SOL    HW128904   4.446   1.852   8.061  0.5140 -0.5178 -0.3972
 5757SOL    HW228905   4.568   1.871   8.143  0.3148 -0.5547  3.3059
 5758SOL     OW28906   1.592   4.595   1.550  0.0932  1.0815  0.2227
 5758SOL    HW128907   1.603   4.560   1.639  0.9799 -1.0890 -0.7401
 5758SOL    HW228908   1.512   4.554   1.519  0.6818 -0.3802  0.6161
 5759SOL     OW28909   1.712   3.187   5.905  0.1659 -0.0242  0.1172
 5759SOL    HW128910   1.691   3.189   5.812 -0.8147  1.3376  0.3724
 5759SOL    HW228911   1.708   3.095   5.931  0.1789  0.5846  2.2831
 5760SOL     OW28912   4.033   1.025  16.745 -0.1267  0.1137  0.5662
 5760SOL    HW128913   4.121   0.987  16.741 -0.4398 -0.5021 -0.3254
 5760SOL    HW228914   4.058   1.117  16.754  0.0893  0.0197  0.9557
 5761SOL     OW28915   1.570   2.009   4.195  0.2584 -0.0907  0.3462
 5761SOL    HW128916   1.600   1.932   4.243 -2.1264 -0.2670  1.5141
 5761SOL    HW228917   1.540   1.970   4.113  0.4643 -1.5251  0.9568
 5762SOL     OW28918   3.346   0.757   4.545 -0.4002 -0.1329  0.5824
 5762SOL    HW128919   3.296   0.724   4.471 -0.5929  1.0333  0.1974
 5762SOL    HW228920   3.415   0.799   4.494  1.4315 -2.4358  1.1818
 5763SOL     OW28921   2.835   2.717   9.119 -0.3310 -0.2954  0.1201
 5763SOL    HW128922   2.791   2.650   9.172  1.7761 -2.2852 -0.6137
 5763SOL    HW228923   2.906   2.741   9.179  3.1059 -0.9516 -3.7048
 5764SOL     OW28924   0.208   4.378   3.091 -0.3332 -0.3864 -0.3996
 5764SOL    HW128925   0.219   4.471   3.072  0.6623 -0.3735  0.2587
 5764SOL    HW228926   0.278   4.356   3.153 -0.7734 -0.0857  0.2107
 5765SOL     OW28927   0.243   3.302   2.989 -0.3657  0.0176  0.4554
 5765SOL    HW128928   0.314   3.336   2.936 -0.3239 -1.5069 -0.4554
 5765SOL    HW228929   0.223   3.379   3.043 -1.0360  0.2152 -0.0783
 5766SOL     OW28930   3.432   3.808   2.383  0.3268 -0.0498  0.0575
 5766SOL    HW128931   3.425   3.738   2.319  3.0432  0.8902 -1.2608
 5766SOL    HW228932   3.379   3.778   2.456 -1.7377 -1.6147 -2.0771
 5767SOL     OW28933   3.830   1.590  14.726  0.4330  1.0894 -0.6373
 5767SOL    HW128934   3.760   1.620  14.669 -1.5136 -1.8221  0.2249
 5767SOL    HW228935   3.813   1.497  14.740 -0.8105  1.3224 -0.6723
 5768SOL     OW28936   3.041   2.345   2.159  0.3412  0.3031 -0.7461
 5768SOL    HW128937   3.007   2.256   2.167  0.0715  0.6855  2.2874
 5768SOL    HW228938   3.128   2.331   2.198 -0.2634  0.3632  0.6275
 5769SOL     OW28939   0.120   3.055   6.014  0.8953  0.2419  0.0879
 5769SOL    HW128940   0.162   3.011   6.088 -0.2156  0.6305  0.9520
 5769SOL    HW228941   0.174   3.127   5.982  0.7924  1.4546  2.6144
 5770SOL     OW28942   0.527   0.074   2.944  0.5914 -0.0996 -0.5066
 5770SOL    HW128943   0.607   0.079   2.997  0.1742  0.1212  0.1005
 5770SOL    HW228944   0.493   0.161   2.966  0.8570 -0.4102  1.1896
 5771SOL     OW28945   4.191   3.812   6.526 -0.1284 -0.3334  0.5431
 5771SOL    HW128946   4.132   3.824   6.601 -0.4398  1.1252  0.0700
 5771SOL    HW228947   4.234   3.730   6.547 -0.2158 -1.0343 -2.0651
 5772SOL     OW28948   0.269   3.076  11.182 -0.3257 -0.7429  0.1464
 5772SOL    HW128949   0.275   3.082  11.087  1.9278 -1.8482  0.2207
 5772SOL    HW228950   0.340   3.017  11.209  2.2613  2.0403 -0.4710
 5773SOL     OW28951   1.173   3.518   8.023  0.4235  0.4018  0.0344
 5773SOL    HW128952   1.105   3.564   8.073 -0.6528  0.1287 -1.1746
 5773SOL    HW228953   1.235   3.587   8.044  1.4471 -0.8890  1.3002
 5774SOL     OW28954   3.412   2.955   3.741 -0.2340  0.3693  0.0979
 5774SOL    HW128955   3.326   2.913   3.735  1.1992 -2.5689  0.1462
 5774SOL    HW228956   3.380   3.039   3.773 -1.0560  0.4443 -0.9293
 5775SOL     OW28957   1.926   1.405   9.467  0.0874 -0.0590 -0.6828
 5775SOL    HW128958   1.836   1.418   9.438 -0.4621  0.1205  1.1077
 5775SOL    HW228959   1.938   1.313   9.447 -2.5923 -0.6992  0.7024
 5776SOL     OW28960   3.991   4.734  16.627  0.3151 -0.4753 -0.2118
 5776SOL    HW128961   3.958   0.074  16.587  0.3655 -0.4237 -0.1508
 5776SOL    HW228962   4.032   4.684  16.556 -3.1492 -4.0364  0.3002
 5777SOL     OW28963   2.799   0.830   4.073  0.0919  0.1746 -0.2315
 5777SOL    HW128964   2.748   0.908   4.096 -2.7149 -1.3410 -1.3058
 5777SOL    HW228965   2.753   0.761   4.119 -1.3187  0.1403 -1.7077
 5778SOL     OW28966   2.860   2.195   8.529 -0.2523 -0.0268 -0.0661
 5778SOL    HW128967   2.874   2.132   8.600 -2.4919 -0.0714  0.3440
 5778SOL    HW228968   2.942   2.183   8.482  0.0361  1.6273  0.0012
 5779SOL     OW28969   0.715   3.204  12.636  0.3559 -0.1295  0.0018
 5779SOL    HW128970   0.752   3.191  12.723 -0.6618 -0.9307  0.3158
 5779SOL    HW228971   0.770   3.279  12.613 -0.3313  0.3068 -0.2556
 5780SOL     OW28972   1.868   4.560   4.477  0.5071 -0.0533 -0.1269
 5780SOL    HW128973   1.913   4.475   4.479 -0.7461 -0.7205 -0.0668
 5780SOL    HW228974   1.942   4.618   4.495 -0.2011  0.2312  1.8572
 5781SOL     OW28975   0.421   0.311   2.992 -0.0507 -0.2304 -0.3164
 5781SOL    HW128976   0.351   0.293   2.928 -0.3752  1.8576 -0.5550
 5781SOL    HW228977   0.372   0.348   3.065  1.9846 -0.3037  1.0734
 5782SOL     OW28978   3.581   1.633  15.697 -0.2360 -0.3284  0.3115
 5782SOL    HW128979   3.556   1.587  15.777 -1.1694  2.0235  1.3784
 5782SOL    HW228980   3.673   1.609  15.687 -0.1878 -1.0852  2.4294
 5783SOL     OW28981   4.524   2.083  14.209 -0.0100 -0.7124  0.0826
 5783SOL    HW128982   4.439   2.059  14.246 -0.5412 -0.6581 -1.1007
 5783SOL    HW228983   4.551   2.158  14.263  0.0957  1.1146 -2.4863
 5784SOL     OW28984   1.264   3.597   3.345  0.1186  0.1056 -0.3050
 5784SOL    HW128985   1.249   3.662   3.277  1.5335 -0.7277 -1.4039
 5784SOL    HW228986   1.259   3.639   3.431 -0.8344  0.5085 -0.5561
 5785SOL     OW28987   4.491   2.782   1.741  0.2853  0.0976  0.1114
 5785SOL    HW128988   4.521   2.868   1.713  1.7296 -1.6698 -3.8060
 5785SOL    HW228989   4.401   2.784   1.707  1.0839  0.0779 -1.9862
 5786SOL     OW28990   1.878   1.493   6.159  0.3841 -0.5774 -0.5899
 5786SOL    HW128991   1.959   1.452   6.187 -0.6563 -0.2752  2.9805
 5786SOL    HW228992   1.903   1.546   6.084  2.2086 -1.2779 -0.4613
 5787SOL     OW28993   0.888   2.767   9.287 -0.2315  0.0319 -0.1961
 5787SOL    HW128994   0.836   2.686   9.277  2.3763 -1.6444 -0.0732
 5787SOL    HW228995   0.942   2.740   9.361  0.5737 -1.4770 -1.3122
 5788SOL     OW28996   3.824   2.125   5.470 -0.5200 -0.3170 -0.2900
 5788SOL    HW128997   3.815   2.034   5.443  0.0757 -1.0845  2.1485
 5788SOL    HW228998   3.883   2.117   5.544 -0.0912 -0.2949 -0.6277
 5789SOL     OW28999   3.416   2.416   6.470  0.1531 -0.0241  0.4590
 5789SOL    HW129000   3.389   2.324   6.466  0.7562 -0.2936  2.4671
 5789SOL    HW229001   3.403   2.449   6.381 -0.5117  0.7249  0.8328
 5790SOL     OW29002   3.161   4.131   2.942 -0.1345  0.0980  0.1742
 5790SOL    HW129003   3.189   4.041   2.928 -0.1525  0.0890  0.1968
 5790SOL    HW229004   3.216   4.148   3.019  0.0935 -1.9862  0.4774
 5791SOL     OW29005   3.213   2.975  12.592  0.4400  0.2381  0.4676
 5791SOL    HW129006   3.248   2.924  12.519 -2.4144 -0.7996 -0.1716
 5791SOL    HW229007   3.269   2.950  12.666 -0.7064 -1.7660  0.6792
 5792SOL     OW29008   4.278   0.784   6.579  0.6004  0.0356  0.2848
 5792SOL    HW129009   4.307   0.847   6.514  2.0682 -1.4116 -0.4668
 5792SOL    HW229010   4.201   0.749   6.533  1.1232  0.8700 -1.2298
 5793SOL     OW29011   1.212   3.024   5.084  0.0737 -0.0102 -0.1006
 5793SOL    HW129012   1.209   2.966   5.008  1.2362  0.4232 -0.4642
 5793SOL    HW229013   1.121   3.053   5.081 -0.1573 -0.8018 -0.8399
 5794SOL     OW29014   3.975   2.883  13.673  0.4535  0.0111 -0.1424
 5794SOL    HW129015   3.896   2.920  13.633 -1.5288 -4.5475 -0.4994
 5794SOL    HW229016   3.972   2.795  13.636 -6.3341  0.8166 -1.5388
 5795SOL     OW29017   4.216   0.280   4.833  0.0925  0.9369  0.5246
 5795SOL    HW129018   4.270   0.273   4.754 -2.8932 -1.7093 -1.2788
 5795SOL    HW229019   4.177   0.368   4.834 -0.3288  0.8002 -2.6815
 5796SOL     OW29020   1.291   1.759   7.340 -0.5769  0.2876 -0.1126
 5796SOL    HW129021   1.370   1.811   7.330  0.9402 -1.9642  0.3593
 5796SOL    HW229022   1.270   1.728   7.251 -0.1091  0.0574 -0.1395
 5797SOL     OW29023   0.088   0.299   2.120 -0.1920  0.6755  0.1975
 5797SOL    HW129024   0.104   0.368   2.184  0.4234 -1.2278  2.0732
 5797SOL    HW229025   0.075   0.353   2.042  2.3946 -1.2049 -1.5023
 5798SOL     OW29026   3.805   3.296   2.825  0.0317 -0.2289 -0.5381
 5798SOL    HW129027   3.731   3.354   2.844 -2.0966 -2.0892 -3.2037
 5798SOL    HW229028   3.751   3.219   2.803  0.1228 -1.4093  3.3057
 5799SOL     OW29029   1.778   0.225   7.983 -0.1895  0.0964  0.1095
 5799SOL    HW129030   1.781   0.227   7.887 -0.4561  1.0254  0.1252
 5799SOL    HW229031   1.682   0.227   7.984 -0.2359 -0.3031 -3.3890
 5800SOL     OW29032   2.110   0.876   8.833 -0.0038 -0.2134 -0.2457
 5800SOL    HW129033   2.183   0.937   8.824 -0.0545 -0.2663 -1.0328
 5800SOL    HW229034   2.066   0.903   8.914  1.2975  0.2888  0.2928
 5801SOL     OW29035   4.306   1.407   9.377 -0.3780 -0.2052 -0.3478
 5801SOL    HW129036   4.347   1.433   9.459 -0.7802 -0.0987 -0.1791
 5801SOL    HW229037   4.326   1.314   9.387 -1.1662 -0.3904 -0.5281
 5802SOL     OW29038   1.198   0.285  15.083  0.1328 -0.3159 -0.3029
 5802SOL    HW129039   1.212   0.191  15.075  0.9315 -0.0791 -1.6360
 5802SOL    HW229040   1.287   0.316  15.099  0.4519  0.1238 -2.8516
 5803SOL     OW29041   1.094   4.708   4.051 -0.5057 -0.6446  0.4343
 5803SOL    HW129042   1.123   4.634   4.104  2.5720 -0.9760 -1.6778
 5803SOL    HW229043   1.138   4.685   3.969 -0.6963  0.4240  0.0248
 5804SOL     OW29044   2.745   4.074   2.142 -0.1674 -0.4523 -0.2465
 5804SOL    HW129045   2.689   4.150   2.153  1.8104  0.7762  1.4300
 5804SOL    HW229046   2.765   4.053   2.233  3.3125 -0.8322 -1.0953
 5805SOL     OW29047   0.293   0.836   6.175 -0.3777  0.1359 -0.3818
 5805SOL    HW129048   0.388   0.845   6.188 -0.6738  0.8021  1.2705
 5805SOL    HW229049   0.280   0.742   6.182 -1.0980  0.2611 -0.0643
 5806SOL     OW29050   0.109   0.791   7.868 -0.1412 -0.3644 -0.0933
 5806SOL    HW129051   0.203   0.797   7.854  0.1820 -1.6978  1.4946
 5806SOL    HW229052   0.095   0.852   7.941  3.0620  0.1529  0.0763
 5807SOL     OW29053   0.633   1.290   7.382 -0.1187 -0.0699  0.2065
 5807SOL    HW129054   0.546   1.292   7.341 -1.6944  1.8180  3.5872
 5807SOL    HW229055   0.678   1.326   7.307 -2.3279  1.7293 -0.2663
 5808SOL     OW29056   3.328   1.843   5.037  0.7793  0.0350  0.1225
 5808SOL    HW129057   3.334   1.933   5.004  1.4549 -0.3951 -0.9271
 5808SOL    HW229058   3.312   1.789   4.960 -1.8539 -1.2138  1.5438
 5809SOL     OW29059   3.353   1.823   0.529  0.2006 -0.3459 -0.3081
 5809SOL    HW129060   3.272   1.772   0.539 -0.5465  0.5400 -1.7415
 5809SOL    HW229061   3.355   1.845   0.436 -0.3032  1.7907  0.1885
 5810SOL     OW29062   4.613   4.233   8.935 -0.3075 -0.6804 -0.4070
 5810SOL    HW129063   4.553   4.180   8.883 -1.3322  0.9354 -0.8935
 5810SOL    HW229064   4.628   4.182   9.014  0.4472 -1.1279 -0.8359
 5811SOL     OW29065   1.837   2.066   9.176 -0.1555 -0.6363 -0.0989
 5811SOL    HW129066   1.757   2.026   9.209  1.0296 -1.0008  2.3172
 5811SOL    HW229067   1.874   1.993   9.125  1.5489  0.8270 -0.9718
 5812SOL     OW29068   3.884   3.522  16.486 -0.1884  0.0790  0.0897
 5812SOL    HW129069   3.837   3.532  16.403  1.6366  2.5204 -0.6503
 5812SOL    HW229070   3.970   3.526  16.443  0.0576  0.9889  0.6697
 5813SOL     OW29071   4.535   1.255   9.193 -0.0171 -0.0531  0.7333
 5813SOL    HW129072   4.607   1.257   9.256  1.2712 -1.5594 -0.6738
 5813SOL    HW229073   4.514   1.348   9.200  1.3241  0.2596  0.5187
 5814SOL     OW29074   2.890   2.586   0.854  0.3082 -0.4343 -0.7099
 5814SOL    HW129075   2.845   2.648   0.911 -0.0158 -1.9265  0.6650
 5814SOL    HW229076   2.865   2.628   0.772 -0.5308  0.3478 -0.0457
 5815SOL     OW29077   3.455   3.539   4.394  0.1980 -0.3929 -0.5667
 5815SOL    HW129078   3.466   3.485   4.472  0.5396 -2.3533 -1.9497
 5815SOL    HW229079   3.361   3.544   4.381  0.1194 -0.7829 -0.1453
 5816SOL     OW29080   2.149   3.196   2.344  0.7874 -0.0578 -0.1333
 5816SOL    HW129081   2.228   3.143   2.353 -0.0640 -1.4228 -0.6818
 5816SOL    HW229082   2.149   3.218   2.250 -1.9370  1.6127  0.2404
 5817SOL     OW29083   4.015   0.484  14.128 -0.2694 -0.6041  0.1784
 5817SOL    HW129084   4.073   0.408  14.136  1.4503  0.7642  0.9309
 5817SOL    HW229085   4.053   0.521  14.048 -1.5275  2.2012  0.8808
 5818SOL     OW29086   1.847   0.406   1.332 -0.2407 -0.0356 -0.5346
 5818SOL    HW129087   1.893   0.480   1.291  0.5124  0.0110  0.4113
 5818SOL    HW229088   1.762   0.441   1.359  0.6624  1.1988  0.7406
 5819SOL     OW29089   3.047   3.266   7.866  0.3827  0.5963 -0.1749
 5819SOL    HW129090   3.095   3.254   7.784 -0.1216 -3.5902  0.1604
 5819SOL    HW229091   2.956   3.264   7.835  0.2227 -1.9095  0.4400
 5820SOL     OW29092   4.516   2.210  15.482  0.2274  0.1072 -0.2164
 5820SOL    HW129093   4.483   2.160  15.407  0.1941  1.0605 -0.8360
 5820SOL    HW229094   4.498   2.150  15.554  0.6561 -0.7307 -0.8085
 5821SOL     OW29095   4.331   0.848   8.595 -0.2143  0.1567  0.6893
 5821SOL    HW129096   4.408   0.792   8.605 -1.6103 -2.0839 -1.1304
 5821SOL    HW229097   4.345   0.873   8.503  2.0166  1.7974  1.4615
 5822SOL     OW29098   3.346   0.396   8.287 -0.4679 -0.0023  0.0741
 5822SOL    HW129099   3.289   0.324   8.261  3.2627 -2.3799 -1.5848
 5822SOL    HW229100   3.401   0.408   8.209 -1.3549 -0.4925 -0.6142
 5823SOL     OW29101   1.446   3.642   6.376 -0.0369 -0.3308  0.0915
 5823SOL    HW129102   1.375   3.697   6.346  0.8307  0.7598  0.0487
 5823SOL    HW229103   1.514   3.709   6.372  1.2120 -1.6956 -1.3866
 5824SOL     OW29104   0.268   4.199  16.025  0.4195 -0.0401  0.4813
 5824SOL    HW129105   0.345   4.143  16.015 -0.9493 -1.5452 -1.5221
 5824SOL    HW229106   0.252   4.190  16.118 -0.9807 -2.5644 -0.0055
 5825SOL     OW29107   1.530   1.744  11.547  0.0798 -0.4492 -0.4642
 5825SOL    HW129108   1.442   1.707  11.539  0.3596 -1.6192  1.8999
 5825SOL    HW229109   1.577   1.662  11.532 -0.1888 -0.7393  0.2933
 5826SOL     OW29110   3.021   0.979   6.604  0.1843  0.9859 -0.2956
 5826SOL    HW129111   3.021   0.893   6.647 -0.4983  1.6582  1.0528
 5826SOL    HW229112   3.098   1.022   6.640 -1.0643  1.2059  2.1415
 5827SOL     OW29113   4.590   0.957   8.452  0.2875 -0.2273 -0.6635
 5827SOL    HW129114   4.606   0.870   8.416  0.2444 -0.8327  0.7994
 5827SOL    HW229115   4.629   0.939   8.537 -0.9104 -1.1860 -0.3095
 5828SOL     OW29116   3.010   4.403  16.937 -0.4117  0.3104 -0.3625
 5828SOL    HW129117   3.061   4.463  16.883 -0.7877  2.3057  1.4621
 5828SOL    HW229118   3.059   4.322  16.926 -1.3310 -0.2592 -0.2979
 5829SOL     OW29119   1.419   1.291   9.064  0.1203  0.4310 -0.5407
 5829SOL    HW129120   1.342   1.251   9.024  0.9556  1.0150 -2.7436
 5829SOL    HW229121   1.375   1.294   9.149 -1.1151  3.3780 -1.2678
 5830SOL     OW29122   1.125   3.581   3.623 -0.6024 -0.2303 -0.5608
 5830SOL    HW129123   1.123   3.677   3.624  1.6318 -0.2073  3.7485
 5830SOL    HW229124   1.051   3.576   3.683  1.5612 -0.6439  2.0625
 5831SOL     OW29125   2.924   4.247   4.434  0.3082  0.1812  0.2878
 5831SOL    HW129126   3.013   4.275   4.411  0.4331  0.7076  1.4256
 5831SOL    HW229127   2.903   4.321   4.491  0.0854 -0.4485  1.0056
 5832SOL     OW29128   2.490   3.092   1.492 -0.0343 -0.0128  0.6637
 5832SOL    HW129129   2.563   3.029   1.492 -0.0714 -0.0586  0.9521
 5832SOL    HW229130   2.542   3.171   1.507 -1.4264  1.2144 -1.0484
 5833SOL     OW29131   2.181   1.135   7.349 -0.1699  0.3784 -0.4511
 5833SOL    HW129132   2.109   1.072   7.360 -2.6142  3.2920  0.2492
 5833SOL    HW229133   2.236   1.110   7.423  0.1930  1.7997 -0.2436
 5834SOL     OW29134   1.815   2.236  10.357 -0.8909 -0.1916 -0.7426
 5834SOL    HW129135   1.829   2.142  10.370  1.3627  0.4303  1.3020
 5834SOL    HW229136   1.894   2.251  10.305  0.0235  1.7553  1.1767
 5835SOL     OW29137   4.472   2.675   2.696  0.0317  0.6861 -0.1392
 5835SOL    HW129138   4.466   2.679   2.600 -0.5049  1.7205 -0.0595
 5835SOL    HW229139   4.563   2.705   2.688 -0.1015  0.9892 -0.5237
 5836SOL     OW29140   2.826   1.303   5.310  0.0627  0.2757 -0.0473
 5836SOL    HW129141   2.872   1.386   5.326  1.1091  0.3136 -3.2836
 5836SOL    HW229142   2.801   1.287   5.401  1.5371 -0.1572  0.2803
 5837SOL     OW29143   0.786   2.007   3.492 -0.3516 -0.1732  0.3883
 5837SOL    HW129144   0.739   1.941   3.544  0.7492 -1.5619 -0.3786
 5837SOL    HW229145   0.768   1.977   3.403  0.5082 -2.2574  0.8959
 5838SOL     OW29146   1.068   2.077   0.733  0.3728  0.0191  0.2771
 5838SOL    HW129147   1.026   1.996   0.762  5.3807 -2.1769  1.4265
 5838SOL    HW229148   1.005   2.102   0.666  0.0820 -0.3592  0.4085
 5839SOL     OW29149   2.919   1.833   5.017 -0.5614  0.3055  0.3892
 5839SOL    HW129150   2.943   1.904   4.958 -3.4525  0.4019 -0.6726
 5839SOL    HW229151   2.848   1.880   5.060 -3.0620 -2.9429 -0.1690
 5840SOL     OW29152   3.413   1.321   2.289 -0.2535 -0.2224  0.7625
 5840SOL    HW129153   3.329   1.350   2.325  0.4163  1.8866  0.6033
 5840SOL    HW229154   3.465   1.327   2.369  1.7387  0.9258 -0.6131
 5841SOL     OW29155   1.738   0.945   8.795  0.1348  0.5522 -0.4507
 5841SOL    HW129156   1.644   0.948   8.780  0.2752 -1.3853 -1.6637
 5841SOL    HW229157   1.752   0.855   8.825  1.7533  1.3049  1.1035
 5842SOL     OW29158   1.425   4.566   4.355  0.1588 -0.2116  0.2337
 5842SOL    HW129159   1.383   4.632   4.410 -2.4595  0.9881 -3.2376
 5842SOL    HW229160   1.479   4.516   4.416 -1.0118  0.0781  1.5101
 5843SOL     OW29161   0.248   0.483  15.898 -0.2042 -0.0943  0.0974
 5843SOL    HW129162   0.169   0.430  15.886 -0.2198  0.3299 -1.6989
 5843SOL    HW229163   0.250   0.513  15.807  2.1178 -0.1343  0.1280
 5844SOL     OW29164   1.140   0.377  14.186 -0.2937 -0.6496  0.3489
 5844SOL    HW129165   1.165   0.407  14.274 -0.0750 -0.5034  0.2359
 5844SOL    HW229166   1.111   0.291  14.215 -1.0126 -0.3795  0.4376
 5845SOL     OW29167   2.843   1.235   3.982  0.4240 -0.5505  0.6239
 5845SOL    HW129168   2.772   1.259   4.041  2.3041  0.7938  2.3384
 5845SOL    HW229169   2.791   1.188   3.916  0.1801 -1.3489  1.3874
 5846SOL     OW29170   3.071   0.423  15.192  0.7576 -0.5480  0.0262
 5846SOL    HW129171   3.009   0.487  15.157  0.3213  1.0846  3.8377
 5846SOL    HW229172   3.066   0.448  15.284  2.3252  0.9170 -0.2889
 5847SOL     OW29173   1.496   0.139   6.165  0.4186 -0.8888  0.2396
 5847SOL    HW129174   1.455   0.223   6.183  0.9229 -0.5386 -0.2271
 5847SOL    HW229175   1.583   0.163   6.196  1.0214  1.4563 -3.2415
 5848SOL     OW29176   2.917   1.159   4.540 -0.0535  0.4025 -0.0129
 5848SOL    HW129177   2.895   1.194   4.626  0.6855 -2.6978  1.4687
 5848SOL    HW229178   2.890   1.068   4.552  1.0611  0.3883  2.5355
 5849SOL     OW29179   4.158   1.889  10.118 -0.0334  0.5489 -0.3314
 5849SOL    HW129180   4.192   1.969  10.158  1.6689 -0.4728  0.2718
 5849SOL    HW229181   4.156   1.842  10.201  0.0716 -0.4325 -0.8833
 5850SOL     OW29182   4.674   1.232   5.176  0.2466 -0.3059  0.0183
 5850SOL    HW129183   4.684   1.327   5.172 -1.8595 -0.1148 -0.6984
 5850SOL    HW229184   4.661   1.216   5.269  1.3117  0.8241  0.3620
 5851SOL     OW29185   4.448   4.373   6.684  0.3001 -0.9233 -0.4286
 5851SOL    HW129186   4.505   4.343   6.613  0.5544  0.3621 -0.7698
 5851SOL    HW229187   4.398   4.294   6.704 -0.1403 -0.3976  0.5696
 5852SOL     OW29188   4.058   3.010   7.881  0.2168  0.5937  0.3571
 5852SOL    HW129189   4.056   3.060   7.799 -0.6425  1.9178  1.1925
 5852SOL    HW229190   4.117   2.939   7.858 -1.9053 -0.6718 -1.2387
 5853SOL     OW29191   0.812   2.238   8.359 -0.0971  0.4145  0.0345
 5853SOL    HW129192   0.752   2.204   8.426  0.9291 -1.0008  0.2262
 5853SOL    HW229193   0.896   2.250   8.404  0.7442 -0.6714 -1.2729
 5854SOL     OW29194   2.905   0.399   8.656 -0.5647 -0.0013 -0.4377
 5854SOL    HW129195   2.890   0.315   8.701  0.9365  1.8058  3.4029
 5854SOL    HW229196   2.891   0.369   8.566  1.7649  0.1444 -0.8412
 5855SOL     OW29197   0.222   4.071   1.994 -1.2089 -0.1491 -0.6699
 5855SOL    HW129198   0.314   4.063   1.971 -0.5625  1.3432  1.3531
 5855SOL    HW229199   0.185   4.087   1.907  0.6486  1.1975 -1.1960
 5856SOL     OW29200   3.258   0.610  15.029 -0.0632  0.1263 -0.6573
 5856SOL    HW129201   3.341   0.582  14.992  0.2081 -0.1761  0.1976
 5856SOL    HW229202   3.279   0.583  15.118 -0.4627 -0.6780 -0.8041
 5857SOL     OW29203   2.835   3.286   6.502  0.0906  0.1269 -0.6383
 5857SOL    HW129204   2.871   3.339   6.431 -0.8774  0.1344 -1.1217
 5857SOL    HW229205   2.742   3.283   6.479 -0.2746  0.1968  0.8323
 5858SOL     OW29206   2.639   2.175  17.721 -0.0586 -0.0850 -0.1281
 5858SOL    HW129207   2.547   2.163  17.744 -0.0353  3.3344  1.7785
 5858SOL    HW229208   2.646   2.128  17.638  1.1602 -1.1315  0.5671
 5859SOL     OW29209   1.894   3.093  16.869 -0.0728  0.4637 -0.1811
 5859SOL    HW129210   1.896   3.109  16.964 -2.1779 -0.3909  0.0039
 5859SOL    HW229211   1.822   3.153  16.850  0.0851  1.8857  3.6304
 5860SOL     OW29212   3.817   0.979   3.320 -0.0556  0.0617  0.1626
 5860SOL    HW129213   3.752   0.909   3.318 -1.5574  1.5261 -2.2127
 5860SOL    HW229214   3.888   0.916   3.314 -1.6215 -1.7915  1.2776
 5861SOL     OW29215   4.209   0.124   9.402 -0.1081  0.2418  0.2143
 5861SOL    HW129216   4.139   0.060   9.417  0.5011  0.0266  2.0673
 5861SOL    HW229217   4.275   0.088   9.461  1.8578  0.0968 -2.0235
 5862SOL     OW29218   3.402   2.824   0.069  0.4482 -0.2136 -0.1298
 5862SOL    HW129219   3.404   2.735   0.105  0.7433 -0.4540 -0.7450
 5862SOL    HW229220   3.358   2.868   0.142 -1.3773 -0.7423 -0.9428
 5863SOL     OW29221   0.682   1.336   7.639  0.4807  0.0793 -0.0143
 5863SOL    HW129222   0.676   1.329   7.544  0.0134  1.9877 -0.1392
 5863SOL    HW229223   0.661   1.428   7.656 -0.0095  0.1188 -0.8191
 5864SOL     OW29224   1.530   3.618   7.769  0.0690  0.1408 -0.6020
 5864SOL    HW129225   1.616   3.625   7.811 -0.8392  0.3668  1.2430
 5864SOL    HW229226   1.485   3.619   7.854 -0.9281 -2.0927 -1.1158
 5865SOL     OW29227   0.501   4.052  10.978  0.6631 -0.3319  0.8124
 5865SOL    HW129228   0.446   4.130  10.983 -0.0841 -0.7536 -0.7233
 5865SOL    HW229229   0.508   4.032  10.884 -0.5791  1.7567  0.2822
 5866SOL     OW29230   0.515   2.724   2.343  0.3152 -0.5706  0.0291
 5866SOL    HW129231   0.550   2.747   2.429  1.4791  3.2282 -1.4654
 5866SOL    HW229232   0.529   2.629   2.339  2.0870 -0.2952 -0.3654
 5867SOL     OW29233   2.396   3.168   5.955 -0.1145 -0.0589 -0.3433
 5867SOL    HW129234   2.490   3.172   5.941 -0.2514  1.3986 -0.8250
 5867SOL    HW229235   2.375   3.261   5.966  0.4563 -0.0815  0.9576
 5868SOL     OW29236   3.852   0.365   2.884  0.0850  0.3184  0.7052
 5868SOL    HW129237   3.815   0.423   2.950  1.9593  2.8930 -0.4856
 5868SOL    HW229238   3.933   0.342   2.929 -0.1306 -0.7166  0.5720
 5869SOL     OW29239   0.132   1.176   6.707  0.0514  0.0094  0.2449
 5869SOL    HW129240   0.054   1.122   6.716 -0.2986  0.4545 -0.1098
 5869SOL    HW229241   0.157   1.169   6.614 -0.9616  0.1441 -0.0332
 5870SOL     OW29242   2.156   4.629  11.115  0.0157 -0.1856 -0.3675
 5870SOL    HW129243   2.192   4.650  11.029  0.7783 -3.7464 -0.8811
 5870SOL    HW229244   2.197   4.692  11.175 -0.5930  0.2284 -0.3885
 5871SOL     OW29245   4.221   2.192   1.327 -0.9013 -0.4637 -0.1601
 5871SOL    HW129246   4.141   2.160   1.286 -0.5974 -1.7338  0.2462
 5871SOL    HW229247   4.289   2.158   1.270 -0.7593 -1.0132  0.3448
 5872SOL     OW29248   2.446   0.578   6.878  0.4780 -0.0801 -0.5551
 5872SOL    HW129249   2.418   0.634   6.806 -0.3587  1.4973  0.9907
 5872SOL    HW229250   2.407   0.620   6.955 -1.8608 -0.4271 -1.5317
 5873SOL     OW29251   3.877   0.794  16.743  0.4353  0.8109  0.3214
 5873SOL    HW129252   3.899   0.724  16.682 -2.0431  0.3076 -0.0112
 5873SOL    HW229253   3.919   0.866  16.696  3.1450 -1.0779 -0.1276
 5874SOL     OW29254   2.484   4.121   7.930 -0.3929 -0.5821 -0.5361
 5874SOL    HW129255   2.459   4.040   7.886  1.1654  1.2872 -4.7851
 5874SOL    HW229256   2.454   4.190   7.871 -0.5397 -0.7448 -0.6523
 5875SOL     OW29257   4.134   4.683   3.529  0.0531  0.0882 -0.1606
 5875SOL    HW129258   4.132   4.587   3.524  2.2931  0.2707 -4.7822
 5875SOL    HW229259   4.203   4.692   3.594 -1.2012  2.3362  0.8411
 5876SOL     OW29260   3.879   2.345   0.717  0.4683 -0.3389  0.0773
 5876SOL    HW129261   3.910   2.330   0.628 -1.0783 -0.1199 -0.4943
 5876SOL    HW229262   3.877   2.253   0.744 -0.6798 -0.1589  0.6271
 5877SOL     OW29263   2.117   2.927  16.241  0.4112  0.8573 -0.1835
 5877SOL    HW129264   2.104   2.993  16.309  0.5488  0.6931  0.0019
 5877SOL    HW229265   2.141   2.974  16.161 -1.5065  0.9070 -0.7215
 5878SOL     OW29266   3.409   2.853   2.248  0.0564  0.2224 -0.6216
 5878SOL    HW129267   3.392   2.797   2.172  0.6250  1.9927 -2.0674
 5878SOL    HW229268   3.401   2.942   2.213  3.2300  0.0248 -1.8608
 5879SOL     OW29269   1.710   3.350   4.054  0.0667  0.3328 -0.2520
 5879SOL    HW129270   1.724   3.314   3.966 -1.5232 -0.5551 -0.1501
 5879SOL    HW229271   1.737   3.439   4.032  1.6977 -0.3928 -1.1052
 5880SOL     OW29272   2.545   2.223   3.317 -0.7070 -0.0137 -0.0452
 5880SOL    HW129273   2.494   2.143   3.330 -0.7881  0.2637  1.3704
 5880SOL    HW229274   2.559   2.255   3.406 -0.0600  0.2884 -0.2577
 5881SOL     OW29275   1.062   1.019   9.409 -0.3356  0.1347 -0.4165
 5881SOL    HW129276   1.154   0.993   9.411 -1.5843 -4.4272 -1.4201
 5881SOL    HW229277   1.019   0.936   9.431  2.8318 -0.7607  2.4331
 5882SOL     OW29278   0.355   4.721  16.745  0.3445  0.4182 -0.2416
 5882SOL    HW129279   0.285   4.722  16.678 -0.2087 -0.3394  0.3306
 5882SOL    HW229280   0.316   0.035  16.814  0.8077 -1.9544  1.8305
 5883SOL     OW29281   3.411   2.270  11.957 -0.3709  0.4200  0.0182
 5883SOL    HW129282   3.444   2.234  12.040 -1.5421  1.0754  0.7639
 5883SOL    HW229283   3.325   2.297  11.986  0.3621 -0.3723  2.9020
 5884SOL     OW29284   1.651   3.046   2.237 -0.1165 -0.1829  0.6355
 5884SOL    HW129285   1.713   2.987   2.195 -0.0448  1.1663 -1.1340
 5884SOL    HW229286   1.574   2.989   2.241 -0.2242 -0.0540  0.3860
 5885SOL     OW29287   3.874   0.532   5.303  0.4209  0.2475  0.0606
 5885SOL    HW129288   3.806   0.552   5.239  0.7560  1.7477  0.1654
 5885SOL    HW229289   3.865   0.442   5.334 -0.8001  0.6152  0.7997
 5886SOL     OW29290   4.127   1.704   7.763  0.2892 -0.3052 -0.2910
 5886SOL    HW129291   4.186   1.658   7.823  1.6472  0.2322 -1.2435
 5886SOL    HW229292   4.040   1.667   7.781  0.0754  0.2447 -0.1933
 5887SOL     OW29293   2.204   1.900   9.596 -0.0372 -0.2857 -0.5935
 5887SOL    HW129294   2.168   1.903   9.508  0.1518 -0.2041 -0.6673
 5887SOL    HW229295   2.172   1.984   9.628  1.7034  0.1476 -0.0124
 5888SOL     OW29296   3.545   2.602  14.009 -0.3697 -0.3950 -0.1796
 5888SOL    HW129297   3.595   2.631  13.933 -0.6196  0.0964 -0.1576
 5888SOL    HW229298   3.461   2.621  13.966  0.4111  1.3242 -0.9356
 5889SOL     OW29299   3.932   1.500   7.845 -0.2610 -0.3204 -0.1397
 5889SOL    HW129300   3.968   1.459   7.766 -0.1217  0.8738 -0.6868
 5889SOL    HW229301   3.843   1.465   7.835 -0.1755 -1.0429  1.5263
 5890SOL     OW29302   1.142   4.739   2.442  0.0865 -0.5485 -0.6036
 5890SOL    HW129303   1.110   4.720   2.530 -0.3961 -1.0382 -0.8863
 5890SOL    HW229304   1.207   0.069   2.447 -1.7851  1.2711 -1.8837
 5891SOL     OW29305   3.730   1.879   7.728 -0.1540 -0.1973 -0.2955
 5891SOL    HW129306   3.697   1.969   7.740  1.1604  0.2857 -0.3722
 5891SOL    HW229307   3.647   1.836   7.707  0.1215 -1.2381  0.7620
 5892SOL     OW29308   0.080   0.548   2.956 -0.4903 -0.3508  0.1604
 5892SOL    HW129309   0.108   0.551   3.047 -2.3450  0.6470  0.7039
 5892SOL    HW229310   0.017   0.477   2.966 -1.3977  0.3478 -0.5227
 5893SOL     OW29311   0.446   3.903  11.464 -0.0536 -0.3772 -0.1431
 5893SOL    HW129312   0.409   3.818  11.487 -1.3332  0.3147  0.3469
 5893SOL    HW229313   0.377   3.963  11.491 -0.7839 -0.3584 -2.0679
 5894SOL     OW29314   2.725   3.541   6.725  0.3839 -0.4525  0.2781
 5894SOL    HW129315   2.741   3.451   6.753 -0.3370 -0.6482  0.0401
 5894SOL    HW229316   2.665   3.531   6.651  0.2280 -2.2938  0.6487
 5895SOL     OW29317   2.773   1.995  15.397  0.0647  0.7261  0.0031
 5895SOL    HW129318   2.848   1.954  15.353  1.4631 -0.3323  3.4291
 5895SOL    HW229319   2.767   2.071  15.338 -2.6230  0.7564  0.3086
 5896SOL     OW29320   2.753   1.893   7.420  0.5930  0.6167  0.0110
 5896SOL    HW129321   2.775   1.986   7.415 -0.4569  0.9648  1.9782
 5896SOL    HW229322   2.799   1.871   7.501 -1.8442 -1.2064  0.9076
 5897SOL     OW29323   3.688   4.477   3.613  0.0374 -0.4735 -0.2482
 5897SOL    HW129324   3.676   4.556   3.666  0.5189 -0.1274 -0.6627
 5897SOL    HW229325   3.682   4.405   3.677  2.9663  0.9860  1.6162
 5898SOL     OW29326   1.242   2.165   5.702 -0.4238  0.4033  0.4167
 5898SOL    HW129327   1.307   2.140   5.769 -1.0733  1.0446  1.2808
 5898SOL    HW229328   1.174   2.098   5.709  1.1511 -1.5257 -2.8158
 5899SOL     OW29329   2.709   1.447   0.816 -0.1694  0.1573 -0.2484
 5899SOL    HW129330   2.705   1.369   0.760  0.3660 -0.9240  1.1992
 5899SOL    HW229331   2.792   1.489   0.796  1.5208 -3.0505 -0.0933
 5900SOL     OW29332   2.006   2.481   2.361  0.3896  0.6248  0.5837
 5900SOL    HW129333   2.055   2.560   2.384  0.6344  0.2142  1.4498
 5900SOL    HW229334   1.991   2.437   2.445  0.1582 -2.5954 -1.1414
 5901SOL     OW29335   2.054   3.585   1.559  0.1501  0.2579 -0.7648
 5901SOL    HW129336   1.971   3.597   1.605  1.6963  0.6570  1.9477
 5901SOL    HW229337   2.088   3.674   1.554 -1.6460  1.1281  2.5789
 5902SOL     OW29338   1.448   4.172   1.249  0.3829 -0.4406 -0.4802
 5902SOL    HW129339   1.408   4.227   1.182  1.7212 -1.1166 -1.8391
 5902SOL    HW229340   1.505   4.230   1.301 -0.5889 -0.0577  0.1600
 5903SOL     OW29341   2.759   3.318  11.729 -0.1623  0.2412  0.3301
 5903SOL    HW129342   2.737   3.395  11.781  1.7523  0.0311  1.4555
 5903SOL    HW229343   2.670   3.314  11.693  0.0875 -0.7669 -0.1932
 5904SOL     OW29344   2.989   2.530   1.118 -0.1836  0.1002  0.7578
 5904SOL    HW129345   2.938   2.557   1.042  3.3385 -0.8005 -1.9117
 5904SOL    HW229346   2.952   2.573   1.195  0.2205 -0.8054  1.4447
 5905SOL     OW29347   4.225   0.384   5.632 -0.3036  0.4459  0.1229
 5905SOL    HW129348   4.274   0.314   5.676 -0.0332 -0.8727 -2.2792
 5905SOL    HW229349   4.291   0.403   5.564  1.9270 -1.6034  1.6911
 5906SOL     OW29350   4.355   3.637   7.085  0.1216  0.0210 -0.2687
 5906SOL    HW129351   4.368   3.546   7.112  1.1102  0.3890  0.4974
 5906SOL    HW229352   4.273   3.617   7.040  1.3019 -0.2966 -2.2360
 5907SOL     OW29353   0.736   3.567   4.254  0.1062  0.5604 -0.0990
 5907SOL    HW129354   0.697   3.559   4.341  2.4063  0.0863  0.8760
 5907SOL    HW229355   0.656   3.540   4.207 -0.2650 -1.1222  1.5153
 5908SOL     OW29356   3.203   0.004   7.712 -0.5228  0.2689  0.0986
 5908SOL    HW129357   3.149   4.687   7.657  0.6288 -0.9881  0.2431
 5908SOL    HW229358   3.183   0.093   7.682 -0.6109  0.3462  0.3935
 5909SOL     OW29359   3.760   1.111   6.986 -0.2081 -0.5722 -0.2104
 5909SOL    HW129360   3.763   1.106   6.891 -1.9484 -0.9834 -0.2502
 5909SOL    HW229361   3.737   1.021   7.009 -0.5016 -0.1864  1.0515
 5910SOL     OW29362   2.604   0.628   2.668  0.1202  0.5525 -0.0670
 5910SOL    HW129363   2.656   0.624   2.588 -0.8977  2.1159 -0.8134
 5910SOL    HW229364   2.521   0.672   2.646 -0.2763 -0.0694  0.1865
 5911SOL     OW29365   3.217   3.418   3.723  0.0491 -0.3506  0.5835
 5911SOL    HW129366   3.244   3.502   3.760 -0.9597  0.4134 -0.4315
 5911SOL    HW229367   3.247   3.422   3.632 -1.1626  2.1926  0.3143
 5912SOL     OW29368   0.537   0.491   6.022 -0.0203 -0.0905 -0.4134
 5912SOL    HW129369   0.515   0.532   5.938  0.3250  1.9809  0.5068
 5912SOL    HW229370   0.609   0.548   6.049 -0.1224 -0.8817  1.4945
 5913SOL     OW29371   2.966   2.184   5.604  0.3845 -0.1589  0.3842
 5913SOL    HW129372   3.059   2.165   5.610  0.6538  0.6630 -1.0391
 5913SOL    HW229373   2.956   2.248   5.675  1.6338  1.0710 -0.5267
 5914SOL     OW29374   2.227   0.009   8.530 -0.1721  0.4885 -0.7165
 5914SOL    HW129375   2.197   4.661   8.506 -0.2189 -0.0359  1.2276
 5914SOL    HW229376   2.305   4.718   8.576 -1.3930 -1.5955 -0.0202
 5915SOL     OW29377   1.350   1.709   4.527  0.1492 -0.0752  0.3718
 5915SOL    HW129378   1.308   1.752   4.453 -0.7271 -1.3998  0.1074
 5915SOL    HW229379   1.426   1.766   4.532 -0.2406  0.4178  0.6707
 5916SOL     OW29380   3.794   3.158  10.535 -0.4535  0.2824 -0.4146
 5916SOL    HW129381   3.872   3.183  10.583 -0.1635  1.2605 -1.3831
 5916SOL    HW229382   3.824   3.133  10.447  1.1871 -2.5657  0.9482
 5917SOL     OW29383   4.713   0.356   5.029 -0.7855  0.0279 -0.1474
 5917SOL    HW129384   4.725   0.423   4.961 -1.2723 -0.3609 -0.6081
 5917SOL    HW229385   4.617   0.355   5.028 -0.8408  2.2826  0.8629
 5918SOL     OW29386   1.527   1.061   1.738 -0.1960 -0.5317 -0.0108
 5918SOL    HW129387   1.613   1.049   1.778 -0.4059  1.7405  1.1413
 5918SOL    HW229388   1.503   1.137   1.791  3.4916  0.1756  0.6569
 5919SOL     OW29389   4.728   4.709   8.894 -0.0188 -0.2631 -0.2902
 5919SOL    HW129390   4.684   4.632   8.933  0.3809 -1.3489 -1.9730
 5919SOL    HW229391   4.650   0.017   8.866 -0.8694 -2.2010 -1.2302
 5920SOL     OW29392   0.474   4.301   7.014 -0.2057 -0.5149 -0.5190
 5920SOL    HW129393   0.499   4.277   6.925  1.1973 -1.6969  0.2010
 5920SOL    HW229394   0.486   4.222   7.066  1.6321  1.0513  1.4409
 5921SOL     OW29395   0.577   1.000   4.999 -0.3118 -0.0112 -0.1261
 5921SOL    HW129396   0.497   1.052   4.994 -1.2913 -1.4115  1.0546
 5921SOL    HW229397   0.632   1.052   4.940  1.8757 -0.3610  1.5792
 5922SOL     OW29398   1.752   3.614  10.848 -0.5697 -0.1291 -0.5447
 5922SOL    HW129399   1.767   3.706  10.871  2.2456 -1.1150  1.5325
 5922SOL    HW229400   1.836   3.573  10.866 -1.0604 -1.1955 -0.6662
 5923SOL     OW29401   1.035   3.663   3.966 -0.9382  0.2130  0.1813
 5923SOL    HW129402   0.980   3.706   4.032  2.3463 -0.0591  3.0973
 5923SOL    HW229403   1.106   3.727   3.954  0.1875 -0.5341  2.7232
 5924SOL     OW29404   4.501   0.129  12.681 -0.3253 -0.0094  0.3774
 5924SOL    HW129405   4.481   0.113  12.589 -0.2260  1.3020  0.1277
 5924SOL    HW229406   4.453   0.055  12.718 -2.8470  0.7954 -1.2840
 5925SOL     OW29407   1.307   2.149   6.934  0.6355  0.3261  0.2069
 5925SOL    HW129408   1.223   2.118   6.898 -0.0980  1.0294  1.3102
 5925SOL    HW229409   1.372   2.081   6.914 -0.2632 -0.7776  1.0130
 5926SOL     OW29410   2.857   0.080  11.421  0.0214 -0.0881  0.0546
 5926SOL    HW129411   2.906   0.052  11.499 -0.6018 -1.6074 -0.1081
 5926SOL    HW229412   2.890   0.009  11.366 -0.1500  0.0855 -0.2705
 5927SOL     OW29413   2.895   1.003  16.349  0.4800  0.1413 -0.0977
 5927SOL    HW129414   2.931   0.996  16.437 -0.5081 -0.6560  0.2387
 5927SOL    HW229415   2.972   1.030  16.298  0.9007  1.7565  1.3927
 5928SOL     OW29416   0.220   2.680   5.187 -0.4000 -0.2681  0.5709
 5928SOL    HW129417   0.159   2.697   5.116  2.0630  0.9319 -1.2951
 5928SOL    HW229418   0.245   2.589   5.173 -1.6774 -0.2179 -1.9268
 5929SOL     OW29419   2.710   0.194   2.547  0.1182  0.5090 -0.1838
 5929SOL    HW129420   2.630   0.247   2.549  0.0631  0.4970 -2.7791
 5929SOL    HW229421   2.781   0.257   2.557  1.2658 -0.9843  1.2197
 5930SOL     OW29422   1.923   3.852   7.912  0.4418  0.1392  0.1422
 5930SOL    HW129423   1.879   3.890   7.988 -2.7954 -3.4131  0.0093
 5930SOL    HW229424   2.013   3.875   7.934  1.0560 -1.0243 -1.1117
 5931SOL     OW29425   3.964   4.062  12.108  0.2937  0.2780  0.6817
 5931SOL    HW129426   3.970   4.144  12.159 -0.8928  1.7134 -1.4963
 5931SOL    HW229427   3.908   4.090  12.036 -1.5634 -0.1456  1.9325
 5932SOL     OW29428   4.694   4.074   3.756 -0.1247 -0.0868  0.3503
 5932SOL    HW129429   0.035   4.096   3.802 -0.8248 -0.7938  1.9295
 5932SOL    HW229430   4.710   4.130   3.681 -0.4452  0.3111  0.5766
 5933SOL     OW29431   4.107   3.300   8.481 -0.4351  0.1414  0.6424
 5933SOL    HW129432   4.107   3.205   8.491 -2.3990 -0.1990 -2.8992
 5933SOL    HW229433   4.137   3.290   8.391 -3.2463 -3.9104  0.1734
 5934SOL     OW29434   4.539   0.980   6.869  0.1168 -0.0033  0.2536
 5934SOL    HW129435   4.451   0.942   6.862  0.3719 -0.9951  2.3269
 5934SOL    HW229436   4.514   1.044   6.936  0.0507  0.3074 -0.0688
 5935SOL     OW29437   2.720   0.960   2.781 -0.0035  0.1290 -0.2842
 5935SOL    HW129438   2.650   0.984   2.843  1.5873  0.6409  1.3090
 5935SOL    HW229439   2.727   1.050   2.749 -1.2273  0.9811  1.8639
 5936SOL     OW29440   4.383   3.120   5.741  0.0980 -0.1687  0.0565
 5936SOL    HW129441   4.324   3.194   5.754 -0.9633 -1.0846  0.5157
 5936SOL    HW229442   4.469   3.156   5.758 -0.3492  1.6948 -1.6903
 5937SOL     OW29443   0.299   4.145   4.187  0.0934 -1.0228  0.6523
 5937SOL    HW129444   0.385   4.122   4.152 -0.3965 -1.2643 -0.3876
 5937SOL    HW229445   0.317   4.226   4.234  0.9725 -0.1575 -1.1998
 5938SOL     OW29446   2.455   1.906   9.489 -0.1111  0.0004 -0.3515
 5938SOL    HW129447   2.442   1.966   9.416 -0.8676  0.4970  0.2002
 5938SOL    HW229448   2.369   1.905   9.530 -0.0569  0.4576 -0.2316
 5939SOL     OW29449   4.327   4.710   6.429  0.0602  0.1915  0.2168
 5939SOL    HW129450   4.231   4.700   6.428  0.0585  0.2173 -0.0082
 5939SOL    HW229451   4.326   0.054   6.383 -0.1741  1.4066  2.4402
 5940SOL     OW29452   2.238   2.373   7.660 -0.7575  0.4005 -0.3224
 5940SOL    HW129453   2.168   2.420   7.706 -0.8548  0.1631 -0.2278
 5940SOL    HW229454   2.306   2.378   7.727 -0.8333 -1.5852 -0.1039
 5941SOL     OW29455   4.640   2.225   8.938  0.0840 -0.6930 -0.0406
 5941SOL    HW129456   4.554   2.246   8.901 -0.1917  0.3272  1.1765
 5941SOL    HW229457   4.633   2.131   8.955 -1.3770 -0.4859  0.4121
 5942SOL     OW29458   1.574   4.375  17.455  0.5134  0.7520  0.6891
 5942SOL    HW129459   1.584   4.450  17.513  0.9991 -0.3767  2.0408
 5942SOL    HW229460   1.640   4.319  17.497  0.2009 -0.8537 -0.9472
 5943SOL     OW29461   0.498   3.975   0.679  0.1454  0.2401 -0.0925
 5943SOL    HW129462   0.544   3.899   0.714 -0.7880 -0.7383 -0.9757
 5943SOL    HW229463   0.540   4.054   0.713 -1.0416  0.6702  0.3986
 5944SOL     OW29464   1.108   0.309   7.219 -0.2279 -0.0304 -0.2513
 5944SOL    HW129465   1.142   0.222   7.240  1.0326  0.3991 -0.5061
 5944SOL    HW229466   1.099   0.335   7.311 -0.2895  1.9437 -0.8077
 5945SOL     OW29467   3.726   0.157   7.973  0.5714 -0.4462 -0.5106
 5945SOL    HW129468   3.785   0.143   8.047  2.3658 -1.8335 -2.2186
 5945SOL    HW229469   3.701   0.248   7.988 -1.0679 -1.3379  2.2951
 5946SOL     OW29470   2.161   3.896   4.117 -0.3878 -0.0027  0.5694
 5946SOL    HW129471   2.129   3.957   4.183  0.6218  1.5233 -0.3512
 5946SOL    HW229472   2.195   3.823   4.168  0.4002 -0.1860 -0.2265
 5947SOL     OW29473   0.161   0.023   5.956  0.0534 -0.1611  0.0794
 5947SOL    HW129474   0.175   0.090   5.890 -0.4662 -1.5333 -1.4150
 5947SOL    HW229475   0.067   0.015   5.943  0.1055 -1.7119  0.6193
 5948SOL     OW29476   0.370   2.522   5.397 -0.2362  0.5075  0.0672
 5948SOL    HW129477   0.375   2.607   5.354 -1.7892  0.5455 -0.0326
 5948SOL    HW229478   0.340   2.458   5.332 -1.3479  0.4096  0.6898
 5949SOL     OW29479   4.074   4.589   8.201  0.3107  0.1419  0.0773
 5949SOL    HW129480   4.018   4.534   8.147 -1.4879  1.2309  0.8446
 5949SOL    HW229481   4.030   4.577   8.285  1.9862 -3.0246  0.4981
 5950SOL     OW29482   1.986   0.746   2.318  0.1964 -0.6081 -0.1754
 5950SOL    HW129483   1.990   0.777   2.228 -0.0542 -0.6307 -0.1954
 5950SOL    HW229484   1.929   0.669   2.329 -0.2992 -0.3310 -0.7707
 5951SOL     OW29485   0.666   3.386   6.037  0.2608 -0.1634 -0.1836
 5951SOL    HW129486   0.699   3.299   6.060 -0.8879 -0.7985 -0.8757
 5951SOL    HW229487   0.661   3.430   6.122  2.5546  1.6163 -0.9812
 5952SOL     OW29488   2.978   1.796   0.906  0.0230  0.6181  0.1566
 5952SOL    HW129489   2.900   1.846   0.930 -0.9238  0.0360 -1.7076
 5952SOL    HW229490   2.976   1.808   0.811  1.4946 -1.0079 -0.0861
 5953SOL     OW29491   1.632   1.976   4.982  0.2088  0.1078 -0.0046
 5953SOL    HW129492   1.537   1.968   4.993  0.1824 -1.5648 -1.5199
 5953SOL    HW229493   1.662   1.895   5.022 -0.0114 -0.3548 -0.7910
 5954SOL     OW29494   0.456   4.388   2.875  0.3250 -0.0253 -0.5141
 5954SOL    HW129495   0.440   4.388   2.969  0.6723  1.4330 -0.4445
 5954SOL    HW229496   0.420   4.304   2.846 -1.7709  0.4658  0.6052
 5955SOL     OW29497   1.173   3.225   5.378 -0.6095 -0.1318  0.1300
 5955SOL    HW129498   1.213   3.173   5.447 -1.6458 -3.1272 -1.5019
 5955SOL    HW229499   1.121   3.163   5.327 -1.3366  1.1220 -0.6742
 5956SOL     OW29500   2.782   1.426   1.187  0.2427 -0.0789  0.1610
 5956SOL    HW129501   2.786   1.332   1.205 -0.3353 -0.0890  0.2314
 5956SOL    HW229502   2.693   1.446   1.159  1.5396  1.3185 -2.9325
 5957SOL     OW29503   3.463   3.338  10.006  0.2153  0.0634  0.0885
 5957SOL    HW129504   3.375   3.363  10.033 -1.4997 -1.2180 -4.1461
 5957SOL    HW229505   3.510   3.344  10.089 -0.3226 -0.0127  0.3936
 5958SOL     OW29506   0.907   3.432   5.769 -0.2021  0.7786  0.6140
 5958SOL    HW129507   0.817   3.404   5.784  0.1539  0.1273  1.5008
 5958SOL    HW229508   0.884   3.524   5.785 -0.4571  0.8225 -0.0202
 5959SOL     OW29509   3.600   1.582   3.929 -0.3599 -0.1308 -0.5248
 5959SOL    HW129510   3.668   1.623   3.876  0.9506 -0.1883  1.0722
 5959SOL    HW229511   3.657   1.522   3.978  0.7657  0.2619 -1.3392
 5960SOL     OW29512   2.873   2.157   3.441  0.1478  0.2235  0.1614
 5960SOL    HW129513   2.854   2.153   3.348 -0.4782 -0.7305  0.3325
 5960SOL    HW229514   2.798   2.109   3.476 -1.2457  0.3755 -2.6019
 5961SOL     OW29515   2.395   2.378   7.891  0.0532  0.2113  0.4306
 5961SOL    HW129516   2.388   2.336   7.976 -0.6026  0.7283  0.6342
 5961SOL    HW229517   2.418   2.465   7.924 -0.3063  0.1955  0.7225
 5962SOL     OW29518   0.217   1.754   6.624  0.0140 -0.0681  0.3031
 5962SOL    HW129519   0.256   1.838   6.646  0.4893 -0.3559  0.5629
 5962SOL    HW229520   0.164   1.788   6.551  1.0927 -1.2239 -1.0331
 5963SOL     OW29521   3.312   0.857   0.607 -0.3984  0.5095  0.0523
 5963SOL    HW129522   3.405   0.836   0.607 -0.8369 -1.4498 -0.2270
 5963SOL    HW229523   3.319   0.942   0.565  0.0799 -0.4604 -1.8131
 5964SOL     OW29524   4.451   2.178   1.492  0.4790 -0.0050 -0.3945
 5964SOL    HW129525   4.483   2.267   1.503 -0.2661  0.3428 -1.0417
 5964SOL    HW229526   4.374   2.181   1.435 -0.2515 -0.1417  0.5868
 5965SOL     OW29527   4.616   3.561  13.033 -0.3270  0.6718 -0.2476
 5965SOL    HW129528   4.547   3.504  13.000  1.1213 -0.3800 -1.4518
 5965SOL    HW229529   4.697   3.529  12.994 -0.5110 -0.1383  0.0549
 5966SOL     OW29530   4.519   2.731   6.514 -0.2055  0.5064 -0.1295
 5966SOL    HW129531   4.559   2.816   6.497 -1.8833  1.3513  0.1703
 5966SOL    HW229532   4.504   2.694   6.426 -0.1436 -1.0425  0.5114
 5967SOL     OW29533   3.091   3.387   7.598 -0.5330  0.1448  0.3944
 5967SOL    HW129534   3.055   3.378   7.510  0.7639  0.2485 -0.1447
 5967SOL    HW229535   3.146   3.463   7.579 -0.7552 -0.2886 -1.9598
 5968SOL     OW29536   1.326   3.701  16.356 -0.4500  0.1193  0.3551
 5968SOL    HW129537   1.292   3.718  16.268  0.0401  0.5073  0.2373
 5968SOL    HW229538   1.317   3.784  16.402 -0.4140  0.1248  0.3527
 5969SOL     OW29539   1.298   3.695   1.265 -0.1121 -0.1690  0.3951
 5969SOL    HW129540   1.346   3.717   1.346  0.4912 -0.2968  0.0747
 5969SOL    HW229541   1.254   3.617   1.299 -1.0702 -1.1027 -2.9832
 5970SOL     OW29542   0.621   4.352   6.029 -0.3871  0.2326 -0.3505
 5970SOL    HW129543   0.588   4.290   6.094 -0.5332  2.7797  2.0274
 5970SOL    HW229544   0.587   4.431   6.072 -1.3322 -1.1303  1.4274
 5971SOL     OW29545   2.329   3.346  16.024  0.3301 -0.3109 -0.3973
 5971SOL    HW129546   2.240   3.378  16.009  0.8813  1.3114 -0.1936
 5971SOL    HW229547   2.376   3.427  16.005  1.3636 -1.1979 -1.5978
 5972SOL     OW29548   3.139   1.425   4.494 -0.5267 -0.3382 -0.0653
 5972SOL    HW129549   3.205   1.399   4.430  0.1148 -0.3808  0.6172
 5972SOL    HW229550   3.180   1.383   4.569  0.5211 -2.2640 -1.7206
 5973SOL     OW29551   3.872   3.261   8.792 -0.6916  0.0148 -0.1060
 5973SOL    HW129552   3.900   3.351   8.777  1.4648 -0.9525 -1.8096
 5973SOL    HW229553   3.937   3.228   8.854  0.3651  0.7280 -0.8324
 5974SOL     OW29554   3.608   3.899  11.840  0.4320 -0.5126 -0.2418
 5974SOL    HW129555   3.646   3.840  11.905 -0.3371  0.6403  1.2553
 5974SOL    HW229556   3.681   3.956  11.815 -0.8173  0.4575 -1.7372
 5975SOL     OW29557   3.034   1.572   2.045  0.1293 -0.1863 -0.6149
 5975SOL    HW129558   3.128   1.558   2.034  0.1020 -2.5571  2.0961
 5975SOL    HW229559   3.039   1.667   2.042 -1.8340 -0.0856 -1.2684
 5976SOL     OW29560   4.009   3.304   1.513  0.2801  0.3254 -0.3409
 5976SOL    HW129561   3.971   3.216   1.521  0.4759  0.3055  0.3988
 5976SOL    HW229562   3.935   3.364   1.503  2.1576  2.7180  0.1139
 5977SOL     OW29563   0.865   3.419   2.999 -0.0578  0.0833  0.5072
 5977SOL    HW129564   0.874   3.326   2.979 -0.3492  0.3166 -0.7136
 5977SOL    HW229565   0.776   3.414   3.033  0.3729  1.1280  1.7589
 5978SOL     OW29566   2.758   3.038   7.974  0.1699 -0.3565  0.0539
 5978SOL    HW129567   2.817   3.016   7.901  1.3901 -0.9170  1.1966
 5978SOL    HW229568   2.765   2.956   8.022  1.6890 -1.5593 -2.2145
 5979SOL     OW29569   4.689   1.344   2.812  0.0117 -0.2405 -0.1490
 5979SOL    HW129570   4.697   1.435   2.784  0.2745  0.2368  1.4836
 5979SOL    HW229571   4.668   1.346   2.905  3.4169  1.9654  0.5470
 5980SOL     OW29572   0.149   1.643   9.197 -0.1837 -0.0516 -0.0352
 5980SOL    HW129573   0.161   1.594   9.278 -2.0162  2.3084  1.6671
 5980SOL    HW229574   0.072   1.699   9.207 -0.2861  0.1133 -1.6363
 5981SOL     OW29575   2.863   4.157   0.694 -0.6943  0.1155  0.1173
 5981SOL    HW129576   2.869   4.236   0.747 -0.7306  0.6612 -0.7015
 5981SOL    HW229577   2.957   4.139   0.687 -0.5974  0.1444  1.2479
 5982SOL     OW29578   0.428   3.246   7.807 -0.4147  0.1635  0.5429
 5982SOL    HW129579   0.362   3.176   7.802  2.4177 -2.4798 -0.1676
 5982SOL    HW229580   0.467   3.230   7.894 -1.9509 -1.1848  0.9873
 5983SOL     OW29581   0.141   3.884   9.510  0.3913 -0.0717 -0.5402
 5983SOL    HW129582   0.050   3.869   9.534  0.6090  0.5008  0.6269
 5983SOL    HW229583   0.162   3.794   9.485  0.4720 -0.2084  0.0317
 5984SOL     OW29584   0.797   0.404   0.840  0.8270 -0.0893 -0.1685
 5984SOL    HW129585   0.768   0.315   0.862 -2.2374  0.4255 -2.0350
 5984SOL    HW229586   0.776   0.400   0.746  0.6283  4.0051 -0.2890
 5985SOL     OW29587   4.359   4.012  10.131  0.4896 -0.3749  0.2817
 5985SOL    HW129588   4.271   3.999  10.096  0.3138 -1.6841  1.1919
 5985SOL    HW229589   4.408   4.007  10.049  1.1618  2.5210  0.4974
 5986SOL     OW29590   4.293   0.870   4.355  0.5892 -0.1940  0.8403
 5986SOL    HW129591   4.300   0.904   4.444  0.8335 -0.6311  0.9858
 5986SOL    HW229592   4.296   0.955   4.310  1.2059 -0.9344 -0.5151
 5987SOL     OW29593   0.709   0.493   5.156  0.4930 -0.5456 -0.8446
 5987SOL    HW129594   0.796   0.512   5.122  1.2663  1.6574  2.2544
 5987SOL    HW229595   0.702   0.398   5.167 -2.1796 -0.1575  0.9406
 5988SOL     OW29596   2.756   2.771   8.045  0.1716  0.0654 -0.0507
 5988SOL    HW129597   2.819   2.707   8.079  1.4662  1.1355 -0.4345
 5988SOL    HW229598   2.687   2.718   8.006  0.1283  0.4353 -0.4750
 5989SOL     OW29599   4.032   2.216   7.174 -0.2511 -0.0628 -0.7288
 5989SOL    HW129600   4.014   2.268   7.252 -0.3196  0.2401 -0.9475
 5989SOL    HW229601   3.949   2.216   7.127 -0.5483  2.3511 -0.2121
 5990SOL     OW29602   0.157   0.691   5.157  0.7649  0.8771  0.2319
 5990SOL    HW129603   0.236   0.643   5.130 -0.2178  0.0245 -1.1483
 5990SOL    HW229604   0.147   0.762   5.094  1.3124 -0.8658 -1.8452
 5991SOL     OW29605   1.107   0.244   6.362  0.1909 -0.5924 -0.6244
 5991SOL    HW129606   1.108   0.339   6.357  1.7014 -0.4943  1.7810
 5991SOL    HW229607   1.046   0.237   6.435 -0.6944 -0.9796 -1.3877
 5992SOL     OW29608   2.730   2.951   3.898 -0.2069  0.5638 -0.5367
 5992SOL    HW129609   2.739   2.871   3.847 -0.6701 -0.2851  0.7073
 5992SOL    HW229610   2.674   2.906   3.962 -0.3714  2.6585  0.8195
 5993SOL     OW29611   2.063   4.256   1.976 -0.0628  0.2346  0.2038
 5993SOL    HW129612   2.135   4.316   1.997 -1.1624  0.8417  2.3195
 5993SOL    HW229613   1.985   4.307   1.999  1.1109  2.0616  0.1495
 5994SOL     OW29614   1.068   2.517  13.889  0.5483  0.4756 -0.2965
 5994SOL    HW129615   1.013   2.459  13.941  0.1728  0.5309 -0.6323
 5994SOL    HW229616   1.156   2.485  13.908  0.2758 -0.5824 -0.8716
 5995SOL     OW29617   3.207   1.078   2.086 -0.2258  0.2997 -0.1852
 5995SOL    HW129618   3.214   1.173   2.102  2.8950 -0.2271  1.6222
 5995SOL    HW229619   3.296   1.046   2.068 -1.2647 -2.3216 -0.6317
 5996SOL     OW29620   4.284   3.339   8.820  0.0574 -1.0592 -0.1681
 5996SOL    HW129621   4.360   3.307   8.867  1.8044  0.1772 -2.1675
 5996SOL    HW229622   4.323   3.379   8.742  0.4881 -2.6757 -0.7688
 5997SOL     OW29623   2.044   2.013  11.718  0.2827 -0.0410 -0.3025
 5997SOL    HW129624   2.027   2.011  11.624 -0.2803  0.2820 -0.2061
 5997SOL    HW229625   2.072   2.102  11.736 -0.3739 -0.6356  3.6894
 5998SOL     OW29626   4.530   2.582   7.767  0.0002 -0.4695  0.1670
 5998SOL    HW129627   4.511   2.650   7.831 -0.2074 -0.4575  0.0919
 5998SOL    HW229628   4.438   2.557   7.761 -0.5495  2.2322 -2.7100
 5999SOL     OW29629   1.640   2.956   0.656  0.2455  0.3437 -0.1802
 5999SOL    HW129630   1.602   2.963   0.744  2.2178  1.5539  0.5740
 5999SOL    HW229631   1.732   2.957   0.681 -0.0889  2.1607  1.0157
 6000SOL     OW29632   4.423   2.348  14.966  0.4381 -0.3764  0.0210
 6000SOL    HW129633   4.433   2.441  14.946  1.2963 -0.3868  0.4343
 6000SOL    HW229634   4.505   2.325  15.008  0.3505  1.5162  1.2359
 6001SOL     OW29635   0.219   1.625  13.819  0.2123  0.0042  0.2815
 6001SOL    HW129636   0.277   1.696  13.790  1.9985 -1.4029  0.3627
 6001SOL    HW229637   0.156   1.680  13.865  0.1056 -0.6595  0.9192
 6002SOL     OW29638   2.788   0.747  13.086  0.3647  0.3569 -0.5054
 6002SOL    HW129639   2.810   0.699  13.006  0.1112 -0.9018  0.1964
 6002SOL    HW229640   2.706   0.790  13.061  0.4885  0.9518  0.1155
 6003SOL     OW29641   2.799   0.737   0.237  0.0667  0.4740 -0.3455
 6003SOL    HW129642   2.857   0.662   0.223 -0.4387  0.2184 -1.0342
 6003SOL    HW229643   2.784   0.762   0.146  1.2453 -0.5551 -0.8172
 6004SOL     OW29644   3.914   0.657   9.252 -0.1641  0.2603 -0.4682
 6004SOL    HW129645   3.876   0.573   9.225  1.2480 -0.5408  0.0584
 6004SOL    HW229646   3.930   0.634   9.343 -0.1055  0.4655 -0.4277
 6005SOL     OW29647   3.076   1.365   1.505 -0.0380 -0.3038  0.6261
 6005SOL    HW129648   3.079   1.397   1.415  0.4531 -1.1914  0.3396
 6005SOL    HW229649   3.169   1.365   1.526  0.0457  0.9904  0.2429
 6006SOL     OW29650   3.134   0.934   5.376  0.3235 -0.4213 -0.3738
 6006SOL    HW129651   3.172   0.976   5.299 -1.1679 -0.1993 -1.0001
 6006SOL    HW229652   3.207   0.953   5.435 -0.8670  3.4422 -0.2027
 6007SOL     OW29653   1.551   2.759   6.611  0.5131 -0.1097 -0.0773
 6007SOL    HW129654   1.624   2.804   6.568  0.9333 -1.1714 -0.5033
 6007SOL    HW229655   1.596   2.713   6.682 -0.6007 -2.2765 -0.7663
 6008SOL     OW29656   1.435   2.580   5.097  0.5060 -0.1755  0.4179
 6008SOL    HW129657   1.401   2.654   5.148  0.0415 -1.5549  2.1199
 6008SOL    HW229658   1.397   2.506   5.145 -2.8377  0.1234 -1.8054
 6009SOL     OW29659   4.638   1.388   7.421 -0.3701 -0.2720 -0.1177
 6009SOL    HW129660   4.665   1.471   7.460  0.1903 -0.6433  0.3066
 6009SOL    HW229661   4.675   1.315   7.471  0.8332  1.3719  1.3953
 6010SOL     OW29662   0.221   1.599   2.193 -1.3919  0.3317  0.0117
 6010SOL    HW129663   0.191   1.508   2.187 -3.4743  1.1439 -1.8524
 6010SOL    HW229664   0.291   1.585   2.256 -0.7373  2.4681 -0.2318
 6011SOL     OW29665   3.894   0.103   6.967 -0.0281 -0.5792  0.4167
 6011SOL    HW129666   3.851   0.079   7.049  1.7382 -1.5120  1.0642
 6011SOL    HW229667   3.985   0.114   6.993 -0.2065  0.1991  0.7081
 6012SOL     OW29668   2.019   1.716   7.949  0.0962 -0.4924  0.4660
 6012SOL    HW129669   2.105   1.704   7.990  1.1946 -1.2970 -2.0915
 6012SOL    HW229670   2.040   1.795   7.898 -1.0531 -0.6613 -0.2547
 6013SOL     OW29671   2.431   4.253   7.304  0.2599 -0.5146  0.2143
 6013SOL    HW129672   2.506   4.257   7.363 -1.5195 -0.7473  2.4675
 6013SOL    HW229673   2.466   4.204   7.229  2.5025 -0.1397  1.0365
 6014SOL     OW29674   3.089   2.025   1.217  0.1292  0.1808  0.0637
 6014SOL    HW129675   3.057   2.110   1.187  1.2236  0.2875 -0.8348
 6014SOL    HW229676   3.169   2.016   1.165 -2.1386 -1.3010 -3.2298
 6015SOL     OW29677   0.067   4.319  15.241 -0.1481 -0.0450  0.0916
 6015SOL    HW129678   0.127   4.324  15.316  0.8970 -0.3473 -0.7325
 6015SOL    HW229679   0.109   4.254  15.185  0.3338 -0.4003  0.8660
 6016SOL     OW29680   3.407   2.593   5.842 -0.2148  0.4390 -0.2787
 6016SOL    HW129681   3.497   2.608   5.872  0.1696  2.2893 -2.4468
 6016SOL    HW229682   3.364   2.678   5.853 -2.3717 -0.5547 -1.0181
 6017SOL     OW29683   1.517   2.151   8.006  0.1912 -0.2708 -0.3020
 6017SOL    HW129684   1.560   2.126   8.087  0.8025  0.0764 -0.5249
 6017SOL    HW229685   1.493   2.065   7.971 -2.0533  0.9088 -1.6860
 6018SOL     OW29686   4.737   2.656   4.480  0.0727  0.2358  0.5290
 6018SOL    HW129687   4.724   2.569   4.519 -1.2049 -0.1219 -0.7077
 6018SOL    HW229688   0.025   2.626   4.393 -1.2112  0.4034  0.0562
 6019SOL     OW29689   3.126   4.148  13.384  0.1663  0.1624 -0.1704
 6019SOL    HW129690   3.082   4.096  13.451  0.2345  0.5592  0.1895
 6019SOL    HW229691   3.142   4.229  13.433  0.0853 -0.3565  0.7096
 6020SOL     OW29692   3.689   4.317   7.688 -0.6155 -0.0818  0.0087
 6020SOL    HW129693   3.765   4.305   7.631 -0.8455 -0.2404 -0.2669
 6020SOL    HW229694   3.621   4.252   7.669  0.2466 -1.1907  0.7023
 6021SOL     OW29695   2.689   0.383   8.962 -0.0626  1.2886 -0.8616
 6021SOL    HW129696   2.593   0.378   8.969  0.2823 -1.9895  1.5851
 6021SOL    HW229697   2.721   0.401   9.051 -0.1265 -0.6648 -0.4464
 6022SOL     OW29698   1.210   1.160   2.425 -0.0137  0.0494 -0.0074
 6022SOL    HW129699   1.270   1.220   2.470  0.7245 -0.0934 -0.7973
 6022SOL    HW229700   1.162   1.216   2.363 -0.6519  0.3919  0.7980
 6023SOL     OW29701   1.124   2.552   9.876 -0.2321 -0.1562 -0.8745
 6023SOL    HW129702   1.149   2.592   9.959 -1.2584 -0.9966 -0.1508
 6023SOL    HW229703   1.146   2.628   9.822 -1.4959  0.2135 -0.8654
 6024SOL     OW29704   3.441   3.891   8.373 -0.4493 -0.1551  0.0369
 6024SOL    HW129705   3.486   3.838   8.439  0.1993  1.1458  0.6365
 6024SOL    HW229706   3.350   3.884   8.403 -0.2081 -1.6816  0.3997
 6025SOL     OW29707   4.665   3.238   4.795  1.0262 -0.5411  0.0589
 6025SOL    HW129708   0.021   3.235   4.799  0.8698 -0.9476  3.5084
 6025SOL    HW229709   4.656   3.327   4.828  0.1740 -0.0330 -1.5135
 6026SOL     OW29710   3.066   3.539   6.044 -0.4037  0.6162  0.2122
 6026SOL    HW129711   3.150   3.512   6.006 -0.7659  0.6701 -0.6355
 6026SOL    HW229712   3.020   3.563   5.963  0.1308 -2.3206 -0.9549
 6027SOL     OW29713   4.557   0.948   3.877  0.2221  0.2648 -0.1007
 6027SOL    HW129714   4.482   0.910   3.831  1.5498 -0.4861 -1.6554
 6027SOL    HW229715   4.632   0.896   3.848 -2.8535 -3.5833 -1.0537
 6028SOL     OW29716   1.869   4.596   1.457 -0.1089  0.4796 -0.2682
 6028SOL    HW129717   1.889   4.689   1.452 -0.0213  0.3619 -2.3743
 6028SOL    HW229718   1.773   4.601   1.455 -0.1320  0.9176  2.8992
 6029SOL     OW29719   4.147   3.566  17.597  0.1273 -0.0773  0.4142
 6029SOL    HW129720   4.093   3.618  17.538 -0.5991  0.2018  1.3115
 6029SOL    HW229721   4.089   3.569  17.674 -0.4712  1.6075 -0.0935
 6030SOL     OW29722   3.538   2.999  13.433  0.2130  0.1219 -0.4247
 6030SOL    HW129723   3.503   2.984  13.345 -3.0784  0.7373  0.7730
 6030SOL    HW229724   3.563   3.091  13.433  2.8620 -0.5928 -1.5304
 6031SOL     OW29725   1.791   3.400   6.068  0.5578  0.0671 -0.0385
 6031SOL    HW129726   1.716   3.396   6.128 -0.3172 -0.2770 -1.1683
 6031SOL    HW229727   1.777   3.336   5.999  0.5522 -1.2554  1.1793
 6032SOL     OW29728   0.967   1.425   9.141  0.0327 -0.4672 -0.2523
 6032SOL    HW129729   1.000   1.510   9.114 -1.9183  0.7379  1.2023
 6032SOL    HW229730   0.886   1.447   9.185  0.6067  0.6470  0.2358
 6033SOL     OW29731   2.625   4.625   7.578 -0.0316  0.1950 -0.3766
 6033SOL    HW129732   2.593   4.612   7.668  1.2010  0.8612  0.1525
 6033SOL    HW229733   2.543   4.614   7.529 -0.4467 -0.2445  0.4075
 6034SOL     OW29734   3.188   1.445   8.382 -0.1850  0.1262  0.8772
 6034SOL    HW129735   3.261   1.499   8.410 -0.9018  1.2166  0.6488
 6034SOL    HW229736   3.151   1.432   8.470 -0.2056  0.9940  0.9968
 6035SOL     OW29737   1.543   0.277   4.245  0.5773 -0.4547  0.0796
 6035SOL    HW129738   1.581   0.222   4.176 -0.2594  0.3755 -1.0477
 6035SOL    HW229739   1.516   0.357   4.200  2.4563  0.3202  0.3284
 6036SOL     OW29740   3.546   3.767  12.768 -0.4121  0.5123 -0.0277
 6036SOL    HW129741   3.493   3.844  12.747 -1.4115 -0.3102 -0.5204
 6036SOL    HW229742   3.607   3.774  12.694  1.0899 -0.4912  1.1145
 6037SOL     OW29743   3.214   2.292   6.756 -0.9851  0.8303 -0.3320
 6037SOL    HW129744   3.186   2.212   6.802  0.0686  1.0329  0.6581
 6037SOL    HW229745   3.180   2.259   6.673 -1.1273  0.4453 -0.1263
 6038SOL     OW29746   1.894   1.524   6.454 -0.0185  0.0926 -0.4408
 6038SOL    HW129747   1.815   1.528   6.401 -0.8331  0.4249  0.7960
 6038SOL    HW229748   1.902   1.438   6.493 -1.7293  0.0656 -0.1562
 6039SOL     OW29749   0.578   1.028  15.353  0.0450 -0.3599  0.3570
 6039SOL    HW129750   0.652   0.970  15.369  0.9075  0.2949 -1.2739
 6039SOL    HW229751   0.508   0.971  15.322  0.5542 -0.8356  0.0865
 6040SOL     OW29752   2.462   1.395   3.786 -0.1436 -0.3774  0.2981
 6040SOL    HW129753   2.440   1.314   3.831  1.2208 -1.7624 -1.5065
 6040SOL    HW229754   2.460   1.373   3.693  2.1838 -0.4152  0.2562
 6041SOL     OW29755   2.394   0.174   8.785  0.2223  0.3135  0.4679
 6041SOL    HW129756   2.325   0.226   8.744  1.3806  0.7350 -0.9569
 6041SOL    HW229757   2.469   0.211   8.739 -0.2391  1.6672  0.8209
 6042SOL     OW29758   3.134   4.696   2.745 -0.6467  0.1526 -0.5453
 6042SOL    HW129759   3.048   4.719   2.709  0.4295  2.9014 -1.3771
 6042SOL    HW229760   3.101   4.624   2.798 -0.0750 -1.0419 -1.8230
 6043SOL     OW29761   1.809   0.545   2.427 -0.1543 -0.0540  0.0889
 6043SOL    HW129762   1.734   0.569   2.374  1.2795 -0.4164 -2.1075
 6043SOL    HW229763   1.770   0.590   2.502 -2.9769 -0.6850 -1.0007
 6044SOL     OW29764   3.752   4.355   9.882 -0.5876 -0.0729 -0.2007
 6044SOL    HW129765   3.733   4.448   9.874 -2.2208 -0.3793  0.1334
 6044SOL    HW229766   3.815   4.328   9.815 -0.8426 -1.7111  0.2126
 6045SOL     OW29767   4.478   2.292   2.372  0.5860  1.0217  0.0751
 6045SOL    HW129768   4.384   2.304   2.359  0.0271 -3.8062 -0.4075
 6045SOL    HW229769   4.508   2.290   2.281  0.2901 -2.2111  0.0296
 6046SOL     OW29770   0.563   0.808   9.143  0.0597 -0.4234  0.0689
 6046SOL    HW129771   0.491   0.747   9.156 -1.3364  0.6116 -2.9597
 6046SOL    HW229772   0.606   0.769   9.067  1.1149 -0.9013  0.9052
 6047SOL     OW29773   1.888   3.397  13.332 -0.0473  0.4314  0.4732
 6047SOL    HW129774   1.910   3.401  13.425 -0.5862 -0.8483  0.6482
 6047SOL    HW229775   1.805   3.350  13.324 -0.9376  2.0452  0.2564
 6048SOL     OW29776   1.406   1.615   8.818 -0.1978 -0.4710 -0.0299
 6048SOL    HW129777   1.470   1.654   8.878 -0.4429 -0.1886  0.0456
 6048SOL    HW229778   1.341   1.685   8.812 -1.4100 -1.7005 -1.3591
 6049SOL     OW29779   2.942   4.312   8.918 -0.6572 -0.2998 -0.1117
 6049SOL    HW129780   2.928   4.393   8.869  1.5742  0.7736  1.0667
 6049SOL    HW229781   3.036   4.298   8.924 -0.6134 -0.4468 -1.1371
 6050SOL     OW29782   2.947   4.328   7.305 -0.3164 -0.1921  0.1280
 6050SOL    HW129783   2.896   4.401   7.340 -0.2421  0.4173 -1.0662
 6050SOL    HW229784   2.890   4.315   7.230 -0.0226  0.2159 -0.1622
 6051SOL     OW29785   3.348   4.443   2.908  0.5384  0.0184  0.4238
 6051SOL    HW129786   3.255   4.428   2.891  0.4815  1.6091 -0.7691
 6051SOL    HW229787   3.385   4.357   2.929  2.7667  0.1551 -2.8577
 6052SOL     OW29788   1.863   0.684   3.241  0.2843 -0.1884 -0.4496
 6052SOL    HW129789   1.915   0.618   3.196 -0.6380 -1.2720  0.0641
 6052SOL    HW229790   1.912   0.766   3.230 -0.3034  0.1821 -0.3076
 6053SOL     OW29791   2.479   1.428   8.566  0.4372  0.6166 -0.4539
 6053SOL    HW129792   2.400   1.375   8.578 -0.3781  1.5519 -1.7855
 6053SOL    HW229793   2.539   1.375   8.619  1.7514 -0.7017 -3.2143
 6054SOL     OW29794   3.247   1.272   2.621 -0.0841  0.6355  0.2592
 6054SOL    HW129795   3.188   1.263   2.546 -0.2503 -1.0536  0.5977
 6054SOL    HW229796   3.185   1.312   2.681  0.4857  0.6642  0.8282
 6055SOL     OW29797   1.829   1.502   7.139 -0.0793  0.0377  0.4055
 6055SOL    HW129798   1.823   1.447   7.061  2.6448  0.0122  0.2205
 6055SOL    HW229799   1.857   1.443   7.209 -0.3234  0.4605  0.8575
 6056SOL     OW29800   2.942   0.554   8.870  0.4427  0.8968  0.0162
 6056SOL    HW129801   2.967   0.476   8.919  0.9304 -0.2423 -2.0007
 6056SOL    HW229802   2.904   0.518   8.789 -2.5076  0.7184  1.5052
 6057SOL     OW29803   0.118   2.052  17.273 -0.3151 -0.3329 -0.2935
 6057SOL    HW129804   0.116   2.147  17.258  2.6897 -0.3219 -0.5894
 6057SOL    HW229805   0.208   2.021  17.277  0.1826  1.3922  2.0625
 6058SOL     OW29806   4.226   4.647   5.827 -0.5138 -0.4149 -0.1705
 6058SOL    HW129807   4.191   4.621   5.913  1.6495 -2.4575  0.1177
 6058SOL    HW229808   4.236   0.002   5.830 -1.4105 -0.2677 -1.7174
 6059SOL     OW29809   3.620   1.852  10.470 -0.2019  0.4361 -0.8348
 6059SOL    HW129810   3.538   1.814  10.502  1.6735 -2.0312  1.0827
 6059SOL    HW229811   3.609   1.851  10.375 -0.0245  0.3732 -0.8558
 6060SOL     OW29812   0.032   4.351   6.968 -0.2562 -0.1622 -0.2761
 6060SOL    HW129813   4.740   4.279   7.023  1.0874 -2.2761 -2.2288
 6060SOL    HW229814   0.069   4.408   7.035  0.1529 -0.3020 -0.3824
 6061SOL     OW29815   0.891   0.065  10.701 -0.0357  0.0713 -0.4775
 6061SOL    HW129816   0.934   4.736  10.651  0.5116  0.7042 -0.8619
 6061SOL    HW229817   0.943   0.139  10.670  0.0082  0.1126 -0.3058
 6062SOL     OW29818   1.660   2.873  12.120 -0.0102  0.1446 -0.8547
 6062SOL    HW129819   1.699   2.959  12.137 -0.7390  0.6496 -1.8031
 6062SOL    HW229820   1.589   2.896  12.060 -0.1055  0.0868 -0.7640
 6063SOL     OW29821   0.725   2.360   0.170 -0.3395  0.0296  0.3516
 6063SOL    HW129822   0.800   2.302   0.158 -0.4588  0.1839 -1.0792
 6063SOL    HW229823   0.754   2.446   0.139  0.0378 -0.1912  0.0915
 6064SOL     OW29824   2.756   3.835  10.933 -0.0357  0.1511  0.2765
 6064SOL    HW129825   2.797   3.876  10.857 -1.0155 -1.8985 -1.3644
 6064SOL    HW229826   2.769   3.741  10.918  0.7008  0.7716 -3.0312
 6065SOL     OW29827   1.654   3.726   5.224  0.7687  0.5634  0.3102
 6065SOL    HW129828   1.722   3.761   5.283  0.2371  1.8971  0.1315
 6065SOL    HW229829   1.671   3.632   5.234  1.4492  0.7237  0.7017
 6066SOL     OW29830   3.403   4.372   2.471 -0.4900 -0.0026  0.0306
 6066SOL    HW129831   3.463   4.297   2.468  0.3956  0.6656  0.8648
 6066SOL    HW229832   3.382   4.373   2.565 -1.1826 -3.5256 -0.0762
 6067SOL     OW29833   0.570   4.089   2.939 -0.3016  0.0465 -0.1461
 6067SOL    HW129834   0.617   4.009   2.962 -0.5785  0.0513  0.4380
 6067SOL    HW229835   0.559   4.076   2.845  0.1546 -1.3926  0.0043
 6068SOL     OW29836   4.509   3.470   5.946 -0.0755  0.0762  0.4508
 6068SOL    HW129837   4.450   3.420   6.002 -2.4719  1.4055 -0.8975
 6068SOL    HW229838   4.477   3.559   5.955 -1.1315 -0.3626  0.9927
 6069SOL     OW29839   4.675   0.054   8.010 -0.5943  0.5342 -0.4465
 6069SOL    HW129840   4.725   0.129   7.979 -1.9386  1.5589 -0.1869
 6069SOL    HW229841   4.597   0.050   7.954 -1.2933 -0.1264  0.5539
 6070SOL     OW29842   1.403   3.096   1.346 -0.3578 -0.0099 -0.6431
 6070SOL    HW129843   1.479   3.037   1.337  0.5323  1.2343 -1.2703
 6070SOL    HW229844   1.341   3.056   1.285 -1.1570  0.2286  0.0267
 6071SOL     OW29845   1.716   2.009   7.397 -0.2544 -0.4168 -0.4626
 6071SOL    HW129846   1.740   2.091   7.355 -1.3014  0.1549  0.0604
 6071SOL    HW229847   1.798   1.991   7.442 -0.8990 -1.3074  0.3497
 6072SOL     OW29848   2.950   3.680   4.441 -0.2136  0.0794  0.2513
 6072SOL    HW129849   2.880   3.627   4.402  0.9674 -3.1156  2.4719
 6072SOL    HW229850   2.894   3.728   4.502  0.8401  0.7248  0.7067
 6073SOL     OW29851   2.458   0.406   1.924  0.4443 -0.2639  0.3125
 6073SOL    HW129852   2.437   0.318   1.954 -1.4487 -0.1706 -0.7239
 6073SOL    HW229853   2.514   0.443   1.993  0.4214 -0.5531  0.4893
 6074SOL     OW29854   0.950   3.729   9.287 -0.2106  0.2427  0.3704
 6074SOL    HW129855   0.859   3.737   9.316 -0.5114 -0.1554 -0.4569
 6074SOL    HW229856   0.968   3.672   9.362 -2.2480  2.1989  2.3198
 6075SOL     OW29857   0.818   0.367   8.408  0.5594  0.3964 -0.0590
 6075SOL    HW129858   0.787   0.442   8.458  0.8869  2.5123 -3.0201
 6075SOL    HW229859   0.901   0.403   8.377 -0.4123  1.2524 -1.6795
 6076SOL     OW29860   0.662   3.504   3.284 -0.2092 -0.2113  0.2843
 6076SOL    HW129861   0.755   3.509   3.307 -0.3200  0.2395  0.6243
 6076SOL    HW229862   0.626   3.590   3.306 -0.2738 -0.1381 -0.1182
 6077SOL     OW29863   4.399   3.729   4.761  0.2808  0.2238  0.2578
 6077SOL    HW129864   4.388   3.731   4.666 -0.9057  0.8956  0.4112
 6077SOL    HW229865   4.451   3.810   4.768 -1.0840  1.0538  0.9263
 6078SOL     OW29866   4.186   4.111   1.773 -0.7404 -0.1363  0.0213
 6078SOL    HW129867   4.183   4.189   1.829 -0.3196 -0.0458 -0.0816
 6078SOL    HW229868   4.173   4.044   1.840 -2.2057 -0.3250 -0.4596
 6079SOL     OW29869   3.547   0.811   0.477 -0.4809  0.8515 -0.1899
 6079SOL    HW129870   3.549   0.716   0.465 -0.7662  0.6031  1.6892
 6079SOL    HW229871   3.584   0.839   0.394  2.1912 -0.0461  0.6936
 6080SOL     OW29872   1.371   0.725   5.054 -0.5870  0.0353  0.2229
 6080SOL    HW129873   1.323   0.649   5.087 -0.8692  0.9478  1.9417
 6080SOL    HW229874   1.355   0.717   4.960  0.2071 -1.9622  0.2558
 6081SOL     OW29875   3.620   1.079  11.785 -0.4554 -0.4059 -0.2516
 6081SOL    HW129876   3.673   1.126  11.850 -0.1662 -0.8285 -0.1847
 6081SOL    HW229877   3.677   1.005  11.762  0.3202 -0.6079  2.2879
 6082SOL     OW29878   0.375   1.892   5.377  0.3963  0.0750 -0.3858
 6082SOL    HW129879   0.363   1.880   5.282  0.7489 -2.2485 -0.1358
 6082SOL    HW229880   0.286   1.920   5.401  0.7884  0.8742  0.1239
 6083SOL     OW29881   1.633   4.266   3.000  0.0486  0.3530 -0.1585
 6083SOL    HW129882   1.677   4.303   2.924  0.0340  0.3379 -0.1743
 6083SOL    HW229883   1.685   4.189   3.023 -1.2847 -0.9148 -1.3694
 6084SOL     OW29884   1.839   3.281   1.624 -0.6168 -0.6655 -0.1833
 6084SOL    HW129885   1.783   3.350   1.589 -2.6370 -1.4183  1.6178
 6084SOL    HW229886   1.862   3.221   1.552 -2.6508 -1.7731  0.0946
 6085SOL     OW29887   4.646   1.935   8.566  0.7265 -0.0126  0.2911
 6085SOL    HW129888   4.658   2.029   8.557 -0.6812 -0.2700 -4.1421
 6085SOL    HW229889   4.729   1.893   8.542  1.9827  2.6729 -0.0285
 6086SOL     OW29890   2.684   2.099  13.700  0.0986 -0.1300  0.3450
 6086SOL    HW129891   2.661   2.040  13.771  0.9387  0.5331  1.1567
 6086SOL    HW229892   2.602   2.112  13.652  1.1829 -2.3578 -2.1157
 6087SOL     OW29893   3.266   0.184   3.622 -0.3654  0.0823 -0.2567
 6087SOL    HW129894   3.256   0.114   3.558  3.4256 -0.2872 -0.4504
 6087SOL    HW229895   3.185   0.178   3.672  0.0436 -2.2603  0.0869
 6088SOL     OW29896   3.118   4.321   5.447  0.4230 -0.1923 -0.0753
 6088SOL    HW129897   3.194   4.291   5.397  0.3261 -1.3094  0.4367
 6088SOL    HW229898   3.045   4.274   5.407 -2.0206  2.7761  0.9585
 6089SOL     OW29899   2.619   2.976  16.046 -0.1535 -0.1509  0.6655
 6089SOL    HW129900   2.632   2.924  15.967 -2.5998 -1.7359  1.2952
 6089SOL    HW229901   2.687   2.939  16.102  1.8699  0.8988 -1.0720
 6090SOL     OW29902   2.036   1.249  11.834  0.1896 -0.0439  0.0826
 6090SOL    HW129903   2.055   1.342  11.843  0.8859 -0.0639 -1.1931
 6090SOL    HW229904   2.116   1.213  11.872 -0.2588 -0.5966  0.5091
 6091SOL     OW29905   1.980   0.320  11.200 -0.5335 -0.0477 -0.3290
 6091SOL    HW129906   2.069   0.309  11.234 -0.9101  0.0503  0.6770
 6091SOL    HW229907   2.009   0.303  11.110  0.6017 -0.1502  0.0589
 6092SOL     OW29908   1.214   0.422  17.468 -0.0800 -0.2992 -0.5772
 6092SOL    HW129909   1.229   0.451  17.558 -1.4587  1.0664 -0.7871
 6092SOL    HW229910   1.202   0.505  17.422 -1.0808  0.0434  0.2958
 6093SOL     OW29911   3.095   0.771   4.365  0.7020  0.6838 -0.9325
 6093SOL    HW129912   3.058   0.683   4.374  0.4930  0.9352  0.7017
 6093SOL    HW229913   3.082   0.780   4.270 -0.4726  2.8554 -0.5694
 6094SOL     OW29914   3.290   2.536   2.477  0.5999 -0.2753  0.6585
 6094SOL    HW129915   3.322   2.524   2.567  0.0099 -1.0997  0.7595
 6094SOL    HW229916   3.309   2.455   2.429 -1.8367 -1.6149  1.9691
 6095SOL     OW29917   2.898   3.064   3.585 -0.0765 -0.4327 -0.0205
 6095SOL    HW129918   2.936   3.129   3.644  0.9000  0.2500 -1.3863
 6095SOL    HW229919   2.943   2.990   3.626  1.9122  0.3408 -0.7845
 6096SOL     OW29920   3.552   0.902  14.362  0.1419 -0.5512 -0.2783
 6096SOL    HW129921   3.614   0.830  14.361 -0.6506 -1.2573  0.7188
 6096SOL    HW229922   3.476   0.849  14.338 -0.5814  0.7385 -0.8250
 6097SOL     OW29923   2.170   1.726   6.433  0.0318  0.2834 -0.3723
 6097SOL    HW129924   2.079   1.695   6.431 -0.8932  2.7488  2.9774
 6097SOL    HW229925   2.162   1.806   6.383  0.0069  0.4543 -0.0950
 6098SOL     OW29926   4.064   2.364   4.454 -0.3386 -0.2683  0.5362
 6098SOL    HW129927   4.003   2.330   4.520  1.5290  0.6284  2.7548
 6098SOL    HW229928   4.017   2.388   4.375  0.8511 -0.5010 -0.2393
 6099SOL     OW29929   1.650   4.372   4.718  0.1287  0.5926  0.3032
 6099SOL    HW129930   1.613   4.449   4.760 -1.0786  0.5687 -0.7070
 6099SOL    HW229931   1.729   4.365   4.772  0.8429  0.1461 -0.7979
 6100SOL     OW29932   2.056   2.738   2.038 -0.0062 -0.1978  0.1723
 6100SOL    HW129933   2.109   2.806   2.080  1.7440 -1.0794 -0.6233
 6100SOL    HW229934   2.117   2.664   2.044  2.4472  1.7836 -0.1595
 6101SOL     OW29935   1.242   4.386   1.824  0.2611  0.3576 -0.1909
 6101SOL    HW129936   1.190   4.354   1.751 -0.6467  0.4405  0.4258
 6101SOL    HW229937   1.170   4.400   1.886  0.2025 -2.4707  0.3586
 6102SOL     OW29938   3.346   2.090   4.905  0.3233 -0.0838 -0.1038
 6102SOL    HW129939   3.377   2.156   4.967  0.4743  0.0061 -0.2745
 6102SOL    HW229940   3.425   2.075   4.853  1.4316 -0.9485  1.8406
 6103SOL     OW29941   3.119   4.533   5.622  0.1385  0.5906  0.5160
 6103SOL    HW129942   3.091   4.457   5.572 -0.7693  2.3180 -1.5857
 6103SOL    HW229943   3.048   4.596   5.607 -0.9922 -0.2007  2.4889
 6104SOL     OW29944   1.692   3.458   3.099  0.8601 -0.4294  0.0896
 6104SOL    HW129945   1.665   3.530   3.155  1.0486  0.6731 -1.2389
 6104SOL    HW229946   1.775   3.490   3.065  0.5059  0.1620 -0.2241
 6105SOL     OW29947   4.688   3.950   6.023 -0.3746  0.6327 -0.0711
 6105SOL    HW129948   0.042   3.939   6.038 -0.4951 -0.1812  0.0857
 6105SOL    HW229949   4.675   3.909   5.937  1.2164 -0.7515  0.3503
 6106SOL     OW29950   3.993   1.911   2.593 -0.1509 -0.7637  0.4071
 6106SOL    HW129951   3.989   1.954   2.678 -0.5459  0.4108 -0.2131
 6106SOL    HW229952   4.083   1.878   2.584 -0.8628 -2.6279  0.1951
 6107SOL     OW29953   1.844   2.617   4.308  0.2454  0.0810  0.6439
 6107SOL    HW129954   1.869   2.709   4.296 -2.6200  0.8220  0.3742
 6107SOL    HW229955   1.761   2.618   4.260  0.7427 -2.0907 -0.2577
 6108SOL     OW29956   1.139   2.830   1.454 -0.0227 -0.3248 -0.0404
 6108SOL    HW129957   1.208   2.859   1.513  1.0723 -2.2241 -0.3777
 6108SOL    HW229958   1.106   2.753   1.499  2.3544  0.7525  3.4931
 6109SOL     OW29959   4.616   3.570  16.132  0.3822 -0.4326  0.4740
 6109SOL    HW129960   4.695   3.622  16.147  1.6188 -2.8056  2.0606
 6109SOL    HW229961   4.609   3.531  16.219  0.8281 -1.3229  0.1046
 6110SOL     OW29962   3.094   4.670  14.995  0.3395 -0.3088  0.0268
 6110SOL    HW129963   3.029   4.633  14.935  0.9640 -1.4480  0.0360
 6110SOL    HW229964   3.051   0.012  15.018  0.3989 -0.2349 -0.1306
 6111SOL     OW29965   4.195   1.869   4.059 -0.4725  0.1128  0.5909
 6111SOL    HW129966   4.278   1.829   4.035  0.2568  2.7137 -1.2611
 6111SOL    HW229967   4.195   1.847   4.152 -3.8888  1.1336  0.8471
 6112SOL     OW29968   1.888   4.654   7.588  0.8443  0.1917 -0.3437
 6112SOL    HW129969   1.810   4.603   7.609 -0.6946  2.5589 -0.3821
 6112SOL    HW229970   1.924   4.607   7.512  1.3620 -1.3811  0.8712
 6113SOL     OW29971   2.621   1.596  15.347  0.4375 -0.2948 -0.3699
 6113SOL    HW129972   2.656   1.665  15.291  0.4947  1.0598  1.3303
 6113SOL    HW229973   2.580   1.539  15.282  0.2647  2.5715 -2.7281
 6114SOL     OW29974   2.150   1.588   6.922  0.0010  0.8194 -0.3705
 6114SOL    HW129975   2.136   1.621   7.010  1.7705  2.4161 -0.6897
 6114SOL    HW229976   2.078   1.632   6.876  1.6637  1.4023 -2.4314
 6115SOL     OW29977   0.903   1.074  14.946  0.1041 -0.5249  0.1640
 6115SOL    HW129978   0.926   1.108  14.860  3.6348 -1.4426  0.7322
 6115SOL    HW229979   0.864   1.148  14.992 -0.8648 -0.6086 -0.5113
 6116SOL     OW29980   3.780   1.521   6.656 -0.0868 -0.5233 -0.1140
 6116SOL    HW129981   3.871   1.494   6.645 -0.1422  0.3403 -2.9171
 6116SOL    HW229982   3.757   1.498   6.746  1.1374  2.0066  0.8478
 6117SOL     OW29983   2.741   2.441   4.205 -0.5989 -0.6033 -0.1435
 6117SOL    HW129984   2.677   2.447   4.134  0.1011  2.0518 -0.5449
 6117SOL    HW229985   2.688   2.457   4.282  0.3966 -2.0701  0.8498
 6118SOL     OW29986   2.477   0.599  13.963  0.2086 -0.5316  0.1608
 6118SOL    HW129987   2.402   0.540  13.956  1.6748 -2.4685  0.5963
 6118SOL    HW229988   2.469   0.607  14.058 -1.4065  1.5376 -0.1524
 6119SOL     OW29989   3.571   3.017   8.462 -0.4130  0.0032 -0.4970
 6119SOL    HW129990   3.480   3.046   8.470  0.3548  1.9902  1.0047
 6119SOL    HW229991   3.565   2.922   8.451 -0.3360 -0.0913  0.2734
 6120SOL     OW29992   1.556   2.068  10.911 -0.4313 -0.2709 -0.3707
 6120SOL    HW129993   1.603   2.078  10.994 -0.2973  1.6845 -0.6884
 6120SOL    HW229994   1.509   1.990  10.942 -1.0309  0.9230  1.7241
 6121SOL     OW29995   1.740   1.746   5.964  0.4259  0.3165  0.0495
 6121SOL    HW129996   1.826   1.703   5.968  0.4790  0.5103  0.9020
 6121SOL    HW229997   1.747   1.804   6.039 -0.4742  1.9135 -1.0856
 6122SOL     OW29998   3.441   0.807   9.604  0.1198  0.3885 -0.2694
 6122SOL    HW129999   3.372   0.854   9.557 -1.7010 -0.2247  1.7913
 6122SOL    HW230000   3.511   0.838   9.547 -1.3098  2.3481 -0.9536
 6123SOL     OW30001   0.015   1.238   2.488  0.4836  0.2407  0.2912
 6123SOL    HW130002   0.104   1.262   2.514  0.1799  0.7998  0.8066
 6123SOL    HW230003   0.002   1.169   2.554 -3.7627  1.5431  0.7912
 6124SOL     OW30004   2.314   2.909   6.032 -0.0507 -0.0731 -0.3342
 6124SOL    HW130005   2.392   2.921   6.086 -0.1604 -0.1098 -0.1690
 6124SOL    HW230006   2.299   3.003   6.017  0.3553 -0.6633 -4.3670
 6125SOL     OW30007   2.788   0.127  11.097  0.3571  0.0127 -0.2156
 6125SOL    HW130008   2.705   0.088  11.070 -1.0799 -0.1100  4.2686
 6125SOL    HW230009   2.799   0.074  11.176  0.1869  2.0583  1.1728
 6126SOL     OW30010   0.134   2.625   0.430 -0.0577  0.5512 -0.1568
 6126SOL    HW130011   0.162   2.711   0.459  2.1352 -1.1150  2.5755
 6126SOL    HW230012   0.046   2.658   0.412 -1.7730 -3.4565  0.7965
 6127SOL     OW30013   0.577   3.491   3.597 -0.6020  0.3254 -0.3182
 6127SOL    HW130014   0.583   3.580   3.563  1.0943  0.4062  0.2165
 6127SOL    HW230015   0.562   3.435   3.521  0.5519 -0.9278  0.3819
 6128SOL     OW30016   2.466   2.813   7.073 -1.2247  0.0164  0.1241
 6128SOL    HW130017   2.433   2.724   7.087 -0.8898 -0.2688 -0.9241
 6128SOL    HW230018   2.561   2.799   7.078 -1.3588 -1.4486 -1.4112
 6129SOL     OW30019   0.229   4.601  15.323  0.1952 -0.2276 -0.6967
 6129SOL    HW130020   0.322   4.616  15.337 -0.1859  1.7721 -0.3194
 6129SOL    HW230021   0.224   4.513  15.363  3.4463 -1.5828 -3.3280
 6130SOL     OW30022   4.689   2.142   2.850  0.1308 -0.1850  0.1517
 6130SOL    HW130023   0.026   2.198   2.837  0.4679 -0.4362  1.0730
 6130SOL    HW230024   4.653   2.159   2.763  1.2509  0.5507 -0.1728
 6131SOL     OW30025   0.108   4.333   5.570  0.4656  0.0826  0.7415
 6131SOL    HW130026   0.048   4.259   5.571 -0.2750  0.6661 -2.0135
 6131SOL    HW230027   0.193   4.289   5.580 -0.1895 -1.2293  0.4533
 6132SOL     OW30028   2.020   3.747   7.404  0.4916  0.2175 -0.1711
 6132SOL    HW130029   1.947   3.687   7.419  0.5504  0.8468  2.7395
 6132SOL    HW230030   2.080   3.712   7.471  0.3205 -1.1042 -0.7059
 6133SOL     OW30031   3.243   4.554   4.172 -0.0935  0.0176  0.7592
 6133SOL    HW130032   3.332   4.587   4.167 -0.6013  1.0614 -1.2176
 6133SOL    HW230033   3.209   4.618   4.109 -0.8074 -0.1895  0.9375
 6134SOL     OW30034   4.094   1.205  17.186 -0.0589  0.0435  0.1106
 6134SOL    HW130035   4.167   1.210  17.247 -1.1709 -1.2840  1.5760
 6134SOL    HW230036   4.116   1.284  17.137 -1.0550 -0.1204 -0.6120
 6135SOL     OW30037   2.116   1.503   5.608 -0.6364 -0.2351  0.4274
 6135SOL    HW130038   2.113   1.450   5.688 -1.1857  0.9576  1.1780
 6135SOL    HW230039   2.178   1.568   5.642 -0.8164  1.0437 -1.6642
 6136SOL     OW30040   3.704   0.873   4.088 -0.5245  0.6371  0.2410
 6136SOL    HW130041   3.706   0.889   3.993 -0.3453  0.7706  0.2653
 6136SOL    HW230042   3.795   0.875   4.119 -0.2437  2.0061 -0.6224
 6137SOL     OW30043   1.430   3.844   5.120 -0.4309 -0.2100 -0.0271
 6137SOL    HW130044   1.509   3.802   5.155  0.6350  0.8829 -1.0847
 6137SOL    HW230045   1.372   3.840   5.196 -0.9856 -0.4095 -0.4678
 6138SOL     OW30046   2.532   4.457   5.941  0.1245 -0.0650  0.3318
 6138SOL    HW130047   2.491   4.450   5.854 -0.9558 -1.1319  0.9385
 6138SOL    HW230048   2.481   4.524   5.987  1.1708  1.4129 -0.6502
 6139SOL     OW30049   0.134   2.293   9.608 -0.1823 -0.2549 -0.1599
 6139SOL    HW130050   0.186   2.274   9.529 -0.2418 -0.1716 -0.2193
 6139SOL    HW230051   0.202   2.320   9.670 -0.8603 -0.9054  0.8562
 6140SOL     OW30052   2.488   1.814   3.925  0.3795  0.0746 -0.5222
 6140SOL    HW130053   2.458   1.846   4.010 -1.1906 -2.0887 -0.2698
 6140SOL    HW230054   2.566   1.868   3.910  1.0519 -1.6653 -3.1772
 6141SOL     OW30055   0.094   0.653   0.969  0.6485 -0.0075 -0.8956
 6141SOL    HW130056   0.071   0.745   0.978 -3.5832 -1.1974  0.5689
 6141SOL    HW230057   0.098   0.630   1.061  2.6345  0.3259 -0.9007
 6142SOL     OW30058   0.534   0.451  10.568  0.0719 -0.1775  0.1270
 6142SOL    HW130059   0.571   0.447  10.656  2.1440  0.3857 -0.7274
 6142SOL    HW230060   0.608   0.496  10.527 -0.6886  2.0852  1.1909
 6143SOL     OW30061   2.964   1.267   5.065 -0.0070  0.2431  0.1289
 6143SOL    HW130062   2.933   1.266   5.156 -2.4153  0.6586 -0.6789
 6143SOL    HW230063   2.986   1.360   5.063  0.0542  0.2464  1.1923
 6144SOL     OW30064   2.845   1.272  14.288  0.6034  0.7378  0.3506
 6144SOL    HW130065   2.758   1.295  14.255  1.1853  0.2945 -1.4869
 6144SOL    HW230066   2.889   1.354  14.264  1.7565 -0.1178 -0.4349
 6145SOL     OW30067   0.141   0.510   6.731  0.1404 -0.7588  0.3673
 6145SOL    HW130068   0.102   0.453   6.797  2.1314  1.4590  3.4582
 6145SOL    HW230069   0.161   0.439   6.670 -0.9552 -0.8632  0.1320
 6146SOL     OW30070   0.494   1.115   5.323 -0.1884  0.6288 -0.9224
 6146SOL    HW130071   0.526   1.032   5.288  1.7332  0.7800  0.4884
 6146SOL    HW230072   0.567   1.152   5.372 -0.6838 -0.4732  0.6611
 6147SOL     OW30073   0.241   0.036   1.342  0.8712 -0.4243  0.2677
 6147SOL    HW130074   0.168   0.053   1.402 -0.3108 -2.3575 -0.6186
 6147SOL    HW230075   0.270   0.124   1.318  1.1630 -1.2297 -2.2736
 6148SOL     OW30076   4.139   3.291   1.783  0.1553  0.1364  0.0083
 6148SOL    HW130077   4.085   3.284   1.704 -0.4186 -1.3909  0.5375
 6148SOL    HW230078   4.216   3.235   1.772 -1.2921 -2.0403  1.0417
 6149SOL     OW30079   0.143   2.398  10.360  0.1722  0.3531 -0.4996
 6149SOL    HW130080   0.094   2.351  10.292 -2.6612 -0.5358  2.1820
 6149SOL    HW230081   0.203   2.327  10.385 -1.4924 -1.0431 -0.4815
 6150SOL     OW30082   0.837   1.700   9.162  0.1390  0.2423  0.1466
 6150SOL    HW130083   0.795   1.614   9.176  2.6657 -0.8305  1.0863
 6150SOL    HW230084   0.874   1.716   9.249 -1.3561 -2.6189  1.3145
 6151SOL     OW30085   2.831   4.126   4.873 -0.6942 -0.6215 -0.0743
 6151SOL    HW130086   2.789   4.210   4.854 -0.7575 -0.5345  0.4435
 6151SOL    HW230087   2.881   4.105   4.794 -2.4186 -0.0825 -1.3021
 6152SOL     OW30088   3.548   3.395  11.078 -0.3775 -0.0141  0.5949
 6152SOL    HW130089   3.622   3.357  11.030 -0.5028 -3.0212  2.8018
 6152SOL    HW230090   3.480   3.386  11.012 -0.5039 -0.3390  0.7712
 6153SOL     OW30091   2.088   3.848  14.372 -0.3426 -0.1142  0.0722
 6153SOL    HW130092   2.060   3.928  14.328 -1.1834 -1.1829 -1.3369
 6153SOL    HW230093   2.148   3.822  14.302 -0.8410 -1.6678  0.2246
 6154SOL     OW30094   3.788   0.896  13.009 -0.3138 -0.4842  1.1396
 6154SOL    HW130095   3.837   0.883  12.927  2.8322 -1.1288  3.1436
 6154SOL    HW230096   3.713   0.943  12.972  0.8765  1.6247  1.3529
 6155SOL     OW30097   2.609   0.729   6.704 -0.8465  0.4209 -0.2892
 6155SOL    HW130098   2.569   0.798   6.757 -0.2700  1.0425 -0.6653
 6155SOL    HW230099   2.673   0.688   6.762 -1.8680  0.2073  0.6731
 6156SOL     OW30100   0.346   1.379  17.101 -0.3020 -0.0395 -0.7273
 6156SOL    HW130101   0.377   1.304  17.151 -2.0106  0.3192  0.8663
 6156SOL    HW230102   0.425   1.391  17.049 -1.2115 -0.6818 -2.2405
 6157SOL     OW30103   1.192   1.212  13.848  0.0717  0.2207  0.2547
 6157SOL    HW130104   1.286   1.225  13.834 -0.4053  2.1920 -1.2087
 6157SOL    HW230105   1.176   1.289  13.793  0.7890  1.5364  1.9070
 6158SOL     OW30106   1.398   3.455   5.050  0.2803 -0.3866 -0.1831
 6158SOL    HW130107   1.374   3.461   5.142  0.1873  1.4847 -0.3261
 6158SOL    HW230108   1.450   3.375   5.056 -0.1850 -0.6130  0.7630
 6159SOL     OW30109   2.091   1.253   9.035 -0.1943 -0.4592  0.6562
 6159SOL    HW130110   2.005   1.217   9.058 -0.3102 -1.5204 -1.3935
 6159SOL    HW230111   2.144   1.223   9.109  0.2711 -1.9798 -0.3015
 6160SOL     OW30112   0.481   3.921  15.501  0.2326 -0.3717  0.3759
 6160SOL    HW130113   0.484   3.925  15.406  1.6000  0.7189  0.4599
 6160SOL    HW230114   0.500   3.828  15.507 -2.1692 -0.9581 -1.2347
 6161SOL     OW30115   4.129   4.558  14.501 -0.4125 -0.0104 -0.2970
 6161SOL    HW130116   4.119   4.653  14.509  4.3950  0.6849 -2.2998
 6161SOL    HW230117   4.151   4.543  14.409 -0.2369 -0.6393 -0.1489
 6162SOL     OW30118   0.748   1.508   8.669  0.4906 -0.2810 -0.5544
 6162SOL    HW130119   0.734   1.548   8.755  1.5532  0.1217 -0.5683
 6162SOL    HW230120   0.841   1.487   8.675  0.5625  0.4303  1.0413
 6163SOL     OW30121   1.245   4.303   1.500  0.1416 -0.0993  0.1745
 6163SOL    HW130122   1.288   4.365   1.441  0.9536 -0.6033  0.2288
 6163SOL    HW230123   1.320   4.283   1.556 -0.7178 -1.7506  0.7557
 6164SOL     OW30124   3.951   1.264   5.150  0.3625  0.8149 -0.0816
 6164SOL    HW130125   3.925   1.264   5.242  0.1083 -0.3012 -0.1511
 6164SOL    HW230126   4.043   1.238   5.149 -0.1882 -1.0618 -1.8353
 6165SOL     OW30127   0.334   3.638   6.272  0.5698  0.3006  0.4491
 6165SOL    HW130128   0.348   3.655   6.178 -3.6607  0.7876 -0.0734
 6165SOL    HW230129   0.241   3.619   6.268  0.4656  0.9848 -0.5549
 6166SOL     OW30130   2.799   1.381   0.446  0.2221 -0.0786 -0.7011
 6166SOL    HW130131   2.868   1.402   0.510 -0.0466 -1.1791 -0.0573
 6166SOL    HW230132   2.740   1.328   0.500  1.4991  0.8382  1.6096
 6167SOL     OW30133   1.642   2.235  16.591 -0.8483  0.5851 -0.3480
 6167SOL    HW130134   1.578   2.228  16.520 -0.9653  1.1466 -0.2975
 6167SOL    HW230135   1.688   2.151  16.591  0.0292  1.0622  0.3012
 6168SOL     OW30136   0.525   0.289   8.246  0.4544  0.4931  0.4504
 6168SOL    HW130137   0.552   0.381   8.252 -1.8300  1.2273 -0.5084
 6168SOL    HW230138   0.606   0.237   8.252  0.9328  1.1266 -0.5204
 6169SOL     OW30139   2.195   1.098   2.348  0.0117  0.5448 -0.7273
 6169SOL    HW130140   2.146   1.180   2.340 -0.2034  0.3782 -1.1450
 6169SOL    HW230141   2.217   1.078   2.257 -1.5841 -0.9361 -0.7775
 6170SOL     OW30142   3.722   1.033   7.667  0.5515 -0.2390  0.1618
 6170SOL    HW130143   3.767   1.093   7.607  1.9494 -1.6103 -0.1712
 6170SOL    HW230144   3.746   1.070   7.752 -1.9426 -0.9287  1.1672
 6171SOL     OW30145   0.471   0.188  16.281 -0.0690  0.1954 -0.1807
 6171SOL    HW130146   0.531   0.114  16.273  1.3213  1.3728 -0.5451
 6171SOL    HW230147   0.515   0.229  16.356  2.8293  0.4127 -2.0306
 6172SOL     OW30148   1.824   1.644   2.692  0.1648 -0.5984  0.1594
 6172SOL    HW130149   1.818   1.695   2.773  1.2024 -0.8782  0.4120
 6172SOL    HW230150   1.855   1.717   2.639  3.3217 -1.6507  0.5734
 6173SOL     OW30151   0.597   0.647   8.809  0.1105 -0.1858 -0.7465
 6173SOL    HW130152   0.692   0.645   8.817  0.1718 -1.9747 -1.8908
 6173SOL    HW230153   0.586   0.723   8.751  0.4843  0.4890  0.0742
 6174SOL     OW30154   0.116   2.476   5.575 -0.1153 -0.6379  0.4774
 6174SOL    HW130155   0.179   2.513   5.636  1.0919 -0.8548 -0.6334
 6174SOL    HW230156   0.057   2.438   5.640 -0.9254 -1.4979 -0.7627
 6175SOL     OW30157   3.633   0.187   6.528  0.1519 -0.0857  0.2978
 6175SOL    HW130158   3.627   0.098   6.493  0.2157  0.3913 -0.9312
 6175SOL    HW230159   3.667   0.159   6.613  1.0453 -0.6181 -0.2327
 6176SOL     OW30160   1.613   2.543   9.363 -0.0746 -0.3957  0.0449
 6176SOL    HW130161   1.564   2.510   9.289 -1.4168  0.9515  0.3322
 6176SOL    HW230162   1.616   2.635   9.336  0.3611 -0.3461  0.2611
 6177SOL     OW30163   2.160   3.488   1.860  0.2269 -0.2976 -0.0601
 6177SOL    HW130164   2.106   3.412   1.883 -0.2234 -0.4096 -1.4798
 6177SOL    HW230165   2.115   3.535   1.789 -0.5317  0.3100  0.8288
 6178SOL     OW30166   4.561   1.573  11.399 -0.1094  0.1492 -0.3068
 6178SOL    HW130167   4.599   1.580  11.311  0.4435  0.7261 -0.0226
 6178SOL    HW230168   4.560   1.665  11.424  1.1439 -0.4321  1.8947
 6179SOL     OW30169   4.199   0.782   5.814  0.3990  0.0928 -0.3413
 6179SOL    HW130170   4.116   0.805   5.855 -0.5694 -1.2577 -1.5748
 6179SOL    HW230171   4.207   0.693   5.848  0.0939 -0.8568 -2.7522
 6180SOL     OW30172   3.527   2.460   7.294  0.8073 -0.0369 -0.4002
 6180SOL    HW130173   3.550   2.459   7.201 -2.3047  0.7276 -1.1946
 6180SOL    HW230174   3.444   2.507   7.298  0.8402 -0.2163  2.1765
 6181SOL     OW30175   4.179   2.413   1.490  0.3514 -0.4142  0.4217
 6181SOL    HW130176   4.132   2.481   1.442 -0.1742 -1.6688 -0.8430
 6181SOL    HW230177   4.196   2.352   1.419 -2.0556  1.8222 -2.0758
 6182SOL     OW30178   1.566   1.287   2.737 -0.2237 -0.0805  0.3832
 6182SOL    HW130179   1.477   1.255   2.724 -0.2841  0.4347 -0.4281
 6182SOL    HW230180   1.618   1.209   2.716 -1.3854  0.2304 -3.5644
 6183SOL     OW30181   1.072   3.099   1.552 -0.3626 -0.2355 -0.3704
 6183SOL    HW130182   1.136   3.069   1.488 -0.1613  2.6965 -1.5378
 6183SOL    HW230183   1.128   3.079   1.627 -1.0442 -0.0882  0.1747
 6184SOL     OW30184   0.242   2.898   7.256 -0.5487  0.3012  0.0123
 6184SOL    HW130185   0.215   2.966   7.317  0.8429 -1.4558  2.5951
 6184SOL    HW230186   0.176   2.830   7.266 -0.3066  0.0435 -0.1234
 6185SOL     OW30187   2.868   1.016   2.377  0.2323  0.2955  0.0160
 6185SOL    HW130188   2.854   0.980   2.289 -0.2249 -1.7571  0.9413
 6185SOL    HW230189   2.791   0.989   2.426  1.2957  0.1861  1.6308
 6186SOL     OW30190   0.872   3.305   7.714  0.1108  0.1352  0.6404
 6186SOL    HW130191   0.837   3.380   7.762 -0.4881  0.1848  0.1252
 6186SOL    HW230192   0.918   3.266   7.788 -0.0100  0.9609  1.1573
 6187SOL     OW30193   1.117   0.321   0.692  0.3768 -0.0531 -0.2465
 6187SOL    HW130194   1.094   0.241   0.740  1.7516 -0.6844 -0.6242
 6187SOL    HW230195   1.037   0.329   0.640  1.3334  3.2208 -1.2200
 6188SOL     OW30196   0.858   4.609   4.970  0.1562 -0.1453  0.0758
 6188SOL    HW130197   0.811   4.527   4.953  2.4809 -1.6216  0.6824
 6188SOL    HW230198   0.811   4.661   4.905  0.5625 -1.3610 -1.1889
 6189SOL     OW30199   1.998   2.655   6.769  0.0347  0.4464 -0.5254
 6189SOL    HW130200   2.015   2.749   6.762 -2.2720  0.9047  0.1386
 6189SOL    HW230201   1.974   2.634   6.679 -1.0778  2.0484 -0.5859
 6190SOL     OW30202   3.090   0.543   8.235 -0.0349 -0.4906 -0.8719
 6190SOL    HW130203   3.175   0.509   8.260 -0.1708  0.4210  0.8681
 6190SOL    HW230204   3.070   0.493   8.156  1.4715 -1.2980 -0.7366
 6191SOL     OW30205   4.663   4.676  17.714 -0.2789  0.6878 -0.2486
 6191SOL    HW130206   4.609   4.625   0.019  1.1858  0.2555  0.6623
 6191SOL    HW230207   0.003   4.677   0.010  1.4769 -2.1983 -2.9365
 6192SOL     OW30208   4.019   2.783   8.798  0.0221  0.1630 -0.9694
 6192SOL    HW130209   3.952   2.832   8.750 -0.7587 -0.0872 -0.1177
 6192SOL    HW230210   4.076   2.854   8.826  2.7447 -2.5761  0.3979
 6193SOL     OW30211   0.342   3.791  13.180 -0.5095  0.6278  0.1318
 6193SOL    HW130212   0.339   3.883  13.154  1.5024  0.5037 -0.5226
 6193SOL    HW230213   0.422   3.757  13.139  0.7856  2.9520  0.7552
 6194SOL     OW30214   4.389   4.557   7.284  0.2607 -0.8514 -0.6964
 6194SOL    HW130215   4.442   4.617   7.231  1.0184 -1.3145 -0.4614
 6194SOL    HW230216   4.312   4.611   7.303  0.2100 -1.3473  0.5143
 6195SOL     OW30217   1.864   2.849  12.904  0.5490 -0.4449 -0.0334
 6195SOL    HW130218   1.784   2.848  12.956 -0.1054 -0.8197 -1.0578
 6195SOL    HW230219   1.931   2.882  12.964  0.6313  0.5047 -0.6573
 6196SOL     OW30220   0.586   2.452  13.107  0.4034  0.4745 -0.6038
 6196SOL    HW130221   0.635   2.534  13.099  0.8610  0.0926 -1.6898
 6196SOL    HW230222   0.501   2.490  13.084 -0.0100 -0.4006 -0.4914
 6197SOL     OW30223   2.225   4.723  16.808 -0.6670  0.4594  0.4458
 6197SOL    HW130224   2.300   4.717  16.750 -1.6341  0.0737 -0.7848
 6197SOL    HW230225   2.161   4.671  16.758  1.5581 -0.0923 -1.8038
 6198SOL     OW30226   0.522   2.328  11.131 -0.2130  0.3185 -0.2335
 6198SOL    HW130227   0.530   2.324  11.227  0.7336  1.4819 -0.2596
 6198SOL    HW230228   0.430   2.310  11.113  0.0364  0.2001 -1.3984
 6199SOL     OW30229   4.654   2.574   1.763 -0.0809  0.5290  0.0069
 6199SOL    HW130230   4.577   2.630   1.761 -0.2743  0.2072 -1.3528
 6199SOL    HW230231   4.713   2.634   1.810 -2.2264  1.0189  2.0440
 6200SOL     OW30232   3.019   4.540   3.373 -0.0911  0.1153 -0.2129
 6200SOL    HW130233   3.086   4.473   3.376  0.4511  0.7000  0.7452
 6200SOL    HW230234   2.976   4.533   3.288 -0.8406 -0.4137  0.2119
 6201SOL     OW30235   3.768   3.662  15.316 -0.3412  0.6385 -0.2131
 6201SOL    HW130236   3.696   3.648  15.379  0.6299 -0.2795  0.6846
 6201SOL    HW230237   3.830   3.716  15.365  1.3174 -1.9434  0.4934
 6202SOL     OW30238   1.608   3.412   8.452 -0.3193  0.1820  0.7079
 6202SOL    HW130239   1.586   3.379   8.365 -2.0515  1.2871  0.7157
 6202SOL    HW230240   1.685   3.356   8.459 -0.2633  0.1978  0.2094
 6203SOL     OW30241   3.559   2.258   4.448 -0.1735  0.1953 -0.1224
 6203SOL    HW130242   3.489   2.202   4.482  0.4032  1.6288  3.4451
 6203SOL    HW230243   3.609   2.199   4.393  0.6611  0.2537  0.5647
 6204SOL     OW30244   3.106   2.522   7.116  0.2123  0.8219  0.1815
 6204SOL    HW130245   3.164   2.448   7.098 -0.1287  1.0356 -1.7039
 6204SOL    HW230246   3.162   2.580   7.167  0.7274  0.9325 -0.5243
 6205SOL     OW30247   2.568   1.489   1.026  0.2483  0.3482 -0.6596
 6205SOL    HW130248   2.524   1.561   0.981  1.3471  1.2735 -0.2616
 6205SOL    HW230249   2.626   1.466   0.954 -0.6738 -1.1418 -0.9266
 6206SOL     OW30250   3.241   2.815  17.128 -0.3566 -0.0998 -0.2566
 6206SOL    HW130251   3.162   2.860  17.155 -1.6578 -2.2460 -0.4549
 6206SOL    HW230252   3.287   2.790  17.209 -0.2324  0.6629 -0.0948
 6207SOL     OW30253   2.638   1.768  10.683 -0.3595  0.1521 -0.3417
 6207SOL    HW130254   2.588   1.737  10.758 -0.2721  1.1770  0.1396
 6207SOL    HW230255   2.674   1.850  10.717  0.1519 -0.8347  1.4904
 6208SOL     OW30256   1.637   0.123   9.184  0.5178 -0.1648  0.6038
 6208SOL    HW130257   1.567   0.064   9.157 -1.0477  1.3957  1.3266
 6208SOL    HW230258   1.705   0.067   9.223  0.0437 -0.2569  1.2926
 6209SOL     OW30259   2.446   2.104   6.905  0.0067 -0.7020  0.1876
 6209SOL    HW130260   2.517   2.071   6.959  1.5787  2.8493  0.2816
 6209SOL    HW230261   2.372   2.090   6.964  0.9664 -1.1774  1.2624
 6210SOL     OW30262   4.485   0.588   5.340 -0.3420 -0.1258 -0.0610
 6210SOL    HW130263   4.477   0.594   5.435 -2.4045 -1.8573 -0.1065
 6210SOL    HW230264   4.566   0.541   5.320 -0.6184 -0.0248 -1.4420
 6211SOL     OW30265   4.626   2.132   9.588 -0.2117 -0.0073 -0.6331
 6211SOL    HW130266   4.619   2.069   9.516 -0.4154  0.3513 -0.9240
 6211SOL    HW230267   4.694   2.195   9.566 -1.5026  0.5379 -2.9827
 6212SOL     OW30268   4.191   2.292   5.014 -0.1247 -0.2949 -0.4686
 6212SOL    HW130269   4.247   2.290   4.936  1.5572  2.1522  0.6864
 6212SOL    HW230270   4.112   2.248   4.982 -1.4732  3.2505 -1.9928
 6213SOL     OW30271   1.954   0.477  10.092  0.1957 -0.2401  0.0262
 6213SOL    HW130272   1.994   0.521  10.017 -0.7219  0.1771 -0.2142
 6213SOL    HW230273   1.972   0.390  10.056  1.3597  0.4960 -1.2116
 6214SOL     OW30274   4.234   1.529   3.048 -0.2282 -0.2878  0.2469
 6214SOL    HW130275   4.252   1.559   2.959  0.8574 -1.4702  0.0668
 6214SOL    HW230276   4.144   1.498   3.038 -0.2213 -0.6524  1.2267
 6215SOL     OW30277   1.145   1.411  10.589  0.4403  0.5824  0.1798
 6215SOL    HW130278   1.088   1.411  10.667 -0.3468 -1.3974 -0.3968
 6215SOL    HW230279   1.222   1.461  10.615  1.9752 -1.9420  0.4228
 6216SOL     OW30280   2.380   4.069   6.276  0.2557 -0.6828 -0.1468
 6216SOL    HW130281   2.317   4.140   6.285  0.9768 -0.0571 -0.0541
 6216SOL    HW230282   2.425   4.098   6.196 -0.9334  1.8764  0.1142
 6217SOL     OW30283   1.529   2.274   8.291  0.0684  0.5709 -0.0959
 6217SOL    HW130284   1.511   2.318   8.374  1.2975 -0.0323  0.4874
 6217SOL    HW230285   1.556   2.344   8.231 -2.0814 -0.2580 -2.0736
 6218SOL     OW30286   2.089   1.996   9.333 -0.1070 -0.1777  0.4880
 6218SOL    HW130287   2.157   2.062   9.349  0.8541 -0.5402 -2.1720
 6218SOL    HW230288   2.113   1.964   9.246 -2.9137  0.6728 -0.6235
 6219SOL     OW30289   0.281   4.533   4.848  0.1021  0.6427  0.2778
 6219SOL    HW130290   0.350   4.538   4.914 -0.4486  0.0763  0.8981
 6219SOL    HW230291   0.308   4.446   4.821  0.2476  0.0423  2.3678
 6220SOL     OW30292   4.682   3.619   3.382  0.6909  0.3066 -0.0427
 6220SOL    HW130293   4.587   3.636   3.379  0.4285 -0.8462  1.7607
 6220SOL    HW230294   4.696   3.585   3.470  0.7831 -0.0738 -0.2007
 6221SOL     OW30295   0.746   2.573   8.702 -0.6597  0.1677 -0.2832
 6221SOL    HW130296   0.779   2.640   8.762 -1.9754 -0.2387  0.8841
 6221SOL    HW230297   0.693   2.510   8.750  0.9748 -0.8950  0.1303
 6222SOL     OW30298   2.635   3.165   0.994  0.0366  0.4469 -0.4347
 6222SOL    HW130299   2.670   3.228   0.930  1.2465  0.1381 -0.0590
 6222SOL    HW230300   2.631   3.083   0.945 -1.5001 -0.5454  1.3714
 6223SOL     OW30301   4.359   3.585   5.362 -0.1533 -0.2515  0.5216
 6223SOL    HW130302   4.390   3.495   5.363  1.5739  0.3596  1.6002
 6223SOL    HW230303   4.267   3.561   5.351 -0.4540  1.5257 -0.8165
 6224SOL     OW30304   2.022   0.688  12.104 -0.0890  0.7187 -0.2975
 6224SOL    HW130305   2.092   0.732  12.057  1.9724 -2.8543 -0.6095
 6224SOL    HW230306   2.018   0.630  12.028 -0.5192 -0.4298  0.6012
 6225SOL     OW30307   1.464   0.373  15.154  0.4482 -0.5324 -0.0195
 6225SOL    HW130308   1.429   0.461  15.138  1.4706  0.4009  2.8296
 6225SOL    HW230309   1.548   0.407  15.186 -0.9362  2.3865  0.4880
 6226SOL     OW30310   2.345   1.076   1.265  0.1608  0.2963  0.1447
 6226SOL    HW130311   2.389   1.148   1.220  0.0054  0.3727  0.1150
 6226SOL    HW230312   2.358   1.112   1.353 -1.4162  0.9508  0.0990
 6227SOL     OW30313   1.489   0.136   5.480  0.0170  0.4514 -0.2567
 6227SOL    HW130314   1.416   0.076   5.490  1.5866 -0.9357  2.8913
 6227SOL    HW230315   1.464   0.192   5.554  1.7403  0.7092  0.1347
 6228SOL     OW30316   1.370   3.062   5.853  0.1967  0.2294  0.9357
 6228SOL    HW130317   1.420   2.984   5.827 -0.8579  0.0229 -0.4597
 6228SOL    HW230318   1.332   3.032   5.936  1.0527  2.1433  2.0221
 6229SOL     OW30319   3.680   4.347   1.346 -0.0409  0.0605 -0.1859
 6229SOL    HW130320   3.696   4.269   1.399 -0.8920  0.8020  1.1582
 6229SOL    HW230321   3.760   4.345   1.293 -0.2726  1.3919 -0.6028
 6230SOL     OW30322   4.505   4.492   7.631 -0.0589 -0.2044  0.1558
 6230SOL    HW130323   4.588   4.529   7.598  1.2890  0.6696  4.5017
 6230SOL    HW230324   4.546   4.427   7.688  2.3897  1.2666  0.0822
 6231SOL     OW30325   3.827   2.674   5.368  0.1834 -0.1765  0.1826
 6231SOL    HW130326   3.774   2.717   5.436 -1.9888 -2.4562 -0.0854
 6231SOL    HW230327   3.824   2.580   5.388  1.3987 -0.5662 -1.4903
 6232SOL     OW30328   4.395   0.580  15.409 -0.3073 -0.2067  0.1243
 6232SOL    HW130329   4.308   0.551  15.382 -0.6500  0.7450  0.2027
 6232SOL    HW230330   4.427   0.504  15.457  1.8581  0.8491  0.3287
 6233SOL     OW30331   4.042   4.120   8.117  0.1302 -0.3322  0.3179
 6233SOL    HW130332   3.988   4.157   8.047 -0.2170 -0.5870  0.4478
 6233SOL    HW230333   3.990   4.138   8.196 -0.0173 -1.0999  0.3946
 6234SOL     OW30334   1.627   0.725   6.376 -0.2687  0.0427 -0.2979
 6234SOL    HW130335   1.695   0.725   6.443  0.1387  0.2389 -0.7117
 6234SOL    HW230336   1.669   0.677   6.305 -1.5402  0.6035 -1.4201
 6235SOL     OW30337   4.288   1.152   4.297 -0.0799 -0.3774  0.3865
 6235SOL    HW130338   4.224   1.138   4.367  1.5371  0.4374  2.0060
 6235SOL    HW230339   4.240   1.193   4.224 -0.3694 -2.0636 -0.3812
 6236SOL     OW30340   1.608   2.356   4.388  0.3926 -0.4185  0.1278
 6236SOL    HW130341   1.579   2.269   4.418  0.8298 -0.3134  0.8551
 6236SOL    HW230342   1.571   2.414   4.454  0.7567 -0.2500  0.1843
 6237SOL     OW30343   4.204   0.425   0.648  0.4635  0.6005 -0.0021
 6237SOL    HW130344   4.177   0.340   0.683 -0.3651  1.3161  1.0985
 6237SOL    HW230345   4.294   0.408   0.622  0.4436 -0.0107  0.3404
 6238SOL     OW30346   4.658   1.139   6.429  0.0591 -0.2851  0.0500
 6238SOL    HW130347   4.581   1.126   6.373 -0.9325 -0.7638  1.5051
 6238SOL    HW230348   4.639   1.086   6.507 -0.3290  0.0062  0.1532
 6239SOL     OW30349   0.830   2.241   8.088  0.0891 -0.1795  0.8456
 6239SOL    HW130350   0.798   2.215   8.175 -2.5663  0.5647  0.0930
 6239SOL    HW230351   0.924   2.251   8.101  0.5020 -0.5870 -1.8571
 6240SOL     OW30352   0.127   0.685   4.581 -0.6214 -0.4080 -0.6604
 6240SOL    HW130353   0.200   0.630   4.553  0.4138  1.4810 -1.7016
 6240SOL    HW230354   0.094   0.714   4.496 -0.1750 -3.1260 -1.7689
 6241SOL     OW30355   2.060   4.501   8.549  0.1450 -0.3134 -0.4854
 6241SOL    HW130356   2.102   4.443   8.486  0.2307  0.9966 -1.6278
 6241SOL    HW230357   1.976   4.454   8.545  1.0141 -1.9894  1.0124
 6242SOL     OW30358   0.627   1.881   6.300  0.2369 -0.0337  0.4169
 6242SOL    HW130359   0.667   1.806   6.343 -0.0943  0.0414  0.8550
 6242SOL    HW230360   0.710   1.928   6.289  0.1237  0.0061 -0.2486
 6243SOL     OW30361   3.179   3.955   7.886  0.0484  0.2884  0.0906
 6243SOL    HW130362   3.143   4.032   7.842 -0.0102 -0.4803 -1.1803
 6243SOL    HW230363   3.204   3.997   7.968 -0.7766  0.5474  0.2062
 6244SOL     OW30364   0.889   2.311  17.302  0.1742  0.3594 -0.3594
 6244SOL    HW130365   0.820   2.367  17.338 -0.2079  0.8170 -1.8169
 6244SOL    HW230366   0.956   2.300  17.369  0.6208  0.5690 -0.7723
 6245SOL     OW30367   3.219   2.321   6.081 -0.0443  0.0868 -0.2786
 6245SOL    HW130368   3.221   2.348   5.989  3.3188  0.4550 -0.1062
 6245SOL    HW230369   3.268   2.389   6.127 -0.2445  0.9891 -1.4120
 6246SOL     OW30370   2.332   3.603   4.513  0.4337 -0.0307  0.0152
 6246SOL    HW130371   2.368   3.531   4.564 -1.2162 -0.7788  0.0983
 6246SOL    HW230372   2.238   3.589   4.516  0.5659 -0.4521  1.8405
 6247SOL     OW30373   1.178   3.586   5.893  0.1480 -0.3470 -0.0483
 6247SOL    HW130374   1.161   3.493   5.909  0.5388 -0.0865  1.8557
 6247SOL    HW230375   1.126   3.612   5.969  1.3358 -1.2403  1.0634
 6248SOL     OW30376   0.062   3.596   2.426  0.1449  0.1440 -0.4091
 6248SOL    HW130377   0.066   3.520   2.368  1.4928 -0.5447  0.5910
 6248SOL    HW230378   4.711   3.625   2.421 -0.1174 -0.4075  1.3821
 6249SOL     OW30379   2.483   0.468  14.222 -0.4708  0.5625  0.2651
 6249SOL    HW130380   2.492   0.386  14.174  3.3050  0.3289  1.3442
 6249SOL    HW230381   2.399   0.462  14.269 -2.2263  1.8479 -2.7582
 6250SOL     OW30382   0.166   1.387   8.986 -0.2602  0.5734 -0.0289
 6250SOL    HW130383   0.187   1.295   9.002 -0.4674 -0.0319 -3.2901
 6250SOL    HW230384   0.155   1.407   9.079  0.6792  1.6163 -0.1396
 6251SOL     OW30385   0.746   4.148  14.698  0.3411  0.2547 -0.5988
 6251SOL    HW130386   0.795   4.202  14.760  3.3132 -0.3569 -2.4078
 6251SOL    HW230387   0.661   4.164  14.738  2.0084  0.9947  2.6329
 6252SOL     OW30388   0.297   3.502   5.392 -0.2173  0.3469  0.0850
 6252SOL    HW130389   0.223   3.442   5.395  0.6840 -0.7000  1.0875
 6252SOL    HW230390   0.368   3.440   5.408  0.7912  1.6685  0.6800
 6253SOL     OW30391   2.419   2.008   3.407  0.0100 -0.2528  0.4546
 6253SOL    HW130392   2.362   2.042   3.476  0.7690 -1.5900  1.7293
 6253SOL    HW230393   2.386   1.919   3.403  1.1821 -0.6821  0.2524
 6254SOL     OW30394   3.405   1.117   4.379 -0.0769  0.3836 -0.5058
 6254SOL    HW130395   3.417   1.066   4.299  0.2018  0.5657 -0.5815
 6254SOL    HW230396   3.309   1.112   4.384 -0.1434  1.3861 -0.6746
 6255SOL     OW30397   3.058   3.988   4.166  0.4503  0.3692  0.2709
 6255SOL    HW130398   2.978   3.941   4.143  1.5181 -1.4367  0.2546
 6255SOL    HW230399   3.052   4.063   4.107  1.2428 -1.3288 -1.9446
 6256SOL     OW30400   4.613   3.668  14.486  0.0954  0.2404 -0.0742
 6256SOL    HW130401   4.549   3.618  14.434 -1.6675  1.6909  0.6978
 6256SOL    HW230402   4.590   3.648  14.577 -1.4525  2.0757 -0.0775
 6257SOL     OW30403   2.087   3.517   4.175 -0.4059  0.5029 -0.2317
 6257SOL    HW130404   2.112   3.436   4.219 -1.1404  1.0184  1.1540
 6257SOL    HW230405   2.147   3.581   4.213  0.8124  0.1850 -1.6330
 6258SOL     OW30406   1.010   2.652   2.647 -0.6472  0.4297  0.0347
 6258SOL    HW130407   0.985   2.688   2.562 -0.7131 -2.4703 -1.1697
 6258SOL    HW230408   0.933   2.681   2.696 -2.2322  1.1024 -2.8575
 6259SOL     OW30409   2.742   3.312   1.221  0.1498  0.1416  0.0198
 6259SOL    HW130410   2.701   3.249   1.162 -0.3440  0.1763  0.3168
 6259SOL    HW230411   2.728   3.396   1.178 -3.0569 -0.3716  0.0156
 6260SOL     OW30412   1.704   2.098   6.632  0.4927 -0.5967  0.5451
 6260SOL    HW130413   1.731   2.120   6.721  0.4421 -0.0815  0.4388
 6260SOL    HW230414   1.786   2.078   6.587 -0.0526 -0.9730 -0.2902
 6261SOL     OW30415   0.977   0.791   4.155  0.0369 -0.2861 -0.3355
 6261SOL    HW130416   1.022   0.721   4.203  1.6434  0.9529 -0.0124
 6261SOL    HW230417   0.963   0.757   4.067 -2.8441  0.4938 -0.1757
 6262SOL     OW30418   1.781   1.424   6.820 -0.1565  0.0583 -0.2995
 6262SOL    HW130419   1.802   1.518   6.818  0.1450 -0.0375 -1.3182
 6262SOL    HW230420   1.849   1.391   6.762  0.9955 -0.1957  1.1764
 6263SOL     OW30421   3.854   0.655  12.256 -0.7632 -0.3863  0.4336
 6263SOL    HW130422   3.827   0.590  12.190 -0.9560  2.0796 -1.9246
 6263SOL    HW230423   3.788   0.670  12.324 -0.4844 -0.0427  0.6267
 6264SOL     OW30424   0.878   3.206   4.880 -0.3935 -0.0310 -0.0128
 6264SOL    HW130425   0.879   3.182   4.972  0.7879  2.4258  0.6063
 6264SOL    HW230426   0.802   3.158   4.847 -0.1864 -0.4092  0.0607
 6265SOL     OW30427   0.049   3.524  17.731  0.8024 -0.6988 -0.2690
 6265SOL    HW130428   0.039   3.557   0.064 -0.7943 -2.6081  0.2594
 6265SOL    HW230429   4.700   3.490  17.723  0.4605  0.2352 -0.3668
 6266SOL     OW30430   1.548   3.468   6.183  0.0979  0.3817 -0.3663
 6266SOL    HW130431   1.506   3.526   6.119  0.0994 -0.1535 -0.8565
 6266SOL    HW230432   1.490   3.485   6.257  0.1801 -0.3727 -0.1229
 6267SOL     OW30433   2.304   0.178   4.561  0.1257  0.2697 -0.0786
 6267SOL    HW130434   2.287   0.226   4.642 -0.4678  1.0553 -0.6657
 6267SOL    HW230435   2.385   0.134   4.584  1.1233  1.6539 -0.9262
 6268SOL     OW30436   0.491   1.869  16.317  0.1226 -0.2995 -0.1044
 6268SOL    HW130437   0.566   1.850  16.372 -0.6276 -1.8077  0.3853
 6268SOL    HW230438   0.462   1.956  16.347  0.2816 -1.3931  3.2137
 6269SOL     OW30439   0.102   1.482   8.125  0.2443 -0.1489 -0.3466
 6269SOL    HW130440   0.167   1.414   8.146 -0.0937  0.1053  1.5698
 6269SOL    HW230441   0.028   1.425   8.106  0.7334 -0.7780 -0.3607
 6270SOL     OW30442   2.207   2.800  13.667 -0.0956  0.0192  0.5642
 6270SOL    HW130443   2.134   2.761  13.619 -0.5950  1.7202 -0.0729
 6270SOL    HW230444   2.287   2.773  13.622  0.6988  2.3976  0.5617
 6271SOL     OW30445   3.940   2.542   3.292  0.2246 -0.2312 -0.2407
 6271SOL    HW130446   4.012   2.591   3.253 -1.4609  0.4322 -2.4832
 6271SOL    HW230447   3.931   2.471   3.228 -0.4969  0.1814 -0.5905
 6272SOL     OW30448   4.310   4.693   8.112  0.1791 -0.0950  0.2199
 6272SOL    HW130449   4.222   4.663   8.131 -0.0631  1.0091  0.8393
 6272SOL    HW230450   4.331   4.649   8.030 -3.1627 -1.3465  0.0332
 6273SOL     OW30451   0.366   2.458   8.629  0.5709 -0.3357 -0.1596
 6273SOL    HW130452   0.285   2.427   8.669  0.5506  0.7242  0.6192
 6273SOL    HW230453   0.403   2.505   8.704 -1.7318 -0.8788  1.3135
 6274SOL     OW30454   3.571   1.193  15.455 -0.5465 -0.0001 -0.0120
 6274SOL    HW130455   3.484   1.225  15.429 -2.1224 -1.7331  3.1902
 6274SOL    HW230456   3.622   1.274  15.462 -0.1884 -0.2553  0.3103
 6275SOL     OW30457   0.430   0.258   7.203 -0.4751  0.6028 -0.3041
 6275SOL    HW130458   0.391   0.199   7.268 -0.8219  1.3339  0.1561
 6275SOL    HW230459   0.524   0.255   7.221 -0.5404  0.8946  0.0997
 6276SOL     OW30460   4.223   0.284  14.104  0.1431 -0.8062  0.2272
 6276SOL    HW130461   4.309   0.287  14.061 -0.2776 -0.1604 -0.5759
 6276SOL    HW230462   4.204   0.195  14.075 -1.3308  0.5204 -2.8351
 6277SOL     OW30463   1.336   1.576  10.688 -0.3863  0.4238  0.1704
 6277SOL    HW130464   1.313   1.612  10.773 -2.4146 -1.4269  0.4066
 6277SOL    HW230465   1.383   1.644  10.640 -0.0509 -0.2821 -0.5189
 6278SOL     OW30466   0.992   3.518  14.579 -0.0860 -0.2277 -0.1803
 6278SOL    HW130467   1.006   3.602  14.536  1.3403  0.7345  2.1368
 6278SOL    HW230468   0.909   3.482  14.546  0.0236 -1.4503  0.8531
 6279SOL     OW30469   4.650   3.153   4.504  0.2840  0.5794  0.1513
 6279SOL    HW130470   4.587   3.202   4.452 -1.0614  1.6836  2.7808
 6279SOL    HW230471   4.660   3.201   4.586 -1.0663  1.8384 -0.4266
 6280SOL     OW30472   3.864   2.621   1.820  0.3054  0.7191 -0.6236
 6280SOL    HW130473   3.959   2.623   1.827  0.0602 -0.4329  2.8120
 6280SOL    HW230474   3.838   2.710   1.845 -0.5920  0.4743 -0.6679
 6281SOL     OW30475   2.241   3.596   1.072  0.7954  0.5643 -0.5025
 6281SOL    HW130476   2.285   3.514   1.047  1.5470  1.2991 -1.5631
 6281SOL    HW230477   2.303   3.661   1.040  2.0135 -1.0041 -1.3567
 6282SOL     OW30478   2.539   2.067   7.567  0.0879 -0.4982 -0.0727
 6282SOL    HW130479   2.549   2.109   7.652  0.7074 -2.1619  0.6616
 6282SOL    HW230480   2.548   1.973   7.584 -0.3900 -0.9205 -2.1163
 6283SOL     OW30481   0.615   2.077   2.081  0.3058  0.1664 -0.1884
 6283SOL    HW130482   0.533   2.113   2.115 -0.2145 -0.4561 -0.8000
 6283SOL    HW230483   0.672   2.087   2.157 -0.7157 -0.9006  0.7166
 6284SOL     OW30484   4.383   1.975  10.466  0.4891 -0.0756 -0.3193
 6284SOL    HW130485   4.315   2.005  10.527  1.1796 -2.7426  1.8124
 6284SOL    HW230486   4.403   1.889  10.503  0.0000 -0.2128 -0.3771
 6285SOL     OW30487   0.197   2.010   4.477 -0.4194  0.4272  0.0510
 6285SOL    HW130488   0.254   1.935   4.459 -1.0098 -0.2965  1.1940
 6285SOL    HW230489   0.181   2.055   4.394  1.2904 -0.6492 -0.8688
 6286SOL     OW30490   2.803   2.475   5.932 -0.6090 -0.0072 -0.5164
 6286SOL    HW130491   2.767   2.527   6.003 -0.3279 -1.2815  0.5591
 6286SOL    HW230492   2.850   2.408   5.983 -2.0522 -2.0596 -1.8824
 6287SOL     OW30493   4.652   1.544  15.574  0.1145  0.4964  0.2380
 6287SOL    HW130494   4.707   1.488  15.629  0.7525 -0.6630 -1.5836
 6287SOL    HW230495   4.703   1.546  15.493 -0.8814  1.9799 -0.3469
 6288SOL     OW30496   1.863   1.984  10.444 -0.5089 -0.4619 -0.4532
 6288SOL    HW130497   1.835   1.934  10.521  1.0480 -1.4317 -0.5243
 6288SOL    HW230498   1.948   1.942  10.434 -0.1657  0.3703 -0.9747
 6289SOL     OW30499   0.006   2.240   9.866  0.4106  0.0699  0.1333
 6289SOL    HW130500   0.020   2.261   9.773  3.0648  2.5903  1.1169
 6289SOL    HW230501   0.047   2.314   9.911  0.1637  0.8795 -0.9670
 6290SOL     OW30502   3.182   2.479  11.972  0.0808  0.2135 -0.2527
 6290SOL    HW130503   3.217   2.562  12.004 -2.4108  0.6824  1.1949
 6290SOL    HW230504   3.104   2.483  12.027 -0.3815 -0.7685 -0.8348
 6291SOL     OW30505   1.632   0.613  11.292 -0.1540 -0.3470 -0.2425
 6291SOL    HW130506   1.590   0.651  11.214 -0.1884  2.9633  1.4003
 6291SOL    HW230507   1.624   0.684  11.355  3.8646  1.3250 -1.6342
 6292SOL     OW30508   4.052   2.226   5.879  0.0694 -0.4886  0.5200
 6292SOL    HW130509   4.065   2.318   5.859 -2.3823  0.2817  2.5009
 6292SOL    HW230510   4.136   2.192   5.911  0.4311 -1.0798 -1.0545
 6293SOL     OW30511   4.360   2.134   8.126  0.2394  0.1623 -0.1847
 6293SOL    HW130512   4.297   2.141   8.197 -1.2727  1.9069 -1.7033
 6293SOL    HW230513   4.412   2.058   8.152  0.9802 -0.2574 -2.8956
 6294SOL     OW30514   4.206   2.019  10.640 -0.1946  0.4777  0.0676
 6294SOL    HW130515   4.159   2.100  10.622  1.9092  1.4247 -1.1122
 6294SOL    HW230516   4.142   1.960  10.681 -1.4625  2.0244  0.3061
 6295SOL     OW30517   0.657   2.141   0.629  0.5923  0.1008  0.6741
 6295SOL    HW130518   0.740   2.133   0.583  0.1361  1.7555 -0.4218
 6295SOL    HW230519   0.628   2.231   0.614 -0.0805 -0.4001 -0.9588
 6296SOL     OW30520   2.637   4.046   0.791  0.4961  0.3580 -0.3671
 6296SOL    HW130521   2.712   4.076   0.740 -0.1649 -0.2556 -1.6948
 6296SOL    HW230522   2.635   4.110   0.862 -1.8502  0.0855 -0.1887
 6297SOL     OW30523   3.064   0.870   8.273 -0.6148  0.2682 -0.5715
 6297SOL    HW130524   3.108   0.812   8.335  1.0728  1.9601 -0.1944
 6297SOL    HW230525   2.986   0.822   8.244 -0.0913 -0.0556 -1.4296
 6298SOL     OW30526   3.612   3.346   8.004  0.2198  0.2431  0.2887
 6298SOL    HW130527   3.537   3.310   8.052 -0.1482 -2.8137 -2.6082
 6298SOL    HW230528   3.691   3.304   8.039  0.6223  0.0265 -0.9031
 6299SOL     OW30529   2.526   3.499   4.898  0.0346  0.1929  0.4353
 6299SOL    HW130530   2.477   3.581   4.897  0.2211  0.3318  1.9560
 6299SOL    HW230531   2.458   3.446   4.856  2.3324 -2.2473 -0.1916
 6300SOL     OW30532   2.090   0.525   9.510  0.1176  0.0992  0.0503
 6300SOL    HW130533   2.070   0.454   9.572  1.4049  0.8152  1.2904
 6300SOL    HW230534   2.143   0.475   9.446  1.5807  3.7241 -1.5483
 6301SOL     OW30535   1.677   3.282   3.781  0.1021  0.1269  0.2550
 6301SOL    HW130536   1.720   3.201   3.753 -1.1754 -0.1942 -0.7637
 6301SOL    HW230537   1.585   3.261   3.770 -0.0719  0.0801  1.7656
 6302SOL     OW30538   0.388   2.332   6.854 -0.6896 -0.1947 -0.1502
 6302SOL    HW130539   0.307   2.285   6.872 -0.5630 -0.3590 -0.0050
 6302SOL    HW230540   0.389   2.334   6.759 -0.6088 -0.9930 -0.1678
 6303SOL     OW30541   2.112   1.720   1.874 -0.0055 -0.1067  0.1889
 6303SOL    HW130542   2.027   1.733   1.833  0.2685  0.6384 -0.1490
 6303SOL    HW230543   2.149   1.661   1.807  0.4432 -0.2519  0.5646
 6304SOL     OW30544   1.300   0.217   2.435 -0.3105 -0.8103  0.2005
 6304SOL    HW130545   1.369   0.256   2.488 -0.8501 -0.0830  0.3631
 6304SOL    HW230546   1.334   0.246   2.350 -0.9673 -0.2569  0.1244
 6305SOL     OW30547   1.275   2.903   1.700 -0.5641  0.3144  0.3658
 6305SOL    HW130548   1.244   2.835   1.760 -1.7446 -0.2106 -0.8386
 6305SOL    HW230549   1.358   2.934   1.735 -0.1769 -0.0768 -0.1875
 6306SOL     OW30550   0.360   3.381   4.498 -0.2726  0.3289 -0.2023
 6306SOL    HW130551   0.290   3.317   4.484 -0.7376  0.6777  0.5363
 6306SOL    HW230552   0.355   3.449   4.431 -0.8335  1.1572  0.6898
 6307SOL     OW30553   4.693   3.173   3.547 -0.4650  0.1149  0.5742
 6307SOL    HW130554   0.023   3.234   3.523 -0.0924 -0.6463 -0.2803
 6307SOL    HW230555   4.736   3.090   3.525  1.6312  0.7173  2.4366
 6308SOL     OW30556   2.065   3.804   9.149 -1.1440  0.4264 -0.4916
 6308SOL    HW130557   2.073   3.778   9.241  0.7442  2.1732 -0.1523
 6308SOL    HW230558   1.999   3.873   9.159  0.0805  1.1850  2.2260
 6309SOL     OW30559   1.645   4.058   3.359 -0.2618  0.2200  0.1750
 6309SOL    HW130560   1.674   4.053   3.268  0.8141 -0.4630  0.5555
 6309SOL    HW230561   1.628   4.152   3.366  0.4864  0.5076 -1.9214
 6310SOL     OW30562   3.632   2.443   0.794 -0.3485  0.0739  0.2258
 6310SOL    HW130563   3.727   2.432   0.785 -0.2236  0.6198  0.8818
 6310SOL    HW230564   3.596   2.354   0.791  0.5439 -0.3564  2.2940
 6311SOL     OW30565   3.204   3.026  12.227 -0.5438  0.0128  0.7057
 6311SOL    HW130566   3.249   2.961  12.281  1.1177 -1.7319 -2.7451
 6311SOL    HW230567   3.113   2.995  12.230  0.4763 -2.9573  1.0912
 6312SOL     OW30568   3.063   1.736   1.770 -0.6353  0.4350 -0.4367
 6312SOL    HW130569   3.140   1.680   1.761  0.9155  2.4447  0.5315
 6312SOL    HW230570   3.072   1.775   1.856 -1.7284 -0.5848  0.1424
 6313SOL     OW30571   1.627   1.284  17.457 -0.0034  0.3025 -0.1291
 6313SOL    HW130572   1.584   1.313  17.376 -0.4798  1.6966  0.6298
 6313SOL    HW230573   1.558   1.319  17.512 -1.9940 -0.2375 -2.2562
 6314SOL     OW30574   2.471   3.004   3.013 -0.1288  0.2396 -0.2859
 6314SOL    HW130575   2.397   2.945   3.002 -1.3002  2.1008 -2.4043
 6314SOL    HW230576   2.419   3.084   3.026  1.1827  1.3313 -1.7298
 6315SOL     OW30577   0.946   1.017   9.163 -0.2454 -0.2564  0.2495
 6315SOL    HW130578   0.977   1.024   9.253 -0.4218 -0.0455  0.2946
 6315SOL    HW230579   0.992   1.088   9.118 -2.6504  0.5598 -0.9096
 6316SOL     OW30580   1.753   0.178  11.863  0.1689  0.0818 -0.0504
 6316SOL    HW130581   1.773   0.220  11.780 -1.0726 -0.7777 -0.7835
 6316SOL    HW230582   1.841   0.147  11.888 -0.8184 -2.7805 -0.1115
 6317SOL     OW30583   1.488   1.588  16.533 -0.0370 -0.7566  0.1850
 6317SOL    HW130584   1.528   1.505  16.558  1.8778  0.3685  0.9015
 6317SOL    HW230585   1.476   1.622  16.621 -2.1214  1.8787 -1.1167
 6318SOL     OW30586   4.393   4.616  14.696  0.0102  0.2428  0.0541
 6318SOL    HW130587   4.390   4.525  14.725  2.3252  0.5863  1.3322
 6318SOL    HW230588   4.476   4.654  14.722 -1.6450  2.5448  2.0177
 6319SOL     OW30589   4.208   1.629   0.634 -0.2003 -0.0185  0.3013
 6319SOL    HW130590   4.131   1.572   0.630  0.0928 -0.4320  0.5234
 6319SOL    HW230591   4.274   1.581   0.585 -0.4587 -1.2125  1.1265
 6320SOL     OW30592   3.579   0.289   0.474  0.5611  0.0599  0.4717
 6320SOL    HW130593   3.531   0.232   0.414 -1.0160  2.2097 -0.2789
 6320SOL    HW230594   3.662   0.244   0.488  1.6174  1.5452 -1.0035
 6321SOL     OW30595   1.482   0.426   8.471  0.1460  0.2314  0.4364
 6321SOL    HW130596   1.430   0.354   8.508  3.0020 -2.5685 -1.0243
 6321SOL    HW230597   1.449   0.494   8.530 -0.9313 -0.4116  0.5774
 6322SOL     OW30598   0.854   2.701  11.744 -0.2439 -0.0333  0.1614
 6322SOL    HW130599   0.788   2.771  11.740 -0.2707 -0.2398 -2.9812
 6322SOL    HW230600   0.927   2.750  11.782 -0.9105  0.5046  0.7697
 6323SOL     OW30601   3.151   3.360   5.743  0.1616 -0.3659 -0.0585
 6323SOL    HW130602   3.089   3.433   5.735  1.6216  0.8782 -0.1095
 6323SOL    HW230603   3.224   3.416   5.768  1.6585 -2.5972  0.5175
 6324SOL     OW30604   1.171   3.182   8.755 -0.5622  0.5125  0.1645
 6324SOL    HW130605   1.211   3.246   8.814 -1.3335 -0.6040  1.9004
 6324SOL    HW230606   1.082   3.220   8.757 -0.9979 -0.5450  0.7196
 6325SOL     OW30607   3.955   4.721   0.857 -0.6667 -0.0673  0.4439
 6325SOL    HW130608   3.968   4.679   0.942  0.7463  0.7016  0.6005
 6325SOL    HW230609   3.892   0.052   0.871 -0.6650  0.1131 -0.4514
 6326SOL     OW30610   2.081   3.162   8.556  0.2624 -0.0258  0.1496
 6326SOL    HW130611   2.170   3.139   8.531  0.5775  1.9999 -0.5503
 6326SOL    HW230612   2.095   3.251   8.587  0.4090 -0.5828  1.7104
 6327SOL     OW30613   2.510   0.802   5.493  0.4135  0.2612  0.1702
 6327SOL    HW130614   2.541   0.846   5.414 -2.8143  2.4043  0.1010
 6327SOL    HW230615   2.423   0.841   5.497 -0.5651 -1.7088 -2.2017
 6328SOL     OW30616   0.534   2.838   8.339  0.4770 -0.6723  0.4564
 6328SOL    HW130617   0.571   2.780   8.272  0.1291 -1.8438  1.2941
 6328SOL    HW230618   0.500   2.782   8.408 -1.8562 -0.5476 -0.5735
 6329SOL     OW30619   2.029   2.776   8.842 -0.1962 -0.3534 -0.5562
 6329SOL    HW130620   2.079   2.801   8.921 -2.0923 -2.7532  1.3812
 6329SOL    HW230621   1.987   2.856   8.811 -1.8211 -1.0590 -0.1628
 6330SOL     OW30622   1.497   0.271  11.564  0.0767 -0.5509 -0.5083
 6330SOL    HW130623   1.578   0.292  11.610 -1.2401  1.0806  1.0438
 6330SOL    HW230624   1.505   0.334  11.492  1.0548 -0.9885 -0.7802
 6331SOL     OW30625   0.051   2.141   1.704  0.1836 -0.0915  0.1126
 6331SOL    HW130626   0.139   2.137   1.668  0.2579 -1.6926  0.4676
 6331SOL    HW230627   0.007   2.189   1.634 -2.7658 -2.8084  0.1021
 6332SOL     OW30628   4.504   3.137   9.162  0.2934 -0.0655  0.5351
 6332SOL    HW130629   4.485   3.045   9.148 -1.1974  0.4130 -0.5809
 6332SOL    HW230630   4.514   3.178   9.075  0.1580 -0.7859  0.1850
 6333SOL     OW30631   4.657   4.440   6.162  0.5323 -0.0408  0.3257
 6333SOL    HW130632   4.662   4.504   6.233 -2.9097 -0.9042  1.3134
 6333SOL    HW230633   0.007   4.415   6.140  0.4582  0.1990 -0.2691
 6334SOL     OW30634   3.915   2.458  13.240  0.6573  0.0987 -0.2249
 6334SOL    HW130635   3.832   2.425  13.207  1.6359 -1.4271 -1.1397
 6334SOL    HW230636   3.906   2.554  13.239 -1.8882 -0.1343  0.0868
 6335SOL     OW30637   1.333   1.725   5.831  0.7819  0.1938  0.2144
 6335SOL    HW130638   1.390   1.652   5.855  0.1279 -1.2583 -2.6107
 6335SOL    HW230639   1.248   1.680   5.836 -0.0311  1.6346 -0.6711
 6336SOL     OW30640   3.597   1.757  16.429 -0.1029 -0.5636  0.1423
 6336SOL    HW130641   3.680   1.711  16.427 -0.2614 -0.8886  0.9598
 6336SOL    HW230642   3.604   1.818  16.356  1.3772  1.2912  1.8179
 6337SOL     OW30643   4.068   0.955   2.635  0.0602 -0.2122  0.0336
 6337SOL    HW130644   4.136   1.021   2.649  1.1467 -1.2573 -0.3804
 6337SOL    HW230645   4.025   1.007   2.566  3.3471  0.9551 -1.1685
 6338SOL     OW30646   2.689   2.623  15.092  0.5466  0.3018 -0.0830
 6338SOL    HW130647   2.692   2.644  14.998  0.1173 -2.1992 -0.6396
 6338SOL    HW230648   2.709   2.530  15.088  0.9537  0.4495 -1.2636
 6339SOL     OW30649   1.581   2.982   1.767 -0.5051 -0.0927 -0.2159
 6339SOL    HW130650   1.612   2.963   1.679  1.4070 -0.7790  0.6091
 6339SOL    HW230651   1.556   3.074   1.763  1.0075  0.3746  1.0329
 6340SOL     OW30652   2.991   0.361   0.043 -0.1786  0.1324  0.2989
 6340SOL    HW130653   2.928   0.329   0.108 -0.4924 -2.6790 -1.3986
 6340SOL    HW230654   3.009   0.441   0.091  0.3034 -0.0167  0.3649
 6341SOL     OW30655   0.151   0.871   1.552 -0.0380  0.4651 -0.1304
 6341SOL    HW130656   0.162   0.790   1.602  0.7724 -0.1295 -1.2542
 6341SOL    HW230657   0.228   0.917   1.586 -0.4626  1.2050 -0.1697
 6342SOL     OW30658   3.586   3.297  10.680  0.3647  0.3090 -0.5806
 6342SOL    HW130659   3.618   3.386  10.692  0.3517  0.5148 -2.0810
 6342SOL    HW230660   3.650   3.248  10.628 -1.8569 -2.1422 -1.0265
 6343SOL     OW30661   2.750   4.367   2.356  0.7138 -0.2770  0.1454
 6343SOL    HW130662   2.771   4.309   2.429  0.7708 -0.4159  0.0189
 6343SOL    HW230663   2.693   4.428   2.403  0.1614  1.6555 -3.0317
 6344SOL     OW30664   2.510   1.477   6.656  0.2852  0.5551 -0.1585
 6344SOL    HW130665   2.575   1.536   6.615  0.7270  0.5102  0.4790
 6344SOL    HW230666   2.514   1.406   6.592  0.4557 -0.1240  0.6099
 6345SOL     OW30667   0.483   0.501   2.539 -0.4156 -0.2243 -0.0930
 6345SOL    HW130668   0.523   0.431   2.591 -2.4587 -1.6009 -0.3665
 6345SOL    HW230669   0.557   0.534   2.488 -1.6275  0.9971 -1.0402
 6346SOL     OW30670   1.430   2.017   5.809 -0.2673 -0.3066 -0.1916
 6346SOL    HW130671   1.416   1.926   5.780  0.4402 -0.0168 -1.4642
 6346SOL    HW230672   1.525   2.022   5.796  0.0938  0.9328  3.1518
 6347SOL     OW30673   2.140   2.485   4.020 -0.5111 -0.1996  0.5031
 6347SOL    HW130674   2.171   2.572   3.995  0.6654 -0.6285  0.4759
 6347SOL    HW230675   2.045   2.481   4.010 -0.1809 -1.2958 -2.0729
 6348SOL     OW30676   2.205   1.973   1.860 -0.1411  0.0348 -0.3307
 6348SOL    HW130677   2.113   1.978   1.887 -0.5306 -1.4569 -1.3857
 6348SOL    HW230678   2.213   1.878   1.850  0.8630  0.0712  0.1252
 6349SOL     OW30679   1.632   0.199   6.814 -0.2122 -0.1748 -0.2283
 6349SOL    HW130680   1.726   0.191   6.799  0.4643  1.0889  3.2159
 6349SOL    HW230681   1.634   0.237   6.902  0.8786 -0.4326 -0.1462
 6350SOL     OW30682   2.402   3.993   3.295 -0.7953 -0.3299  0.4345
 6350SOL    HW130683   2.316   3.967   3.329 -0.2386 -0.2562  1.9195
 6350SOL    HW230684   2.461   3.920   3.315 -1.0229 -0.1557  1.7887
 6351SOL     OW30685   1.250   2.798  13.951  0.1945  0.1247  0.4229
 6351SOL    HW130686   1.245   2.783  14.046 -1.8313 -0.7026  0.1893
 6351SOL    HW230687   1.225   2.890  13.953 -0.1744  0.0184  0.9500
 6352SOL     OW30688   2.266   4.442   7.149 -0.3756  0.1679 -0.2228
 6352SOL    HW130689   2.292   4.520   7.198 -0.3108 -0.2017  0.3397
 6352SOL    HW230690   2.311   4.376   7.203 -0.4163 -0.7212 -1.2782
 6353SOL     OW30691   3.008   1.311   2.092 -0.1534 -0.3254  0.3895
 6353SOL    HW130692   3.000   1.405   2.107 -1.2764 -0.2546 -0.6791
 6353SOL    HW230693   3.045   1.324   2.004  0.3496 -0.4949  0.5740
 6354SOL     OW30694   2.170   4.001   4.954  0.2862 -0.2380  0.6305
 6354SOL    HW130695   2.203   3.945   5.024  2.1337 -1.6649 -1.3753
 6354SOL    HW230696   2.240   4.010   4.888 -0.5431  0.0506 -0.2092
 6355SOL     OW30697   3.416   0.391   7.716  0.2592 -0.2602 -0.0744
 6355SOL    HW130698   3.456   0.473   7.747 -1.7066  0.0848  1.5892
 6355SOL    HW230699   3.462   0.373   7.635 -0.4957  0.9045 -0.7627
 6356SOL     OW30700   0.283   0.898  16.449  0.1238 -0.2947 -0.7984
 6356SOL    HW130701   0.365   0.854  16.428 -0.0735 -2.2007  2.4278
 6356SOL    HW230702   0.309   0.988  16.431  1.3474  0.3852  4.2332
 6357SOL     OW30703   3.605   0.501   0.836  0.2253  0.6402  0.2200
 6357SOL    HW130704   3.649   0.575   0.795  0.6731 -0.3830 -1.1463
 6357SOL    HW230705   3.640   0.524   0.923  0.8690  1.7434 -0.3305
 6358SOL     OW30706   0.675   3.458   6.547  0.0680 -0.3835 -0.3677
 6358SOL    HW130707   0.739   3.404   6.592  1.8293  0.8306 -1.4154
 6358SOL    HW230708   0.603   3.432   6.604  0.6822 -1.9476 -0.3187
 6359SOL     OW30709   1.927   0.036   4.094  0.0754 -0.2691  0.2884
 6359SOL    HW130710   1.869   0.003   4.025  0.4595  0.5445 -0.4252
 6359SOL    HW230711   2.008   0.061   4.048  0.9543 -1.6918  1.0768
 6360SOL     OW30712   0.061   0.104   5.054 -0.0380 -0.1183  0.1876
 6360SOL    HW130713   0.039   0.197   5.064 -2.4757 -0.5629 -1.1581
 6360SOL    HW230714   0.040   0.071   5.142  0.0461 -0.0220  0.2439
 6361SOL     OW30715   2.800   4.138   8.705 -0.1416  0.0919  0.2405
 6361SOL    HW130716   2.837   4.050   8.698  0.0222  0.3281 -1.7661
 6361SOL    HW230717   2.828   4.176   8.789  1.1594  1.3045 -0.7485
 6362SOL     OW30718   1.159   3.935   9.238 -0.5891  0.2816 -0.0163
 6362SOL    HW130719   1.238   3.897   9.276 -1.0769  2.0217  2.7397
 6362SOL    HW230720   1.104   3.856   9.234  2.6287 -1.8326 -2.1646
 6363SOL     OW30721   3.449   3.921   0.911 -0.6358  0.2760 -0.2496
 6363SOL    HW130722   3.519   3.868   0.875  0.3338  0.0637  1.9409
 6363SOL    HW230723   3.389   3.851   0.938 -0.2046 -0.7540 -1.9908
 6364SOL     OW30724   2.557   1.876  14.132  0.2822  0.3053 -0.0430
 6364SOL    HW130725   2.474   1.875  14.085  0.2011  1.0554  0.0926
 6364SOL    HW230726   2.563   1.965  14.166  0.3619  1.2811 -2.6192
 6365SOL     OW30727   0.950   1.545   4.669  0.2561 -0.5917  0.0308
 6365SOL    HW130728   0.876   1.598   4.641  2.9515  1.2590 -3.6199
 6365SOL    HW230729   1.029   1.595   4.647 -0.1710  0.2282  0.3401
 6366SOL     OW30730   3.780   3.087   5.701  0.0763 -0.3602 -0.0445
 6366SOL    HW130731   3.809   3.178   5.696 -0.8922 -0.0433  0.1280
 6366SOL    HW230732   3.843   3.052   5.764 -0.4757 -2.2600 -0.5509
 6367SOL     OW30733   0.219   0.050   4.799 -0.3375 -0.4785  0.1061
 6367SOL    HW130734   0.156   0.065   4.870  0.9619  0.1424  1.1146
 6367SOL    HW230735   0.234   4.696   4.804  1.4466 -0.0949  1.7447
 6368SOL     OW30736   1.135   2.093   8.757 -0.3050 -0.2901 -0.3729
 6368SOL    HW130737   1.094   2.125   8.677 -0.8922 -1.7677 -0.6457
 6368SOL    HW230738   1.074   2.127   8.823  0.9124  0.2898  0.4582
 6369SOL     OW30739   4.426   4.443  15.978 -0.6676  0.4269 -0.0116
 6369SOL    HW130740   4.472   4.521  15.946 -1.8373  1.6815  1.3232
 6369SOL    HW230741   4.465   4.379  15.919  1.3322 -1.2908  3.1610
 6370SOL     OW30742   2.488   0.973   5.142 -0.0812 -0.1787  0.1035
 6370SOL    HW130743   2.543   1.047   5.119  1.7205 -1.3425  0.6225
 6370SOL    HW230744   2.397   1.001   5.139  0.2634  1.0383  1.1000
 6371SOL     OW30745   4.018   2.251  11.339  0.5321 -0.3150  0.2164
 6371SOL    HW130746   3.983   2.173  11.382 -1.0852  0.8447  1.0340
 6371SOL    HW230747   4.111   2.231  11.331  0.6325 -0.4286  1.6298
 6372SOL     OW30748   3.409   1.921  13.685  0.0481  0.9688 -0.2371
 6372SOL    HW130749   3.400   1.826  13.681 -2.5130  1.0797  2.1955
 6372SOL    HW230750   3.331   1.950  13.732  0.9256  1.9341  0.6404
 6373SOL     OW30751   0.523   4.418  16.389  0.0608  0.2000  0.1448
 6373SOL    HW130752   0.434   4.447  16.371  0.8448  1.4569 -1.7018
 6373SOL    HW230753   0.540   4.465  16.471  1.9628 -1.5362  0.7518
 6374SOL     OW30754   1.042   0.773   5.113 -0.0316  0.6318 -0.4372
 6374SOL    HW130755   0.984   0.716   5.063 -0.8095  1.1033 -0.0773
 6374SOL    HW230756   0.994   0.857   5.113 -1.4082 -0.1552  0.6005
 6375SOL     OW30757   2.781   4.710  14.258 -1.2640  0.2119 -0.4536
 6375SOL    HW130758   2.861   4.660  14.242  0.0633  1.5671  1.8881
 6375SOL    HW230759   2.717   4.671  14.198  0.6327 -2.2962 -0.8499
 6376SOL     OW30760   4.352   0.232  15.756  0.0640 -0.1192  0.6413
 6376SOL    HW130761   4.377   0.242  15.848 -1.5441 -3.1132  1.4142
 6376SOL    HW230762   4.274   0.181  15.779 -1.1933  0.8818 -1.4075
 6377SOL     OW30763   3.136   3.199   9.260 -0.0356  0.6040 -1.0954
 6377SOL    HW130764   3.223   3.163   9.279 -0.7174  0.7621  2.3272
 6377SOL    HW230765   3.121   3.273   9.319  0.1869  0.7844 -1.2669
 6378SOL     OW30766   3.475   0.318   1.940  0.8077 -0.6115  0.0370
 6378SOL    HW130767   3.472   0.287   2.031  1.2475 -0.1381  0.2167
 6378SOL    HW230768   3.477   0.411   1.961 -2.0587 -0.4460 -0.5491
 6379SOL     OW30769   0.520   2.564   1.934 -0.0514  0.1169  0.0360
 6379SOL    HW130770   0.526   2.642   1.990  1.5778 -0.1937  0.2917
 6379SOL    HW230771   0.603   2.519   1.948  1.2960  2.1429 -1.4229
 6380SOL     OW30772   1.805   1.271   2.336  0.2950  0.3454 -0.2381
 6380SOL    HW130773   1.781   1.304   2.423 -0.9056 -0.1813 -0.3794
 6380SOL    HW230774   1.897   1.296   2.336  0.7139 -1.2128 -0.7584
 6381SOL     OW30775   2.389   4.300   7.715  0.6455 -0.3973  0.1206
 6381SOL    HW130776   2.370   4.390   7.740  0.4170 -0.5114  0.3589
 6381SOL    HW230777   2.456   4.310   7.648  0.9192 -1.5301  0.2289
 6382SOL     OW30778   2.833   3.466  11.036  0.4943 -0.5501  0.2042
 6382SOL    HW130779   2.895   3.516  10.983  3.1357 -1.3896  2.5081
 6382SOL    HW230780   2.864   3.378  11.015 -2.5745 -1.6618  0.3644
 6383SOL     OW30781   2.081   0.744   8.022  0.2783 -0.1944 -0.0602
 6383SOL    HW130782   2.042   0.828   8.045 -0.9365 -0.9240  0.5076
 6383SOL    HW230783   2.141   0.722   8.093 -0.4485 -0.8788  0.3395
 6384SOL     OW30784   2.338   2.664   3.149  1.0477  0.1598  0.7071
 6384SOL    HW130785   2.430   2.639   3.142  0.9757  0.1960 -0.3625
 6384SOL    HW230786   2.329   2.737   3.087 -0.7194 -1.0818 -0.5074
 6385SOL     OW30787   2.851   1.259   4.805  0.7211 -0.5695 -0.6979
 6385SOL    HW130788   2.792   1.334   4.814  2.1490  0.4193  0.4896
 6385SOL    HW230789   2.872   1.236   4.896  0.2548 -0.2108 -0.4983
 6386SOL     OW30790   2.047   2.528   4.887  0.3526  0.3594  0.2159
 6386SOL    HW130791   2.050   2.458   4.822 -0.3029 -1.1819  1.8266
 6386SOL    HW230792   2.083   2.594   4.828  1.1726  1.4468  1.9361
 6387SOL     OW30793   4.329   1.527   4.733  0.6539 -0.1337 -0.2542
 6387SOL    HW130794   4.351   1.511   4.641 -1.6830 -0.0128 -0.8344
 6387SOL    HW230795   4.410   1.565   4.767  0.0619  0.8479  0.0285
 6388SOL     OW30796   0.982   1.801   1.601 -0.2928  0.3978  0.0741
 6388SOL    HW130797   0.910   1.766   1.548  2.1742 -0.8206 -2.4764
 6388SOL    HW230798   1.058   1.768   1.553 -0.6511 -0.8231  0.3288
 6389SOL     OW30799   1.332   2.131   1.150  0.2826  0.1227 -0.4300
 6389SOL    HW130800   1.322   2.085   1.067 -0.1824 -1.3886  0.4470
 6389SOL    HW230801   1.319   2.220   1.117  1.7090  0.2983 -0.5027
 6390SOL     OW30802   0.718   2.377   2.995 -0.3620 -0.1842  0.1716
 6390SOL    HW130803   0.755   2.452   2.948  0.7842 -0.4249  0.6853
 6390SOL    HW230804   0.766   2.376   3.078 -0.3490  2.8318  0.1870
 6391SOL     OW30805   2.598   4.565   2.492 -0.3632  0.3436 -0.2882
 6391SOL    HW130806   2.540   4.602   2.558 -1.1201 -3.6901  1.3549
 6391SOL    HW230807   2.608   4.628   2.421  2.6046 -1.2738 -1.3505
 6392SOL     OW30808   0.204   0.221   4.558  0.0222 -0.4090  0.4467
 6392SOL    HW130809   0.284   0.170   4.547 -0.0992  0.3762 -3.7917
 6392SOL    HW230810   0.175   0.169   4.633  0.5767 -3.5052 -1.4991
 6393SOL     OW30811   3.489   0.697   7.417 -0.7576  0.2232 -0.5482
 6393SOL    HW130812   3.541   0.627   7.457  0.8654  1.3327 -0.7464
 6393SOL    HW230813   3.414   0.650   7.381 -1.1566  1.6783 -1.6061
 6394SOL     OW30814   2.627   2.001  10.988 -0.6188  0.1568  1.1553
 6394SOL    HW130815   2.568   1.926  10.978  0.1598 -0.0030 -2.2247
 6394SOL    HW230816   2.697   1.978  10.926  1.8530  1.8757  3.3005
 6395SOL     OW30817   3.854   2.316  14.359  0.0467  0.2842  0.1937
 6395SOL    HW130818   3.844   2.400  14.402 -0.1963 -0.3233  1.3371
 6395SOL    HW230819   3.792   2.319  14.286 -0.0484  0.8745  0.3035
 6396SOL     OW30820   0.472   0.405   9.767 -0.2430  0.5291  0.5355
 6396SOL    HW130821   0.468   0.500   9.777 -0.1084  0.4394  1.4554
 6396SOL    HW230822   0.515   0.392   9.851  1.2377  0.5217 -0.2311
 6397SOL     OW30823   1.390   3.471   3.969  0.1962 -0.5508 -0.2744
 6397SOL    HW130824   1.426   3.459   4.057  0.1368 -1.4944 -0.3716
 6397SOL    HW230825   1.304   3.431   3.986  0.1787 -0.1022  0.6806
 6398SOL     OW30826   3.297   2.835   4.290 -0.3780  0.5390 -0.4383
 6398SOL    HW130827   3.216   2.886   4.279  0.3294  1.6849 -0.2747
 6398SOL    HW230828   3.338   2.853   4.205 -1.4135  0.0144 -1.0519
 6399SOL     OW30829   4.226   1.529   6.850 -0.0462 -0.4845 -0.2944
 6399SOL    HW130830   4.265   1.497   6.932 -0.0408  2.1668  0.7271
 6399SOL    HW230831   4.302   1.576   6.814  0.8914 -0.4738  1.6970
 6400SOL     OW30832   4.027   2.927   6.856 -0.0392  0.2185 -0.8147
 6400SOL    HW130833   4.101   2.927   6.794  1.2087 -0.3216  0.6695
 6400SOL    HW230834   4.025   2.833   6.875 -1.1529  0.1271 -1.4187
 6401SOL     OW30835   1.113   0.201   1.921  0.4805  0.2743  0.8853
 6401SOL    HW130836   1.070   0.149   1.989 -1.1711 -2.0418 -1.9116
 6401SOL    HW230837   1.162   0.130   1.880 -0.5459 -2.0283  3.6698
 6402SOL     OW30838   4.027   0.790   6.890  0.4004 -0.4658 -0.0444
 6402SOL    HW130839   4.009   0.769   6.981  1.6812 -1.3360  0.0065
 6402SOL    HW230840   4.005   0.708   6.846 -1.8331 -0.0729  0.3733
 6403SOL     OW30841   1.249   3.066   6.098 -0.0195  0.2824 -0.5301
 6403SOL    HW130842   1.219   3.151   6.065  1.2227  0.9887  0.1548
 6403SOL    HW230843   1.311   3.088   6.168 -0.0878  0.0174 -0.3874
 6404SOL     OW30844   0.981   1.371   9.549 -0.3357  0.4007 -0.0019
 6404SOL    HW130845   0.999   1.381   9.642  1.2626  2.6522 -0.5568
 6404SOL    HW230846   0.936   1.286   9.552 -0.2716  0.4705  3.0998
 6405SOL     OW30847   0.852   2.755   5.640 -0.0762  0.7967  0.2595
 6405SOL    HW130848   0.882   2.764   5.549  0.2589 -0.6641  0.2145
 6405SOL    HW230849   0.777   2.704   5.608  0.7366 -0.5383  0.4717
 6406SOL     OW30850   3.341   0.892   7.117 -0.3387  0.3185  0.0766
 6406SOL    HW130851   3.262   0.898   7.171  0.8959 -0.9452  2.0106
 6406SOL    HW230852   3.314   0.946   7.043  1.4319 -1.5675 -1.9287
 6407SOL     OW30853   2.123   0.899   2.523  0.3138 -0.1058 -0.0472
 6407SOL    HW130854   2.059   0.867   2.460  1.5670  0.0210 -1.3648
 6407SOL    HW230855   2.152   0.980   2.480  1.0369  0.9626  2.3768
 6408SOL     OW30856   2.304   3.015   5.711 -0.0595  0.3620 -0.1296
 6408SOL    HW130857   2.344   2.933   5.685 -1.2215 -0.3711  0.3990
 6408SOL    HW230858   2.326   3.032   5.802 -1.3170 -0.8921  0.4079
 6409SOL     OW30859   2.332   0.755   5.850 -0.1445 -0.7125 -0.4727
 6409SOL    HW130860   2.394   0.724   5.783  0.3568  0.4693 -0.5526
 6409SOL    HW230861   2.262   0.689   5.848 -1.3060  0.5536 -1.1323
 6410SOL     OW30862   4.194   3.837   3.816  0.4661 -0.5790  0.0908
 6410SOL    HW130863   4.177   3.837   3.910  0.6184 -1.1610  0.1158
 6410SOL    HW230864   4.256   3.765   3.816  0.8762 -0.2229  0.1198
 6411SOL     OW30865   3.291   2.362   7.618 -0.4133  0.2099  0.4095
 6411SOL    HW130866   3.235   2.331   7.689 -0.2578 -0.0156  0.4333
 6411SOL    HW230867   3.331   2.438   7.661  1.0916 -0.5601  0.3891
 6412SOL     OW30868   2.997   3.470   2.681 -0.2190 -0.8641 -0.3010
 6412SOL    HW130869   3.060   3.414   2.636  0.5271  0.4201 -0.8452
 6412SOL    HW230870   2.938   3.492   2.609  0.8564 -1.3667 -1.3212
 6413SOL     OW30871   1.500   2.072  10.587  0.1705 -0.1900  0.6551
 6413SOL    HW130872   1.418   2.097  10.630 -0.5472 -1.8756  0.2716
 6413SOL    HW230873   1.563   2.071  10.659  0.7233  0.0465  0.1772
 6414SOL     OW30874   1.694   4.527   3.634 -0.1764 -0.5908 -0.0207
 6414SOL    HW130875   1.675   4.505   3.543  1.2527  0.7337 -0.6515
 6414SOL    HW230876   1.615   4.493   3.675 -0.3117  0.5964  0.6922
 6415SOL     OW30877   4.684   1.298   3.653  0.1016  0.4598 -0.2046
 6415SOL    HW130878   4.659   1.257   3.736  0.6279  2.1825  0.8056
 6415SOL    HW230879   4.700   1.219   3.602 -1.4243  0.1878 -0.2611
 6416SOL     OW30880   2.238   1.027   7.596  0.2066  0.3185 -0.2986
 6416SOL    HW130881   2.298   1.037   7.669 -1.3464 -0.6483  1.1186
 6416SOL    HW230882   2.155   1.035   7.643  1.2313 -0.2027  1.5595
 6417SOL     OW30883   2.711   2.928   1.458 -0.2918 -0.1514  0.2806
 6417SOL    HW130884   2.806   2.937   1.450  0.0059 -1.8088  1.9355
 6417SOL    HW230885   2.694   2.848   1.408 -0.6900 -0.2579  0.5863
 6418SOL     OW30886   2.394   0.186  16.946  0.0423  0.3895 -0.6176
 6418SOL    HW130887   2.361   0.113  16.894 -1.1071 -0.8071  1.8005
 6418SOL    HW230888   2.323   0.250  16.948  0.2441  0.6003 -0.3008
 6419SOL     OW30889   1.289   2.893   6.672 -0.1486  0.1179  0.2639
 6419SOL    HW130890   1.384   2.905   6.673 -0.1513  0.2565 -1.0459
 6419SOL    HW230891   1.267   2.925   6.585  0.8640  1.4696  0.5036
 6420SOL     OW30892   4.160   4.335   5.891  0.8345  0.1789  0.3954
 6420SOL    HW130893   4.181   4.418   5.933  0.9585  0.8728 -1.0522
 6420SOL    HW230894   4.082   4.305   5.938 -0.8801  2.3016 -1.1220
 6421SOL     OW30895   4.032   1.740  17.337 -0.1977  0.6711 -0.0577
 6421SOL    HW130896   4.058   1.829  17.311 -0.9171  0.5199 -1.2879
 6421SOL    HW230897   4.111   1.687  17.346 -0.8983  0.1608  3.2866
 6422SOL     OW30898   0.513   4.446   3.631 -0.1026  0.1470  0.6471
 6422SOL    HW130899   0.570   4.441   3.554 -0.4525 -1.8633  0.5289
 6422SOL    HW230900   0.579   4.442   3.701  0.0149  0.4920  0.5552
 6423SOL     OW30901   1.536   0.378  10.962 -0.2961 -0.0834 -0.8165
 6423SOL    HW130902   1.517   0.470  10.981  1.4846  0.7925 -3.3053
 6423SOL    HW230903   1.537   0.347  11.053 -3.5140 -0.5735 -0.9247
 6424SOL     OW30904   2.826   0.860  16.627  0.5939 -0.0044 -0.4766
 6424SOL    HW130905   2.900   0.803  16.651 -0.3007 -0.6560  0.7641
 6424SOL    HW230906   2.766   0.811  16.571 -0.8147 -3.6951  4.2294
 6425SOL     OW30907   1.034   2.701   4.479 -0.1838  0.1344  0.3820
 6425SOL    HW130908   0.972   2.749   4.425 -0.2966  1.4136  1.6428
 6425SOL    HW230909   1.107   2.705   4.418  0.9689 -4.8789  1.4333
 6426SOL     OW30910   3.673   2.203   1.614  0.1769 -0.3042  0.0520
 6426SOL    HW130911   3.587   2.242   1.601 -0.5647 -2.1917 -0.6245
 6426SOL    HW230912   3.717   2.258   1.679 -0.4661  0.9324 -0.5391
 6427SOL     OW30913   3.489   3.837   4.937 -0.4541  0.1130 -0.7468
 6427SOL    HW130914   3.426   3.824   4.866 -1.6995  1.4366  0.1013
 6427SOL    HW230915   3.574   3.812   4.902 -0.5913  0.2867 -1.2094
 6428SOL     OW30916   0.473   1.452   5.701  0.5703 -0.3288 -0.0974
 6428SOL    HW130917   0.452   1.393   5.629  0.1347  0.7294 -0.8356
 6428SOL    HW230918   0.510   1.386   5.759 -0.2794 -0.5790  0.1716
 6429SOL     OW30919   0.725   4.252  16.313  0.2818  0.2994  0.1425
 6429SOL    HW130920   0.641   4.289  16.342  1.3831  1.9092  1.2624
 6429SOL    HW230921   0.758   4.335  16.276 -0.0808  0.4842  0.2327
 6430SOL     OW30922   1.218   1.107   0.042  0.0041  0.1437  0.1102
 6430SOL    HW130923   1.309   1.136   0.055 -0.0018  0.6211 -0.9201
 6430SOL    HW230924   1.174   1.111   0.127 -0.6278 -0.8570 -0.1640
 6431SOL     OW30925   1.537   2.506   5.378 -0.0399  0.0998 -0.0097
 6431SOL    HW130926   1.492   2.439   5.429 -0.2723 -0.2718 -0.7150
 6431SOL    HW230927   1.467   2.572   5.375 -0.3087 -0.0284  3.4741
 6432SOL     OW30928   1.076   1.887   7.510 -0.3431  0.0343 -0.0795
 6432SOL    HW130929   1.116   1.828   7.445 -0.5308 -1.6674  1.3542
 6432SOL    HW230930   1.136   1.883   7.584  0.3636 -0.6773 -0.6820
 6433SOL     OW30931   3.043   0.073   5.992 -0.3069  0.6671  0.1959
 6433SOL    HW130932   3.000   0.114   6.067 -0.7642  0.6123 -0.0339
 6433SOL    HW230933   3.028   0.147   5.934  2.8510  0.9861 -0.2283
 6434SOL     OW30934   0.550   3.006  12.121 -0.3522  0.5078 -0.5800
 6434SOL    HW130935   0.543   2.940  12.052 -2.8889 -2.0753  2.1553
 6434SOL    HW230936   0.579   3.081  12.069 -1.0330  0.2592 -1.3177
 6435SOL     OW30937   2.869   3.604   7.591 -0.4439 -0.1491  0.7174
 6435SOL    HW130938   2.937   3.553   7.635 -1.6278 -0.1104  2.6454
 6435SOL    HW230939   2.809   3.528   7.592  0.3017 -0.7556 -2.2506
 6436SOL     OW30940   4.527   1.992   0.055 -0.4452 -0.2247 -0.0246
 6436SOL    HW130941   4.512   1.931  17.739  0.3626 -1.6930  1.0223
 6436SOL    HW230942   4.622   2.005   0.050 -0.3445 -1.0958 -0.3769
 6437SOL     OW30943   3.234   0.766   1.118  0.2794  0.0298  0.2453
 6437SOL    HW130944   3.223   0.850   1.072  1.3483  1.0415  1.8528
 6437SOL    HW230945   3.149   0.723   1.116  0.5654 -0.4334 -1.9031
 6438SOL     OW30946   2.386   0.916   4.833 -0.1815  0.1335 -0.3572
 6438SOL    HW130947   2.469   0.901   4.788  0.8026 -0.4085  1.6563
 6438SOL    HW230948   2.379   1.012   4.828  0.4129  0.1922 -0.1320
 6439SOL     OW30949   1.782   2.622  16.862  0.3278  0.2628 -0.3280
 6439SOL    HW130950   1.846   2.561  16.825  0.0285 -0.7465  0.8227
 6439SOL    HW230951   1.752   2.582  16.944 -1.0420  2.2601  0.1529
 6440SOL     OW30952   1.751   1.454  16.923 -0.0357 -0.0269  0.0011
 6440SOL    HW130953   1.785   1.466  16.835 -1.8608  2.4048 -0.3858
 6440SOL    HW230954   1.701   1.531  16.952 -0.4958 -0.2132 -0.3022
 6441SOL     OW30955   0.425   2.443   7.283  0.5098  0.9323  0.7276
 6441SOL    HW130956   0.513   2.469   7.255 -0.5472  2.4080 -1.2417
 6441SOL    HW230957   0.420   2.489   7.366 -0.3228  2.3103 -0.0913
 6442SOL     OW30958   1.320   1.489   7.859 -0.5410 -0.8525  0.8199
 6442SOL    HW130959   1.353   1.547   7.789  1.1550  0.8772  3.0489
 6442SOL    HW230960   1.230   1.478   7.828  0.2261 -0.7358 -1.5073
 6443SOL     OW30961   2.802   4.154   7.696 -0.1819  0.3195  0.4112
 6443SOL    HW130962   2.786   4.060   7.689 -0.2115  0.5623 -2.9217
 6443SOL    HW230963   2.890   4.173   7.729 -0.4532  0.9248  0.7919
 6444SOL     OW30964   1.566   3.950   1.294 -0.5405 -0.0168  0.3911
 6444SOL    HW130965   1.637   4.013   1.306 -2.1437  1.6272  1.3217
 6444SOL    HW230966   1.491   4.010   1.294 -0.9337 -0.5030 -0.4489
 6445SOL     OW30967   1.122   4.390  16.439 -0.5775 -0.5295 -0.2782
 6445SOL    HW130968   1.191   4.451  16.465 -0.4338 -0.3413 -1.1183
 6445SOL    HW230969   1.048   4.448  16.420  0.2645  0.5191 -0.3957
 6446SOL     OW30970   4.225   1.241   7.869 -0.0351 -0.5291 -0.0263
 6446SOL    HW130971   4.231   1.150   7.841  1.2867 -0.5485  0.3029
 6446SOL    HW230972   4.300   1.274   7.820 -0.1583  0.2360  0.2891
 6447SOL     OW30973   0.381   4.111   5.152  0.2911 -0.2644 -0.0977
 6447SOL    HW130974   0.286   4.112   5.167 -0.1752  1.9039 -3.0978
 6447SOL    HW230975   0.420   4.163   5.223  0.1399 -1.3127  0.7570
 6448SOL     OW30976   2.880   3.053   8.797  0.1826 -0.1011  0.0028
 6448SOL    HW130977   2.913   2.998   8.867 -0.1368  1.9191  1.7333
 6448SOL    HW230978   2.932   3.023   8.722  0.1485 -1.0641  0.3608
 6449SOL     OW30979   4.613   2.596   3.999 -0.4597 -0.0633  0.0045
 6449SOL    HW130980   4.533   2.644   3.975 -0.0234 -0.6447 -2.6284
 6449SOL    HW230981   4.574   2.523   4.046  0.0939  0.3258  1.0795
 6450SOL     OW30982   2.380   3.777   6.137 -0.5830  0.4094  0.4416
 6450SOL    HW130983   2.318   3.849   6.131  0.1492  1.1285  1.3976
 6450SOL    HW230984   2.456   3.820   6.098  1.6138 -3.7391  0.0795
 6451SOL     OW30985   3.773   1.811   1.392 -0.0479 -0.2537  0.3080
 6451SOL    HW130986   3.699   1.822   1.333 -0.5090  1.8619  1.3007
 6451SOL    HW230987   3.844   1.794   1.330 -0.2114  2.6805 -0.6610
 6452SOL     OW30988   2.237   0.875   5.418 -0.0390 -0.2981 -0.2360
 6452SOL    HW130989   2.143   0.885   5.430  0.5797  3.2276  1.7723
 6452SOL    HW230990   2.271   0.959   5.386  1.1372  0.0409  1.8774
 6453SOL     OW30991   2.540   0.771   8.041  0.4731 -0.2252 -0.2507
 6453SOL    HW130992   2.463   0.828   8.046  0.3345 -0.4227 -0.1453
 6453SOL    HW230993   2.610   0.834   8.054  0.3073 -0.1526  0.2639
 6454SOL     OW30994   2.601   3.846   2.518 -0.3765  0.1494 -0.3568
 6454SOL    HW130995   2.635   3.783   2.581  0.2989  0.3528 -0.5219
 6454SOL    HW230996   2.509   3.823   2.503 -0.2096  0.6509 -2.1079
 6455SOL     OW30997   0.373   2.912   5.181  0.6827 -0.0578  0.0533
 6455SOL    HW130998   0.308   2.961   5.132  1.2283  0.2802 -0.3317
 6455SOL    HW230999   0.343   2.822   5.170 -0.4194 -0.0115  2.5361
 6456SOL     OW31000   2.153   3.696   7.065 -0.1641  0.6431 -0.6966
 6456SOL    HW131001   2.173   3.609   7.029  2.0708 -1.2215  5.0423
 6456SOL    HW231002   2.205   3.689   7.145 -0.7584  1.0339 -0.2778
 6457SOL     OW31003   2.419   2.623   6.725 -0.4521 -0.6193  0.1920
 6457SOL    HW131004   2.353   2.561   6.755 -0.0026 -2.2919 -2.2125
 6457SOL    HW231005   2.492   2.562   6.714  0.3785  0.6196 -1.1870
 6458SOL     OW31006   0.944   0.937   2.232  0.1572  0.5500 -0.1323
 6458SOL    HW131007   0.980   1.013   2.187  0.8907  0.1619 -0.1970
 6458SOL    HW231008   0.853   0.962   2.220 -0.0355 -1.8724 -3.4176
 6459SOL     OW31009   1.505   2.994   0.883  0.2629  0.7433  0.0533
 6459SOL    HW131010   1.554   3.069   0.916  0.8121  0.8750 -1.0723
 6459SOL    HW231011   1.430   2.987   0.943 -0.3864 -0.8152 -0.9415
 6460SOL     OW31012   0.349   4.193   5.721  0.4069  0.0566 -0.1280
 6460SOL    HW131013   0.435   4.154   5.703 -0.8793 -2.8943  0.2015
 6460SOL    HW231014   0.375   4.282   5.745 -1.6971  0.8005 -0.5648
 6461SOL     OW31015   0.266   3.236   6.274  0.2803  0.7421  0.2669
 6461SOL    HW131016   0.212   3.160   6.257  2.2290 -0.8848  1.3843
 6461SOL    HW231017   0.227   3.302   6.217 -0.9326 -0.0667  0.1787
 6462SOL     OW31018   2.832   0.261   4.310 -0.1695  0.2749 -0.1317
 6462SOL    HW131019   2.904   0.219   4.264  0.2483 -0.9849  1.6744
 6462SOL    HW231020   2.800   0.189   4.365 -2.2782  1.9562  0.8643
 6463SOL     OW31021   0.284   4.628   8.523 -0.1946  0.3059  0.3193
 6463SOL    HW131022   0.299   4.633   8.618 -0.3093  0.5573  0.3249
 6463SOL    HW231023   0.194   4.659   8.513  0.0026  0.2843 -1.5576
 6464SOL     OW31024   1.385   4.634   6.288 -0.2159 -0.3906  0.1040
 6464SOL    HW131025   1.340   4.713   6.315 -0.2745  0.6326 -3.0164
 6464SOL    HW231026   1.466   4.680   6.267 -0.6963 -0.1530 -1.1845
 6465SOL     OW31027   3.427   2.087   7.002 -0.2999  0.5077  0.2659
 6465SOL    HW131028   3.465   2.012   7.048  1.3763 -0.3136 -2.4660
 6465SOL    HW231029   3.508   2.114   6.959  0.1909 -2.4847 -0.6848
 6466SOL     OW31030   1.756   3.631  14.737 -1.1018  0.2484 -0.1435
 6466SOL    HW131031   1.745   3.702  14.801  0.3430 -0.8354  1.3159
 6466SOL    HW231032   1.788   3.562  14.795 -1.0137 -0.4425 -1.0163
 6467SOL     OW31033   3.815   2.257   8.038  0.8234  0.2243 -0.3973
 6467SOL    HW131034   3.847   2.333   8.086 -0.1281  1.9743 -2.5772
 6467SOL    HW231035   3.900   2.223   8.011  0.9945  0.7070 -0.4650
 6468SOL     OW31036   3.825   2.304  10.562 -0.3352 -0.5020  0.3380
 6468SOL    HW131037   3.743   2.299  10.513 -0.5344  2.2683  0.3959
 6468SOL    HW231038   3.832   2.400  10.563  4.3447 -0.7918 -0.7881
 6469SOL     OW31039   1.498   1.471   1.379 -0.0425  0.2653  0.0058
 6469SOL    HW131040   1.426   1.436   1.430 -0.3091 -0.0475 -0.5816
 6469SOL    HW231041   1.576   1.466   1.434 -0.2046 -0.7575  0.1467
 6470SOL     OW31042   0.474   0.707  11.480  0.7155  0.1240 -0.2741
 6470SOL    HW131043   0.520   0.790  11.466 -0.2513  0.5742 -0.7890
 6470SOL    HW231044   0.504   0.660  11.403  0.9640 -1.1963  0.6213
 6471SOL     OW31045   3.028   4.375   6.625 -0.1058  0.1415 -0.1430
 6471SOL    HW131046   3.086   4.328   6.565  1.4447  0.2434  1.2718
 6471SOL    HW231047   2.948   4.325   6.609  0.2369 -0.6500  0.5895
 6472SOL     OW31048   3.531   1.415   1.858  1.0620  0.2678 -0.5633
 6472SOL    HW131049   3.549   1.338   1.912 -1.4657  1.8711  2.5753
 6472SOL    HW231050   3.612   1.466   1.868  1.0538  0.4587 -1.4996
 6473SOL     OW31051   0.252   4.483   7.535  0.3772 -0.2996 -0.0433
 6473SOL    HW131052   0.295   4.561   7.569  1.5816 -1.0333  0.1165
 6473SOL    HW231053   0.163   4.512   7.516  0.1699  0.3771  1.8909
 6474SOL     OW31054   4.224   2.754   8.448  0.2283  0.2419  0.3139
 6474SOL    HW131055   4.226   2.720   8.359  1.0785  0.6298  0.1836
 6474SOL    HW231056   4.133   2.746   8.476  0.0141  3.0111  0.4476
 6475SOL     OW31057   4.427   2.704   4.322  0.4951 -0.5383 -0.1936
 6475SOL    HW131058   4.487   2.774   4.349  1.6222 -1.5823  0.0177
 6475SOL    HW231059   4.357   2.754   4.280  0.4062  0.2102  0.8415
 6476SOL     OW31060   2.846   1.227   7.229  0.3306 -0.4207 -0.3692
 6476SOL    HW131061   2.897   1.225   7.310  0.1585  1.3721 -0.1993
 6476SOL    HW231062   2.774   1.286   7.254  0.5359  0.0701 -0.9276
 6477SOL     OW31063   2.726   0.480   5.072 -0.1356 -0.1697  0.7383
 6477SOL    HW131064   2.674   0.534   5.132  0.1223 -0.0422  0.8455
 6477SOL    HW231065   2.800   0.538   5.057  0.8188 -1.9129 -1.1575
 6478SOL     OW31066   1.555   3.248   8.937 -0.2561  0.2096  0.3530
 6478SOL    HW131067   1.520   3.288   8.858 -1.4497 -0.8881  0.3202
 6478SOL    HW231068   1.648   3.260   8.919 -0.7320  1.6446 -1.0841
 6479SOL     OW31069   2.582   4.562   7.856  0.3917 -0.1001 -0.3588
 6479SOL    HW131070   2.643   4.601   7.919  0.2668 -2.4911  1.2177
 6479SOL    HW231071   2.604   4.470   7.870  0.5250 -0.1550 -0.9388
 6480SOL     OW31072   3.751   3.866  14.256  0.1214  0.0246  0.1990
 6480SOL    HW131073   3.705   3.926  14.315 -1.6202  1.2533 -2.3872
 6480SOL    HW231074   3.783   3.935  14.198 -1.3241 -0.5199 -1.2510
 6481SOL     OW31075   3.693   1.613   4.875  0.3016  0.1507  0.2592
 6481SOL    HW131076   3.658   1.540   4.926 -1.6947 -0.2556 -1.6584
 6481SOL    HW231077   3.703   1.673   4.949 -0.0204 -0.9841  1.2151
 6482SOL     OW31078   3.343   2.698  13.823 -0.1046  0.1087  0.0129
 6482SOL    HW131079   3.267   2.738  13.865  1.6494  1.7269  1.6481
 6482SOL    HW231080   3.378   2.773  13.775 -0.7086  1.2722  1.3812
 6483SOL     OW31081   0.303   2.211   5.545 -0.3608 -0.3865 -0.0081
 6483SOL    HW131082   0.369   2.274   5.574 -0.7433 -0.8483  1.8984
 6483SOL    HW231083   0.326   2.155   5.619 -0.9195  0.7410  1.0268
 6484SOL     OW31084   2.886   2.582   8.193 -0.1073 -0.2044 -0.2006
 6484SOL    HW131085   2.823   2.526   8.147 -1.4033  0.3440  0.9216
 6484SOL    HW231086   2.866   2.549   8.281 -0.9931  2.0221  0.4212
 6485SOL     OW31087   1.910   4.512  11.170  0.4421 -0.0016  0.2546
 6485SOL    HW131088   1.978   4.551  11.115  0.8931 -0.8384  0.2194
 6485SOL    HW231089   1.964   4.520  11.248 -1.0135 -1.1323  1.3809
 6486SOL     OW31090   3.402   1.403  15.717  0.1563  0.2373 -0.3536
 6486SOL    HW131091   3.410   1.387  15.623  1.3242  1.3839 -0.4531
 6486SOL    HW231092   3.359   1.326  15.753  1.4674  0.1448  0.9890
 6487SOL     OW31093   3.411   3.688   2.125 -0.3489  0.1249 -0.5916
 6487SOL    HW131094   3.471   3.736   2.069  1.1435  0.0488  0.9343
 6487SOL    HW231095   3.326   3.731   2.113 -0.5387 -0.4559 -1.2945
 6488SOL     OW31096   2.236   2.332  11.109 -0.5339  0.4302  0.4794
 6488SOL    HW131097   2.305   2.268  11.095 -0.9217 -0.5230  2.9883
 6488SOL    HW231098   2.180   2.310  11.034  1.2474 -1.6565 -0.2358
 6489SOL     OW31099   2.779   4.128   9.033  0.2884  0.2501  0.3773
 6489SOL    HW131100   2.841   4.195   9.006  0.1343 -0.6773 -2.2798
 6489SOL    HW231101   2.713   4.175   9.083  0.7963  0.7851  0.5368
 6490SOL     OW31102   4.730   2.409   3.309  0.1091  0.4360 -0.0071
 6490SOL    HW131103   0.020   2.495   3.338  0.5243 -0.0324  0.9512
 6490SOL    HW231104   4.729   2.349   3.383  1.3441  1.4137  0.7929
 6491SOL     OW31105   0.695   0.443   9.957 -0.0626 -0.5615 -0.4151
 6491SOL    HW131106   0.669   0.520   9.906  1.0831  0.2620  0.2447
 6491SOL    HW231107   0.781   0.433   9.915 -0.1312 -2.6065 -0.0488
 6492SOL     OW31108   0.475   2.247   6.345 -0.3181 -0.0690 -0.3380
 6492SOL    HW131109   0.523   2.278   6.268  2.0649 -0.9806  0.7733
 6492SOL    HW231110   0.512   2.159   6.355 -0.3602 -0.0116  0.3332
 6493SOL     OW31111   0.852   0.025   5.201  0.3759 -0.4325 -0.3499
 6493SOL    HW131112   0.934   0.002   5.243  0.8482 -0.9134 -1.5449
 6493SOL    HW231113   0.846   4.704   5.127  2.9199  0.3393 -1.1617
 6494SOL     OW31114   0.720   0.967  16.711 -0.0174 -0.3623  0.1259
 6494SOL    HW131115   0.803   1.010  16.731  0.6625 -1.3470 -0.5894
 6494SOL    HW231116   0.648   1.017  16.750  0.2576  0.5082 -0.4828
 6495SOL     OW31117   4.434   3.316   5.384 -0.0816 -0.0192  0.0241
 6495SOL    HW131118   4.471   3.229   5.398  1.4450  0.9081  1.8533
 6495SOL    HW231119   4.366   3.295   5.321 -1.6777  0.8463  1.4539
 6496SOL     OW31120   0.708   4.529   8.680 -0.3921  0.0600 -0.6598
 6496SOL    HW131121   0.669   4.476   8.750 -0.7635 -1.2697 -1.8867
 6496SOL    HW231122   0.631   4.570   8.641 -0.9865 -0.0567  0.3713
 6497SOL     OW31123   3.282   1.909   7.276 -0.0132 -1.0313  0.2958
 6497SOL    HW131124   3.254   1.993   7.313  1.7177 -0.5640  0.5258
 6497SOL    HW231125   3.353   1.896   7.339 -2.1975 -0.7400  2.8445
 6498SOL     OW31126   0.133   3.016   5.453  0.2552  0.0623  0.0258
 6498SOL    HW131127   0.120   2.923   5.469 -0.1069 -0.1164 -1.2920
 6498SOL    HW231128   0.225   3.020   5.478  0.3580 -0.0042 -0.3514
 6499SOL     OW31129   2.913   1.457   7.465  0.0294  0.4226 -0.0059
 6499SOL    HW131130   2.889   1.519   7.395 -0.5995 -0.1542 -0.3029
 6499SOL    HW231131   2.828   1.444   7.506  0.7520 -0.6484  1.1541
 6500SOL     OW31132   2.728   3.575   8.052  0.0964 -0.0946  0.2745
 6500SOL    HW131133   2.726   3.666   8.023  1.2621 -1.3122 -3.5756
 6500SOL    HW231134   2.704   3.588   8.144 -0.5113  1.3533 -0.0938
 6501SOL     OW31135   2.061   1.742   5.327 -0.3066 -0.1767  0.2614
 6501SOL    HW131136   2.144   1.707   5.294 -0.3727  2.5076 -2.6854
 6501SOL    HW231137   2.012   1.663   5.301  0.5206 -1.0060  1.2401
 6502SOL     OW31138   1.438   1.001   1.482  0.7359 -0.3075  0.1711
 6502SOL    HW131139   1.475   0.920   1.515  1.4850  0.2150  0.5974
 6502SOL    HW231140   1.463   1.047   1.562  1.1331  2.6095 -1.6284
 6503SOL     OW31141   4.117   4.365   7.143 -0.0311  0.0036  0.1995
 6503SOL    HW131142   4.158   4.444   7.107 -1.5328  0.1603 -1.1698
 6503SOL    HW231143   4.095   4.395   7.232 -0.2757  1.6039 -0.4021
 6504SOL     OW31144   0.527   4.306   5.326  0.3116  0.1564  0.9193
 6504SOL    HW131145   0.528   4.348   5.412  2.3687  0.9031  0.5229
 6504SOL    HW231146   0.566   4.368   5.265 -1.9701  1.4606  0.7985
 6505SOL     OW31147   0.657   2.496   7.140 -1.0597 -0.3771 -0.4805
 6505SOL    HW131148   0.645   2.515   7.047  0.5124  0.4594 -0.5206
 6505SOL    HW231149   0.733   2.438   7.139  0.0988  1.1138 -0.1032
 6506SOL     OW31150   3.921   0.035   2.211 -0.1397 -0.1982 -0.1848
 6506SOL    HW131151   3.838   0.006   2.249 -0.1924 -0.8428 -0.8020
 6506SOL    HW231152   3.891   0.077   2.131 -2.2485  2.6211  2.0873
 6507SOL     OW31153   2.954   3.725   9.450 -0.6521  0.1505  0.1363
 6507SOL    HW131154   2.882   3.706   9.391 -1.9200 -0.6289  1.9145
 6507SOL    HW231155   2.925   3.808   9.487 -1.1552 -0.2139  0.5663
 6508SOL     OW31156   2.760   2.861  14.652 -0.4445 -0.7586  0.4673
 6508SOL    HW131157   2.788   2.841  14.563 -0.2514  0.6526  0.2136
 6508SOL    HW231158   2.774   2.956  14.648 -3.1815 -0.3411  0.8300
 6509SOL     OW31159   1.406   2.977   3.280 -0.1778 -0.2992  0.1302
 6509SOL    HW131160   1.458   3.047   3.240  1.0042 -0.4532  1.3581
 6509SOL    HW231161   1.456   2.957   3.359 -0.3428 -1.1291  0.0235
 6510SOL     OW31162   1.129   2.341   4.739 -0.1335 -0.2349  0.4300
 6510SOL    HW131163   1.165   2.309   4.821  0.3714 -1.3519 -0.2285
 6510SOL    HW231164   1.155   2.434   4.740  1.7568 -0.7571 -0.6356
 6511SOL     OW31165   3.274   4.203   1.883  0.7156  0.0371  0.7327
 6511SOL    HW131166   3.267   4.289   1.924  3.7170  0.1607  0.9920
 6511SOL    HW231167   3.194   4.157   1.908 -2.0396  3.1152 -2.4016
 6512SOL     OW31168   2.768   3.684  15.264  0.0939  0.0243 -0.1865
 6512SOL    HW131169   2.846   3.631  15.279 -0.2918 -1.2700 -2.8501
 6512SOL    HW231170   2.765   3.729  15.349  1.6829 -0.8412  0.3344
 6513SOL     OW31171   1.652   1.779   4.358 -0.3106 -0.3976 -0.0513
 6513SOL    HW131172   1.742   1.809   4.356 -0.9255  1.5872  2.5592
 6513SOL    HW231173   1.661   1.684   4.352  0.4824 -0.3825  0.9219
 6514SOL     OW31174   4.525   1.102  11.976  0.3782 -0.4741 -0.0206
 6514SOL    HW131175   4.568   1.068  11.897  0.2842 -1.0051  0.1511
 6514SOL    HW231176   4.479   1.178  11.943  0.4395 -0.4982 -0.1601
 6515SOL     OW31177   1.222   1.259   1.985 -0.0818 -0.8952  0.4278
 6515SOL    HW131178   1.202   1.173   2.022 -2.4946 -1.2988 -1.7961
 6515SOL    HW231179   1.312   1.266   2.015 -0.4621  2.3335  0.8935
 6516SOL     OW31180   0.475   0.467  17.708 -0.1211  0.0349  0.4896
 6516SOL    HW131181   0.410   0.413  17.662  0.2332 -1.2927  1.5395
 6516SOL    HW231182   0.498   0.535  17.645 -1.7090  0.0495 -0.0699
 6517SOL     OW31183   0.922   4.154   8.862  0.9218 -0.3596  0.4288
 6517SOL    HW131184   0.955   4.106   8.786  0.2333  1.3202 -0.9333
 6517SOL    HW231185   0.918   4.091   8.934 -1.7352 -1.1116 -0.3874
 6518SOL     OW31186   1.898   1.497   9.719  0.0086  0.5192 -0.1314
 6518SOL    HW131187   1.847   1.430   9.764  1.5308  1.3644  2.8582
 6518SOL    HW231188   1.924   1.445   9.644 -0.9707  0.8703 -0.7158
 6519SOL     OW31189   1.252   1.017   3.705  0.1915  0.4458 -0.3376
 6519SOL    HW131190   1.287   1.086   3.649  0.9044 -0.7950 -1.4373
 6519SOL    HW231191   1.192   0.971   3.646  0.8260 -1.2012  0.3048
 6520SOL     OW31192   3.088   1.895   4.223  0.1298 -0.3683 -0.3045
 6520SOL    HW131193   3.135   1.866   4.301 -1.9236 -1.0622  0.6887
 6520SOL    HW231194   3.157   1.902   4.157 -0.5146 -1.4443 -1.1010
 6521SOL     OW31195   0.872   4.408   3.741  0.4915 -0.1581  0.6105
 6521SOL    HW131196   0.877   4.503   3.734 -1.1247 -0.1320 -0.1823
 6521SOL    HW231197   0.965   4.384   3.736  0.9477  1.3173  2.2758
 6522SOL     OW31198   2.856   1.876   4.721  0.0387  0.4322  0.1097
 6522SOL    HW131199   2.898   1.830   4.648 -0.7749 -0.8676  0.4511
 6522SOL    HW231200   2.765   1.845   4.713 -0.1249  0.5129  1.7171
 6523SOL     OW31201   3.765   0.010   7.196  0.2331  0.2544 -0.7069
 6523SOL    HW131202   3.681   0.052   7.181 -0.2908 -0.6211 -0.2366
 6523SOL    HW231203   3.748   4.665   7.155 -0.8407  0.6129 -0.9952
 6524SOL     OW31204   3.295   2.786  11.909 -0.4718  0.0141 -0.5094
 6524SOL    HW131205   3.338   2.837  11.840 -0.3156 -0.2520 -0.6076
 6524SOL    HW231206   3.205   2.814  11.899  0.0622  2.3642  1.2825
 6525SOL     OW31207   2.028   4.210  16.277 -0.1129 -0.5543 -0.1655
 6525SOL    HW131208   1.960   4.266  16.240  1.0740  0.5928 -0.6114
 6525SOL    HW231209   2.027   4.130  16.225 -0.7909 -1.0471  0.6113
 6526SOL     OW31210   0.266   0.792  13.180 -0.2211  0.2734  0.6918
 6526SOL    HW131211   0.207   0.726  13.143  1.6306  0.1902 -2.1501
 6526SOL    HW231212   0.199   0.846  13.221 -0.1242  0.5764  0.4459
 6527SOL     OW31213   0.680   0.907   9.476 -0.2680  0.2129 -0.2087
 6527SOL    HW131214   0.648   0.843   9.539 -1.7673  0.8129 -0.3614
 6527SOL    HW231215   0.742   0.849   9.431  0.4973  0.6984  0.2079
 6528SOL     OW31216   4.619   3.399   6.240  0.2619  0.1242 -0.6637
 6528SOL    HW131217   4.530   3.376   6.211  0.3177  0.9117 -1.4744
 6528SOL    HW231218   4.602   3.487   6.275  3.0565 -0.5098  2.3055
 6529SOL     OW31219   2.676   3.210   7.050  0.4209 -0.5793  0.1003
 6529SOL    HW131220   2.614   3.173   6.987  1.1834 -1.5552 -0.0586
 6529SOL    HW231221   2.754   3.156   7.046  0.6806 -0.1900 -0.1948
 6530SOL     OW31222   2.203   3.998   7.971 -0.5449  0.2593  0.7741
 6530SOL    HW131223   2.261   3.973   8.043 -0.8153 -0.0573  0.8802
 6530SOL    HW231224   2.252   3.974   7.892 -1.6732 -1.7216  0.6897
 6531SOL     OW31225   4.110   4.466   7.400 -0.0777  0.1047  0.4594
 6531SOL    HW131226   4.176   4.486   7.466 -3.5419  0.4483  3.8086
 6531SOL    HW231227   4.029   4.437   7.442  0.6851  0.4349  2.1700
 6532SOL     OW31228   0.330   1.517   3.248 -0.1720 -0.1392  0.4556
 6532SOL    HW131229   0.304   1.579   3.181  0.3914  0.7093  1.0281
 6532SOL    HW231230   0.379   1.568   3.312  0.9830  0.8294 -1.2094
 6533SOL     OW31231   0.853   0.946   0.918  0.5500  0.3671  0.2066
 6533SOL    HW131232   0.778   0.894   0.949 -0.4974  2.1769  0.6587
 6533SOL    HW231233   0.886   0.997   0.992  4.4022  1.3766 -2.2138
 6534SOL     OW31234   0.714   0.650   6.565  0.2385 -0.4686  0.0075
 6534SOL    HW131235   0.725   0.562   6.602  0.3827 -0.3583  0.2290
 6534SOL    HW231236   0.647   0.687   6.622 -1.9265 -2.3577 -1.3281
 6535SOL     OW31237   1.149   0.495  10.507  0.6403 -0.4276 -0.7271
 6535SOL    HW131238   1.170   0.580  10.547 -0.0073 -0.4744 -0.2888
 6535SOL    HW231239   1.206   0.499  10.430 -2.0204  1.3761 -2.6301
 6536SOL     OW31240   2.257   4.379   1.282 -0.2818  0.7510  0.4098
 6536SOL    HW131241   2.207   4.458   1.303  1.0918  1.9078 -0.6272
 6536SOL    HW231242   2.203   4.333   1.218  0.9587 -0.2552  0.1024
 6537SOL     OW31243   1.379   2.431  15.150 -0.0062  0.1284  0.0788
 6537SOL    HW131244   1.387   2.493  15.222  0.4608  2.2444 -1.7760
 6537SOL    HW231245   1.335   2.488  15.087  0.6476 -0.5907 -1.0311
 6538SOL     OW31246   1.720   2.952   4.767  0.1158  0.4975  0.0263
 6538SOL    HW131247   1.795   2.977   4.713 -1.3039  0.6042 -1.9040
 6538SOL    HW231248   1.736   3.008   4.843  1.0061  2.2147 -1.4243
 6539SOL     OW31249   3.429   0.273   6.895 -0.0380 -0.0964  0.3248
 6539SOL    HW131250   3.377   0.197   6.868 -1.0617  1.0537 -0.9225
 6539SOL    HW231251   3.505   0.263   6.838  1.9019  2.0619  2.5210
 6540SOL     OW31252   0.833   4.405   5.403  0.4588 -0.6100  0.0904
 6540SOL    HW131253   0.831   4.469   5.474 -0.9713  1.1064 -1.4620
 6540SOL    HW231254   0.777   4.340   5.444  0.7283 -1.8973 -1.5764
 6541SOL     OW31255   0.220   0.229   0.149 -0.2990  0.3060  0.3174
 6541SOL    HW131256   0.213   0.320   0.119  3.9571  0.0675 -1.4561
 6541SOL    HW231257   0.199   0.235   0.242 -0.4736 -0.7836  0.3492
 6542SOL     OW31258   0.272   0.690   2.591  0.0094  0.3858 -0.0835
 6542SOL    HW131259   0.191   0.643   2.610  0.1169  1.1895  2.4460
 6542SOL    HW231260   0.342   0.625   2.588 -3.4758 -3.3115 -0.2435
 6543SOL     OW31261   3.135   2.548  16.985  0.1895  0.3378 -0.0290
 6543SOL    HW131262   3.064   2.596  17.029 -0.0777 -0.7429  0.7065
 6543SOL    HW231263   3.205   2.568  17.047 -1.3082 -1.0389  2.1356
 6544SOL     OW31264   0.675   4.127   6.778 -0.6243  0.0641 -0.2962
 6544SOL    HW131265   0.745   4.146   6.716 -1.1408 -1.1789 -1.2357
 6544SOL    HW231266   0.723   4.104   6.858 -0.5534  1.4885  0.0751
 6545SOL     OW31267   2.585   1.768   6.543 -0.1690 -0.4029 -0.1019
 6545SOL    HW131268   2.667   1.762   6.592  0.7272  1.7672 -1.3014
 6545SOL    HW231269   2.536   1.820   6.608 -0.2844  1.1212 -1.3897
 6546SOL     OW31270   1.489   1.916   7.522 -0.6496 -0.5943  0.0384
 6546SOL    HW131271   1.574   1.927   7.479 -0.8868  1.4446  0.0818
 6546SOL    HW231272   1.449   2.003   7.516 -1.7534 -1.0384  1.2001
 6547SOL     OW31273   3.337   3.695   5.115  0.0510 -0.1978  0.0704
 6547SOL    HW131274   3.275   3.756   5.154  0.7771  0.5959 -0.0031
 6547SOL    HW231275   3.398   3.753   5.069  0.0758  0.6427  1.1666
 6548SOL     OW31276   0.942   3.174   3.289 -0.0530  0.3263 -0.0340
 6548SOL    HW131277   1.020   3.140   3.333 -1.0786  1.4118  2.6258
 6548SOL    HW231278   0.930   3.259   3.331  0.7301  0.0426  0.7531
 6549SOL     OW31279   4.578   1.921  16.871 -0.0341 -0.3395  0.5058
 6549SOL    HW131280   4.673   1.915  16.860  0.2220  1.0296  1.8849
 6549SOL    HW231281   4.573   1.946  16.963  1.8964  1.0504  0.2287
 6550SOL     OW31282   1.268   0.494   5.398  0.0869 -0.5200  0.1490
 6550SOL    HW131283   1.304   0.580   5.420 -1.6820 -0.0528  1.2463
 6550SOL    HW231284   1.284   0.480   5.305 -0.3402  2.8779 -0.4329
 6551SOL     OW31285   3.619   0.466   7.517  0.0133 -0.6426 -0.2047
 6551SOL    HW131286   3.699   0.469   7.569  0.5371 -1.9149 -0.9647
 6551SOL    HW231287   3.648   0.436   7.431  0.5994 -0.2318 -0.1542
 6552SOL     OW31288   1.057   1.110   4.257 -0.2145 -0.2033  0.0392
 6552SOL    HW131289   1.114   1.187   4.251 -1.1361  0.3978 -1.1391
 6552SOL    HW231290   1.113   1.034   4.269 -0.6478 -0.9097 -2.4125
 6553SOL     OW31291   0.495   2.794   9.530 -0.1483  0.1870 -0.1966
 6553SOL    HW131292   0.570   2.734   9.534 -1.5099 -1.4751  0.5194
 6553SOL    HW231293   0.420   2.736   9.512  1.5538 -1.7643 -0.9600
 6554SOL     OW31294   1.115   1.562  16.584 -0.1053 -0.4070 -0.2607
 6554SOL    HW131295   1.170   1.636  16.611  0.5561 -1.0251  0.0777
 6554SOL    HW231296   1.108   1.528  16.673 -0.8343 -1.9764 -0.9134
 6555SOL     OW31297   3.070   2.389   9.510  0.1217  0.2006 -0.4252
 6555SOL    HW131298   3.057   2.381   9.415 -0.5969 -1.7936 -0.1676
 6555SOL    HW231299   3.002   2.452   9.530  0.4044  0.3883 -0.0633
 6556SOL     OW31300   2.568   2.106   1.407 -0.2125  0.0825  0.0472
 6556SOL    HW131301   2.517   2.079   1.330  2.4336 -2.2929 -0.8870
 6556SOL    HW231302   2.587   2.025   1.455 -1.9062 -0.0295  0.5227
 6557SOL     OW31303   4.333   4.259   9.299 -0.2071  0.1425 -0.2645
 6557SOL    HW131304   4.342   4.203   9.222  1.1399 -1.1016  0.7861
 6557SOL    HW231305   4.351   4.194   9.366  1.8403  1.7215  0.7388
 6558SOL     OW31306   3.025   3.053   7.325  0.0517 -0.8127 -0.2063
 6558SOL    HW131307   3.026   2.963   7.358 -0.1468 -0.0187  1.9137
 6558SOL    HW231308   2.947   3.088   7.367 -0.7233 -0.9695 -1.5134
 6559SOL     OW31309   1.646   0.146  11.256 -0.0066  0.2865 -0.3310
 6559SOL    HW131310   1.572   0.086  11.252 -1.0742  1.6535 -1.1654
 6559SOL    HW231311   1.699   0.125  11.180  0.9128 -1.4830  0.8112
 6560SOL     OW31312   1.289   1.010   7.806  0.1274  0.5058 -0.5126
 6560SOL    HW131313   1.306   1.082   7.867 -1.1414 -1.0260  1.6883
 6560SOL    HW231314   1.193   1.007   7.801  0.0666 -1.0815  1.4765
 6561SOL     OW31315   2.823   4.133  16.334  0.4957  0.3200 -0.0519
 6561SOL    HW131316   2.886   4.191  16.378  0.0442  1.3195 -0.7327
 6561SOL    HW231317   2.858   4.045  16.347 -1.9445 -0.4535  1.0953
 6562SOL     OW31318   3.746   3.229  13.421 -0.7642  0.4876  0.1866
 6562SOL    HW131319   3.733   3.279  13.502 -3.1596  0.8978 -0.4274
 6562SOL    HW231320   3.823   3.275  13.387  0.9737 -1.3794  1.5956
 6563SOL     OW31321   4.027   4.135   9.671  0.0097  0.4398  0.2785
 6563SOL    HW131322   4.118   4.152   9.694 -0.2647  0.3254  1.4478
 6563SOL    HW231323   4.021   4.054   9.721 -1.4776 -0.3768 -1.2377
 6564SOL     OW31324   2.547   0.911  12.182  0.3726  0.0327 -0.3914
 6564SOL    HW131325   2.531   0.924  12.089 -0.4784 -0.1194 -0.2680
 6564SOL    HW231326   2.638   0.939  12.196  0.1806 -1.0258  3.0233
 6565SOL     OW31327   1.819   4.293   5.838  0.1235 -0.0272  0.6909
 6565SOL    HW131328   1.771   4.361   5.791  1.7224  1.6402  1.4447
 6565SOL    HW231329   1.879   4.349   5.888 -0.7873  1.7925 -0.2671
 6566SOL     OW31330   1.714   0.608  11.726  0.0086  0.1421 -0.0932
 6566SOL    HW131331   1.687   0.672  11.661 -2.2417 -0.6073  0.0810
 6566SOL    HW231332   1.645   0.625  11.790 -1.3718 -0.4154 -1.4289
 6567SOL     OW31333   0.505   1.619   4.975  0.0058 -0.2324  0.0228
 6567SOL    HW131334   0.507   1.592   5.066  1.7430  0.8327  0.3003
 6567SOL    HW231335   0.592   1.658   4.968  0.7467 -1.9023  0.0432
 6568SOL     OW31336   0.816   3.814   3.685 -0.3573  0.3043 -0.8380
 6568SOL    HW131337   0.855   3.866   3.755  0.2498 -0.1363 -0.8542
 6568SOL    HW231338   0.763   3.879   3.638  0.2563  1.9598  0.7818
 6569SOL     OW31339   2.568   4.416   2.908 -0.0577  0.4909 -0.4397
 6569SOL    HW131340   2.648   4.432   2.857 -0.9300  0.6036 -1.7933
 6569SOL    HW231341   2.590   4.332   2.946  1.6275  1.0407 -0.1932
 6570SOL     OW31342   2.969   3.550   2.254 -0.5966  0.2926 -0.0308
 6570SOL    HW131343   2.968   3.454   2.261 -0.3559  0.1912 -1.5301
 6570SOL    HW231344   2.954   3.573   2.346  0.6704 -2.6802  0.9371
 6571SOL     OW31345   4.687   3.971   1.993 -0.4040  0.0726  0.4317
 6571SOL    HW131346   4.704   4.025   1.915 -0.5030 -0.9678 -0.3078
 6571SOL    HW231347   0.025   3.995   2.044 -1.6690 -0.9461  2.8040
 6572SOL     OW31348   2.107   0.263   6.544 -0.2633 -0.1732 -0.3123
 6572SOL    HW131349   2.041   0.216   6.493 -2.7253  1.5425  1.3368
 6572SOL    HW231350   2.109   0.349   6.503  0.7442 -0.0033  0.0918
 6573SOL     OW31351   1.952   0.850   5.394 -0.1816  0.1036  0.0251
 6573SOL    HW131352   1.927   0.768   5.437 -2.2952  0.4610 -0.5510
 6573SOL    HW231353   1.931   0.838   5.301 -1.0549  1.2291  0.0842
 6574SOL     OW31354   0.906   0.509   4.458  0.0077  0.5381 -0.0928
 6574SOL    HW131355   0.990   0.512   4.413 -0.5167  0.6276 -1.0728
 6574SOL    HW231356   0.907   0.588   4.512 -0.9031  0.8652 -0.5467
 6575SOL     OW31357   0.548   2.660   6.624  0.2753  0.3543  0.2183
 6575SOL    HW131358   0.493   2.682   6.549  1.1528  1.1959 -0.1717
 6575SOL    HW231359   0.483   2.675   6.693  0.4450 -0.7754  0.6178
 6576SOL     OW31360   0.866   2.245   7.156 -0.0869  0.8348  0.1938
 6576SOL    HW131361   0.880   2.305   7.083 -0.8542  1.0122  0.1980
 6576SOL    HW231362   0.915   2.178   7.107  2.8455  1.2112  2.6203
 6577SOL     OW31363   4.149   1.759  16.637 -0.4275  0.1976 -0.0697
 6577SOL    HW131364   4.074   1.713  16.676  0.0627 -2.5794 -2.4245
 6577SOL    HW231365   4.196   1.791  16.714 -0.7283  0.5823 -0.0459
 6578SOL     OW31366   0.567   2.957   7.573  0.6837  0.4318  0.2605
 6578SOL    HW131367   0.545   3.014   7.647  1.4045  0.3812  0.5189
 6578SOL    HW231368   0.640   3.005   7.534 -0.0532  0.3694 -1.1716
 6579SOL     OW31369   4.492   0.469   5.791 -0.6096 -0.2843  0.5241
 6579SOL    HW131370   4.562   0.443   5.851 -0.5027  3.6213  2.0659
 6579SOL    HW231371   4.413   0.497   5.838 -0.6997 -0.6322  0.5808
 6580SOL     OW31372   1.587   0.006   5.725  0.5497  0.3388 -0.1890
 6580SOL    HW131373   1.569   0.014   5.631 -2.0996  2.0184  0.4749
 6580SOL    HW231374   1.526   4.677   5.752  1.7758 -0.3907  0.7080
 6581SOL     OW31375   3.926   1.176  13.002 -0.9007 -0.0564 -0.1805
 6581SOL    HW131376   3.927   1.080  13.003  2.0542 -0.0058  1.5241
 6581SOL    HW231377   4.016   1.206  12.992 -1.4350  1.6642  0.1970
 6582SOL     OW31378   1.299   3.370   6.370 -0.5823  0.0272  0.6441
 6582SOL    HW131379   1.276   3.360   6.463  0.8535 -3.1444  0.6871
 6582SOL    HW231380   1.318   3.464   6.369 -0.6966  0.0430  0.0268
 6583SOL     OW31381   2.427   1.620   6.921 -0.1298  0.0013 -0.2991
 6583SOL    HW131382   2.341   1.579   6.908 -0.4023  0.5209 -0.1115
 6583SOL    HW231383   2.467   1.580   6.843 -1.8813 -2.3713  0.0303
 6584SOL     OW31384   0.825   0.218   3.624  0.0754  0.0238  0.0728
 6584SOL    HW131385   0.833   0.313   3.624 -2.1160  0.2005 -3.3716
 6584SOL    HW231386   0.856   0.205   3.713 -0.8569 -0.4104  0.3357
 6585SOL     OW31387   3.972   1.950   1.957 -0.1621 -0.1367  0.5702
 6585SOL    HW131388   4.032   1.959   1.884  0.8092  0.4041  1.4212
 6585SOL    HW231389   3.942   2.041   1.952 -0.0961 -0.1629 -0.2322
 6586SOL     OW31390   0.658   4.539   1.523  0.4590  0.5730 -0.0132
 6586SOL    HW131391   0.614   4.623   1.536  0.2266  0.6726 -1.4465
 6586SOL    HW231392   0.611   4.485   1.585 -0.7642 -0.3879 -1.7871
 6587SOL     OW31393   0.278   2.358   4.450  0.4580  0.1029 -0.5632
 6587SOL    HW131394   0.283   2.394   4.361  1.6989 -1.0487 -0.9666
 6587SOL    HW231395   0.194   2.313   4.453 -0.8067  2.5410  0.0875
 6588SOL     OW31396   2.113   3.400   8.650 -0.3084 -0.1440  1.1355
 6588SOL    HW131397   2.134   3.493   8.640  0.6681 -0.5923 -0.9390
 6588SOL    HW231398   2.114   3.387   8.745  0.1077 -3.3432  0.6975
 6589SOL     OW31399   4.298   2.437   7.066 -0.1193 -0.0726 -0.4439
 6589SOL    HW131400   4.227   2.501   7.069  0.9591  1.1128 -0.5297
 6589SOL    HW231401   4.376   2.486   7.092 -0.2321 -0.8023  1.3081
 6590SOL     OW31402   4.105   4.591   2.073  0.1338  0.1153  0.0668
 6590SOL    HW131403   4.177   4.559   2.127  1.1530  2.8858  0.3448
 6590SOL    HW231404   4.065   4.665   2.119 -1.9848 -0.8073 -0.3032
 6591SOL     OW31405   0.121   2.980   5.039 -0.2865 -0.1741  0.1801
 6591SOL    HW131406   0.081   2.896   5.016 -2.6346 -0.0035  3.6945
 6591SOL    HW231407   0.042   3.028   5.063  0.7332 -0.8403  4.8619
 6592SOL     OW31408   3.513   0.427   8.051  0.0125 -0.6214 -0.1172
 6592SOL    HW131409   3.504   0.499   7.989  2.1793  1.4588  1.9595
 6592SOL    HW231410   3.606   0.407   8.061 -0.6127 -2.5278  1.9545
 6593SOL     OW31411   0.526   0.452   6.675 -0.7585 -1.0172 -0.4207
 6593SOL    HW131412   0.531   0.381   6.739 -3.2328 -0.2965  0.6014
 6593SOL    HW231413   0.470   0.503   6.735  0.4584 -2.0934  1.6421
 6594SOL     OW31414   4.206   3.014  16.765 -0.1247 -0.0140 -0.1521
 6594SOL    HW131415   4.160   2.992  16.846  2.1935  1.9570  1.7170
 6594SOL    HW231416   4.138   3.037  16.702 -1.1073 -1.0112  0.5665
 6595SOL     OW31417   0.723   3.094   3.619 -0.0888  0.3468  0.0133
 6595SOL    HW131418   0.786   3.022   3.619  0.2414  0.6192 -2.0821
 6595SOL    HW231419   0.642   3.052   3.589 -0.5335  0.1490  1.5079
 6596SOL     OW31420   1.883   0.790   4.278  0.2455  0.4849  0.2004
 6596SOL    HW131421   1.818   0.723   4.256 -0.1757  0.7394  0.6608
 6596SOL    HW231422   1.907   0.811   4.188 -0.9540 -0.6419 -0.3798
 6597SOL     OW31423   2.431   0.774   6.103 -0.2593  0.1376 -0.2645
 6597SOL    HW131424   2.384   0.780   6.020  1.1164 -3.1539 -1.2887
 6597SOL    HW231425   2.523   0.777   6.076 -1.0074  0.6306 -2.7759
 6598SOL     OW31426   2.576   3.921  12.899  0.0880  0.3202 -0.1781
 6598SOL    HW131427   2.561   3.950  12.989  1.8378  0.3829  0.0963
 6598SOL    HW231428   2.655   3.868  12.907 -0.9975 -0.8119  2.8645
 6599SOL     OW31429   1.236   1.101   3.995 -0.1741 -0.3548  0.5076
 6599SOL    HW131430   1.238   1.192   3.968  0.2896 -0.4387  0.2679
 6599SOL    HW231431   1.244   1.070   3.905  2.9223 -0.6187  0.8779
 6600SOL     OW31432   2.848   3.489  16.793  0.0067 -0.0017  0.5271
 6600SOL    HW131433   2.791   3.421  16.756 -2.9128  2.4809  0.4310
 6600SOL    HW231434   2.793   3.562  16.764  0.0298 -0.5026 -0.8052
 6601SOL     OW31435   0.294   0.606  15.641 -0.4913  0.0405  0.0121
 6601SOL    HW131436   0.255   0.693  15.649 -0.1101  0.2348 -0.2514
 6601SOL    HW231437   0.290   0.585  15.548  0.3912 -3.2317  0.7105
 6602SOL     OW31438   2.271   0.269   6.287 -0.3320  0.1903  0.0146
 6602SOL    HW131439   2.230   0.335   6.343  1.7454  2.3359 -1.0224
 6602SOL    HW231440   2.345   0.244   6.341  0.2914  0.4923 -0.7095
 6603SOL     OW31441   0.672   2.800   7.248  0.3281 -0.7451 -0.0094
 6603SOL    HW131442   0.650   2.710   7.225  2.2959 -1.8232  2.2327
 6603SOL    HW231443   0.582   2.820   7.276  0.3072  2.0151 -2.0566
 6604SOL     OW31444   2.364   3.517  12.418  0.4591  0.1915 -0.0432
 6604SOL    HW131445   2.307   3.590  12.394  1.0851  0.7768  0.2814
 6604SOL    HW231446   2.295   3.458  12.450  1.0266 -1.3659 -1.6791
 6605SOL     OW31447   2.249   4.301  17.008 -0.0258 -0.1821  0.3858
 6605SOL    HW131448   2.321   4.248  16.974 -1.5636 -1.0024 -1.5295
 6605SOL    HW231449   2.295   4.385  17.010 -1.6018  0.7228 -2.5583
 6606SOL     OW31450   0.961   4.503   6.558  0.6409 -0.4788 -0.2115
 6606SOL    HW131451   1.056   4.511   6.548  0.5621  0.7114  0.0453
 6606SOL    HW231452   0.933   4.537   6.473 -0.7823 -0.9765  0.0498
 6607SOL     OW31453   3.345   0.017   0.719 -0.0359  0.2673 -0.2124
 6607SOL    HW131454   3.302   0.064   0.647  1.2166  2.6637  0.5754
 6607SOL    HW231455   3.402   0.087   0.751 -0.6835  1.7252 -2.2058
 6608SOL     OW31456   0.599   0.227  10.374 -0.6468 -0.4958  0.0557
 6608SOL    HW131457   0.662   0.249  10.306 -2.0101 -1.1565 -1.4006
 6608SOL    HW231458   0.560   0.313  10.391  1.5665  0.1191  2.0810
 6609SOL     OW31459   3.941   0.345   2.421  0.1544  0.2300  0.7113
 6609SOL    HW131460   3.910   0.291   2.494  1.9264 -2.1478 -0.2605
 6609SOL    HW231461   3.857   0.369   2.382 -0.0050 -1.8923 -0.2888
 6610SOL     OW31462   3.956   2.025   8.591 -0.3303 -0.3626 -0.2026
 6610SOL    HW131463   3.936   2.045   8.499 -0.2484  0.3773 -0.0586
 6610SOL    HW231464   3.883   1.972   8.624 -1.5051  0.8029 -0.9193
 6611SOL     OW31465   2.673   4.179   4.281 -0.2732 -0.3309  0.0710
 6611SOL    HW131466   2.757   4.172   4.325  0.2583 -1.9668 -1.1994
 6611SOL    HW231467   2.697   4.209   4.194  0.7361 -0.5613  0.2755
 6612SOL     OW31468   3.767   3.881   7.877  0.4724  0.0792 -0.9028
 6612SOL    HW131469   3.855   3.842   7.881  0.5379  0.3791  0.4245
 6612SOL    HW231470   3.764   3.902   7.970  0.0525 -0.4946 -0.7860
 6613SOL     OW31471   4.717   1.307  11.114  0.2807 -0.0418  0.7692
 6613SOL    HW131472   4.688   1.398  11.115 -0.3485 -0.2534  1.9704
 6613SOL    HW231473   4.634   1.259  11.122  0.2589 -0.0350  0.5857
 6614SOL     OW31474   0.836   4.195   7.755  0.0595 -0.0815 -0.0766
 6614SOL    HW131475   0.756   4.246   7.771 -0.6794 -1.1389 -0.4296
 6614SOL    HW231476   0.892   4.225   7.826 -1.5024 -0.6213  1.3844
 6615SOL     OW31477   4.273   3.475  11.284 -0.0509  0.1005  0.3438
 6615SOL    HW131478   4.266   3.391  11.239 -0.3776  0.0448  0.4960
 6615SOL    HW231479   4.291   3.530  11.208  0.6180 -0.6591 -0.0534
 6616SOL     OW31480   2.257   0.793   3.858  0.5528  0.1445 -0.1952
 6616SOL    HW131481   2.183   0.733   3.858  0.8869 -0.2694  1.8547
 6616SOL    HW231482   2.255   0.804   3.763 -1.5838  0.4820 -0.1171
 6617SOL     OW31483   3.652   0.962   0.167 -0.1339 -0.1630 -0.2078
 6617SOL    HW131484   3.683   0.872   0.172 -0.1378 -0.1047  0.9792
 6617SOL    HW231485   3.671   1.000   0.253  0.3590 -0.2970 -0.2527
 6618SOL     OW31486   3.570   1.712  11.309 -0.0337  0.2687  0.2398
 6618SOL    HW131487   3.597   1.626  11.340  1.1395  1.4126  2.3352
 6618SOL    HW231488   3.558   1.761  11.390 -0.1963 -0.2040  0.5014
 6619SOL     OW31489   4.028   3.725  11.881  0.1593  0.0225 -0.5382
 6619SOL    HW131490   4.078   3.644  11.894  0.8689  0.9792  2.7365
 6619SOL    HW231491   4.058   3.751  11.794 -0.9304 -1.5572 -1.3805
 6620SOL     OW31492   4.286   4.689   0.448 -0.2768  0.3054  0.0543
 6620SOL    HW131493   4.341   4.725   0.378 -1.2351 -2.3334 -2.0410
 6620SOL    HW231494   4.311   0.013   0.514 -0.3932  0.4972 -0.0852
 6621SOL     OW31495   1.904   0.980  16.299 -0.7797 -0.2257  0.2609
 6621SOL    HW131496   1.917   0.968  16.205  0.1058  3.3189 -0.0652
 6621SOL    HW231497   1.876   0.893  16.326 -1.8921  0.2528  0.6611
 6622SOL     OW31498   4.526   0.917   5.860 -0.0209 -0.4104  0.4907
 6622SOL    HW131499   4.561   0.863   5.931  2.2917  0.8599  0.3326
 6622SOL    HW231500   4.602   0.964   5.826 -0.4338  0.9647  1.4314
 6623SOL     OW31501   4.734   2.198  11.402  0.2178  0.0417 -0.6240
 6623SOL    HW131502   4.655   2.240  11.368 -0.7261 -0.4281  0.9667
 6623SOL    HW231503   4.713   2.204  11.495  1.8589 -1.8219 -0.1277
 6624SOL     OW31504   3.968   0.269   4.371  0.2279 -0.6898  0.2946
 6624SOL    HW131505   3.999   0.253   4.460  2.0130  1.3635  0.0156
 6624SOL    HW231506   3.993   0.359   4.352 -1.6827  0.1432  1.6227
 6625SOL     OW31507   2.729   1.442   2.994  0.6373  0.0837  0.0180
 6625SOL    HW131508   2.690   1.485   3.070 -0.1413  2.2210 -1.5839
 6625SOL    HW231509   2.762   1.364   3.039  0.8039 -0.1236 -0.4680
 6626SOL     OW31510   2.311   4.042  16.232 -0.1162  0.0570 -0.0444
 6626SOL    HW131511   2.225   4.046  16.192  0.6189  1.1886 -1.5209
 6626SOL    HW231512   2.280   4.077  16.315  2.2583  0.9168  0.4906
 6627SOL     OW31513   2.897   1.571   3.655 -0.3942 -0.4823 -0.0631
 6627SOL    HW131514   2.833   1.565   3.726  0.2323  0.7844  0.6121
 6627SOL    HW231515   2.949   1.493   3.675 -1.6666 -1.2160  0.3586
 6628SOL     OW31516   0.055   3.584   0.238 -0.1088  0.2391 -0.8114
 6628SOL    HW131517   0.092   3.506   0.278 -0.9402 -0.7388 -1.9678
 6628SOL    HW231518   0.070   3.650   0.306 -1.0221 -0.1410 -0.2297
 6629SOL     OW31519   3.588   3.448   1.636 -0.1590  0.5614 -0.4015
 6629SOL    HW131520   3.627   3.411   1.557 -0.5728  0.1549 -0.4133
 6629SOL    HW231521   3.499   3.426   1.609 -1.0216  2.1713  1.0554
 6630SOL     OW31522   3.686   3.913   0.101  0.0386 -0.1684  0.1403
 6630SOL    HW131523   3.613   3.851   0.109 -0.5022  0.4338 -0.1033
 6630SOL    HW231524   3.721   3.937   0.187  3.1002 -1.5710 -0.7004
 6631SOL     OW31525   3.239   0.908   2.324 -0.8473 -0.4137  0.7772
 6631SOL    HW131526   3.189   0.959   2.260  0.3006  1.0491  1.0482
 6631SOL    HW231527   3.200   0.931   2.408 -2.6570 -3.6400  0.8430
 6632SOL     OW31528   3.675   4.051   6.093  0.7342  0.7446 -0.8562
 6632SOL    HW131529   3.694   4.088   6.179  0.4686  1.4174 -1.0866
 6632SOL    HW231530   3.765   4.047   6.060  0.7516  1.1722 -0.8586
 6633SOL     OW31531   2.424   3.538   7.679  0.3469 -0.2922  0.2274
 6633SOL    HW131532   2.412   3.513   7.587  0.8401 -2.6318  0.8216
 6633SOL    HW231533   2.504   3.495   7.705  0.1164 -1.2811 -0.6987
 6634SOL     OW31534   2.921   2.186   7.913 -0.6554 -0.3450  0.5673
 6634SOL    HW131535   2.868   2.108   7.930  0.5098 -1.0371  1.0672
 6634SOL    HW231536   2.967   2.147   7.838 -0.9219  0.4470 -0.0084
 6635SOL     OW31537   0.938   0.640  10.367 -0.5717  0.1014  0.3406
 6635SOL    HW131538   0.980   0.715  10.325  0.8378  0.1268  1.7607
 6635SOL    HW231539   0.862   0.674  10.415 -1.0957 -0.1655 -0.2989
 6636SOL     OW31540   0.107   2.155   6.745  0.2115  0.5315  0.1929
 6636SOL    HW131541   0.153   2.129   6.666  1.1145  0.9875  0.5641
 6636SOL    HW231542   0.165   2.124   6.815  1.4609 -0.5341 -1.3156
 6637SOL     OW31543   2.722   2.874   7.104  0.4399 -0.4323 -0.0871
 6637SOL    HW131544   2.698   2.871   7.196  1.2462  0.5488  0.1535
 6637SOL    HW231545   2.789   2.942   7.104 -1.3952  1.3801  0.8384
 6638SOL     OW31546   4.724   1.969  15.154  0.8765 -0.4553  0.5936
 6638SOL    HW131547   0.015   1.891  15.109 -4.0045 -0.6237 -2.4406
 6638SOL    HW231548   0.053   1.980  15.219  0.1192 -0.7450  1.4426
 6639SOL     OW31549   1.272   1.764  17.053 -0.4093  0.5380 -0.3495
 6639SOL    HW131550   1.254   1.858  17.055 -0.3057  0.5057  1.8965
 6639SOL    HW231551   1.244   1.729  17.137 -0.0447 -1.1873 -0.9379
 6640SOL     OW31552   0.859   0.438   9.749  0.0257 -0.3785  0.1245
 6640SOL    HW131553   0.852   0.430   9.654 -2.1495  3.6404 -0.0622
 6640SOL    HW231554   0.866   0.533   9.759  2.5304 -0.6416  0.9200
 6641SOL     OW31555   0.843   0.491   5.781  0.1033 -0.2970 -0.0826
 6641SOL    HW131556   0.918   0.550   5.776 -0.3910  0.2425 -1.1511
 6641SOL    HW231557   0.838   0.456   5.692 -0.9365 -0.2612 -0.0419
 6642SOL     OW31558   0.353   0.992   7.517  0.3016 -0.1819 -0.1162
 6642SOL    HW131559   0.306   0.995   7.433  3.3810  0.6227 -1.8167
 6642SOL    HW231560   0.359   0.898   7.530  1.8831 -0.1175 -0.3483
 6643SOL     OW31561   0.031   2.924  16.527 -0.9224 -0.3608  0.5087
 6643SOL    HW131562   4.690   2.975  16.524  0.8870  2.5575  1.1159
 6643SOL    HW231563   0.073   2.929  16.441  1.1187  1.0480  1.5755
 6644SOL     OW31564   1.520   3.088  13.346  0.2327  0.2380 -0.7296
 6644SOL    HW131565   1.428   3.079  13.320 -0.2300 -0.1615  1.0245
 6644SOL    HW231566   1.520   3.176  13.385 -1.4100  0.0958 -0.3730
 6645SOL     OW31567   0.598   0.501   2.874 -0.1392  0.4295 -0.6942
 6645SOL    HW131568   0.516   0.469   2.910  1.1239  0.0148  1.8645
 6645SOL    HW231569   0.651   0.426   2.845 -0.4303  0.7438 -2.0496
 6646SOL     OW31570   3.624   2.651   6.577  0.3809 -0.0147 -0.0379
 6646SOL    HW131571   3.623   2.695   6.662 -1.6974  0.1237 -0.1203
 6646SOL    HW231572   3.622   2.559   6.605 -1.4829  0.2476  0.7346
 6647SOL     OW31573   3.728   0.801   4.396 -0.0984  0.1748 -0.3135
 6647SOL    HW131574   3.765   0.717   4.422 -0.5037  0.3558  0.8299
 6647SOL    HW231575   3.644   0.777   4.356  0.0705 -0.6086 -0.1983
 6648SOL     OW31576   3.215   2.707   6.174  0.0148  0.2367  0.3722
 6648SOL    HW131577   3.251   2.795   6.190 -1.2642  0.4390  2.0595
 6648SOL    HW231578   3.142   2.700   6.235 -0.2750 -1.3644 -0.1590
 6649SOL     OW31579   1.956   0.087  15.826 -0.6523  0.0258  0.6204
 6649SOL    HW131580   1.943   0.176  15.793  0.1886  0.0725  0.4181
 6649SOL    HW231581   1.989   0.097  15.916 -0.1177 -0.8435  0.5184
 6650SOL     OW31582   3.508   3.998   5.876 -0.0410  0.2105  0.0781
 6650SOL    HW131583   3.562   3.930   5.836 -0.9195 -0.5406  0.1569
 6650SOL    HW231584   3.558   4.022   5.954  1.1487 -0.9126 -0.3288
 6651SOL     OW31585   2.031   0.999   1.645  0.3241 -0.2701  0.6142
 6651SOL    HW131586   2.046   0.970   1.555 -2.7512 -1.5616  0.5295
 6651SOL    HW231587   2.056   0.925   1.702 -2.9557 -2.7647 -1.1791
 6652SOL     OW31588   3.883   3.676  13.890 -0.6629  0.1893  0.1667
 6652SOL    HW131589   3.927   3.601  13.849  1.4957 -0.3169  3.4259
 6652SOL    HW231590   3.831   3.709  13.816  3.1975  2.3478 -1.6024
 6653SOL     OW31591   0.212   0.945   3.694 -0.4346  0.4533  0.6391
 6653SOL    HW131592   0.247   1.025   3.734  0.5183  0.4111 -0.1030
 6653SOL    HW231593   0.250   0.953   3.606 -1.0063  0.8595  0.4344
 6654SOL     OW31594   2.866   2.531  13.883 -0.2860 -0.2056 -0.3216
 6654SOL    HW131595   2.942   2.474  13.895 -1.9800 -1.7960  2.6412
 6654SOL    HW231596   2.887   2.559  13.793 -2.7311  1.8381 -0.2517
 6655SOL     OW31597   0.604   4.074   5.673  0.2216 -0.2761  0.0854
 6655SOL    HW131598   0.671   4.134   5.704 -0.7784  0.1780  1.3793
 6655SOL    HW231599   0.616   4.007   5.740  0.0808  0.0229  0.4090
 6656SOL     OW31600   1.794   4.372  16.463  0.1308 -0.6652 -0.1413
 6656SOL    HW131601   1.762   4.458  16.489 -2.3622 -1.1832 -1.4389
 6656SOL    HW231602   1.858   4.400  16.398  0.3883 -0.3441  0.2557
 6657SOL     OW31603   0.914   2.559   4.666 -0.1512 -0.0552  0.0744
 6657SOL    HW131604   0.963   2.614   4.604  1.8216 -1.3995  0.4373
 6657SOL    HW231605   0.981   2.501   4.703 -0.2274 -0.5119 -0.4989
 6658SOL     OW31606   1.664   3.607  15.388  0.1795  0.1721 -0.0107
 6658SOL    HW131607   1.705   3.660  15.319 -0.2766 -0.5265 -0.8275
 6658SOL    HW231608   1.605   3.560  15.329  0.5893  0.2668 -0.4992
 6659SOL     OW31609   1.546   1.912   3.711  0.2242  0.5695  0.1770
 6659SOL    HW131610   1.520   1.927   3.801  0.1106  0.8599  0.0960
 6659SOL    HW231611   1.514   1.824   3.689  1.2345  0.2988 -0.2211
 6660SOL     OW31612   1.492   4.219   8.125 -0.1337  0.1896  1.3510
 6660SOL    HW131613   1.578   4.197   8.090 -0.6116  0.3651  0.0382
 6660SOL    HW231614   1.505   4.302   8.170 -1.2071  2.1073 -1.8801
 6661SOL     OW31615   4.406   1.991   6.558  0.2241  0.4028 -0.5355
 6661SOL    HW131616   4.397   1.942   6.477  1.4017 -0.8710  0.1249
 6661SOL    HW231617   4.477   2.049   6.531 -0.9652  1.9457 -0.3826
 6662SOL     OW31618   3.767   0.458   8.035 -0.2704 -0.3063  0.0497
 6662SOL    HW131619   3.802   0.546   8.026  1.5484 -0.7351  2.9168
 6662SOL    HW231620   3.831   0.424   8.099  1.2588  0.4733 -1.0593
 6663SOL     OW31621   0.303   2.092   1.553  0.2832  0.1831  0.3198
 6663SOL    HW131622   0.377   2.137   1.512  0.3406 -0.9700 -0.8399
 6663SOL    HW231623   0.337   2.124   1.637 -0.5187 -1.3371  1.2238
 6664SOL     OW31624   2.576   2.138   7.844 -0.0954  0.2540 -0.3141
 6664SOL    HW131625   2.515   2.102   7.907 -0.2903  0.8183 -0.1813
 6664SOL    HW231626   2.525   2.216   7.820 -2.5447 -1.0683  0.6802
 6665SOL     OW31627   0.338   3.016  10.795  0.0583  0.4778 -0.7103
 6665SOL    HW131628   0.390   3.081  10.842  0.1687 -1.9164  2.4722
 6665SOL    HW231629   0.412   2.960  10.771  0.7178  1.7509 -1.6302
 6666SOL     OW31630   0.350   3.015   6.531 -0.6982  0.1589 -0.2067
 6666SOL    HW131631   0.396   3.052   6.606  1.1041 -1.3869 -0.5441
 6666SOL    HW231632   0.266   3.061   6.541 -2.1853 -2.6886  0.3978
 6667SOL     OW31633   3.252   4.048   6.259 -0.1798  0.0911  0.0033
 6667SOL    HW131634   3.306   3.970   6.252 -1.6069 -0.7465 -1.7777
 6667SOL    HW231635   3.321   4.112   6.243  1.2828 -1.7167 -0.9322
 6668SOL     OW31636   2.116   2.273   4.266 -0.2994  0.7193 -0.3347
 6668SOL    HW131637   2.038   2.282   4.320 -1.6155  2.4851 -2.5253
 6668SOL    HW231638   2.092   2.335   4.198 -1.4784 -1.1126 -1.5957
 6669SOL     OW31639   3.446   4.197   4.023 -0.3292  0.9104 -0.0269
 6669SOL    HW131640   3.408   4.118   3.985  0.7484  0.6325 -0.5204
 6669SOL    HW231641   3.369   4.233   4.066 -0.4733  0.4317  0.1117
 6670SOL     OW31642   4.472   2.550   5.702  0.7066  0.2366  0.7278
 6670SOL    HW131643   4.468   2.642   5.727  1.7083 -0.0823  2.1036
 6670SOL    HW231644   4.397   2.543   5.643  1.3325 -0.9174  0.0547
 6671SOL     OW31645   3.674   4.419   2.661  0.0828 -0.0945  0.2406
 6671SOL    HW131646   3.660   4.341   2.607  0.1275  0.3516 -0.4190
 6671SOL    HW231647   3.683   4.379   2.748 -1.5200 -0.2561  0.3331
 6672SOL     OW31648   3.515   3.872   7.785 -0.2327 -0.4557 -0.8479
 6672SOL    HW131649   3.611   3.863   7.783 -0.5079 -4.0843  1.2398
 6672SOL    HW231650   3.494   3.793   7.835  1.2808 -0.6199 -0.4516
 6673SOL     OW31651   0.113   2.674   1.913 -0.2965  0.2772 -0.6479
 6673SOL    HW131652   0.154   2.588   1.903 -0.0524  0.1997  0.9850
 6673SOL    HW231653   0.178   2.725   1.961  0.5668  0.9635 -2.5341
 6674SOL     OW31654   3.251   0.620   6.747  0.8016 -0.1142  0.2547
 6674SOL    HW131655   3.337   0.660   6.734 -0.4124  2.2115 -0.7252
 6674SOL    HW231656   3.257   0.583   6.835 -0.7379  0.8072  0.7457
 6675SOL     OW31657   0.932   2.554   8.166  0.3251  0.1160  0.5117
 6675SOL    HW131658   0.854   2.567   8.221 -0.5964 -1.0651 -0.5245
 6675SOL    HW231659   0.923   2.460   8.150 -0.2712  0.5137 -1.4769
 6676SOL     OW31660   3.483   0.525   3.250 -0.2912  0.5851  0.2441
 6676SOL    HW131661   3.398   0.535   3.291 -0.7186 -0.5436 -0.3645
 6676SOL    HW231662   3.496   0.430   3.260  0.0557  0.9297  3.2232
 6677SOL     OW31663   3.015   1.475   4.135  0.3197  0.1074 -0.2655
 6677SOL    HW131664   3.097   1.491   4.088  0.3021  1.6691  0.2317
 6677SOL    HW231665   2.979   1.399   4.090 -3.0011  1.0605  0.7751
 6678SOL     OW31666   3.005   2.994   5.764 -0.0188  0.7741  0.0953
 6678SOL    HW131667   2.932   2.996   5.825 -0.5171  0.8532 -0.5054
 6678SOL    HW231668   3.036   3.085   5.765 -1.8975  1.4182 -0.4763
 6679SOL     OW31669   2.143   1.204  10.501  0.5814 -0.2597  0.2184
 6679SOL    HW131670   2.097   1.288  10.508 -0.0823 -0.9652  4.0178
 6679SOL    HW231671   2.189   1.202  10.584  0.0501  4.1732  0.6491
 6680SOL     OW31672   3.719   2.397   1.164  0.4288 -0.2745 -0.6418
 6680SOL    HW131673   3.806   2.434   1.176  0.8710 -1.1405 -1.1900
 6680SOL    HW231674   3.663   2.474   1.157  1.0318  0.2369  0.1490
 6681SOL     OW31675   3.498   1.986  13.948 -0.0958 -0.0517  0.7054
 6681SOL    HW131676   3.531   2.055  13.890 -2.0769  0.2451 -0.0939
 6681SOL    HW231677   3.495   1.909  13.890 -2.0247  1.4643 -1.2025
 6682SOL     OW31678   2.751   0.013   5.919 -0.3223 -0.2465 -0.2004
 6682SOL    HW131679   2.689   4.726   5.851 -1.2484  2.2583 -0.3387
 6682SOL    HW231680   2.784   4.670   5.955 -0.1959  0.1013  0.4913
 6683SOL     OW31681   2.859   3.070   2.509 -0.4934  0.8915 -0.5151
 6683SOL    HW131682   2.875   3.080   2.602  2.0049 -3.3057 -0.5072
 6683SOL    HW231683   2.925   3.003   2.489 -0.1521  1.2817 -0.6913
 6684SOL     OW31684   1.443   4.672  11.272  0.6168  0.5067  0.1057
 6684SOL    HW131685   1.495   4.612  11.219  0.4688  1.4821 -1.1434
 6684SOL    HW231686   1.481   4.665  11.360 -1.1413  1.1488  0.9295
 6685SOL     OW31687   2.403   0.584   4.450  0.0694 -0.2539 -0.3332
 6685SOL    HW131688   2.391   0.633   4.531 -1.4778  1.7129 -1.7713
 6685SOL    HW231689   2.385   0.658   4.393  0.1946  1.2450  1.5951
 6686SOL     OW31690   4.043   2.050  12.332  0.0107  0.3483 -0.1860
 6686SOL    HW131691   4.138   2.042  12.325  0.1762 -1.7227  4.7295
 6686SOL    HW231692   4.031   2.142  12.312  0.1621 -0.0265 -2.0788
 6687SOL     OW31693   4.501   3.695  11.949  0.1368  0.1191 -0.2127
 6687SOL    HW131694   4.589   3.672  11.919  0.5862 -1.0747  2.0289
 6687SOL    HW231695   4.452   3.624  11.908 -0.2506  0.0410  0.3857
 6688SOL     OW31696   2.030   3.170  12.922 -0.2849 -0.6093  0.0548
 6688SOL    HW131697   2.091   3.219  12.979  0.4735 -1.8945  0.3542
 6688SOL    HW231698   2.008   3.099  12.983 -0.2813 -0.7531 -0.1135
 6689SOL     OW31699   0.336   3.854   7.895  0.2255 -0.1303  0.2228
 6689SOL    HW131700   0.246   3.834   7.872  0.3531  0.3675 -0.7217
 6689SOL    HW231701   0.309   3.945   7.911 -2.0972 -0.4515 -1.8653
 6690SOL     OW31702   3.375   1.734  11.117 -0.0815  0.4655 -0.2414
 6690SOL    HW131703   3.459   1.740  11.162 -0.1541 -1.7285  0.1636
 6690SOL    HW231704   3.384   1.776  11.031  0.0331  2.3082  0.6780
 6691SOL     OW31705   2.836   3.999  15.445 -0.3245 -0.4030 -0.4576
 6691SOL    HW131706   2.802   3.992  15.356 -0.4351  1.0276 -0.5248
 6691SOL    HW231707   2.761   3.962  15.492 -0.1691 -0.9163 -0.6124
 6692SOL     OW31708   2.883   3.410  14.611  0.0312 -0.2252 -0.0278
 6692SOL    HW131709   2.909   3.495  14.646  1.2499 -1.0792  1.1628
 6692SOL    HW231710   2.883   3.428  14.517 -2.3295  0.1363  0.0519
 6693SOL     OW31711   1.108   4.308   2.252  0.3679  0.1291  0.5873
 6693SOL    HW131712   1.200   4.332   2.262  0.6479  0.5074 -2.8487
 6693SOL    HW231713   1.097   4.264   2.336 -0.1543 -1.0511 -0.1047
 6694SOL     OW31714   0.874   0.697   6.301  0.0905  0.0019  0.2551
 6694SOL    HW131715   0.842   0.640   6.231 -0.2785 -0.3202  0.6842
 6694SOL    HW231716   0.810   0.682   6.370  0.2488  2.8777  1.0452
 6695SOL     OW31717   4.255   2.478   7.665 -0.3962 -0.2871 -0.3448
 6695SOL    HW131718   4.206   2.515   7.592  0.2221 -0.4927 -0.8678
 6695SOL    HW231719   4.207   2.402   7.698 -0.8631 -0.0662 -0.5299
 6696SOL     OW31720   2.575   0.799   8.887  0.0185 -0.4880  0.4973
 6696SOL    HW131721   2.530   0.853   8.821 -1.5780 -0.5530  1.5281
 6696SOL    HW231722   2.507   0.786   8.953  0.6317  1.6676  1.5561
 6697SOL     OW31723   0.003   2.377   6.437 -0.0065 -0.3146 -0.1450
 6697SOL    HW131724   4.694   2.440   6.385  1.3107 -0.2731 -1.3423
 6697SOL    HW231725   0.081   2.377   6.381  0.9526  2.5178  1.1806
 6698SOL     OW31726   4.267   2.974   6.741 -0.0240 -0.3919 -0.0750
 6698SOL    HW131727   4.259   3.049   6.683  1.0186 -1.6065 -1.7958
 6698SOL    HW231728   4.326   3.013   6.806  0.9151 -0.9934 -0.5535
 6699SOL     OW31729   2.954   2.729   6.028  0.4273 -0.1967  0.0481
 6699SOL    HW131730   3.046   2.754   6.040 -0.3438  1.9876  1.3918
 6699SOL    HW231731   2.969   2.636   6.011 -1.0727 -0.1470 -1.5274
 6700SOL     OW31732   2.366   3.955   5.810 -0.3350  0.2830  0.0254
 6700SOL    HW131733   2.376   3.991   5.722 -0.8344  0.4284  0.0285
 6700SOL    HW231734   2.325   4.031   5.852  0.4399 -0.1702  1.5778
 6701SOL     OW31735   3.903   0.032  16.876  0.1912 -0.3854  0.0673
 6701SOL    HW131736   3.859   0.115  16.856 -3.2339 -1.7653  1.7750
 6701SOL    HW231737   3.940   0.013  16.790  1.4692  2.7647 -0.0775
 6702SOL     OW31738   2.074   0.622   5.808  0.2081 -0.1713 -0.0398
 6702SOL    HW131739   1.992   0.655   5.772  0.4429  0.2155 -0.2191
 6702SOL    HW231740   2.085   0.538   5.764 -2.0409  0.7578 -2.3630
 6703SOL     OW31741   3.157   4.560   0.730  0.6074  1.0565  0.2583
 6703SOL    HW131742   3.232   4.619   0.734  1.5037 -0.0403 -0.2912
 6703SOL    HW231743   3.184   4.483   0.781 -0.8650  0.5893  0.3084
 6704SOL     OW31744   2.789   4.280   6.520 -0.2126 -0.1289  0.0231
 6704SOL    HW131745   2.779   4.209   6.583 -0.6450  0.2035  0.3333
 6704SOL    HW231746   2.747   4.243   6.443 -0.0443  0.7335 -0.4835
 6705SOL     OW31747   3.231   1.687   1.486 -0.0915  0.4643 -0.5597
 6705SOL    HW131748   3.182   1.765   1.513  0.5120 -0.0944  2.1607
 6705SOL    HW231749   3.258   1.656   1.573  1.6475  1.8052 -0.6242
 6706SOL     OW31750   2.322   2.846   5.038 -0.0341 -0.2748  0.2950
 6706SOL    HW131751   2.237   2.889   5.022  1.1275  1.8957 -0.0601
 6706SOL    HW231752   2.382   2.918   5.019 -1.4333  0.5858 -0.9136
 6707SOL     OW31753   4.649   2.463   2.908  0.3576  0.2995 -0.0863
 6707SOL    HW131754   4.736   2.491   2.882 -0.4271  2.1719 -0.6775
 6707SOL    HW231755   4.597   2.505   2.840  0.4911  0.7106  0.0634
 6708SOL     OW31756   4.392   2.901   5.126 -0.4702 -1.1086 -0.2944
 6708SOL    HW131757   4.442   2.821   5.140 -1.1118 -1.5220 -0.3558
 6708SOL    HW231758   4.423   2.933   5.041  0.8814 -0.6311  0.3864
 6709SOL     OW31759   0.714   0.470  10.775  0.5011  0.2625  0.0077
 6709SOL    HW131760   0.783   0.454  10.840  1.2611 -1.6792 -1.2912
 6709SOL    HW231761   0.761   0.474  10.692  4.1130  1.3075  2.1096
 6710SOL     OW31762   0.994   4.381   4.778  0.5556  0.3171  0.6775
 6710SOL    HW131763   0.943   4.310   4.739  1.3324 -1.1799  2.4021
 6710SOL    HW231764   0.976   4.449   4.713  1.5031  0.3313  0.4291
 6711SOL     OW31765   0.199   3.222   1.413  0.0086 -0.1568 -0.0341
 6711SOL    HW131766   0.214   3.148   1.354  1.2894 -1.0963  1.4916
 6711SOL    HW231767   0.134   3.185   1.473  0.5482  0.7861  1.1365
 6712SOL     OW31768   3.770   4.354   7.313 -1.0222  0.1610  0.2299
 6712SOL    HW131769   3.708   4.297   7.358  0.2946 -1.6493 -0.2486
 6712SOL    HW231770   3.833   4.354   7.384  0.6078 -2.0890 -1.2016
 6713SOL     OW31771   0.269   1.419  15.528  0.1783 -0.6289  0.1669
 6713SOL    HW131772   0.322   1.351  15.485 -1.9248 -0.4039 -2.7884
 6713SOL    HW231773   0.340   1.477  15.556  0.4895 -1.6720  1.5543
 6714SOL     OW31774   0.754   1.315   3.362  0.0669  0.0950  0.2114
 6714SOL    HW131775   0.794   1.253   3.300  4.1785  1.7215  1.2679
 6714SOL    HW231776   0.811   1.303   3.437  0.2569 -1.6396 -0.2050
 6715SOL     OW31777   3.319   4.222   5.291  0.1337 -0.1891  0.6803
 6715SOL    HW131778   3.408   4.188   5.277 -0.3879 -1.1802 -0.2129
 6715SOL    HW231779   3.318   4.279   5.214 -2.0368 -1.2296 -0.0526
 6716SOL     OW31780   0.009   0.095   3.510 -0.4842 -0.5681 -0.0108
 6716SOL    HW131781   0.071   0.098   3.437  0.1540  0.2314  0.5697
 6716SOL    HW231782   4.662   0.123   3.481 -0.4385 -0.6087 -0.1902
 6717SOL     OW31783   0.429   1.445   4.748 -0.1443 -0.0022  0.0458
 6717SOL    HW131784   0.511   1.402   4.773  0.8257  0.0111 -3.1679
 6717SOL    HW231785   0.433   1.512   4.816 -1.9991 -0.5860  0.7172
 6718SOL     OW31786   0.048   1.844   6.391  0.5347  0.0207 -0.1430
 6718SOL    HW131787   0.016   1.809   6.308 -0.6947  1.9407 -0.4757
 6718SOL    HW231788   0.065   1.937   6.372 -0.0695 -0.6089 -3.7456
 6719SOL     OW31789   2.223   2.905   8.490 -0.7093 -0.9498 -1.1656
 6719SOL    HW131790   2.292   2.968   8.469 -1.2098 -0.0308 -0.0577
 6719SOL    HW231791   2.159   2.922   8.421 -2.6436 -3.0888  0.0789
 6720SOL     OW31792   1.280   2.862   9.386  0.5751  0.1595  0.3066
 6720SOL    HW131793   1.300   2.910   9.466  0.0995 -1.7268  1.5454
 6720SOL    HW231794   1.236   2.784   9.418 -2.4581  1.9322  0.4832
 6721SOL     OW31795   0.461   1.077   7.786 -0.3831 -0.6762 -0.2494
 6721SOL    HW131796   0.459   1.069   7.690 -0.1667 -0.6154 -0.2594
 6721SOL    HW231797   0.370   1.054   7.805 -0.8387 -0.4151 -2.1241
 6722SOL     OW31798   4.180   3.769   2.829  0.4774 -0.5285 -0.4242
 6722SOL    HW131799   4.230   3.824   2.889 -0.5620 -0.8558  0.7366
 6722SOL    HW231800   4.111   3.740   2.888  1.9021 -0.8786  1.0630
 6723SOL     OW31801   4.110   2.461  13.671  0.0952  0.0826 -0.6498
 6723SOL    HW131802   4.201   2.477  13.646 -0.0102  3.7284  1.3710
 6723SOL    HW231803   4.094   2.522  13.743  0.3522 -0.9087  0.2462
 6724SOL     OW31804   1.241   3.945   2.317 -0.0408  0.1546  0.5773
 6724SOL    HW131805   1.318   3.916   2.269  1.0243  0.6754  1.9837
 6724SOL    HW231806   1.204   4.017   2.265  1.3077  1.4525  1.4360
 6725SOL     OW31807   2.877   2.248   3.187  0.0450  0.2220 -0.1122
 6725SOL    HW131808   2.960   2.200   3.183  1.1176  2.0042  0.9978
 6725SOL    HW231809   2.898   2.335   3.153  0.6891 -0.2847 -1.0122
 6726SOL     OW31810   1.418   2.079  12.504  0.2741 -0.0774 -0.0475
 6726SOL    HW131811   1.439   2.006  12.445  1.1206  0.0158  0.1473
 6726SOL    HW231812   1.482   2.142  12.471 -0.8997  1.1615  0.0657
 6727SOL     OW31813   0.219   3.476   7.723  0.0915  0.5675 -0.8177
 6727SOL    HW131814   0.297   3.421   7.720  2.3172  3.5919  0.9504
 6727SOL    HW231815   0.241   3.563   7.688 -1.0823  0.6134 -1.4379
 6728SOL     OW31816   0.631   4.085  12.396 -0.1108 -0.4239  0.4967
 6728SOL    HW131817   0.692   4.075  12.469  0.1643 -4.2465 -0.2691
 6728SOL    HW231818   0.680   4.144  12.339  2.2513 -1.8527  1.0651
 6729SOL     OW31819   3.792   0.915  13.612 -0.2635  0.5413 -0.1880
 6729SOL    HW131820   3.888   0.909  13.604 -0.6272 -0.2734 -3.8317
 6729SOL    HW231821   3.780   0.869  13.695  0.6757  1.4787  0.4668
 6730SOL     OW31822   0.541   1.716   3.380  0.3184  0.4215 -0.4500
 6730SOL    HW131823   0.636   1.716   3.397  0.3811 -0.5069 -0.7555
 6730SOL    HW231824   0.542   1.749   3.290 -1.1287 -1.2532 -1.0728
 6731SOL     OW31825   1.282   4.596   0.985  0.0978  0.2595  0.1100
 6731SOL    HW131826   1.214   4.530   1.002 -1.7367  1.5447 -2.3320
 6731SOL    HW231827   1.296   4.596   0.891  2.2019  0.0670  0.4340
 6732SOL     OW31828   0.803   1.730   9.759 -0.4885  0.7667 -0.6497
 6732SOL    HW131829   0.709   1.710   9.754  0.1519 -2.2376 -0.6767
 6732SOL    HW231830   0.797   1.825   9.752 -0.5705  0.8475  0.5021
 6733SOL     OW31831   2.639   3.424   7.848  0.1526 -0.3738 -0.3136
 6733SOL    HW131832   2.695   3.359   7.806 -0.6747 -0.4067 -1.3522
 6733SOL    HW231833   2.698   3.479   7.900  0.3985 -0.6672 -0.2790
 6734SOL     OW31834   2.028   2.889   7.134  0.3163  0.0440 -0.2248
 6734SOL    HW131835   2.021   2.981   7.158  1.4741 -0.3980  1.8449
 6734SOL    HW231836   2.091   2.891   7.063 -0.7338  3.8187 -1.0557
 6735SOL     OW31837   0.834   3.386  12.280  1.0796 -0.0928 -0.4221
 6735SOL    HW131838   0.746   3.352  12.299  0.8373 -0.8738 -2.8602
 6735SOL    HW231839   0.814   3.470  12.240  0.3129  0.3510  0.8985
 6736SOL     OW31840   0.973   2.208   8.954 -0.3841 -0.6977  0.0738
 6736SOL    HW131841   0.995   2.302   8.958  2.9922 -1.5064  1.1084
 6736SOL    HW231842   0.899   2.214   9.013 -0.9864  0.4953 -0.7975
 6737SOL     OW31843   1.940   0.245   9.377  0.1836 -0.7766 -0.0042
 6737SOL    HW131844   1.954   0.194   9.458  2.4450 -0.2728 -0.0883
 6737SOL    HW231845   1.937   0.182   9.306  1.0182  1.2814 -1.8457
 6738SOL     OW31846   0.481   0.802   3.016 -0.1785  0.2302 -0.3416
 6738SOL    HW131847   0.560   0.789   2.963 -0.2750  1.0263 -0.6871
 6738SOL    HW231848   0.421   0.755   2.958 -1.9056  1.2246  0.6490
 6739SOL     OW31849   0.602   2.808   4.507  0.2959 -0.2264  0.2481
 6739SOL    HW131850   0.621   2.898   4.533 -0.5579  0.5273 -1.7450
 6739SOL    HW231851   0.594   2.819   4.412  0.8244  1.0280  0.3525
 6740SOL     OW31852   2.949   3.331   2.932 -0.6207 -0.4219  0.4285
 6740SOL    HW131853   3.009   3.384   2.984 -0.7809  1.0987 -0.9498
 6740SOL    HW231854   2.935   3.394   2.861 -1.1251  0.2633  1.1290
 6741SOL     OW31855   2.718   3.578   1.072  0.6328 -0.6128 -0.1537
 6741SOL    HW131856   2.685   3.609   1.156  0.7999  0.7673 -0.6010
 6741SOL    HW231857   2.732   3.661   1.027 -0.5113 -0.2779  0.1161
 6742SOL     OW31858   0.444   3.431   5.891  0.0587 -0.3613  0.0175
 6742SOL    HW131859   0.395   3.363   5.937  0.0195 -1.2849 -1.3886
 6742SOL    HW231860   0.528   3.432   5.938  1.7419 -4.1246 -2.9475
 6743SOL     OW31861   0.934   0.826   7.565  0.5582 -0.1968 -0.2806
 6743SOL    HW131862   0.967   0.906   7.524 -0.8594  1.6468  2.1474
 6743SOL    HW231863   0.850   0.819   7.519  1.6766 -1.5548 -2.0878
 6744SOL     OW31864   3.158   2.653   8.176  0.0949  0.3434 -0.2796
 6744SOL    HW131865   3.184   2.561   8.182 -0.2877  0.3056  0.8484
 6744SOL    HW231866   3.064   2.650   8.190  0.0692  1.9102 -0.0904
 6745SOL     OW31867   0.237   2.456   6.044  0.0813 -0.1255  0.3310
 6745SOL    HW131868   0.159   2.477   5.992 -0.2650 -1.1985  0.4162
 6745SOL    HW231869   0.267   2.371   6.013 -2.5005 -1.2846  1.0123
 6746SOL     OW31870   0.591   1.031   3.115  0.2210  0.0357  0.1545
 6746SOL    HW131871   0.523   1.095   3.094 -0.3817 -0.4692  0.5850
 6746SOL    HW231872   0.559   0.947   3.082 -0.3996 -0.2180  1.4079
 6747SOL     OW31873   2.228   2.588   9.921  0.5797 -0.1107  0.0145
 6747SOL    HW131874   2.234   2.542  10.005  3.0658 -0.1335 -0.1845
 6747SOL    HW231875   2.289   2.661   9.931  0.0816  0.1569  1.1073
 6748SOL     OW31876   1.924   2.872   4.217  0.5816 -0.4157  0.4784
 6748SOL    HW131877   1.945   2.839   4.129 -1.9512 -1.4583  0.2731
 6748SOL    HW231878   1.853   2.932   4.195 -0.5872 -2.1708 -0.5303
 6749SOL     OW31879   1.995   3.549   3.483  0.2106  0.1299 -0.2828
 6749SOL    HW131880   1.950   3.541   3.566 -0.9457  1.8376 -0.7480
 6749SOL    HW231881   2.027   3.463   3.454 -0.9736 -1.0093  1.8902
 6750SOL     OW31882   1.562   4.396   7.856  0.3018  0.4414  0.1428
 6750SOL    HW131883   1.648   4.429   7.883  0.9012 -1.6835  0.7522
 6750SOL    HW231884   1.585   4.345   7.779  1.2020  1.5741 -0.3483
 6751SOL     OW31885   1.929   2.613   8.282  0.6644  0.0106 -0.1874
 6751SOL    HW131886   2.021   2.639   8.283  0.6668 -0.0792  1.1399
 6751SOL    HW231887   1.903   2.645   8.195 -1.6604 -0.4334  0.3285
 6752SOL     OW31888   3.941   1.981   6.493 -0.1713 -0.0344 -0.6818
 6752SOL    HW131889   3.896   1.943   6.569  1.0771 -0.8249 -0.3357
 6752SOL    HW231890   3.870   2.014   6.438 -1.4140 -0.8917  0.3964
 6753SOL     OW31891   2.437   2.619   3.810  0.4359 -0.1428 -0.8236
 6753SOL    HW131892   2.365   2.670   3.846 -0.6128 -0.5692 -2.3322
 6753SOL    HW231893   2.390   2.579   3.737 -1.6806  0.2408  0.3179
 6754SOL     OW31894   4.340   3.063  17.721 -0.2457  0.1078 -0.1184
 6754SOL    HW131895   4.360   2.969  17.715 -1.7222 -0.1945 -0.1913
 6754SOL    HW231896   4.312   3.068   0.056  0.2899 -0.1536  0.0617
 6755SOL     OW31897   3.415   1.932   8.073 -0.1787 -0.6323  0.4826
 6755SOL    HW131898   3.504   1.956   8.096 -0.3542  2.2778 -1.8410
 6755SOL    HW231899   3.364   2.003   8.114 -0.3900 -1.2261  1.2405
 6756SOL     OW31900   1.884   1.123   8.396  1.0788 -0.0267  0.0261
 6756SOL    HW131901   1.956   1.176   8.361  1.3290  0.3449  1.1240
 6756SOL    HW231902   1.936   1.053   8.436  3.1858  1.4628 -0.0882
 6757SOL     OW31903   1.973   2.381   1.935  0.1939 -0.7081  0.3773
 6757SOL    HW131904   1.903   2.440   1.906  1.2988 -0.7792 -2.4437
 6757SOL    HW231905   2.049   2.432   1.905 -1.7634  1.2877 -1.1778
 6758SOL     OW31906   2.531   3.193  12.724 -0.4784  0.1295 -0.2302
 6758SOL    HW131907   2.480   3.124  12.682  0.9280 -0.7534 -0.5259
 6758SOL    HW231908   2.603   3.140  12.760  0.1982  1.7715  0.8077
 6759SOL     OW31909   3.087   4.612   6.970 -0.1589  0.5613  0.4901
 6759SOL    HW131910   3.070   4.531   6.922 -2.5796  0.0755  2.1745
 6759SOL    HW231911   3.002   4.654   6.957  0.1652  2.0620  3.0436
 6760SOL     OW31912   3.094   2.935   5.453  0.2290  0.9504  0.4491
 6760SOL    HW131913   3.007   2.946   5.414  0.5603 -1.7895 -1.0826
 6760SOL    HW231914   3.097   3.021   5.496  0.4365 -0.4797  3.3206
 6761SOL     OW31915   3.438   3.010   3.305 -0.0047 -0.1748  0.3048
 6761SOL    HW131916   3.496   2.972   3.239 -1.4914  1.2355 -1.7898
 6761SOL    HW231917   3.477   2.978   3.386  1.7373 -2.5688 -1.4700
 6762SOL     OW31918   1.040   0.033   5.706 -0.9286 -0.1735  0.3011
 6762SOL    HW131919   1.108   0.019   5.641  0.7601  0.4377  1.9612
 6762SOL    HW231920   1.083   0.099   5.760  0.8541 -0.1733 -1.1371
 6763SOL     OW31921   1.988   4.731  11.600 -0.1022  0.2408 -0.3633
 6763SOL    HW131922   1.969   0.041  11.679 -2.0310 -1.1269  0.0320
 6763SOL    HW231923   1.957   0.048  11.529 -2.6503 -2.9097 -1.7354
 6764SOL     OW31924   3.616   3.868   3.630  0.3621  0.1104  0.2429
 6764SOL    HW131925   3.687   3.910   3.582  0.5542  0.6735  1.0158
 6764SOL    HW231926   3.654   3.869   3.718  0.6864  0.0568  0.1022
 6765SOL     OW31927   2.961   0.619   9.129 -0.2796  0.1625 -0.2503
 6765SOL    HW131928   2.947   0.611   9.035  1.3308  0.8407 -0.5371
 6765SOL    HW231929   2.904   0.550   9.163  1.2400 -1.1223 -0.3440
 6766SOL     OW31930   3.583   0.545  17.725  0.0941  0.0715  0.3104
 6766SOL    HW131931   3.527   0.473  17.698  0.5664  0.0095 -0.5090
 6766SOL    HW231932   3.646   0.549  17.653 -0.1281  0.9193  0.1633
 6767SOL     OW31933   2.951   3.226   4.829  0.2759  0.1033  0.2666
 6767SOL    HW131934   2.970   3.317   4.808  1.1725 -0.9296 -3.3819
 6767SOL    HW231935   3.035   3.181   4.825 -1.4300 -2.9723 -0.9344
 6768SOL     OW31936   2.113   4.415  13.477  0.3972 -0.0959  0.2327
 6768SOL    HW131937   2.152   4.333  13.509  0.4479 -0.1212  0.1035
 6768SOL    HW231938   2.184   4.477  13.492  1.2803 -1.1700  0.4966
 6769SOL     OW31939   1.490   3.218   7.179  0.0031 -1.0811 -0.3753
 6769SOL    HW131940   1.502   3.241   7.087 -1.2878 -0.2406 -0.3375
 6769SOL    HW231941   1.449   3.298   7.211  1.3014  0.1560 -1.8366
 6770SOL     OW31942   2.493   1.071  14.785  0.1831  0.0872 -0.4514
 6770SOL    HW131943   2.538   1.152  14.761  2.3774 -1.1878 -0.6577
 6770SOL    HW231944   2.431   1.059  14.713 -0.7226  0.4501  0.2670
 6771SOL     OW31945   2.526   4.423   6.805 -1.1383  0.2000  0.1716
 6771SOL    HW131946   2.454   4.484   6.785 -0.5369  1.0799  0.6620
 6771SOL    HW231947   2.480   4.342   6.786 -0.4621 -0.2920  0.6310
 6772SOL     OW31948   1.297   0.180   4.056 -0.0491  0.6881  0.1594
 6772SOL    HW131949   1.225   0.132   4.098  1.0694 -0.3818  0.8370
 6772SOL    HW231950   1.284   0.262   4.103  2.2503 -0.7053  3.2262
 6773SOL     OW31951   1.916   3.228   7.790 -0.4395 -0.3861  0.3869
 6773SOL    HW131952   1.825   3.211   7.814 -1.1427 -0.0124 -1.9848
 6773SOL    HW231953   1.942   3.148   7.746 -0.5271  0.4564 -1.1964
 6774SOL     OW31954   0.940   2.432   6.980  0.2458 -0.4129 -0.1697
 6774SOL    HW131955   1.025   2.413   6.940  0.1773 -0.4372 -0.3014
 6774SOL    HW231956   0.954   2.526   6.990 -1.7881 -0.0496 -0.7817
 6775SOL     OW31957   3.510   0.639   2.174 -0.3252  0.1852  0.3717
 6775SOL    HW131958   3.488   0.706   2.239  4.9250  0.9183  1.3959
 6775SOL    HW231959   3.456   0.569   2.212 -1.8931  0.4209 -1.4330
 6776SOL     OW31960   0.601   2.261  15.110  0.2792  0.0392 -0.2965
 6776SOL    HW131961   0.688   2.224  15.099 -0.5601 -2.1398  0.3202
 6776SOL    HW231962   0.566   2.181  15.148 -3.4135  2.2452  1.0435
 6777SOL     OW31963   3.296   4.215   3.658  0.4254 -0.2787  0.6200
 6777SOL    HW131964   3.279   4.120   3.658  2.7208 -0.7061 -5.1530
 6777SOL    HW231965   3.390   4.222   3.639  0.0985  2.0825 -0.0013
 6778SOL     OW31966   1.095   2.856   6.155 -0.1990 -0.3351 -0.2826
 6778SOL    HW131967   1.135   2.939   6.131 -1.3838  0.3284  0.0496
 6778SOL    HW231968   1.008   2.861   6.116  0.5222 -1.6933 -2.0490
 6779SOL     OW31969   2.244   3.827   2.274  0.0374  0.5710 -0.2445
 6779SOL    HW131970   2.275   3.802   2.186 -1.3997  0.8418 -0.8193
 6779SOL    HW231971   2.157   3.864   2.268 -0.5273 -0.9491 -1.4757
 6780SOL     OW31972   3.612   3.110  12.178  0.0562 -0.0154  0.9124
 6780SOL    HW131973   3.567   3.189  12.207 -1.8776 -0.8903  0.3307
 6780SOL    HW231974   3.544   3.071  12.124  1.1510  1.2536 -1.3681
 6781SOL     OW31975   3.511   2.738   8.390 -0.7708  0.4480 -0.3688
 6781SOL    HW131976   3.419   2.756   8.372 -0.6658 -0.7157 -1.9831
 6781SOL    HW231977   3.502   2.678   8.464 -2.2396  0.4595 -0.5468
 6782SOL     OW31978   2.587   2.856   8.640  0.3460 -0.2589 -0.0469
 6782SOL    HW131979   2.655   2.901   8.690  0.9641 -2.1127  0.7987
 6782SOL    HW231980   2.521   2.833   8.706  0.1878  3.1534  0.9570
 6783SOL     OW31981   3.630   2.349   7.849 -0.1322  0.2062 -0.9182
 6783SOL    HW131982   3.628   2.442   7.872  1.2525 -0.5267  2.2745
 6783SOL    HW231983   3.711   2.320   7.891  0.3618  0.2096 -1.8650
 6784SOL     OW31984   0.236   0.831   6.794 -0.1113  0.0231 -0.2001
 6784SOL    HW131985   0.322   0.810   6.830  0.0115 -0.2246 -0.6335
 6784SOL    HW231986   0.252   0.834   6.699  1.4186 -2.0231  0.0114
 6785SOL     OW31987   0.014   4.606   8.192 -0.4483 -0.8628  0.1177
 6785SOL    HW131988   4.689   4.545   8.158 -1.2432 -1.1503  2.1583
 6785SOL    HW231989   4.738   4.681   8.136 -3.9145 -0.0347  2.1675
 6786SOL     OW31990   0.890   1.891   2.105 -0.0355 -0.6369  0.4331
 6786SOL    HW131991   0.861   1.962   2.163 -1.0006 -0.9943  0.3794
 6786SOL    HW231992   0.919   1.835   2.177 -1.1085 -1.4784  0.2016
 6787SOL     OW31993   1.426   3.701   4.245 -0.1016 -0.0723  0.4985
 6787SOL    HW131994   1.333   3.686   4.261 -0.2569  1.4044  1.0729
 6787SOL    HW231995   1.425   3.647   4.166  1.3059 -0.3861  0.6881
 6788SOL     OW31996   3.213   3.747  14.010 -0.1185 -0.0372  0.8389
 6788SOL    HW131997   3.140   3.685  14.011  1.0878 -1.4999 -2.0950
 6788SOL    HW231998   3.246   3.741  14.100 -1.3697 -1.5284  1.1933
 6789SOL     OW31999   3.979   0.250   2.014 -0.8195 -0.2435 -0.5899
 6789SOL    HW132000   4.057   0.217   1.969  0.5223  0.6779  1.0717
 6789SOL    HW232001   3.922   0.189   1.968 -0.3403 -0.7580 -0.5117
 6790SOL     OW32002   4.392   3.952   7.132  0.1421 -0.5181 -0.2122
 6790SOL    HW132003   4.448   3.874   7.135  1.6159  0.5872  1.6412
 6790SOL    HW232004   4.415   3.967   7.041  1.7576  1.3913  0.5088
 6791SOL     OW32005   4.469   0.418   7.984  1.0695  0.2497  0.0326
 6791SOL    HW132006   4.394   0.404   7.927  0.9437  1.4607 -0.0931
 6791SOL    HW232007   4.532   0.472   7.936 -0.1337  1.9514  0.3795
 6792SOL     OW32008   3.393   3.345  10.863 -0.1952 -0.3690  0.2139
 6792SOL    HW132009   3.314   3.366  10.813 -0.5408 -0.0037  0.9054
 6792SOL    HW232010   3.450   3.309  10.796  1.0827  0.1805  0.9927
 6793SOL     OW32011   1.564   3.830   7.565 -0.3336  0.0642 -0.0235
 6793SOL    HW132012   1.517   3.778   7.629  2.6033 -1.6962  0.6990
 6793SOL    HW232013   1.654   3.810   7.589 -1.3594 -1.9232  2.0929
 6794SOL     OW32014   2.094   0.502  14.608 -0.7950  0.0078  0.4104
 6794SOL    HW132015   2.134   0.542  14.685 -0.9307 -0.7449  0.8632
 6794SOL    HW232016   2.167   0.493  14.546 -1.0228  0.6793  0.0415
 6795SOL     OW32017   1.878   4.271  17.272  0.1829  0.4736  0.2883
 6795SOL    HW132018   1.823   4.238  17.201 -1.1203  0.2618  1.4038
 6795SOL    HW232019   1.951   4.311  17.225  0.3454 -0.4253 -0.2211
 6796SOL     OW32020   2.896   1.273   7.758 -0.5577  0.3501  0.2307
 6796SOL    HW132021   2.944   1.207   7.708 -0.2446  0.0904  0.8702
 6796SOL    HW232022   2.890   1.225   7.841 -1.0553  0.0114 -0.0012
 6797SOL     OW32023   3.123   0.026  17.130  0.1078 -0.2935 -0.0180
 6797SOL    HW132024   3.111   0.069  17.215 -1.2096 -0.7360  0.0236
 6797SOL    HW232025   3.064   0.086  17.083  1.9191  0.8874 -0.7747
 6798SOL     OW32026   3.063   1.004   8.914 -0.0455  0.3109 -0.0982
 6798SOL    HW132027   3.090   0.947   8.842 -0.0722  2.3697 -1.7478
 6798SOL    HW232028   2.976   0.967   8.931 -0.5568  1.4751 -0.1781
 6799SOL     OW32029   4.029   0.354  11.319 -0.2573 -0.0172 -0.0131
 6799SOL    HW132030   4.119   0.376  11.341 -0.8020  0.8959  1.3563
 6799SOL    HW232031   3.995   0.279  11.368 -2.5665 -0.2156 -1.8974
 6800SOL     OW32032   4.455   4.342   7.429  0.2625  0.0184  0.1222
 6800SOL    HW132033   4.434   4.410   7.366 -0.2370  0.8337  1.1585
 6800SOL    HW232034   4.478   4.393   7.507  0.7437 -0.7887  0.5133
 6801SOL     OW32035   4.577   3.394   3.068 -0.4040  0.4446 -0.2549
 6801SOL    HW132036   4.498   3.444   3.051 -2.5827 -2.3005  1.8041
 6801SOL    HW232037   4.596   3.348   2.986  1.1584  1.0488 -0.2469
 6802SOL     OW32038   2.435   4.629   1.126  0.1661  0.0476  0.5964
 6802SOL    HW132039   2.369   4.697   1.117 -0.1557 -0.2433  0.7560
 6802SOL    HW232040   2.383   4.551   1.147  2.9976 -2.2939 -1.0867
 6803SOL     OW32041   1.072   3.285   5.913  0.5449  0.1370 -0.2702
 6803SOL    HW132042   1.012   3.334   5.857  0.4692 -0.7322 -0.9474
 6803SOL    HW232043   1.012   3.241   5.973  1.0508 -1.3024 -0.8125
 6804SOL     OW32044   2.378   1.408   7.627 -0.2880  0.0818 -0.3296
 6804SOL    HW132045   2.358   1.343   7.695 -1.7986 -0.0807 -0.9246
 6804SOL    HW232046   2.292   1.441   7.601 -1.0159 -0.3235  1.5519
 6805SOL     OW32047   2.355   1.570  11.951 -1.0700  0.2846 -0.6208
 6805SOL    HW132048   2.272   1.603  11.986 -0.6944  0.4512  0.0947
 6805SOL    HW232049   2.318   1.526  11.874 -0.5101 -0.0414 -0.7046
 6806SOL     OW32050   3.267   4.051  14.178 -0.2504  0.0653 -0.1143
 6806SOL    HW132051   3.325   3.979  14.151 -1.1570 -0.2303 -1.2680
 6806SOL    HW232052   3.225   4.067  14.094  0.2348 -2.0479 -0.7477
 6807SOL     OW32053   3.899   0.693  17.509  0.2259 -0.0877 -0.0987
 6807SOL    HW132054   3.811   0.672  17.476  0.2577 -0.2140 -0.1036
 6807SOL    HW232055   3.932   0.605  17.528 -0.2120 -1.2428 -4.8299
 6808SOL     OW32056   3.516   0.512   6.007  0.4577  0.1028  0.1624
 6808SOL    HW132057   3.540   0.510   5.914  1.8410 -1.3982  0.5429
 6808SOL    HW232058   3.549   0.599   6.029  1.3408 -0.2014  0.0773
 6809SOL     OW32059   0.433   2.837   1.967 -0.3121 -0.3884 -0.7483
 6809SOL    HW132060   0.381   2.901   1.919 -1.1392 -1.4043 -1.1997
 6809SOL    HW232061   0.509   2.883   2.002 -0.3793  0.4794 -1.7507
 6810SOL     OW32062   1.260   2.289   9.913  0.1292 -0.1056 -0.2026
 6810SOL    HW132063   1.305   2.288   9.997 -0.5830  0.3747  0.1813
 6810SOL    HW232064   1.186   2.346   9.932 -0.1357 -0.8109  0.9029
 6811SOL     OW32065   4.063   1.620   6.177 -0.3141  0.5435  0.0591
 6811SOL    HW132066   4.056   1.529   6.205  0.4505  0.1849 -0.8771
 6811SOL    HW232067   3.992   1.630   6.113 -0.9463  0.9258  0.8177
 6812SOL     OW32068   2.605   4.298  11.549  0.0611  0.1819 -0.1065
 6812SOL    HW132069   2.531   4.237  11.554  0.3877 -0.1968  0.1022
 6812SOL    HW232070   2.642   4.266  11.631  1.5828 -0.3075 -0.9887
 6813SOL     OW32071   0.352   3.008   4.143  0.2089 -0.0193 -0.6514
 6813SOL    HW132072   0.376   2.935   4.086 -1.0715 -2.8684  2.4216
 6813SOL    HW232073   0.383   3.080   4.089  0.9275  0.7723  0.8144
 6814SOL     OW32074   0.654   4.725  16.249  0.4877  0.0794 -0.2644
 6814SOL    HW132075   0.748   4.716  16.233  0.6817  0.1338  0.8302
 6814SOL    HW232076   0.628   4.654  16.190 -1.4389  0.6858 -0.1339
 6815SOL     OW32077   2.439   1.898   6.735 -0.0606  0.7637 -0.3793
 6815SOL    HW132078   2.447   1.980   6.785 -0.2567  0.9878 -0.7185
 6815SOL    HW232079   2.433   1.835   6.807 -1.3414  1.9623  0.5546
 6816SOL     OW32080   2.075   0.902   6.641  0.1097  0.1919  0.5007
 6816SOL    HW132081   1.993   0.937   6.674 -0.7356 -1.4217  0.1256
 6816SOL    HW232082   2.069   0.923   6.548  1.6757  0.1886  0.3902
 6817SOL     OW32083   4.120   2.676   3.152  0.2041  0.8722  0.1185
 6817SOL    HW132084   4.202   2.648   3.193 -0.8323 -0.2145  1.4290
 6817SOL    HW232085   4.132   2.771   3.141  0.9610  0.5657 -1.7951
 6818SOL     OW32086   1.448   3.966   6.807  0.1295 -0.2817 -0.3791
 6818SOL    HW132087   1.512   4.032   6.779  0.1506 -0.4676 -0.7701
 6818SOL    HW232088   1.367   3.991   6.761 -0.1483  1.4889  1.0818
 6819SOL     OW32089   0.148   2.152   8.234  0.2487  0.2264  0.0055
 6819SOL    HW132090   0.163   2.066   8.273  1.6108  1.1691  1.5584
 6819SOL    HW232091   0.208   2.211   8.280 -0.2881 -0.2367  1.2992
 6820SOL     OW32092   2.791   3.869  17.121  0.2544 -0.7731 -0.2262
 6820SOL    HW132093   2.853   3.867  17.194 -0.1271 -1.0086  0.0987
 6820SOL    HW232094   2.751   3.787  17.150 -1.8777  1.0019  1.8690
 6821SOL     OW32095   2.283   1.184   6.062 -0.4930  0.9662 -0.4379
 6821SOL    HW132096   2.256   1.276   6.058  1.6067  1.7006  2.4771
 6821SOL    HW232097   2.299   1.176   6.156 -1.4101 -0.1618 -0.3815
 6822SOL     OW32098   3.256   1.417   3.457  0.1034 -0.1952  0.4085
 6822SOL    HW132099   3.327   1.354   3.467 -1.6701 -2.3244 -0.5877
 6822SOL    HW232100   3.307   1.474   3.398  0.8748  0.1289  1.3771
 6823SOL     OW32101   2.224   2.655   9.652  0.0592 -0.4129 -0.1528
 6823SOL    HW132102   2.140   2.696   9.671  0.2867  0.4295 -0.9405
 6823SOL    HW232103   2.233   2.601   9.731 -0.8123  0.3400  0.4556
 6824SOL     OW32104   3.160   0.650  10.889  0.1613 -0.0671  0.3823
 6824SOL    HW132105   3.206   0.616  10.966  1.7451  1.3206  0.0403
 6824SOL    HW232106   3.131   0.738  10.912 -0.0662 -0.8842  3.3113
 6825SOL     OW32107   2.035   3.429   1.320  0.3411 -0.2919  0.6312
 6825SOL    HW132108   2.053   3.492   1.251  0.3840  1.0711  1.9044
 6825SOL    HW232109   2.029   3.485   1.396 -0.9275 -1.0766  1.1224
 6826SOL     OW32110   1.818   3.507   7.027 -0.9653  0.1455  0.1474
 6826SOL    HW132111   1.854   3.579   6.976 -2.0979  1.7172  1.5931
 6826SOL    HW232112   1.812   3.441   6.957  1.4325  1.2683 -1.1370
 6827SOL     OW32113   2.547   1.277   2.382  0.5940 -0.3829  0.3142
 6827SOL    HW132114   2.522   1.191   2.416  0.3917  0.3500  2.0096
 6827SOL    HW232115   2.598   1.266   2.302  1.0169 -1.3077  0.7127
 6828SOL     OW32116   4.074   1.241   6.545  0.7491 -0.9795  0.2567
 6828SOL    HW132117   4.082   1.334   6.568  1.2381 -0.5850 -1.4293
 6828SOL    HW232118   4.021   1.208   6.617  1.8098 -2.2147  0.4711
 6829SOL     OW32119   1.363   0.553   3.822  0.4165 -0.4494  0.2239
 6829SOL    HW132120   1.450   0.522   3.798  0.4691 -1.0207  1.1443
 6829SOL    HW232121   1.340   0.599   3.741 -0.7849 -1.6542 -0.1321
 6830SOL     OW32122   0.033   2.450   7.852  0.3654 -0.4617 -0.0648
 6830SOL    HW132123   0.011   2.415   7.939 -0.0960  1.8025  0.7267
 6830SOL    HW232124   4.690   2.492   7.828 -0.4260 -0.4343  2.6385
 6831SOL     OW32125   1.321   2.139   7.643  0.1660  0.0183  0.5091
 6831SOL    HW132126   1.286   2.080   7.709 -1.7253  0.8152  0.2180
 6831SOL    HW232127   1.253   2.131   7.577  0.4335 -0.7073  0.3249
 6832SOL     OW32128   3.594   2.264  10.401 -0.3179 -0.1978 -0.0415
 6832SOL    HW132129   3.624   2.191  10.346  0.8226  0.8399 -0.8016
 6832SOL    HW232130   3.509   2.276  10.359 -1.2629 -1.4865  1.5236
 6833SOL     OW32131   3.628   4.059   1.042 -0.3705 -0.5840  0.4519
 6833SOL    HW132132   3.571   4.023   0.974  0.2932 -0.1431 -0.3393
 6833SOL    HW232133   3.643   3.975   1.085 -0.2566 -1.2120 -0.8090
 6834SOL     OW32134   2.986   0.735   6.015  0.4469 -0.0731  0.2269
 6834SOL    HW132135   2.998   0.689   6.098  0.2149 -0.6772 -0.0784
 6834SOL    HW232136   2.981   0.654   5.966 -2.0682  2.0178 -2.9526
 6835SOL     OW32137   2.818   4.274  13.113  0.3294 -0.4242 -0.1619
 6835SOL    HW132138   2.799   4.258  13.021  0.0075 -2.0475  0.1945
 6835SOL    HW232139   2.740   4.307  13.158 -0.3666  2.0933 -3.2113
 6836SOL     OW32140   0.881   0.278  15.401  0.5235 -0.1061  0.8705
 6836SOL    HW132141   0.890   0.280  15.496 -1.6342 -1.9012  1.0989
 6836SOL    HW232142   0.937   0.206  15.371 -0.7698 -0.5696 -0.4564
 6837SOL     OW32143   1.639   3.314   9.928  0.6054 -0.1107  0.3477
 6837SOL    HW132144   1.682   3.341   9.846  2.2036  0.2323  1.2842
 6837SOL    HW232145   1.593   3.238   9.893 -1.6873  0.9277  1.1346
 6838SOL     OW32146   0.952   2.559  15.391 -0.0144  0.2941 -0.1680
 6838SOL    HW132147   1.008   2.594  15.461 -2.2410  0.1236  1.6832
 6838SOL    HW232148   1.006   2.589  15.318  0.1281  2.5091  0.8149
 6839SOL     OW32149   0.475   1.664   8.657 -0.5366  0.0698 -0.0994
 6839SOL    HW132150   0.545   1.645   8.595 -0.9380  4.2683 -1.8734
 6839SOL    HW232151   0.435   1.578   8.667 -1.7182  0.3515 -2.4393
 6840SOL     OW32152   4.404   0.687   6.146  0.3692 -0.0902  0.0818
 6840SOL    HW132153   4.493   0.714   6.124  0.1437  1.1380  0.6709
 6840SOL    HW232154   4.361   0.767   6.176  1.5646  0.2675  0.8474
 6841SOL     OW32155   3.082   2.770   4.621 -0.6308 -0.5288 -0.0675
 6841SOL    HW132156   3.002   2.797   4.577 -0.4631  1.7777  1.0509
 6841SOL    HW232157   3.064   2.792   4.713  1.4410 -0.3105  0.2975
 6842SOL     OW32158   0.346   4.354   6.642  0.8780 -0.2367  0.4995
 6842SOL    HW132159   0.271   4.318   6.595  2.5692 -1.0708 -1.5755
 6842SOL    HW232160   0.342   4.309   6.726 -1.3156 -0.1827  0.4155
 6843SOL     OW32161   3.286   2.219   9.784 -0.1001 -0.2715  0.3022
 6843SOL    HW132162   3.378   2.222   9.812 -0.4259  1.3607  1.1810
 6843SOL    HW232163   3.245   2.281   9.844 -0.4547 -1.4684  1.3141
 6844SOL     OW32164   1.409   2.077   8.594 -0.3732 -0.4228 -0.0000
 6844SOL    HW132165   1.324   2.082   8.638 -0.9911  0.3192 -1.2918
 6844SOL    HW232166   1.381   2.090   8.504 -0.3470  0.1659  0.0735
 6845SOL     OW32167   4.022   0.982   5.948  0.0738 -0.0253 -0.3149
 6845SOL    HW132168   3.947   0.930   5.920  0.4293  0.0466 -1.3820
 6845SOL    HW232169   3.995   1.007   6.037  1.5522  0.4089  0.0109
 6846SOL     OW32170   0.050   1.841   5.070 -0.7963  0.4429 -0.1064
 6846SOL    HW132171   0.025   1.903   5.001  0.8405  0.5807 -0.5735
 6846SOL    HW232172   4.705   1.800   5.089 -1.6592  3.2370  2.0792
 6847SOL     OW32173   4.136   2.550   3.942 -0.0191  0.1299 -0.1417
 6847SOL    HW132174   4.134   2.468   3.990  3.0618  0.7822  1.1414
 6847SOL    HW232175   4.133   2.603   4.022 -1.5324 -0.2230  0.0254
 6848SOL     OW32176   2.211   3.539   0.413 -0.0393 -0.5794 -0.3953
 6848SOL    HW132177   2.217   3.452   0.374  0.0199 -0.3693 -0.8603
 6848SOL    HW232178   2.267   3.582   0.347 -0.9345  0.0598 -0.7354
 6849SOL     OW32179   4.241   2.379  11.062 -0.7118 -0.5079  0.6652
 6849SOL    HW132180   4.195   2.351  11.141 -2.0784 -2.3180 -0.7657
 6849SOL    HW232181   4.171   2.390  10.997  0.2434  1.2552 -0.0614
 6850SOL     OW32182   0.550   1.449   3.477 -0.6142  0.2589 -0.4234
 6850SOL    HW132183   0.610   1.387   3.435  0.1147  0.6907 -0.0396
 6850SOL    HW232184   0.600   1.531   3.472 -2.3803  1.4361  1.0313
 6851SOL     OW32185   1.689   2.695   6.820 -0.2979 -0.8379  0.7742
 6851SOL    HW132186   1.772   2.741   6.805 -0.6462  0.4781  3.0614
 6851SOL    HW232187   1.710   2.672   6.910  1.3408 -0.4605  0.4956
 6852SOL     OW32188   0.817   3.133  15.043  0.3642  0.1573  0.3866
 6852SOL    HW132189   0.743   3.160  15.097  0.3817 -0.3594  0.6608
 6852SOL    HW232190   0.777   3.152  14.958 -0.1254  1.1419  0.8366
 6853SOL     OW32191   1.131   2.545   5.470  0.1031  0.2567 -0.5488
 6853SOL    HW132192   1.089   2.467   5.507 -1.0480  0.1116 -2.1772
 6853SOL    HW232193   1.155   2.582   5.555 -1.8459 -0.0281  0.1254
 6854SOL     OW32194   2.576   0.232   3.330 -0.5646 -0.2654  0.0706
 6854SOL    HW132195   2.548   0.307   3.382  0.3791  1.2546 -1.6223
 6854SOL    HW232196   2.502   0.172   3.339 -0.5920 -0.5061 -1.7837
 6855SOL     OW32197   1.488   1.641   8.559  0.2669 -0.6332  0.1143
 6855SOL    HW132198   1.464   1.615   8.647 -0.0244  2.4912  0.9737
 6855SOL    HW232199   1.402   1.664   8.523 -0.1619  0.0672  1.6024
 6856SOL     OW32200   4.630   1.754   9.247 -0.0500  0.3971 -0.0160
 6856SOL    HW132201   4.646   1.740   9.341  0.6774 -3.0098 -0.6433
 6856SOL    HW232202   4.566   1.688   9.221 -0.4279  0.4441  0.7736
 6857SOL     OW32203   1.994   0.566   9.174  0.1227  0.3555 -0.1212
 6857SOL    HW132204   2.009   0.543   9.266 -1.7322 -1.8534 -0.3754
 6857SOL    HW232205   1.916   0.515   9.152  1.6399 -1.9878 -0.1857
 6858SOL     OW32206   4.023   3.770   5.304 -0.1333 -0.2780 -0.3025
 6858SOL    HW132207   3.944   3.791   5.353  0.5159 -0.6244  0.8843
 6858SOL    HW232208   4.023   3.834   5.233 -2.8897 -1.1957 -1.1448
 6859SOL     OW32209   2.432   1.795   1.493 -0.2223  0.3002 -0.4458
 6859SOL    HW132210   2.517   1.818   1.529 -0.3098  0.8916 -0.6117
 6859SOL    HW232211   2.454   1.710   1.457 -1.9544 -0.3294 -0.0525
 6860SOL     OW32212   0.652   3.245  13.247 -0.0696  0.4114 -0.6267
 6860SOL    HW132213   0.701   3.172  13.208 -2.0726 -0.6997 -1.0648
 6860SOL    HW232214   0.678   3.237  13.339  0.6780  0.7726 -0.8099
 6861SOL     OW32215   2.197   2.066   2.721 -0.2169 -0.3567 -0.2772
 6861SOL    HW132216   2.263   2.136   2.716 -0.4003 -0.2170 -0.8066
 6861SOL    HW232217   2.159   2.077   2.634 -2.6813 -0.7617  0.7589
 6862SOL     OW32218   3.222   1.687   1.015  0.0388 -0.1662  0.1265
 6862SOL    HW132219   3.187   1.598   1.019  0.8904 -0.5756 -1.4028
 6862SOL    HW232220   3.153   1.737   0.971 -0.5047 -1.3505 -0.3697
 6863SOL     OW32221   0.837   0.986   0.665 -0.5232 -0.3064 -0.2107
 6863SOL    HW132222   0.828   0.911   0.606  2.8628 -1.1113  0.3385
 6863SOL    HW232223   0.870   0.953   0.748  0.6202  0.4596 -0.3594
 6864SOL     OW32224   3.967   4.203  16.749 -0.4229 -0.5029  0.4205
 6864SOL    HW132225   4.000   4.292  16.761 -1.5080 -0.1235  0.5661
 6864SOL    HW232226   3.989   4.162  16.832 -0.4580  0.9744  1.1515
 6865SOL     OW32227   1.623   3.595   9.697 -0.4143 -0.1164  0.0174
 6865SOL    HW132228   1.580   3.579   9.612 -2.5093  1.1738  0.8267
 6865SOL    HW232229   1.567   3.549   9.759  0.0167 -1.3737 -0.5296
 6866SOL     OW32230   0.690   1.229   0.874 -0.3439  0.0493 -0.0046
 6866SOL    HW132231   0.676   1.302   0.934  0.6169  0.2354  0.0015
 6866SOL    HW232232   0.676   1.156   0.935  0.8071 -1.6513 -1.7741
 6867SOL     OW32233   0.741   2.267  13.221 -0.9366 -0.8000  0.4501
 6867SOL    HW132234   0.677   2.203  13.251 -0.8144 -1.9042 -1.6501
 6867SOL    HW232235   0.686   2.342  13.202 -0.1684 -0.9739 -2.4164
 6868SOL     OW32236   1.475   2.477   5.909 -0.7007 -0.2539 -0.2175
 6868SOL    HW132237   1.520   2.484   5.993 -0.7764  0.2066 -0.2120
 6868SOL    HW232238   1.532   2.428   5.850  0.0226 -0.8777  1.0214
 6869SOL     OW32239   1.793   2.224   7.246  0.0561  0.2166 -0.3364
 6869SOL    HW132240   1.727   2.291   7.263 -0.8850 -0.6303 -0.6140
 6869SOL    HW232241   1.755   2.201   7.161 -0.6006 -1.1688  0.3202
 6870SOL     OW32242   3.069   3.539  11.319  0.0077  0.1676 -0.0125
 6870SOL    HW132243   3.018   3.566  11.395 -1.6671 -0.7183 -0.8245
 6870SOL    HW232244   3.119   3.465  11.354  0.8482 -0.1367 -1.8177
 6871SOL     OW32245   3.005   3.063   1.720 -0.4433  0.0186 -0.6587
 6871SOL    HW132246   3.022   3.153   1.695 -1.4047 -0.0016 -1.3854
 6871SOL    HW232247   2.925   3.079   1.771 -0.5350 -0.8797 -0.5050
 6872SOL     OW32248   2.436   0.209  14.073  0.2860  0.1216 -0.3722
 6872SOL    HW132249   2.351   0.245  14.047 -0.1545 -0.3480  0.4181
 6872SOL    HW232250   2.402   0.120  14.087  2.5820 -0.8083 -0.8206
 6873SOL     OW32251   2.637   0.715   3.562 -0.5809 -0.4982 -0.4920
 6873SOL    HW132252   2.614   0.676   3.478 -0.8378  1.0111 -1.1145
 6873SOL    HW232253   2.722   0.754   3.541 -0.9870  0.6049 -0.0796
 6874SOL     OW32254   0.691   1.564   4.387 -0.7134 -0.6347  0.1005
 6874SOL    HW132255   0.753   1.563   4.314  0.5489  0.6663  1.1630
 6874SOL    HW232256   0.686   1.471   4.409  1.2016 -0.8245 -0.2646
 6875SOL     OW32257   0.234   2.656   8.411  0.3407  0.2383  0.0014
 6875SOL    HW132258   0.315   2.638   8.460  0.8582  0.1820 -0.8781
 6875SOL    HW232259   0.208   2.737   8.455 -2.2280 -0.0249 -1.0632
 6876SOL     OW32260   2.652   3.840   8.485 -0.2240  0.0423  0.1269
 6876SOL    HW132261   2.631   3.922   8.439  0.0999  0.6354  1.0528
 6876SOL    HW232262   2.631   3.775   8.418 -3.0281  0.7127  0.3320
 6877SOL     OW32263   0.828   3.116  12.915  0.6772  0.1025  0.3929
 6877SOL    HW132264   0.788   3.071  12.989  1.2512 -1.5269 -0.2721
 6877SOL    HW232265   0.879   3.179  12.967 -1.4104  1.6558  0.5409
 6878SOL     OW32266   2.942   0.051   1.034 -0.9449  0.1123 -0.1528
 6878SOL    HW132267   2.909   0.002   0.959  0.5036  3.4571 -2.9306
 6878SOL    HW232268   3.033   0.065   1.008 -1.4356  1.3207 -1.1808
 6879SOL     OW32269   1.296   2.875   7.231  0.2732 -0.1366 -0.2256
 6879SOL    HW132270   1.323   2.791   7.270  2.0867 -0.1377 -1.5194
 6879SOL    HW232271   1.375   2.927   7.248 -0.6722  1.0390  0.5583
 6880SOL     OW32272   0.695   1.389   2.296  0.0197  0.0591  0.2051
 6880SOL    HW132273   0.629   1.324   2.272 -1.1337  0.3864  2.4941
 6880SOL    HW232274   0.751   1.386   2.219 -2.3940 -0.7940 -1.5212
 6881SOL     OW32275   1.681   3.215   6.497 -0.2677 -0.3251 -0.5570
 6881SOL    HW132276   1.696   3.122   6.515 -0.5208 -0.0960  0.7937
 6881SOL    HW232277   1.737   3.237   6.422 -2.0035  0.9535 -1.5017
 6882SOL     OW32278   2.129   3.991   5.474  0.7586  0.1350 -0.7356
 6882SOL    HW132279   2.073   4.022   5.403 -1.7025 -0.3806  0.9782
 6882SOL    HW232280   2.088   4.024   5.554  1.5499 -1.1071  0.1824
 6883SOL     OW32281   0.256   1.907   6.004  0.3259 -0.3843  0.3339
 6883SOL    HW132282   0.213   1.839   5.954 -1.4330  1.6122 -0.8617
 6883SOL    HW232283   0.345   1.874   6.016  0.5303 -0.8053 -2.3442
 6884SOL     OW32284   1.125   1.199   9.056  0.2888  0.3461  0.3041
 6884SOL    HW132285   1.111   1.257   8.981  0.5558  1.5090  1.1537
 6884SOL    HW232286   1.081   1.251   9.123  1.5214  1.3502  0.3342
 6885SOL     OW32287   4.705   3.298   3.279  0.1445  0.3266  0.2589
 6885SOL    HW132288   4.649   3.336   3.211 -1.0541 -0.0731  1.0186
 6885SOL    HW232289   4.642   3.278   3.348  0.1623  2.1500  0.8019
 6886SOL     OW32290   4.263   4.347   4.646 -0.2780  0.1976  0.1856
 6886SOL    HW132291   4.342   4.400   4.657  0.6781 -0.9199 -1.4968
 6886SOL    HW232292   4.272   4.290   4.723  0.9242 -1.7307 -1.4080
 6887SOL     OW32293   3.988   1.755   8.283  0.3144  0.3767  0.4576
 6887SOL    HW132294   3.987   1.676   8.230 -0.7223  0.3522  0.5148
 6887SOL    HW232295   4.080   1.778   8.289  0.5191 -0.1980 -0.6112
 6888SOL     OW32296   2.373   0.455   4.977 -0.3419  0.0544  0.4322
 6888SOL    HW132297   2.326   0.538   4.988 -0.9158 -0.3571  1.0201
 6888SOL    HW232298   2.378   0.411   5.061 -0.7408 -1.2359 -0.2278
 6889SOL     OW32299   1.424   3.846   9.717  0.5199  0.4276  0.0361
 6889SOL    HW132300   1.503   3.834   9.665  0.3063  1.5036 -0.5495
 6889SOL    HW232301   1.453   3.861   9.807 -1.8855 -0.5456  0.9976
 6890SOL     OW32302   2.951   0.233   1.238 -0.5738  0.1732 -0.1328
 6890SOL    HW132303   2.923   0.194   1.155  0.0738  0.9877 -0.7306
 6890SOL    HW232304   3.046   0.223   1.237 -0.8425 -2.4254  0.0629
 6891SOL     OW32305   2.967   4.610   2.290  0.8264 -0.3315 -0.1421
 6891SOL    HW132306   2.935   4.530   2.330  0.7453 -0.6423 -0.8433
 6891SOL    HW232307   3.055   4.610   2.328  0.9690  0.5744 -0.4642
 6892SOL     OW32308   4.015   4.724  16.197 -0.4180  0.2154  0.1225
 6892SOL    HW132309   3.929   4.724  16.155 -0.7896 -1.6148  0.8759
 6892SOL    HW232310   4.066   4.675  16.133  1.5235  3.7614 -1.0271
 6893SOL     OW32311   2.104   2.235  10.901 -0.0108 -0.0717  0.5777
 6893SOL    HW132312   2.023   2.226  10.951 -1.1005  1.3557 -0.9457
 6893SOL    HW232313   2.072   2.224  10.812  0.8747  0.9094  0.1382
 6894SOL     OW32314   3.540   1.510  15.961 -0.0690 -0.3581 -0.2356
 6894SOL    HW132315   3.475   1.439  15.955  0.4044 -0.6525 -1.9809
 6894SOL    HW232316   3.492   1.593  15.956  0.8333  0.1171 -0.9574
 6895SOL     OW32317   3.401   2.146  10.618 -0.7191  0.5135  0.5016
 6895SOL    HW132318   3.342   2.084  10.576  0.8907 -2.7298  3.0879
 6895SOL    HW232319   3.387   2.231  10.575  0.6617  1.4187  1.8260
 6896SOL     OW32320   1.558   2.171   9.900  0.3168 -0.0924 -0.3708
 6896SOL    HW132321   1.519   2.134   9.979 -0.1681  0.2367 -0.4618
 6896SOL    HW232322   1.622   2.105   9.873 -0.3931 -0.6518 -0.6584
 6897SOL     OW32323   3.898   2.055   1.535  0.2946  0.7010  0.6201
 6897SOL    HW132324   3.869   2.000   1.462 -0.4508 -0.3823  1.7293
 6897SOL    HW232325   3.815   2.098   1.558 -0.8155 -1.5687  0.8737
 6898SOL     OW32326   1.762   3.018  13.210  0.2617 -0.1549  0.3456
 6898SOL    HW132327   1.687   3.034  13.268  0.4986  1.5309  0.1990
 6898SOL    HW232328   1.717   3.026  13.126 -0.4187  2.7839  0.9908
 6899SOL     OW32329   2.479   3.328   2.955 -0.2068 -0.0145 -0.3291
 6899SOL    HW132330   2.398   3.293   2.993  0.2052  0.1304  0.6760
 6899SOL    HW232331   2.554   3.282   2.992 -0.9199 -0.5406  0.4620
 6900SOL     OW32332   0.636   4.503   7.533  0.0787 -0.2644  0.2075
 6900SOL    HW132333   0.670   4.521   7.446 -0.2494 -0.9047 -0.0539
 6900SOL    HW232334   0.600   4.415   7.528  0.0338 -0.1417 -1.4082
 6901SOL     OW32335   1.017   4.343   6.219 -0.3125 -0.3867  0.2120
 6901SOL    HW132336   0.988   4.357   6.129  1.7382 -0.5808 -0.4877
 6901SOL    HW232337   1.109   4.370   6.222  0.5096 -3.1116 -1.0051
 6902SOL     OW32338   3.052   3.284   4.477 -0.0540  0.1621  0.4280
 6902SOL    HW132339   2.993   3.256   4.407  2.6987 -0.7729 -1.4864
 6902SOL    HW232340   2.998   3.263   4.553 -0.1978  0.5510  0.4355
 6903SOL     OW32341   4.539   1.999  17.520  0.4211  0.5049  0.0945
 6903SOL    HW132342   4.530   2.082  17.473 -0.2872  1.2621  1.5738
 6903SOL    HW232343   4.505   1.942  17.451  2.6180 -0.8466  0.1436
 6904SOL     OW32344   0.016   4.621  13.198 -0.1079  0.2345  0.0307
 6904SOL    HW132345   0.100   4.652  13.163 -0.7150  0.8578 -0.9039
 6904SOL    HW232346   4.707   4.703  13.207  0.1620  0.2271  1.5754
 6905SOL     OW32347   1.199   3.838   7.707 -0.3478  0.1721  0.5789
 6905SOL    HW132348   1.137   3.770   7.735  0.8738 -0.7890  0.9923
 6905SOL    HW232349   1.180   3.911   7.766 -0.1407 -0.2007  1.1109
 6906SOL     OW32350   2.209   0.387   8.643 -0.4084 -0.0704 -0.3432
 6906SOL    HW132351   2.221   0.440   8.722 -0.3756 -0.1829 -0.2721
 6906SOL    HW232352   2.177   0.456   8.585  0.9662 -1.2259 -2.4835
 6907SOL     OW32353   3.313   4.226  10.854 -0.3207 -0.1156 -0.0023
 6907SOL    HW132354   3.267   4.272  10.924  0.0311  0.9625 -0.4873
 6907SOL    HW232355   3.401   4.238  10.889 -0.4365 -2.4569  1.1089
 6908SOL     OW32356   1.691   0.193   2.309  0.6733 -0.3972 -0.0208
 6908SOL    HW132357   1.701   0.274   2.259  0.1810 -1.0301 -1.1698
 6908SOL    HW232358   1.690   0.129   2.237  1.4134  0.7941 -1.0762
 6909SOL     OW32359   4.021   0.903  17.371 -0.2633 -0.5566 -0.1830
 6909SOL    HW132360   3.994   0.814  17.391 -1.9957  0.1901  0.7348
 6909SOL    HW232361   3.972   0.918  17.290 -0.3805 -1.4954 -0.2870
 6910SOL     OW32362   1.528   1.451   3.790  0.2242 -0.2070  0.4721
 6910SOL    HW132363   1.495   1.460   3.701  2.2366  1.4850 -0.0864
 6910SOL    HW232364   1.617   1.484   3.788  0.6215 -1.2223  1.3015
 6911SOL     OW32365   3.259   3.391   7.042 -0.0093  0.2002  0.5198
 6911SOL    HW132366   3.296   3.342   7.116 -1.5022  0.6159  1.5376
 6911SOL    HW232367   3.311   3.364   6.966 -0.2805 -1.1225  0.8011
 6912SOL     OW32368   0.747   3.501   7.888 -0.1558 -0.5103 -0.6434
 6912SOL    HW132369   0.776   3.508   7.979 -0.4494 -1.1512 -0.5034
 6912SOL    HW232370   0.655   3.523   7.906 -0.6436 -3.3524  0.2810
 6913SOL     OW32371   0.842   1.533  10.620  0.2755  0.1641  0.6066
 6913SOL    HW132372   0.796   1.584  10.687 -1.1307 -0.3655  0.0596
 6913SOL    HW232373   0.881   1.475  10.685  2.3108 -1.3529 -1.9675
 6914SOL     OW32374   3.276   2.742  12.787 -0.1655  0.0031  0.1770
 6914SOL    HW132375   3.317   2.807  12.844 -1.5232  2.4025 -1.5504
 6914SOL    HW232376   3.218   2.703  12.852 -2.3474  0.6926 -1.3491
 6915SOL     OW32377   4.496   2.978  15.796  0.1652 -0.2770 -0.1082
 6915SOL    HW132378   4.552   3.009  15.867  0.2374 -2.4559  0.7528
 6915SOL    HW232379   4.556   3.000  15.724  0.2673  1.5334  0.5234
 6916SOL     OW32380   0.606   4.207   9.970 -0.6097 -0.0719  0.4870
 6916SOL    HW132381   0.674   4.275   9.969 -1.1130  0.3586 -2.1860
 6916SOL    HW232382   0.649   4.140  10.023  2.1230  2.6180  1.7244
 6917SOL     OW32383   3.738   3.528  11.783 -0.3496 -0.2616  0.7293
 6917SOL    HW132384   3.818   3.549  11.831  1.6823 -1.1619 -2.2692
 6917SOL    HW232385   3.674   3.515  11.853  1.1205 -1.1698  1.8797
 6918SOL     OW32386   4.614   4.620   3.627  0.5404 -0.2771  0.4077
 6918SOL    HW132387   4.650   4.676   3.558 -0.3008 -2.7807 -2.0403
 6918SOL    HW232388   4.522   4.648   3.630  0.4944 -0.4698  0.7714
 6919SOL     OW32389   2.778   3.758   2.742 -0.0817  0.1403  0.2644
 6919SOL    HW132390   2.705   3.716   2.786  0.7033 -0.3670  1.0876
 6919SOL    HW232391   2.799   3.832   2.799  2.2356  0.8226 -1.4465
 6920SOL     OW32392   2.959   4.315   2.212 -0.2366  0.0040 -0.2482
 6920SOL    HW132393   2.884   4.352   2.259  0.1888 -2.7294  2.5251
 6920SOL    HW232394   2.940   4.355   2.127  1.9680  0.3342 -0.6054
 6921SOL     OW32395   2.125   4.486  15.107  0.0071  0.2178  0.0112
 6921SOL    HW132396   2.173   4.568  15.112 -0.9495  0.6763  1.5552
 6921SOL    HW232397   2.057   4.505  15.042 -0.5440 -0.7317  0.3052
 6922SOL     OW32398   1.690   1.776   5.169 -0.1392  0.1870 -0.3305
 6922SOL    HW132399   1.659   1.761   5.258  2.3147 -0.5728  0.3922
 6922SOL    HW232400   1.723   1.692   5.136 -1.4150 -0.7110  0.6945
 6923SOL     OW32401   3.375   0.093   6.462 -0.2237  0.2580  0.3247
 6923SOL    HW132402   3.439   0.140   6.515  2.2766 -0.0344 -2.4609
 6923SOL    HW232403   3.308   0.160   6.450 -0.9917 -0.1595  2.1430
 6924SOL     OW32404   3.690   4.580   2.411 -0.1971  0.6335 -0.0265
 6924SOL    HW132405   3.783   4.565   2.399 -0.3970  0.6813 -1.6350
 6924SOL    HW232406   3.665   4.498   2.453  1.7361  0.0923  0.0243
 6925SOL     OW32407   4.624   4.664   4.882  0.2838 -0.2626 -0.0811
 6925SOL    HW132408   4.646   0.008   4.924  0.1396  0.1649 -0.8524
 6925SOL    HW232409   4.699   4.610   4.908  0.5284 -0.8945 -2.1216
 6926SOL     OW32410   2.795   0.591   7.662  0.0828 -0.0686 -0.0304
 6926SOL    HW132411   2.815   0.516   7.718  1.7073 -0.2824 -0.8771
 6926SOL    HW232412   2.709   0.566   7.629  0.3780  1.0141 -1.6513
 6927SOL     OW32413   0.230   3.025  10.548  0.3642  0.2028 -0.0940
 6927SOL    HW132414   0.148   2.976  10.554  0.4586  0.0886  0.2798
 6927SOL    HW232415   0.255   3.052  10.636  1.2458 -1.0992  0.0352
 6928SOL     OW32416   3.789   0.477   0.409  0.8468  0.1686 -0.4588
 6928SOL    HW132417   3.739   0.554   0.380  0.6624  0.0624 -0.4231
 6928SOL    HW232418   3.726   0.405   0.413  0.9073  0.2902  2.2234
 6929SOL     OW32419   3.302   1.680   4.831 -0.3725  0.1453  0.2367
 6929SOL    HW132420   3.222   1.662   4.781  0.2203  1.4441 -1.1885
 6929SOL    HW232421   3.380   1.658   4.779  0.4039 -0.0199  1.4825
 6930SOL     OW32422   4.135   2.666   2.551  0.2489 -0.8974 -0.0384
 6930SOL    HW132423   4.045   2.686   2.526  0.2628 -2.0498 -1.0010
 6930SOL    HW232424   4.173   2.639   2.468  0.0667  1.8724 -1.0190
 6931SOL     OW32425   0.670   0.302   2.523 -0.3951  0.7363  0.6476
 6931SOL    HW132426   0.598   0.295   2.461  0.3424  0.5986 -0.1926
 6931SOL    HW232427   0.728   0.360   2.474  0.8558 -1.2814 -0.2333
 6932SOL     OW32428   4.371   3.509  11.817  0.0744  0.1921  0.0477
 6932SOL    HW132429   4.340   3.491  11.728  2.0723  1.1112 -0.8453
 6932SOL    HW232430   4.387   3.419  11.843 -0.2202  0.0395 -0.2912
 6933SOL     OW32431   1.250   3.473   9.119 -0.2580  0.3188  0.6705
 6933SOL    HW132432   1.165   3.445   9.154 -0.1231 -0.1738  0.6061
 6933SOL    HW232433   1.228   3.545   9.060 -0.9054 -0.5909 -0.2024
 6934SOL     OW32434   3.502   3.997   1.494 -0.0109  0.1631  0.0156
 6934SOL    HW132435   3.469   4.079   1.457 -0.1236  0.8922  1.7149
 6934SOL    HW232436   3.455   4.001   1.578 -0.2827 -2.6395 -0.0159
 6935SOL     OW32437   2.651   0.138  15.559  0.6401  0.1379  0.1567
 6935SOL    HW132438   2.711   0.097  15.621  0.7717  2.2880  1.4407
 6935SOL    HW232439   2.582   0.167  15.619  0.0261  1.0703 -1.0109
 6936SOL     OW32440   1.983   3.360   0.585 -0.2809 -0.1782  0.1943
 6936SOL    HW132441   1.890   3.360   0.610 -0.7623  0.5588 -1.5998
 6936SOL    HW232442   1.985   3.456   0.587 -1.4245 -0.1425 -0.2705
 6937SOL     OW32443   1.768   3.044   8.134  0.2625  0.2057 -0.1044
 6937SOL    HW132444   1.817   3.114   8.177 -0.9919  1.6426 -1.0500
 6937SOL    HW232445   1.704   3.031   8.205  0.1631  2.4527  0.1908
 6938SOL     OW32446   1.890   3.829   1.631 -0.2532  0.4181 -0.2237
 6938SOL    HW132447   1.961   3.884   1.663  0.6940 -1.7315  1.3341
 6938SOL    HW232448   1.880   3.760   1.697  0.3919 -0.5426 -1.1259
 6939SOL     OW32449   1.570   1.884   7.212  0.4960 -0.1539  0.0504
 6939SOL    HW132450   1.497   1.946   7.203  1.4631  0.7440 -1.7149
 6939SOL    HW232451   1.618   1.927   7.283 -0.0609 -1.6713  1.3233
 6940SOL     OW32452   1.122   2.199  12.821  0.6278 -0.0818  0.3262
 6940SOL    HW132453   1.092   2.214  12.910 -0.4343  0.0148 -0.0367
 6940SOL    HW232454   1.041   2.152  12.797 -1.0676  3.0637 -0.0571
 6941SOL     OW32455   4.175   1.743   6.496 -0.2870 -0.1496  0.0587
 6941SOL    HW132456   4.130   1.827   6.503  0.0758  0.1138 -0.8452
 6941SOL    HW232457   4.265   1.775   6.493 -0.5668  0.4737 -1.5862
 6942SOL     OW32458   2.630   3.521   2.842 -0.1695 -0.1233 -0.5282
 6942SOL    HW132459   2.553   3.479   2.879  0.0437  0.7531  0.8854
 6942SOL    HW232460   2.706   3.487   2.889 -2.2568  0.1094  2.9581
 6943SOL     OW32461   3.264   3.818   4.165 -0.1294  0.2445 -0.0469
 6943SOL    HW132462   3.208   3.894   4.152 -0.8628 -0.6117 -1.9120
 6943SOL    HW232463   3.205   3.753   4.202 -2.5038  2.5443  0.1905
 6944SOL     OW32464   2.390   1.831   8.972  0.2791 -0.6137  0.2692
 6944SOL    HW132465   2.403   1.758   9.032 -0.8943 -1.6443 -0.7374
 6944SOL    HW232466   2.441   1.798   8.897 -0.7616  0.8793 -1.1056
 6945SOL     OW32467   1.196   2.525   2.308 -0.0225 -0.3053  0.0592
 6945SOL    HW132468   1.135   2.550   2.239  0.1851 -1.2705 -0.4682
 6945SOL    HW232469   1.239   2.610   2.322  1.1618 -0.7759 -0.7029
 6946SOL     OW32470   1.781   4.518   3.094  0.2756 -0.0243 -0.1993
 6946SOL    HW132471   1.857   4.556   3.051  0.2770 -0.3788 -0.5168
 6946SOL    HW232472   1.812   4.451   3.155  0.0229  1.8030  1.9240
 6947SOL     OW32473   1.554   2.298  14.869  0.0510  0.2190 -0.4944
 6947SOL    HW132474   1.624   2.322  14.808  0.6763 -2.0197 -0.6831
 6947SOL    HW232475   1.513   2.381  14.891  1.3663  0.8823 -0.5019
 6948SOL     OW32476   2.029   0.884   4.709 -0.4438  0.0654  0.5935
 6948SOL    HW132477   1.947   0.840   4.734  0.0092 -2.0078 -1.5181
 6948SOL    HW232478   2.084   0.875   4.787 -1.0360 -2.4720  0.7250
 6949SOL     OW32479   2.180   0.382   9.307  0.1653 -0.7553 -0.3125
 6949SOL    HW132480   2.119   0.314   9.335 -0.5274 -0.0683 -0.1513
 6949SOL    HW232481   2.201   0.372   9.214 -0.4256 -3.5061 -0.1588
 6950SOL     OW32482   0.172   2.136   5.314 -0.4605  0.1789 -0.2412
 6950SOL    HW132483   0.095   2.192   5.321 -0.7719  0.0478 -2.4323
 6950SOL    HW232484   0.212   2.138   5.400  1.1057  0.5314 -0.9723
 6951SOL     OW32485   3.423   3.414   5.132  0.1158 -0.4855 -0.3779
 6951SOL    HW132486   3.389   3.504   5.135 -3.6071 -1.8720 -0.7974
 6951SOL    HW232487   3.514   3.435   5.151 -0.4007  1.4065  0.0070
 6952SOL     OW32488   4.343   4.554   9.314  0.1586  1.0776 -0.0825
 6952SOL    HW132489   4.353   4.558   9.409 -0.8213  1.7658 -0.0035
 6952SOL    HW232490   4.348   4.459   9.303 -0.2246  0.8178  2.0492
 6953SOL     OW32491   3.023   0.678   2.005  0.2986  0.0705  0.2995
 6953SOL    HW132492   3.107   0.709   1.970 -0.6898 -1.0948 -3.0711
 6953SOL    HW232493   3.047   0.589   2.030 -1.4084  0.6661  4.0083
 6954SOL     OW32494   1.296   2.698   2.609  0.9176  0.3213 -0.1201
 6954SOL    HW132495   1.213   2.651   2.601  0.8257  0.4059  0.3766
 6954SOL    HW232496   1.335   2.647   2.680 -4.1863 -2.1053  0.9387
 6955SOL     OW32497   3.657   0.200   7.688 -0.6029  0.9102 -0.1895
 6955SOL    HW132498   3.666   0.164   7.776  0.3455  1.8011  0.0734
 6955SOL    HW232499   3.712   0.277   7.697 -0.3251  0.4405  2.0806
 6956SOL     OW32500   1.413   3.021  16.703 -0.2748  0.0707  0.1466
 6956SOL    HW132501   1.390   3.086  16.769 -0.3696  0.0800  0.1035
 6956SOL    HW232502   1.434   3.073  16.626 -1.0611  0.7385  0.3892
 6957SOL     OW32503   3.726   4.655  12.043  0.4925  0.5205 -0.1784
 6957SOL    HW132504   3.697   4.564  12.056 -1.2196  1.1125  0.1356
 6957SOL    HW232505   3.815   4.623  12.030  0.2696 -0.6245  1.0029
 6958SOL     OW32506   3.601   4.561  14.228 -0.5842 -0.3184 -0.0991
 6958SOL    HW132507   3.665   4.510  14.278  0.9937  4.0281  2.3434
 6958SOL    HW232508   3.536   4.492  14.211 -1.8178  0.8201  0.0458
 6959SOL     OW32509   2.665   1.970   4.274  0.1719  0.6197  0.5510
 6959SOL    HW132510   2.700   2.045   4.226  0.3139 -0.1486 -0.5737
 6959SOL    HW232511   2.739   1.931   4.320  0.2573  1.5213  1.1644
 6960SOL     OW32512   3.932   4.717   4.549  0.2303 -0.0000  0.4937
 6960SOL    HW132513   3.964   0.067   4.552  1.0315 -0.2839  0.3152
 6960SOL    HW232514   4.013   4.667   4.552  1.3902  1.7534 -1.8275
 6961SOL     OW32515   3.108   1.262  13.392  0.2307 -0.4687 -0.4606
 6961SOL    HW132516   3.082   1.174  13.420 -0.1706  0.0528  0.7882
 6961SOL    HW232517   3.126   1.301  13.477  3.0036  0.6331 -1.5218
 6962SOL     OW32518   4.428   3.956   9.852  0.1275 -0.0381 -0.6496
 6962SOL    HW132519   4.523   3.963   9.841  0.0964 -0.9345 -1.5643
 6962SOL    HW232520   4.411   3.877   9.801  2.4598  0.1564 -1.7065
 6963SOL     OW32521   4.045   3.620   7.860 -0.2378 -0.1607  0.4278
 6963SOL    HW132522   3.956   3.604   7.829  0.2432  0.4380 -1.2627
 6963SOL    HW232523   4.034   3.714   7.876  0.5622 -0.0798  0.4819
 6964SOL     OW32524   1.858   1.374  12.508 -0.4677  0.5216 -0.1862
 6964SOL    HW132525   1.821   1.401  12.424 -1.4605  0.7463  0.3370
 6964SOL    HW232526   1.782   1.324  12.538 -0.7207  0.4125 -1.0013
 6965SOL     OW32527   1.589   1.732  12.406 -0.6389  0.8101 -0.1255
 6965SOL    HW132528   1.531   1.787  12.353 -1.6806  0.3953  0.5799
 6965SOL    HW232529   1.673   1.776  12.389  0.4110 -1.4074 -0.6096
 6966SOL     OW32530   2.354   4.528   6.299 -0.0251  0.1402 -0.5894
 6966SOL    HW132531   2.376   4.609   6.252 -0.0296  1.3563  1.5396
 6966SOL    HW232532   2.427   4.522   6.360  0.0807 -1.8049 -0.8936
 6967SOL     OW32533   3.502   0.102   1.787  0.0169 -0.2944  0.1282
 6967SOL    HW132534   3.485   0.179   1.840  4.5171 -1.1847  2.8152
 6967SOL    HW232535   3.426   0.052   1.816  0.1403 -0.3330  0.3788
 6968SOL     OW32536   0.583   4.509   7.246  0.0383  0.7443  0.3799
 6968SOL    HW132537   0.654   4.514   7.182 -0.3988 -2.1320 -0.3057
 6968SOL    HW232538   0.521   4.452   7.201  1.9036  0.0379 -1.3109
 6969SOL     OW32539   0.736   0.138   0.833  0.0921  0.1132  0.0255
 6969SOL    HW132540   0.822   0.116   0.869  0.3783  3.0182  1.1100
 6969SOL    HW232541   0.730   0.076   0.759  1.8780 -0.1311  0.0811
 6970SOL     OW32542   0.863   0.439  10.563  0.1733 -0.3215  0.5577
 6970SOL    HW132543   0.933   0.374  10.570  1.4138  1.0607  0.9782
 6970SOL    HW232544   0.902   0.509  10.510 -0.0400 -0.6696 -0.0509
 6971SOL     OW32545   2.108   1.312   8.336  0.1261  0.0063 -0.0251
 6971SOL    HW132546   2.186   1.362   8.359 -0.2717  0.0590  1.2080
 6971SOL    HW232547   2.060   1.382   8.292 -0.3793 -0.9689 -1.0077
 6972SOL     OW32548   1.588   0.513   3.177 -0.5879  0.6244 -0.5503
 6972SOL    HW132549   1.636   0.449   3.229 -0.8848  1.1971  0.4128
 6972SOL    HW232550   1.652   0.584   3.165  2.3070 -1.9635 -0.5755
 6973SOL     OW32551   4.702   3.348  17.484 -0.4078 -0.2269  0.3352
 6973SOL    HW132552   4.719   3.297  17.405 -1.9963 -0.9269  0.4499
 6973SOL    HW232553   0.010   3.428  17.466  0.9367 -1.4239 -1.4256
 6974SOL     OW32554   4.426   1.791   9.587  0.1561  0.0666 -0.0290
 6974SOL    HW132555   4.372   1.851   9.537 -0.3051 -1.4553 -1.3396
 6974SOL    HW232556   4.519   1.805   9.569  0.2736  0.9329  1.2614
 6975SOL     OW32557   3.513   4.191  13.491  0.3952  0.1327 -0.5036
 6975SOL    HW132558   3.464   4.163  13.414 -2.3799  2.0818  0.5404
 6975SOL    HW232559   3.434   4.206  13.544  0.3841  0.6367 -0.6599
 6976SOL     OW32560   3.808   1.188   8.922  0.1130 -0.4228  0.2265
 6976SOL    HW132561   3.872   1.125   8.956 -0.0360  0.4943  2.2123
 6976SOL    HW232562   3.861   1.218   8.848  0.6302 -0.6697  0.4949
 6977SOL     OW32563   4.470   1.196   7.011  0.3337 -0.6098  0.2351
 6977SOL    HW132564   4.468   1.215   7.104 -0.4270  0.0922  0.0716
 6977SOL    HW232565   4.514   1.275   6.980 -0.9079 -0.5100 -1.3105
 6978SOL     OW32566   3.233   4.000   8.142  0.0403 -0.4583  0.1991
 6978SOL    HW132567   3.171   4.016   8.214 -0.4602  1.3876 -0.6219
 6978SOL    HW232568   3.253   3.907   8.147  1.7746  0.0170  1.9106
 6979SOL     OW32569   1.937   1.775   4.316 -0.3632 -0.3233  0.3682
 6979SOL    HW132570   1.973   1.721   4.245 -0.1538  1.5046 -0.9153
 6979SOL    HW232571   2.011   1.769   4.377  0.1882  1.7429 -0.0934
 6980SOL     OW32572   1.724   1.548  11.503 -0.2800 -0.0741 -0.6655
 6980SOL    HW132573   1.713   1.453  11.505  1.7528 -0.2489  1.6914
 6980SOL    HW232574   1.719   1.559  11.408  2.1507  1.3087 -0.6252
 6981SOL     OW32575   1.682   1.618   3.564  0.3893 -0.5432  0.3606
 6981SOL    HW132576   1.735   1.543   3.538 -0.2201 -0.6753 -0.5095
 6981SOL    HW232577   1.678   1.667   3.483  0.2963 -0.2275  0.5564
 6982SOL     OW32578   2.816   0.400  11.238 -0.5957 -0.2151 -0.8382
 6982SOL    HW132579   2.721   0.405  11.246 -0.3904  0.6533  1.0221
 6982SOL    HW232580   2.814   0.320  11.184  0.4620 -0.5073 -0.4358
 6983SOL     OW32581   3.658   3.787  12.079 -0.1337 -0.3864 -0.4919
 6983SOL    HW132582   3.704   3.799  12.161 -2.8196 -1.4734  1.1861
 6983SOL    HW232583   3.651   3.693  12.062 -0.8955 -0.0316 -2.2247
 6984SOL     OW32584   1.147   3.531   5.530 -0.0946 -0.1644 -0.1898
 6984SOL    HW132585   1.113   3.442   5.518 -0.2117 -0.1111 -0.2482
 6984SOL    HW232586   1.224   3.507   5.581  1.7716  1.0134 -2.4307
 6985SOL     OW32587   1.193   4.339   7.251 -0.8333  0.1012 -0.0279
 6985SOL    HW132588   1.262   4.377   7.306 -0.9955  0.7330 -0.2569
 6985SOL    HW232589   1.175   4.408   7.187  2.0591 -0.7542 -1.7454
 6986SOL     OW32590   2.086   3.586   5.802  0.1403  0.0287  0.3980
 6986SOL    HW132591   2.137   3.642   5.743 -0.0873  1.7558  1.8166
 6986SOL    HW232592   2.132   3.505   5.783 -1.2280 -0.3208 -1.4124
 6987SOL     OW32593   4.216   2.674  10.249  0.3531  0.0078  0.1376
 6987SOL    HW132594   4.128   2.690  10.214  0.0963  1.0436  1.2920
 6987SOL    HW232595   4.255   2.759  10.228  0.3762 -0.6903 -2.6625
 6988SOL     OW32596   2.426   3.611  11.823 -0.0819  0.0495 -0.5036
 6988SOL    HW132597   2.376   3.556  11.883 -0.4841 -0.1420 -1.0155
 6988SOL    HW232598   2.358   3.602  11.756 -2.9124  1.0589  2.2891
 6989SOL     OW32599   0.930   2.813  17.574  0.4726  0.4511 -0.0084
 6989SOL    HW132600   1.002   2.808  17.512  1.5750 -0.1802  1.3053
 6989SOL    HW232601   0.922   2.719  17.591  0.8186  0.5309  0.6149
 6990SOL     OW32602   1.405   0.087  13.399 -0.0587 -0.0051  0.1469
 6990SOL    HW132603   1.411   0.086  13.495 -1.1421 -0.2334  0.2129
 6990SOL    HW232604   1.398   0.179  13.374 -0.3049  0.6622  2.6272
 6991SOL     OW32605   2.977   2.464   8.787 -0.4315  0.1280 -0.2937
 6991SOL    HW132606   2.958   2.554   8.812  0.6976  0.2796 -0.0213
 6991SOL    HW232607   2.890   2.435   8.758 -0.0301 -1.7024  0.3468
 6992SOL     OW32608   1.086   0.281   8.088 -0.0324  0.0921 -0.4877
 6992SOL    HW132609   1.116   0.191   8.079  2.5498  0.9423 -0.4869
 6992SOL    HW232610   0.991   0.276   8.099 -0.1213  0.2834 -1.2217
 6993SOL     OW32611   2.571   3.887   3.564 -0.0915  0.5295  0.0284
 6993SOL    HW132612   2.515   3.965   3.569 -0.5562  0.1778  0.3372
 6993SOL    HW232613   2.599   3.896   3.473  2.2866  1.4473  0.8583
 6994SOL     OW32614   1.539   4.359   5.879  0.1826 -0.3702 -0.4191
 6994SOL    HW132615   1.564   4.424   5.945  0.2073  0.3270 -1.1053
 6994SOL    HW232616   1.576   4.277   5.912 -0.2744  0.0144  1.0604
 6995SOL     OW32617   1.253   4.260  12.537  0.6696  0.2148 -0.6190
 6995SOL    HW132618   1.184   4.312  12.579 -0.2420 -1.4127 -0.0776
 6995SOL    HW232619   1.185   4.196  12.515  1.1127  0.0605 -1.5019
 6996SOL     OW32620   0.878   1.068   4.063  0.2683 -0.0836  0.2238
 6996SOL    HW132621   0.942   1.021   4.116 -2.5130 -2.4139  1.4755
 6996SOL    HW232622   0.847   1.121   4.136  1.6996  1.2391 -0.1175
 6997SOL     OW32623   2.706   4.538  11.415 -0.9496  0.3435  0.0840
 6997SOL    HW132624   2.663   4.462  11.454 -0.4084 -1.0288 -1.9701
 6997SOL    HW232625   2.642   4.602  11.383 -1.2122  0.1874  0.2984
 6998SOL     OW32626   4.701   2.579   8.327 -0.3518  0.0279 -0.3261
 6998SOL    HW132627   0.053   2.606   8.336 -0.3806 -0.0117  0.0940
 6998SOL    HW232628   4.659   2.611   8.407 -0.2532 -1.2745  0.2354
 6999SOL     OW32629   0.936   2.189  11.275  0.5795 -0.1172  0.0818
 6999SOL    HW132630   0.944   2.193  11.180 -0.4403  0.8275  0.0289
 6999SOL    HW232631   0.884   2.267  11.297 -1.5067 -1.7462  0.9473
 7000SOL     OW32632   3.871   4.592   0.623 -0.2124  0.0270 -0.0013
 7000SOL    HW132633   3.859   4.618   0.715  2.6215  0.9623  0.1033
 7000SOL    HW232634   3.965   4.573   0.623 -0.1982  0.0961 -0.3651
 7001SOL     OW32635   3.606   2.199   6.787 -0.1964 -0.6918 -0.4399
 7001SOL    HW132636   3.660   2.222   6.712 -0.2339  0.5749 -0.0707
 7001SOL    HW232637   3.547   2.274   6.800  0.7858 -0.1291  0.7358
 7002SOL     OW32638   1.169   0.203   7.776  0.0975  0.9901 -0.3208
 7002SOL    HW132639   1.089   0.242   7.812  0.1310  0.6642  0.1074
 7002SOL    HW232640   1.150   0.110   7.791 -1.0736  1.2949  0.0371
 7003SOL     OW32641   2.932   2.156   5.320 -0.5096 -0.3873  0.2840
 7003SOL    HW132642   2.935   2.177   5.413 -4.4449  3.6219 -0.4907
 7003SOL    HW232643   3.011   2.206   5.298 -1.3886  0.8325 -0.1361
 7004SOL     OW32644   3.227   2.249   7.923 -0.1055  0.0042  0.0494
 7004SOL    HW132645   3.139   2.222   7.896 -0.0457 -1.2861  1.1674
 7004SOL    HW232646   3.272   2.176   7.881 -0.8516 -0.9501  0.9039
 7005SOL     OW32647   4.241   3.338   5.908  0.9666  0.6830  0.0462
 7005SOL    HW132648   4.172   3.403   5.890  0.2866 -0.2863 -0.8501
 7005SOL    HW232649   4.215   3.301   5.993  0.6136 -0.1668 -0.4335
 7006SOL     OW32650   1.610   1.920   8.486 -0.5735  0.6218 -1.0077
 7006SOL    HW132651   1.553   1.983   8.529  1.7629 -0.2526  3.3948
 7006SOL    HW232652   1.548   1.849   8.471  1.0461 -0.7721 -1.1331
 7007SOL     OW32653   4.338   1.026  13.206  0.6179  0.0174  0.2845
 7007SOL    HW132654   4.346   1.055  13.115  0.0036 -3.0791 -0.7535
 7007SOL    HW232655   4.422   1.051  13.245  0.8442 -0.5665  0.1829
 7008SOL     OW32656   2.141   3.411  11.264  0.3483 -0.5049 -0.6425
 7008SOL    HW132657   2.083   3.355  11.316  1.2945 -0.4451  0.4778
 7008SOL    HW232658   2.219   3.411  11.319  1.1670  0.8886 -1.7811
 7009SOL     OW32659   2.457   2.904   3.658  0.1613  0.5827 -0.7026
 7009SOL    HW132660   2.497   2.877   3.576 -0.9520 -1.0181 -0.7145
 7009SOL    HW232661   2.508   2.982   3.679 -1.4733  1.1525  1.1230
 7010SOL     OW32662   1.039   1.897  12.149 -0.1470 -0.8104  0.4026
 7010SOL    HW132663   1.027   1.863  12.238 -0.5569  0.7603  0.9654
 7010SOL    HW232664   0.993   1.981  12.156 -0.3225 -0.9904  1.4958
 7011SOL     OW32665   2.481   4.107  14.855  0.1579 -0.4914 -0.4299
 7011SOL    HW132666   2.464   4.150  14.939 -2.6467 -2.2576 -0.0749
 7011SOL    HW232667   2.521   4.173  14.798  1.9831 -0.8872  0.4219
 7012SOL     OW32668   4.203   1.004  12.798 -0.1767  0.3307  0.1414
 7012SOL    HW132669   4.204   1.049  12.883  0.9778 -1.5590  1.1436
 7012SOL    HW232670   4.110   1.003  12.778 -0.4125 -0.0011  1.2513
 7013SOL     OW32671   2.906   1.580   4.428 -0.5833 -0.6221  0.2660
 7013SOL    HW132672   2.914   1.579   4.332  0.8984 -0.8489  0.3934
 7013SOL    HW232673   2.969   1.510   4.444  0.6518  0.7222  1.2463
 7014SOL     OW32674   2.369   2.364   5.851  0.2122  0.0632 -0.1365
 7014SOL    HW132675   2.288   2.316   5.865  2.9577 -3.5409  3.0845
 7014SOL    HW232676   2.370   2.436   5.914 -1.6927  0.4997 -0.6125
 7015SOL     OW32677   1.446   2.746  12.290  0.2547 -0.2989 -0.0979
 7015SOL    HW132678   1.537   2.765  12.313 -0.1690  1.6747 -0.0543
 7015SOL    HW232679   1.456   2.721  12.198  0.7036  0.7170 -0.3271
 7016SOL     OW32680   4.136   4.044   4.462  0.0216  0.2306  0.1766
 7016SOL    HW132681   4.213   4.093   4.431  0.0246 -0.0497 -0.2624
 7016SOL    HW232682   4.071   4.113   4.472 -0.6925 -0.0744 -2.4736
 7017SOL     OW32683   1.900   1.841  11.837  0.2885  0.0346  0.6583
 7017SOL    HW132684   1.953   1.910  11.797 -2.0533  1.4274 -0.1055
 7017SOL    HW232685   1.839   1.889  11.892 -0.4141  1.1706 -1.0983
 7018SOL     OW32686   4.714   0.908   2.377 -0.3419 -0.6795  0.1803
 7018SOL    HW132687   4.629   0.947   2.393  0.6479  1.7996 -0.7037
 7018SOL    HW232688   4.693   0.816   2.360  1.1278 -1.5778  3.2285
 7019SOL     OW32689   2.658   2.115   3.071 -0.0902  0.0480  0.2393
 7019SOL    HW132690   2.735   2.169   3.086  1.3498 -1.6813 -0.9957
 7019SOL    HW232691   2.602   2.147   3.141  0.9376 -1.1148  1.5952
 7020SOL     OW32692   4.530   3.267   6.457 -0.0483 -0.5093  0.3897
 7020SOL    HW132693   4.583   3.290   6.381 -2.8023  1.7993 -0.8356
 7020SOL    HW232694   4.588   3.288   6.530  0.1103  0.3044  0.0272
 7021SOL     OW32695   1.844   3.228  15.829  0.1357 -0.4843 -0.4762
 7021SOL    HW132696   1.866   3.320  15.814  0.2310 -0.5615 -0.8214
 7021SOL    HW232697   1.750   3.246  15.827  0.6817  2.5927  3.3110
 7022SOL     OW32698   3.959   0.588  10.757  0.5182 -0.1582 -0.0967
 7022SOL    HW132699   3.975   0.600  10.851  1.7310  0.4157 -0.3735
 7022SOL    HW232700   3.912   0.669  10.738 -0.2178 -1.0161 -1.9317
 7023SOL     OW32701   4.168   0.598   9.098 -0.1077  0.3476 -0.0902
 7023SOL    HW132702   4.088   0.636   9.135  0.8252  0.0499  2.2370
 7023SOL    HW232703   4.125   0.529   9.048 -0.3622 -1.5281  2.7165
 7024SOL     OW32704   3.907   3.948  16.599  0.6349 -0.3019  0.1043
 7024SOL    HW132705   3.913   4.041  16.622  2.3742 -0.4913  0.3967
 7024SOL    HW232706   3.887   3.901  16.680  0.0334 -4.1277 -2.2958
 7025SOL     OW32707   3.222   4.447  17.616  0.2977  0.0551  0.2034
 7025SOL    HW132708   3.239   4.358  17.587 -0.9590 -1.2608  3.5036
 7025SOL    HW232709   3.139   4.436  17.662  0.2150  1.5099  0.4047
 7026SOL     OW32710   0.509   4.232   7.613 -0.0024 -0.2209 -0.6740
 7026SOL    HW132711   0.529   4.155   7.559 -0.7910  0.1773 -1.5416
 7026SOL    HW232712   0.414   4.245   7.606  0.1013 -0.0294 -1.6846
 7027SOL     OW32713   1.417   1.862   3.981  0.2664  0.1354 -0.0206
 7027SOL    HW132714   1.492   1.807   4.006  0.8580  0.4477 -1.1000
 7027SOL    HW232715   1.372   1.867   4.065  2.0599  0.2139  0.9373
 7028SOL     OW32716   4.720   2.229  11.075  0.2565 -0.1570 -0.0152
 7028SOL    HW132717   4.634   2.196  11.051  1.2909 -3.0939  0.3904
 7028SOL    HW232718   4.684   2.317  11.088  1.5325  0.2390  0.9094
 7029SOL     OW32719   2.851   3.209   3.988 -0.7772 -0.1931 -0.2154
 7029SOL    HW132720   2.882   3.193   3.899  0.4854  1.3577 -0.0396
 7029SOL    HW232721   2.826   3.120   4.015  1.3082 -0.2934  1.3705
 7030SOL     OW32722   0.603   4.049   5.403 -0.0347  0.6779  0.5651
 7030SOL    HW132723   0.548   4.125   5.382 -0.4555  0.1260 -0.3231
 7030SOL    HW232724   0.625   4.072   5.493 -0.7897 -0.2489  0.9933
 7031SOL     OW32725   0.240   3.283   2.078  0.0134 -0.1179  0.0357
 7031SOL    HW132726   0.173   3.340   2.116  0.0474  1.2221 -1.9469
 7031SOL    HW232727   0.233   3.314   1.988  0.6183  0.8473  0.3158
 7032SOL     OW32728   1.355   1.462  15.668  0.2052 -0.0055  0.2657
 7032SOL    HW132729   1.441   1.421  15.659  0.1530  0.4676 -2.2902
 7032SOL    HW232730   1.314   1.432  15.587  2.6113  1.0187 -1.3209
 7033SOL     OW32731   0.901   2.235   7.710  0.3175 -0.8510  0.9960
 7033SOL    HW132732   0.822   2.289   7.715  0.6568 -0.3002  0.4558
 7033SOL    HW232733   0.892   2.182   7.631 -3.7616 -0.2533  1.0450
 7034SOL     OW32734   0.795   4.257   5.692 -0.0993  0.0857 -0.2420
 7034SOL    HW132735   0.837   4.280   5.775 -0.1922  2.0432 -0.7362
 7034SOL    HW232736   0.735   4.332   5.691 -0.1965  0.0044 -0.5246
 7035SOL     OW32737   2.218   2.611  11.917  0.3106 -0.4423 -0.1973
 7035SOL    HW132738   2.219   2.520  11.948 -2.2602 -1.2899 -2.5861
 7035SOL    HW232739   2.203   2.650  12.003  0.6379  1.0324 -0.8149
 7036SOL     OW32740   0.431   2.093   2.603 -0.8034 -0.5565 -0.3047
 7036SOL    HW132741   0.466   2.141   2.678 -1.7450 -1.8138  0.9272
 7036SOL    HW232742   0.470   2.009   2.628 -0.6609 -1.1403 -2.5262
 7037SOL     OW32743   3.508   0.532   2.987  0.5987  0.3684  0.2258
 7037SOL    HW132744   3.458   0.531   3.069 -0.2159 -3.9124 -0.3045
 7037SOL    HW232745   3.595   0.511   3.020  1.1926 -0.5968 -1.9887
 7038SOL     OW32746   4.141   0.556   2.723  0.5507  0.0487 -0.4308
 7038SOL    HW132747   4.071   0.618   2.743  2.4053  1.6951  0.9996
 7038SOL    HW232748   4.148   0.561   2.628 -0.0298 -0.6525 -0.5075
 7039SOL     OW32749   4.338   4.130  12.916 -0.1646  0.3626 -0.6492
 7039SOL    HW132750   4.280   4.202  12.942 -2.0001 -1.1843 -0.4852
 7039SOL    HW232751   4.401   4.128  12.987 -1.3547 -2.6023  0.3151
 7040SOL     OW32752   1.523   2.781   9.592 -0.0527  0.4798 -0.0336
 7040SOL    HW132753   1.605   2.827   9.610  0.6891 -1.5481  1.7117
 7040SOL    HW232754   1.519   2.801   9.499 -0.9803  4.3201  0.8292
 7041SOL     OW32755   0.216   2.244   7.207 -0.4725 -0.1307  0.0402
 7041SOL    HW132756   0.180   2.191   7.278 -1.0234 -1.4313 -1.1937
 7041SOL    HW232757   0.296   2.278   7.246 -1.0293  0.3174  0.7910
 7042SOL     OW32758   0.677   4.647   6.821  0.2154 -0.1438  0.3218
 7042SOL    HW132759   0.599   4.657   6.876 -0.3960  0.3555 -0.6444
 7042SOL    HW232760   0.738   4.619   6.889 -3.6153 -2.1945  2.9285
 7043SOL     OW32761   1.244   4.068   3.423 -0.1317  0.7797  0.1798
 7043SOL    HW132762   1.305   4.123   3.473 -0.3598 -0.7022  2.1078
 7043SOL    HW232763   1.216   4.121   3.349  2.6275 -0.0633 -1.4719
 7044SOL     OW32764   1.766   2.210   4.124  0.1748 -0.4745 -0.1580
 7044SOL    HW132765   1.701   2.147   4.155 -1.7286  2.5887  2.1247
 7044SOL    HW232766   1.837   2.202   4.188  1.0434  0.4086 -1.0134
 7045SOL     OW32767   2.565   1.682   3.696 -0.2631  0.0988 -0.1303
 7045SOL    HW132768   2.522   1.727   3.769  1.2285  1.2297  0.0544
 7045SOL    HW232769   2.633   1.630   3.739 -1.7987 -1.6220  0.2458
 7046SOL     OW32770   0.332   0.168   8.111  0.4934  0.4848 -0.1186
 7046SOL    HW132771   0.348   0.089   8.061 -3.9355 -1.0260  0.8021
 7046SOL    HW232772   0.413   0.179   8.160  0.4569 -0.2391  0.0973
 7047SOL     OW32773   3.096   3.030   8.005  0.3304 -0.1195 -0.2320
 7047SOL    HW132774   3.067   3.098   7.944  0.3237  0.1453  0.0683
 7047SOL    HW232775   3.177   3.073   8.035  0.2808 -0.4385  0.3560
 7048SOL     OW32776   1.313   4.507   7.716  0.2259 -0.6346  0.0003
 7048SOL    HW132777   1.400   4.499   7.753  0.2374  2.3312  0.6261
 7048SOL    HW232778   1.305   4.429   7.661  0.0368 -0.5299 -0.1233
 7049SOL     OW32779   3.744   3.829   7.345 -0.3160 -0.3546  0.1797
 7049SOL    HW132780   3.800   3.903   7.369  1.9813 -2.6303  1.7755
 7049SOL    HW232781   3.808   3.779   7.296 -0.1013  1.6197 -1.5696
 7050SOL     OW32782   3.458   3.260   6.512 -0.0474 -0.3189  0.5070
 7050SOL    HW132783   3.458   3.166   6.498  1.2928 -0.3694  0.8433
 7050SOL    HW232784   3.512   3.284   6.586  2.8956 -2.4452 -0.9607
 7051SOL     OW32785   2.857   4.373   5.697  0.1507 -0.2829  0.3059
 7051SOL    HW132786   2.935   4.321   5.717  0.2879  0.0431  0.6155
 7051SOL    HW232787   2.823   4.382   5.786 -0.9858 -0.7624 -0.0877
 7052SOL     OW32788   0.817   3.166  13.474 -0.4173 -0.1443  0.3000
 7052SOL    HW132789   0.798   3.073  13.465  3.9178 -0.8627 -1.4197
 7052SOL    HW232790   0.799   3.166  13.568 -0.8081  2.6103  0.2250
 7053SOL     OW32791   2.064   2.465   2.659 -0.3452 -0.0616 -0.8295
 7053SOL    HW132792   2.138   2.523   2.677 -1.0568  0.3804  0.6634
 7053SOL    HW232793   2.096   2.393   2.713 -0.0543 -0.6366 -1.7755
 7054SOL     OW32794   2.775   3.458   1.711 -0.5083  0.4996  0.0209
 7054SOL    HW132795   2.790   3.513   1.634  1.2293  0.7437  0.5290
 7054SOL    HW232796   2.721   3.392   1.669  0.8483 -1.1917  0.9204
 7055SOL     OW32797   3.425   3.558  13.948  0.3260  0.0708  0.0856
 7055SOL    HW132798   3.498   3.598  13.996  0.7286  1.8282 -2.0385
 7055SOL    HW232799   3.374   3.638  13.957  0.6337  0.5298 -2.5214
 7056SOL     OW32800   1.314   0.631   4.467 -0.1198  0.1627  0.4509
 7056SOL    HW132801   1.386   0.676   4.512 -1.1305  1.4779  0.7532
 7056SOL    HW232802   1.275   0.577   4.535  1.0232 -1.2531 -0.0154
 7057SOL     OW32803   2.353   3.886   1.821  0.5055  0.4294  0.3779
 7057SOL    HW132804   2.398   3.802   1.815  1.7685  1.3122 -2.3981
 7057SOL    HW232805   2.397   3.938   1.888  0.1761  1.5246 -0.2496
 7058SOL     OW32806   0.745   1.549   5.386 -0.1426 -0.2247  0.1413
 7058SOL    HW132807   0.709   1.590   5.465 -1.1863 -0.6713 -0.0989
 7058SOL    HW232808   0.825   1.599   5.371  0.6489 -2.2231 -2.3275
 7059SOL     OW32809   3.103   0.509  13.194 -0.1595  0.0022  0.3014
 7059SOL    HW132810   3.176   0.447  13.194 -0.2198 -0.0633 -0.3306
 7059SOL    HW232811   3.026   0.453  13.182  0.2987 -0.2090 -1.6019
 7060SOL     OW32812   0.076   4.646   3.995 -0.3034  0.0637  0.0063
 7060SOL    HW132813   0.044   4.701   3.924 -2.3347 -0.2491  0.6655
 7060SOL    HW232814   0.116   4.720   4.041 -0.7239 -0.9533  2.0183
 7061SOL     OW32815   3.769   1.478   5.386 -0.1914  0.1658 -0.2027
 7061SOL    HW132816   3.777   1.479   5.481 -0.0913  1.1464 -0.2242
 7061SOL    HW232817   3.771   1.386   5.358 -0.5829  1.0328 -3.0582
 7062SOL     OW32818   2.983   3.293  10.041 -0.7193  0.3612 -0.1477
 7062SOL    HW132819   2.922   3.310   9.970 -0.9113  2.4401  0.5068
 7062SOL    HW232820   2.975   3.198  10.040  2.7306  0.0861 -2.6066
 7063SOL     OW32821   3.010   0.016  11.615  0.2681 -0.0764  0.0910
 7063SOL    HW132822   2.997   4.675  11.664 -3.0122  0.7840  0.6729
 7063SOL    HW232823   3.041   0.074  11.684 -0.0439  0.4774 -0.2351
 7064SOL     OW32824   2.041   4.651  13.956  0.2945 -0.0126 -0.4922
 7064SOL    HW132825   1.955   4.689  13.974  0.6456  0.6502 -0.2214
 7064SOL    HW232826   2.028   4.556  13.946  0.2152 -0.1090  0.5776
 7065SOL     OW32827   3.648   0.845   9.419 -0.3991 -0.0789 -0.1693
 7065SOL    HW132828   3.708   0.772   9.405  0.9975  0.9577  0.3826
 7065SOL    HW232829   3.600   0.861   9.338 -1.2855 -1.5197  0.0746
 7066SOL     OW32830   4.133   3.790   3.475 -0.1380 -0.0477 -0.2393
 7066SOL    HW132831   4.214   3.841   3.481  0.6559 -1.3615  0.0571
 7066SOL    HW232832   4.136   3.740   3.556 -1.6282  1.5736  0.8220
 7067SOL     OW32833   3.995   1.260   8.735  0.2202  0.3440  0.7411
 7067SOL    HW132834   3.963   1.332   8.681 -0.6574 -0.3170  0.3780
 7067SOL    HW232835   3.953   1.193   8.680  0.1448 -0.2704  1.5520
 7068SOL     OW32836   3.935   4.225  15.158 -0.1732  0.4329 -0.1678
 7068SOL    HW132837   3.845   4.213  15.126 -0.6335 -0.3271  1.4029
 7068SOL    HW232838   3.929   4.168  15.235 -0.1378  1.4137  0.5575
 7069SOL     OW32839   1.005   1.905   5.181  0.3517  0.3867  0.1362
 7069SOL    HW132840   0.975   1.974   5.122 -3.0134 -1.5668 -0.4630
 7069SOL    HW232841   0.943   1.909   5.254  1.5678 -0.5453  1.2174
 7070SOL     OW32842   1.412   3.772   1.838 -0.4744 -0.0971 -0.1617
 7070SOL    HW132843   1.343   3.782   1.773 -2.9564 -2.0835  2.1779
 7070SOL    HW232844   1.492   3.805   1.797  0.8041  0.2425  2.5976
 7071SOL     OW32845   2.410   3.398   1.737 -0.0678  0.5940 -0.5998
 7071SOL    HW132846   2.328   3.441   1.761 -0.6488 -2.3756  2.8183
 7071SOL    HW232847   2.384   3.306   1.745 -0.6000  0.9540  1.9621
 7072SOL     OW32848   1.359   3.316   8.056 -0.4209 -0.4209 -0.2561
 7072SOL    HW132849   1.304   3.385   8.020  0.9036  0.8406  0.1409
 7072SOL    HW232850   1.432   3.362   8.098  1.8557 -2.3151 -2.0971
 7073SOL     OW32851   4.054   2.899  15.186  0.1138 -0.1822  0.9698
 7073SOL    HW132852   4.080   2.989  15.163  1.9983 -0.8105  0.6414
 7073SOL    HW232853   4.140   2.870  15.215 -0.0770 -0.8332  0.8879
 7074SOL     OW32854   4.143   2.290   2.922  0.1129 -0.1211  0.1813
 7074SOL    HW132855   4.137   2.367   2.864 -0.5295 -0.6755 -0.4813
 7074SOL    HW232856   4.236   2.269   2.924  0.1140 -0.0200  1.1401
 7075SOL     OW32857   4.049   1.214   7.181 -0.3021  0.1023  0.4710
 7075SOL    HW132858   4.119   1.151   7.196  0.3706  0.2140 -2.2455
 7075SOL    HW232859   4.045   1.231   7.087  2.0079 -0.4456  0.2859
 7076SOL     OW32860   0.922   1.253   7.791 -0.3191 -0.2554  0.2238
 7076SOL    HW132861   0.932   1.166   7.831  1.3681 -0.0863  0.1852
 7076SOL    HW232862   0.850   1.248   7.729 -0.2685 -3.0586  0.3801
 7077SOL     OW32863   1.669   2.449  14.263  0.3975  0.6874 -0.0585
 7077SOL    HW132864   1.701   2.536  14.238  0.4338  0.6871 -0.0114
 7077SOL    HW232865   1.577   2.466  14.243  0.1730 -0.4524  0.0091
 7078SOL     OW32866   1.341   0.336   6.235  0.1321 -0.5443  0.7888
 7078SOL    HW132867   1.271   0.285   6.276  1.2062 -1.1488  1.8841
 7078SOL    HW232868   1.360   0.402   6.301 -0.3433 -1.0451  1.4282
 7079SOL     OW32869   2.374   3.274   0.770  0.4181  0.6676 -0.0984
 7079SOL    HW132870   2.379   3.298   0.863  2.3775  0.4114 -0.1318
 7079SOL    HW232871   2.437   3.338   0.737  0.6968  1.1168  1.2998
 7080SOL     OW32872   3.607   0.273  10.941 -0.1189 -0.1232  0.7210
 7080SOL    HW132873   3.664   0.294  11.015  0.8311  1.1233 -0.3623
 7080SOL    HW232874   3.578   0.183  10.954  1.3176 -0.8173 -0.8832
 7081SOL     OW32875   0.483   1.704   7.661  0.8770 -0.1994  0.0625
 7081SOL    HW132876   0.555   1.642   7.673  1.2721  0.5581  1.6131
 7081SOL    HW232877   0.434   1.690   7.742  1.8556  0.0381  0.6953
 7082SOL     OW32878   3.132   2.682   3.306  0.0468  0.3952  0.1373
 7082SOL    HW132879   3.132   2.756   3.246  0.7976 -0.8952 -1.4507
 7082SOL    HW232880   3.069   2.707   3.374 -0.6602  1.8009 -1.0261
 7083SOL     OW32881   0.145   1.617   4.907  0.1086 -0.1713  0.1187
 7083SOL    HW132882   0.119   1.655   4.823  2.1221  1.9474  0.4723
 7083SOL    HW232883   0.110   1.677   4.973 -0.3691 -0.6820  0.3410
 7084SOL     OW32884   3.157   0.687   5.554  0.1686 -0.8995 -0.3108
 7084SOL    HW132885   3.099   0.616   5.579 -0.8945  0.0548 -0.0699
 7084SOL    HW232886   3.230   0.641   5.511  1.1475  0.0199  0.3619
 7085SOL     OW32887   3.823   4.122   4.468  0.0201  0.2945  0.7577
 7085SOL    HW132888   3.816   4.217   4.456 -1.2830  0.3886  2.2135
 7085SOL    HW232889   3.738   4.115   4.512  0.0286  1.8086  1.0322
 7086SOL     OW32890   4.447   0.251  13.919 -0.3401 -0.1366 -0.2386
 7086SOL    HW132891   4.529   0.299  13.909 -0.9596  1.0684  0.5106
 7086SOL    HW232892   4.442   0.218  13.829 -0.2105  0.6142 -0.5147
 7087SOL     OW32893   3.340   0.203  16.053  0.2127 -0.1509 -0.1715
 7087SOL    HW132894   3.407   0.167  16.110  0.2110 -0.2909 -0.2568
 7087SOL    HW232895   3.294   0.276  16.095 -0.6657  0.5099 -2.2800
 7088SOL     OW32896   2.581   0.163   1.188 -0.2492  0.0257 -0.4909
 7088SOL    HW132897   2.547   0.149   1.100 -1.2514 -0.9730  0.0566
 7088SOL    HW232898   2.580   0.072   1.217  2.3707  0.9907  2.6836
 7089SOL     OW32899   1.717   0.434   5.966  0.4244  0.1980 -0.5076
 7089SOL    HW132900   1.655   0.415   5.896 -0.0345 -0.6314  0.1202
 7089SOL    HW232901   1.764   0.350   5.965  0.4825  0.2404 -1.6492
 7090SOL     OW32902   2.652   0.280  17.031 -0.4616 -0.5471  0.2312
 7090SOL    HW132903   2.652   0.264  17.126 -0.6303 -1.8123  0.0192
 7090SOL    HW232904   2.568   0.247  16.999 -0.8878  1.1279 -0.3747
 7091SOL     OW32905   3.737   2.171   3.609  0.1678 -0.1943  0.1718
 7091SOL    HW132906   3.773   2.085   3.628  0.8299  0.5481  2.3823
 7091SOL    HW232907   3.820   2.216   3.592  0.8685 -1.7489 -0.4063
 7092SOL     OW32908   2.277   0.835   6.326  0.0376 -0.4346 -0.5915
 7092SOL    HW132909   2.327   0.829   6.244 -1.5848 -0.6945 -1.5557
 7092SOL    HW232910   2.354   0.827   6.383 -0.5004  0.1272  0.2093
 7093SOL     OW32911   2.222   4.221   3.840 -0.6129  0.0659 -0.5407
 7093SOL    HW132912   2.210   4.295   3.898  1.0092  1.6331 -2.2100
 7093SOL    HW232913   2.130   4.200   3.825 -0.3918 -0.8366 -0.6505
 7094SOL     OW32914   2.204   4.295   6.347  0.3844 -0.5764  0.2403
 7094SOL    HW132915   2.270   4.360   6.326 -0.5254  0.4678  0.6167
 7094SOL    HW232916   2.124   4.348   6.340  0.6519 -0.1398  0.5301
 7095SOL     OW32917   4.564   4.597   6.398  0.6023  0.8006  0.0238
 7095SOL    HW132918   4.617   4.676   6.405  1.0166  0.5582 -0.3094
 7095SOL    HW232919   4.479   4.632   6.425 -0.1648 -0.8089 -0.2934
 7096SOL     OW32920   4.474   0.035   4.535  0.2533  0.1499  0.1281
 7096SOL    HW132921   4.515   4.733   4.611 -1.8407 -0.5245  0.9178
 7096SOL    HW232922   4.501   4.723   4.459  1.7347 -0.0391  0.7901
 7097SOL     OW32923   2.613   0.140   7.842 -0.3219  0.1206  0.2287
 7097SOL    HW132924   2.686   0.082   7.864  0.3941  0.6317 -0.7562
 7097SOL    HW232925   2.579   0.188   7.918 -1.0413  2.5970 -1.6555
 7098SOL     OW32926   3.351   3.749  12.275  0.1134 -0.7186  0.2951
 7098SOL    HW132927   3.339   3.791  12.360 -0.6152 -1.1288  0.4051
 7098SOL    HW232928   3.368   3.820  12.214 -0.6179 -1.3636 -0.6745
 7099SOL     OW32929   1.918   2.893   2.568  0.7841 -0.0692  0.2662
 7099SOL    HW132930   1.869   2.837   2.508 -0.7553  0.4866  0.9888
 7099SOL    HW232931   1.865   2.972   2.565  0.0813 -0.6552 -2.3825
 7100SOL     OW32932   3.731   3.090  16.876  0.5496  0.0756  0.5640
 7100SOL    HW132933   3.798   3.159  16.873 -2.0680  2.6863  1.7824
 7100SOL    HW232934   3.680   3.108  16.797  2.5613 -0.1242 -0.7760
 7101SOL     OW32935   3.002   3.946   0.872  0.4520  0.1340 -0.0073
 7101SOL    HW132936   3.031   3.868   0.919  1.1888  0.8198  0.6807
 7101SOL    HW232937   2.963   4.003   0.938 -2.0819  2.4336 -3.5225
 7102SOL     OW32938   2.525   1.754  11.854 -0.4424 -0.2084  0.7145
 7102SOL    HW132939   2.496   1.842  11.878  2.0814  1.1130 -1.1193
 7102SOL    HW232940   2.460   1.700  11.899 -0.7818 -0.4274 -0.0471
 7103SOL     OW32941   3.700   0.353  15.125  0.4601  0.3761 -0.4463
 7103SOL    HW132942   3.645   0.357  15.203  2.5759  1.4005  1.0005
 7103SOL    HW232943   3.657   0.286  15.070 -3.0799  0.5824  2.0752
 7104SOL     OW32944   4.137   4.311   1.948 -0.1994  0.5493 -1.1316
 7104SOL    HW132945   4.129   4.406   1.945 -0.1293  0.5943  0.6549
 7104SOL    HW232946   4.085   4.279   2.021  0.6824 -0.4363 -0.9221
 7105SOL     OW32947   1.785   1.302   7.768  0.6871 -0.6634  0.5058
 7105SOL    HW132948   1.708   1.264   7.726  0.8499  0.0045 -0.3856
 7105SOL    HW232949   1.820   1.357   7.698  0.8153 -0.5999  0.6191
 7106SOL     OW32950   3.015   2.882  11.956 -0.1018  0.0591 -0.5617
 7106SOL    HW132951   2.973   2.955  11.912 -2.7497  0.4318  2.6212
 7106SOL    HW232952   2.996   2.812  11.894 -1.3531  0.3494 -0.4989
 7107SOL     OW32953   1.974   3.740   3.263 -0.3420  0.0029 -0.7053
 7107SOL    HW132954   1.941   3.767   3.177  0.0765 -1.4215 -1.3286
 7107SOL    HW232955   1.918   3.664   3.283  0.5119 -0.3071  0.5171
 7108SOL     OW32956   0.708   2.269  12.925 -0.1387  0.0423 -0.3684
 7108SOL    HW132957   0.674   2.309  13.005  0.7647  0.4021 -0.1652
 7108SOL    HW232958   0.655   2.305  12.853  2.2978  1.6306 -1.3633
 7109SOL     OW32959   4.251   0.964   7.775 -0.3282 -0.5278  0.2683
 7109SOL    HW132960   4.332   0.988   7.731 -1.5978 -1.6943 -2.6531
 7109SOL    HW232961   4.281   0.883   7.816 -0.0541 -0.5907 -0.0623
 7110SOL     OW32962   2.537   4.259   2.197  0.3644  1.2568  0.4462
 7110SOL    HW132963   2.562   4.297   2.113 -0.2649  2.8315  0.9621
 7110SOL    HW232964   2.584   4.322   2.253  2.1297  0.2413  0.1157
 7111SOL     OW32965   2.858   2.888   0.116  0.1250  0.4499 -0.2580
 7111SOL    HW132966   2.776   2.908   0.160  0.1302 -0.1998  0.0505
 7111SOL    HW232967   2.830   2.816   0.060 -1.2301  1.2470 -0.5944
 7112SOL     OW32968   3.404   2.534   3.513 -0.4342 -0.0383 -0.5785
 7112SOL    HW132969   3.342   2.562   3.581  1.9598 -0.4475  1.7991
 7112SOL    HW232970   3.389   2.440   3.508  0.6030 -0.0970 -2.6496
 7113SOL     OW32971   4.184   3.890   5.545 -0.1690 -0.4976 -0.3843
 7113SOL    HW132972   4.142   3.887   5.459 -0.3648 -1.7898 -0.2445
 7113SOL    HW232973   4.213   3.980   5.562  1.0123 -1.0185  0.3271
 7114SOL     OW32974   1.992   4.713   2.156  0.1242 -0.1103 -0.4207
 7114SOL    HW132975   1.929   4.718   2.229  1.1612  0.3572  0.4341
 7114SOL    HW232976   2.064   4.676   2.206 -0.2947  0.7776  0.8536
 7115SOL     OW32977   4.128   0.539  13.416  0.0728  0.4844  0.0158
 7115SOL    HW132978   4.094   0.544  13.327 -2.8709 -1.4814  1.0440
 7115SOL    HW232979   4.102   0.450  13.440  1.1802  0.1350 -0.0567
 7116SOL     OW32980   0.974   2.770   5.163 -0.0502 -0.2842 -0.6395
 7116SOL    HW132981   0.931   2.746   5.081 -1.6462  3.0763 -0.8048
 7116SOL    HW232982   1.059   2.811   5.144  0.1377  0.8116  2.5542
 7117SOL     OW32983   1.663   4.375   5.590 -0.2765 -0.4756  0.4237
 7117SOL    HW132984   1.617   4.322   5.525  1.1031 -1.2633  0.0775
 7117SOL    HW232985   1.617   4.362   5.672  0.0813  1.3392  0.9144
 7118SOL     OW32986   4.551   4.072   3.188  0.8107  0.0577  0.1380
 7118SOL    HW132987   4.581   4.037   3.272 -0.7938 -0.7378  0.3815
 7118SOL    HW232988   4.637   4.097   3.156  0.8369 -0.8328 -0.4794
 7119SOL     OW32989   0.390   2.698   4.829  0.6703  0.3011 -0.5721
 7119SOL    HW132990   0.471   2.688   4.779 -0.4455 -0.3862 -2.2205
 7119SOL    HW232991   0.378   2.793   4.831 -0.5166  0.1518 -0.9301
 7120SOL     OW32992   2.882   1.019  10.880  0.4273 -0.0540 -0.3482
 7120SOL    HW132993   2.892   1.016  10.785 -1.1673  1.4954 -0.5444
 7120SOL    HW232994   2.960   0.970  10.908  0.8863 -0.0660 -1.6319
 7121SOL     OW32995   1.987   0.936   9.064  0.9010 -0.0304  0.0130
 7121SOL    HW132996   2.038   0.901   9.137 -2.3144 -1.9339  1.3443
 7121SOL    HW232997   1.899   0.910   9.089 -0.0428  2.8395 -0.3411
 7122SOL     OW32998   2.341   0.418   5.927 -1.2353  0.0706  0.1546
 7122SOL    HW132999   2.410   0.382   5.983 -0.4663  1.8259  0.3386
 7122SOL    HW233000   2.379   0.430   5.840 -0.6566  0.0629  0.4109
 7123SOL     OW33001   3.828   2.994   8.223  0.2015 -0.1939 -0.1577
 7123SOL    HW133002   3.854   3.058   8.157 -2.7333 -0.1243 -1.2633
 7123SOL    HW233003   3.766   3.040   8.279 -1.0833  0.3291 -2.0128
 7124SOL     OW33004   0.977   3.263   7.973 -0.5325 -0.0593 -0.5323
 7124SOL    HW133005   0.971   3.265   8.069 -0.7260  0.3330 -0.5526
 7124SOL    HW233006   1.068   3.282   7.952 -0.1459 -1.2093  0.0912
 7125SOL     OW33007   0.129   1.538  14.395  0.1463  0.0418 -0.8245
 7125SOL    HW133008   0.107   1.465  14.453 -2.0715 -0.9938 -2.9923
 7125SOL    HW233009   0.066   1.598  14.436  1.3872  0.9172 -0.2049
 7126SOL     OW33010   3.184   0.060   2.994 -0.3722  0.2112 -0.0667
 7126SOL    HW133011   3.169   0.031   2.905  1.5193  0.2900 -0.4190
 7126SOL    HW233012   3.273   0.031   3.015  0.9084  2.9786 -1.6810
 7127SOL     OW33013   2.611   2.164   5.632  0.1728 -0.3105  0.5043
 7127SOL    HW133014   2.663   2.244   5.628  2.0654 -1.5776 -0.4231
 7127SOL    HW233015   2.676   2.094   5.639  0.5083  0.0034  0.4982
 7128SOL     OW33016   1.725   3.776   3.095 -0.4255 -0.1926 -0.3335
 7128SOL    HW133017   1.656   3.742   3.151 -1.7457  1.0534 -1.2118
 7128SOL    HW233018   1.702   3.730   3.014 -4.3312  0.6724  0.2970
 7129SOL     OW33019   2.561   4.017  16.334  0.1002 -0.8199  0.2064
 7129SOL    HW133020   2.486   4.049  16.284  1.9073 -0.2384 -2.1563
 7129SOL    HW233021   2.623   4.090  16.341 -2.5898  1.2497  2.0417
 7130SOL     OW33022   3.192   0.768   4.897  0.1688 -0.4290 -0.2769
 7130SOL    HW133023   3.193   0.717   4.978 -1.4987 -1.7817 -1.0994
 7130SOL    HW233024   3.102   0.801   4.900  0.9999  1.8420 -0.3611
 7131SOL     OW33025   1.927   4.360   4.818 -1.0042  0.3580  0.7612
 7131SOL    HW133026   1.944   4.454   4.821  1.5009 -0.0942  0.2554
 7131SOL    HW233027   1.971   4.333   4.898  0.6555 -0.3561 -0.4088
 7132SOL     OW33028   3.272   4.124   4.624  0.1101  1.0260  0.4244
 7132SOL    HW133029   3.237   4.056   4.567  0.6571 -0.6017  2.0181
 7132SOL    HW233030   3.258   4.209   4.583  0.4223  0.1874 -1.4241
 7133SOL     OW33031   3.873   2.396   5.060 -0.0867  0.6102  0.0732
 7133SOL    HW133032   3.879   2.312   5.105  1.7230 -0.1729 -1.6719
 7133SOL    HW233033   3.956   2.434   5.087 -0.7044  2.8032 -1.1192
 7134SOL     OW33034   1.954   4.171  10.127  0.1482 -0.4836  0.0075
 7134SOL    HW133035   1.891   4.106  10.156  0.3873 -1.6551 -2.1071
 7134SOL    HW233036   2.032   4.122  10.100 -1.1199 -0.6616 -3.2998
 7135SOL     OW33037   4.676   3.111   6.229  0.4879 -0.0892 -0.3389
 7135SOL    HW133038   4.655   3.204   6.243  2.6924  0.4098 -0.3403
 7135SOL    HW233039   4.681   3.091   6.136  1.3771  0.2151 -0.3608
 7136SOL     OW33040   4.634   0.035   5.673 -0.0094  0.4632 -0.8611
 7136SOL    HW133041   4.588   4.735   5.599 -0.6003 -1.4795  0.5546
 7136SOL    HW233042   4.576   0.103   5.709 -1.7932 -0.5990 -1.7063
 7137SOL     OW33043   3.726   1.972   2.519  0.2934 -0.4455 -0.1732
 7137SOL    HW133044   3.812   1.978   2.560 -0.2516  0.1352  0.8672
 7137SOL    HW233045   3.699   1.892   2.564 -2.0414 -1.1101 -2.7673
 7138SOL     OW33046   0.767   2.696   6.286  0.0824 -0.1090 -0.1498
 7138SOL    HW133047   0.805   2.737   6.364 -2.2218  2.3304 -0.2995
 7138SOL    HW233048   0.758   2.607   6.320  0.6019  0.4229  1.4004
 7139SOL     OW33049   0.806   4.175   2.256  0.2092 -0.6797 -0.1541
 7139SOL    HW133050   0.882   4.226   2.284  0.4293 -1.4702  0.6624
 7139SOL    HW233051   0.819   4.090   2.298  3.0571 -0.4112 -0.4823
 7140SOL     OW33052   4.434   3.372   7.145  0.7623 -0.1798  0.6832
 7140SOL    HW133053   4.387   3.288   7.145 -1.3534  1.0084 -3.0781
 7140SOL    HW233054   4.503   3.362   7.080 -0.4193 -1.5823 -0.3610
 7141SOL     OW33055   3.244   0.374  14.690  0.1765 -0.1643 -0.1879
 7141SOL    HW133056   3.318   0.314  14.683 -1.8443 -2.7615  0.6135
 7141SOL    HW233057   3.213   0.368  14.599 -2.1897  1.7265  0.4913
 7142SOL     OW33058   0.218   3.684   2.075  0.2302  0.3991  0.6141
 7142SOL    HW133059   0.132   3.667   2.037  0.7849 -0.1239 -0.3984
 7142SOL    HW233060   0.204   3.705   2.168 -1.5237  1.9987 -0.0126
 7143SOL     OW33061   2.783   1.344   0.174 -0.3265  0.5438 -0.1521
 7143SOL    HW133062   2.794   1.354   0.269 -0.7108  0.4536 -0.0940
 7143SOL    HW233063   2.849   1.391   0.124  0.5171 -1.0237 -0.5061
 7144SOL     OW33064   3.681   3.581   5.448  0.1707  0.1935 -0.4984
 7144SOL    HW133065   3.672   3.487   5.434 -0.1032 -0.0934  1.6178
 7144SOL    HW233066   3.650   3.617   5.364 -1.9528 -0.2632  0.1156
 7145SOL     OW33067   1.771   2.992  16.595  0.4025 -0.0285  0.4866
 7145SOL    HW133068   1.771   2.963  16.504  0.0491 -1.2445  0.8767
 7145SOL    HW233069   1.865   2.980  16.609  0.3016 -1.7123 -0.3735
 7146SOL     OW33070   4.256   3.832   9.192 -0.1115 -0.7326 -0.5078
 7146SOL    HW133071   4.165   3.832   9.220  0.4538  1.1511  1.3592
 7146SOL    HW233072   4.258   3.752   9.139  0.8661 -0.4811 -0.8518
 7147SOL     OW33073   2.894   3.209   4.281  0.4629  0.1175 -0.0859
 7147SOL    HW133074   2.811   3.243   4.313 -1.1431 -2.9649 -0.9935
 7147SOL    HW233075   2.897   3.237   4.190 -0.6154 -0.7770 -0.3823
 7148SOL     OW33076   4.077   2.455   5.690 -0.1460  0.3402 -0.0905
 7148SOL    HW133077   4.092   2.536   5.640 -0.3269 -0.0224 -0.7320
 7148SOL    HW233078   4.112   2.480   5.775 -2.0248  0.1367  0.7421
 7149SOL     OW33079   0.579   4.150  13.217 -0.0198 -0.0832  0.7391
 7149SOL    HW133080   0.486   4.145  13.194  0.3365 -0.5791 -0.5627
 7149SOL    HW233081   0.581   4.233  13.264 -0.7372  0.9529 -1.0804
 7150SOL     OW33082   3.628   4.377  14.801  0.0454 -0.4312 -0.1602
 7150SOL    HW133083   3.562   4.437  14.766 -2.9978 -3.5975  0.1454
 7150SOL    HW233084   3.600   4.305  14.744  1.4015 -0.8867 -0.2659
 7151SOL     OW33085   2.498   2.785   4.602  0.7035  0.2424 -0.0294
 7151SOL    HW133086   2.443   2.719   4.561  1.9031  0.0186 -1.2738
 7151SOL    HW233087   2.545   2.741   4.673 -0.3124 -0.8054 -0.0058
 7152SOL     OW33088   1.306   2.031  14.988 -0.0657 -0.2392  0.5667
 7152SOL    HW133089   1.285   1.946  15.026  3.4385 -1.8863 -1.1570
 7152SOL    HW233090   1.401   2.033  14.999  0.0496 -2.5844 -0.0938
 7153SOL     OW33091   0.735   3.308  10.120  0.4537  0.5217 -0.5320
 7153SOL    HW133092   0.782   3.366  10.061 -0.7730 -1.0388 -3.0384
 7153SOL    HW233093   0.734   3.360  10.201 -0.2761 -1.2254  0.6074
 7154SOL     OW33094   1.474   4.472   3.807 -0.1871  0.2779 -0.1183
 7154SOL    HW133095   1.486   4.499   3.898  1.8205  1.0296 -0.6010
 7154SOL    HW233096   1.431   4.387   3.814  0.1969  0.1209  0.3778
 7155SOL     OW33097   3.242   3.277  12.107  0.2919  0.0298 -0.4137
 7155SOL    HW133098   3.149   3.297  12.104  0.7493  2.4311  1.0648
 7155SOL    HW233099   3.233   3.192  12.151  2.5913 -2.0695 -3.9473
 7156SOL     OW33100   2.137   4.633   1.302 -0.5416  0.3657 -0.0011
 7156SOL    HW133101   2.044   4.636   1.326 -0.1395 -1.8868  1.8511
 7156SOL    HW233102   2.163   4.722   1.279 -0.1299  0.1441 -0.4017
 7157SOL     OW33103   3.948   1.942   7.602 -0.0032  0.6897 -0.2733
 7157SOL    HW133104   4.016   1.900   7.656 -0.2510  1.8325  0.9222
 7157SOL    HW233105   3.869   1.923   7.653 -0.5659  2.1760 -0.6032
 7158SOL     OW33106   2.149   4.198   9.871  0.2193 -0.1366 -0.0816
 7158SOL    HW133107   2.188   4.168   9.789 -0.9969  2.1570 -1.5092
 7158SOL    HW233108   2.159   4.115   9.918  0.5213  0.5915  1.1491
 7159SOL     OW33109   2.451   4.599   3.121  0.4655 -0.6014  0.7154
 7159SOL    HW133110   2.538   4.637   3.132  1.6753 -3.1579  0.1793
 7159SOL    HW233111   2.475   4.511   3.090 -0.1520  0.0411 -1.5762
 7160SOL     OW33112   2.187   1.001   9.396 -0.2759  0.6326  0.1919
 7160SOL    HW133113   2.172   0.932   9.332  2.1322  0.0634  0.2258
 7160SOL    HW233114   2.179   0.947   9.474 -1.2216 -0.2661 -0.5296
 7161SOL     OW33115   3.785   3.088  10.885 -0.3711 -0.4768 -0.0352
 7161SOL    HW133116   3.760   3.153  10.950 -0.0481  0.3566 -0.7520
 7161SOL    HW233117   3.696   3.054  10.874 -0.2216 -1.0512  0.5280
 7162SOL     OW33118   4.185   1.225  13.009  0.0720  0.0211  0.1824
 7162SOL    HW133119   4.195   1.304  12.955  1.1796 -1.2807 -1.5428
 7162SOL    HW233120   4.147   1.264  13.088 -3.3762  1.3681 -2.1559
 7163SOL     OW33121   2.543   4.512   6.504  0.0100  0.3284  0.2130
 7163SOL    HW133122   2.508   4.568   6.573 -0.9279  1.4795 -1.1958
 7163SOL    HW233123   2.529   4.430   6.551 -0.5307  0.5591  0.4592
 7164SOL     OW33124   0.045   4.215   1.455  0.3026 -0.3907 -0.7271
 7164SOL    HW133125   0.139   4.225   1.463  0.3606  0.1628 -2.0245
 7164SOL    HW233126   0.046   4.180   1.366  0.8357  0.2655 -0.9759
 7165SOL     OW33127   1.173   3.296  13.774 -0.3743  0.7096  0.1953
 7165SOL    HW133128   1.218   3.212  13.787 -1.5281  0.2731  1.3477
 7165SOL    HW233129   1.086   3.271  13.804 -0.3591  0.3532 -0.0555
 7166SOL     OW33130   1.049   1.934   3.971 -0.1003 -0.1192  0.1421
 7166SOL    HW133131   0.958   1.964   3.969 -0.1696 -0.2001  2.7471
 7166SOL    HW233132   1.085   1.997   3.908  1.8842 -0.4051  0.9957
 7167SOL     OW33133   3.977   3.071   1.072  0.1777 -0.9278  0.0312
 7167SOL    HW133134   3.960   3.087   0.979  2.5495  3.1085  0.3095
 7167SOL    HW233135   4.041   3.138   1.096  0.6236 -2.0520  1.9745
 7168SOL     OW33136   4.243   0.453   6.597 -0.6619  0.1215 -0.0671
 7168SOL    HW133137   4.336   0.474   6.584 -0.5052  0.3377  1.3920
 7168SOL    HW233138   4.211   0.534   6.559  0.4645 -0.7923 -3.0054
 7169SOL     OW33139   0.060   3.091   1.604  0.2520 -0.7352 -0.3344
 7169SOL    HW133140   0.099   3.023   1.658 -1.0177 -1.5189 -0.4007
 7169SOL    HW233141   4.707   3.073   1.619  0.5849 -0.3497  2.0629
 7170SOL     OW33142   4.030   3.122  16.598  0.0543 -0.0719  0.4345
 7170SOL    HW133143   4.098   3.147  16.535 -0.7667  1.0683 -0.0020
 7170SOL    HW233144   3.955   3.174  16.568  0.1913 -1.3570 -2.1891
 7171SOL     OW33145   2.908   2.977   7.748 -0.3738 -0.1868 -0.1633
 7171SOL    HW133146   2.996   2.993   7.713 -0.0791  2.5377  1.7462
 7171SOL    HW233147   2.891   2.885   7.730  0.3586 -0.3291 -0.1571
 7172SOL     OW33148   0.524   2.348   4.603  0.3942  0.6608 -0.5563
 7172SOL    HW133149   0.492   2.437   4.619 -3.2705 -0.5238 -1.2695
 7172SOL    HW233150   0.460   2.319   4.537 -0.1663  2.7846 -0.9427
 7173SOL     OW33151   3.237   0.066   6.835 -0.5219  0.7180 -0.0542
 7173SOL    HW133152   3.237   0.012   6.756  0.4274  3.3524 -1.8430
 7173SOL    HW233153   3.186   0.011   6.896  0.7783  0.0254  0.4057
 7174SOL     OW33154   4.358   1.784  12.506  0.0718 -0.2812 -0.3114
 7174SOL    HW133155   4.346   1.824  12.592  1.2775  0.0739 -0.3058
 7174SOL    HW233156   4.304   1.707  12.523  1.6577 -1.3290 -0.0683
 7175SOL     OW33157   0.310   4.429   3.965 -0.0452  0.5347  0.3393
 7175SOL    HW133158   0.334   4.423   4.058 -0.2760  0.0073  0.3674
 7175SOL    HW233159   0.231   4.483   3.968 -0.7088 -0.3438 -1.2061
 7176SOL     OW33160   4.488   1.969  12.051 -0.1033 -0.3540  0.2324
 7176SOL    HW133161   4.556   1.916  12.009 -1.5558 -0.9652 -1.3200
 7176SOL    HW233162   4.412   1.913  12.040 -1.1198  1.3038 -1.2388
 7177SOL     OW33163   2.372   0.419   5.628  0.1394  0.3867  0.0457
 7177SOL    HW133164   2.380   0.476   5.552 -1.0379 -0.5563 -0.7850
 7177SOL    HW233165   2.396   0.332   5.597  1.8727  0.5218  0.9945
 7178SOL     OW33166   1.616   0.779   5.178 -0.2361  0.3560  0.1030
 7178SOL    HW133167   1.524   0.776   5.152 -0.5876  1.4296  1.2652
 7178SOL    HW233168   1.620   0.724   5.256 -1.8322  2.0118  1.3260
 7179SOL     OW33169   3.505   3.752  10.075 -0.1116 -0.4105  0.2393
 7179SOL    HW133170   3.591   3.718  10.051 -0.4781 -2.1594  1.3934
 7179SOL    HW233171   3.522   3.821  10.138  2.3021 -2.0870  1.4229
 7180SOL     OW33172   2.296   1.099  15.970  0.2893 -0.6099 -0.0939
 7180SOL    HW133173   2.242   1.121  16.046  0.9690  0.5868  0.0439
 7180SOL    HW233174   2.233   1.038  15.930  2.4499 -0.2740 -3.9840
 7181SOL     OW33175   1.929   4.418   3.630  0.4929  0.3875 -0.2255
 7181SOL    HW133176   1.947   4.410   3.724 -0.1468  1.4320 -0.0133
 7181SOL    HW233177   1.842   4.458   3.635  0.4681  0.1935  0.9027
 7182SOL     OW33178   0.650   2.668   7.609 -0.1867 -0.1122 -0.2583
 7182SOL    HW133179   0.600   2.750   7.606  1.8874  1.1524 -0.8170
 7182SOL    HW233180   0.714   2.683   7.539 -0.0174  0.7576  0.0742
 7183SOL     OW33181   3.532   2.226   3.786 -0.3433 -0.3466 -0.5589
 7183SOL    HW133182   3.601   2.212   3.721 -0.9438  2.5475 -1.8466
 7183SOL    HW233183   3.568   2.167   3.852  1.9121  1.0128 -0.5592
 7184SOL     OW33184   0.181   1.261   8.527 -0.5246 -0.7121  0.1126
 7184SOL    HW133185   0.220   1.328   8.583 -0.4207  0.2701 -1.1339
 7184SOL    HW233186   0.095   1.251   8.569 -1.2151 -3.2323 -1.8882
 7185SOL     OW33187   2.442   0.014   8.995  0.3509 -0.6445  0.0187
 7185SOL    HW133188   2.476   0.084   9.051 -2.4928  1.7434 -1.2454
 7185SOL    HW233189   2.417   0.055   8.912  3.3646  0.1467 -0.5022
 7186SOL     OW33190   2.285   4.678   4.092  0.0700  0.4747 -0.4589
 7186SOL    HW133191   2.262   0.005   4.028 -1.4585 -0.1140 -0.5099
 7186SOL    HW233192   2.272   4.728   4.172 -0.3989 -0.3150 -0.0365
 7187SOL     OW33193   1.208   3.744   5.379 -0.2397  0.0513  0.1479
 7187SOL    HW133194   1.198   3.650   5.393 -0.2903  0.0337  0.0009
 7187SOL    HW233195   1.115   3.761   5.363 -0.4300  0.7459  2.0376
 7188SOL     OW33196   4.279   4.481  16.540  0.5960 -0.2034 -0.5834
 7188SOL    HW133197   4.255   4.416  16.473  1.2963 -0.8898 -0.1650
 7188SOL    HW233198   4.241   4.559  16.499 -1.7821 -0.0021  2.0310
 7189SOL     OW33199   4.610   4.700   0.644 -0.0784  0.2036 -0.3455
 7189SOL    HW133200   4.519   4.729   0.637 -0.4176 -0.7503  0.2261
 7189SOL    HW233201   4.645   4.737   0.724  0.9904  1.1525 -1.2474
 7190SOL     OW33202   0.033   3.917   8.373  0.0120 -1.2649 -0.0032
 7190SOL    HW133203   4.689   3.870   8.369 -1.4211  1.3612 -0.6255
 7190SOL    HW233204   0.091   3.849   8.340  1.1264  0.4705 -1.5929
 7191SOL     OW33205   0.741   3.226   0.994 -0.3988  0.2790 -0.8672
 7191SOL    HW133206   0.653   3.240   1.030 -0.2746  0.8112 -0.7808
 7191SOL    HW233207   0.764   3.133   1.003  0.2899  0.7590  2.2949
 7192SOL     OW33208   4.629   2.199   8.620 -0.2516  0.0267 -0.2031
 7192SOL    HW133209   4.597   2.263   8.556 -0.0636  1.4941  1.1834
 7192SOL    HW233210   4.553   2.207   8.679  0.9320 -1.7981  1.5315
 7193SOL     OW33211   3.827   2.965   4.833 -0.3810 -0.0110  0.1259
 7193SOL    HW133212   3.759   2.914   4.876 -1.0464  0.2350 -0.6304
 7193SOL    HW233213   3.812   2.940   4.741  3.2793  1.5280 -0.9131
 7194SOL     OW33214   4.302   0.317   5.288 -0.0915  0.2476  0.3602
 7194SOL    HW133215   4.238   0.246   5.292 -1.3281  1.3821  0.7522
 7194SOL    HW233216   4.248   0.392   5.311 -1.3571  0.2295 -2.5766
 7195SOL     OW33217   2.161   3.526   3.227 -0.6562 -0.5679  0.3262
 7195SOL    HW133218   2.124   3.588   3.289  2.3268  0.6660  0.8805
 7195SOL    HW233219   2.140   3.440   3.265 -1.4012 -0.0332  1.1207
 7196SOL     OW33220   3.199   3.197   8.239 -0.1079  0.5118 -0.7209
 7196SOL    HW133221   3.223   3.262   8.305 -3.6161  2.3029 -1.2238
 7196SOL    HW233222   3.117   3.157   8.270  0.7414 -0.9561 -0.3794
 7197SOL     OW33223   3.624   2.593   8.644  0.6319  0.3058  0.0273
 7197SOL    HW133224   3.652   2.572   8.733  0.3763  0.9426  0.2590
 7197SOL    HW233225   3.682   2.666   8.623 -0.0492  0.0034 -2.9069
 7198SOL     OW33226   0.013   3.193   9.279 -0.5949 -0.5644 -0.3255
 7198SOL    HW133227   4.670   3.159   9.245 -1.5716  3.5577 -2.1201
 7198SOL    HW233228   0.072   3.133   9.234  1.5297  0.8101  0.6505
 7199SOL     OW33229   2.142   2.364   2.923  0.8776  0.5871 -0.2161
 7199SOL    HW133230   2.175   2.278   2.948  0.9688  0.3706 -1.0679
 7199SOL    HW233231   2.063   2.374   2.975 -1.4833  0.3125 -3.6986
 7200SOL     OW33232   3.840   3.040  10.288 -0.6823 -0.3954  0.3003
 7200SOL    HW133233   3.897   3.086  10.227 -2.1089  1.2018  0.1739
 7200SOL    HW233234   3.753   3.036  10.248 -1.0080 -2.2818  1.1904
 7201SOL     OW33235   3.150   3.999  13.930  0.0600  0.2697 -0.3646
 7201SOL    HW133236   3.054   3.995  13.931  0.1504 -2.6024 -1.9831
 7201SOL    HW233237   3.172   3.915  13.971  0.6119 -0.5809 -2.4014
 7202SOL     OW33238   1.436   1.213   8.633 -0.0752  0.1713  0.0614
 7202SOL    HW133239   1.470   1.147   8.693 -1.4987 -1.2406 -0.6874
 7202SOL    HW233240   1.513   1.235   8.580 -0.6892  0.3469 -0.7583
 7203SOL     OW33241   1.763   1.998  16.568 -0.4007 -0.0207  0.6694
 7203SOL    HW133242   1.701   1.934  16.533  0.4025  0.4211 -1.5400
 7203SOL    HW233243   1.834   1.994  16.504 -0.8767 -2.3786  0.2766
 7204SOL     OW33244   1.347   2.117   4.758  0.3117 -0.5190 -0.0514
 7204SOL    HW133245   1.411   2.184   4.733  2.4078 -2.1574  1.0147
 7204SOL    HW233246   1.313   2.168   4.832 -0.3154  0.4086 -0.9728
 7205SOL     OW33247   3.637   3.942  11.073 -0.7442 -0.4097 -0.1800
 7205SOL    HW133248   3.621   3.851  11.045  0.9967 -0.9053  0.4383
 7205SOL    HW233249   3.547   3.962  11.099  0.1002  3.5951 -0.4170
 7206SOL     OW33250   4.475   1.729   4.539 -0.1637  0.1178 -0.4757
 7206SOL    HW133251   4.459   1.713   4.446  2.6521  0.4705 -1.0217
 7206SOL    HW233252   4.389   1.746   4.577 -0.6023 -0.7696 -1.0811
 7207SOL     OW33253   3.159   1.377   7.716 -0.9250 -0.0293  0.2362
 7207SOL    HW133254   3.165   1.297   7.769 -0.7470 -0.7534 -0.8738
 7207SOL    HW233255   3.069   1.377   7.684 -0.3029 -0.3369 -1.5097
 7208SOL     OW33256   1.085   3.630   6.135  0.5030  0.2830 -0.1916
 7208SOL    HW133257   1.051   3.561   6.192 -0.5772  1.9779  1.2095
 7208SOL    HW233258   1.140   3.677   6.199  0.6712  0.4889 -0.4846
 7209SOL     OW33259   0.264   4.547   2.359 -0.2601 -0.2456  0.0392
 7209SOL    HW133260   0.290   4.505   2.441 -0.3966  0.1752  0.3017
 7209SOL    HW233261   0.221   4.473   2.317 -1.6870 -0.8892  2.6478
 7210SOL     OW33262   4.462   2.852  16.691  0.7076 -0.7353  0.0236
 7210SOL    HW133263   4.494   2.922  16.635 -1.8400 -0.0203 -0.5364
 7210SOL    HW233264   4.388   2.895  16.733  0.9644  0.9039 -1.2069
 7211SOL     OW33265   1.175   1.595  14.877  0.1561  0.2649 -0.0027
 7211SOL    HW133266   1.119   1.570  14.803  0.0471 -0.4910  0.3340
 7211SOL    HW233267   1.253   1.554  14.840 -0.9561 -3.8661  2.2395
 7212SOL     OW33268   0.445   3.868   4.092  0.2765  0.0508 -0.1833
 7212SOL    HW133269   0.478   3.831   4.174 -0.8064 -1.4816 -0.4166
 7212SOL    HW233270   0.498   3.836   4.020 -1.1893 -2.0062 -0.3580
 7213SOL     OW33271   3.893   4.644   2.610 -0.4428 -0.1797 -0.5080
 7213SOL    HW133272   3.822   4.587   2.641 -0.6019  0.7629  0.8650
 7213SOL    HW233273   3.895   4.603   2.524 -0.6599  2.0306 -1.5726
 7214SOL     OW33274   2.747   0.952   0.603 -0.2069  0.2042  0.3161
 7214SOL    HW133275   2.770   0.876   0.656 -1.0275 -0.1647  0.1553
 7214SOL    HW233276   2.832   0.996   0.602 -0.1829  0.1557  0.1909
 7215SOL     OW33277   0.389   3.851   4.699 -0.7429 -0.3757 -0.1637
 7215SOL    HW133278   0.480   3.822   4.699 -0.8776 -0.8096 -2.3697
 7215SOL    HW233279   0.389   3.903   4.779 -1.3955  0.1294 -0.4998
 7216SOL     OW33280   1.509   3.672   0.787 -0.5142 -0.4119 -0.3640
 7216SOL    HW133281   1.430   3.632   0.823  0.1895 -0.7888  0.7720
 7216SOL    HW233282   1.535   3.725   0.863 -1.9413  2.2703 -1.7636
 7217SOL     OW33283   2.640   0.557   8.745  0.1208  0.5320  0.5681
 7217SOL    HW133284   2.653   0.513   8.829  2.7956 -0.4756 -0.3763
 7217SOL    HW233285   2.609   0.645   8.767  1.7151  1.1712  0.2562
 7218SOL     OW33286   3.553   0.575   5.713  0.1282  0.1222  0.2094
 7218SOL    HW133287   3.498   0.536   5.645 -3.4852  3.1709  1.3459
 7218SOL    HW233288   3.626   0.514   5.705  0.4630  0.4573  0.7298
 7219SOL     OW33289   2.990   0.301   0.695 -0.8011  0.0477  0.1087
 7219SOL    HW133290   3.059   0.305   0.629 -2.2611  0.0237 -1.4117
 7219SOL    HW233291   3.027   0.238   0.757  2.5839 -1.3117 -3.3215
 7220SOL     OW33292   0.959   0.342   1.755 -0.1012  0.1229 -0.1699
 7220SOL    HW133293   0.992   0.294   1.679  0.3809  1.9165 -1.0900
 7220SOL    HW233294   1.003   0.294   1.825  1.1901 -0.5126 -1.4279
 7221SOL     OW33295   3.431   1.949   1.448  0.5631  0.2347 -0.1537
 7221SOL    HW133296   3.407   1.900   1.369 -1.1513  1.3708 -0.3349
 7221SOL    HW233297   3.343   1.966   1.482  0.8613  3.0041 -0.7347
 7222SOL     OW33298   2.483   3.681   9.415 -0.0473  0.4944  0.2870
 7222SOL    HW133299   2.476   3.605   9.473 -0.2145  0.8112  0.6798
 7222SOL    HW233300   2.396   3.719   9.404 -0.0256  0.2325 -0.7740
 7223SOL     OW33301   1.355   4.543   2.034  0.6891  0.1172  1.3773
 7223SOL    HW133302   1.326   4.513   1.948 -3.5838  0.6626  2.6250
 7223SOL    HW233303   1.291   4.610   2.058 -0.9685  0.0565 -2.8552
 7224SOL     OW33304   0.301   4.366   3.367  0.4145 -0.7071 -0.4659
 7224SOL    HW133305   0.266   4.276   3.364 -0.3818 -0.4523  1.7696
 7224SOL    HW233306   0.240   4.415   3.421  0.7110 -1.3955  0.4930
 7225SOL     OW33307   0.617   1.708   5.814  0.8277 -0.3202 -0.0619
 7225SOL    HW133308   0.664   1.630   5.783 -0.7772 -0.4581 -2.1308
 7225SOL    HW233309   0.565   1.671   5.886  2.3375  1.7443  2.0797
 7226SOL     OW33310   2.637   1.432  16.005  0.3764 -0.2726 -0.2173
 7226SOL    HW133311   2.732   1.425  15.995  0.3144  0.2791 -1.2116
 7226SOL    HW233312   2.619   1.401  16.093 -1.5566  1.6305  0.0509
 7227SOL     OW33313   3.650   1.348   4.065  0.1818 -0.4115  0.1728
 7227SOL    HW133314   3.560   1.328   4.092 -0.5135  0.5218 -1.4876
 7227SOL    HW233315   3.657   1.282   3.997 -1.9614 -0.7150  0.2202
 7228SOL     OW33316   1.754   0.337  11.643 -0.2889 -0.1628  0.5230
 7228SOL    HW133317   1.809   0.340  11.565 -0.8486  1.5521  0.1889
 7228SOL    HW233318   1.764   0.429  11.668  2.5496  0.4135 -2.8216
 7229SOL     OW33319   3.693   4.585  17.411  0.0575 -0.1092 -0.7275
 7229SOL    HW133320   3.722   4.508  17.460  0.5478 -0.0407 -0.9118
 7229SOL    HW233321   3.603   4.599  17.440  0.8945  0.4279  1.6085
 7230SOL     OW33322   3.670   0.043   3.209 -0.4108  0.1499  0.6697
 7230SOL    HW133323   3.764   0.047   3.229 -0.8067 -0.0253  2.5230
 7230SOL    HW233324   3.660   0.091   3.126 -0.6412  0.9172  1.1450
 7231SOL     OW33325   1.764   3.612   1.149 -0.1535  0.4301 -0.1427
 7231SOL    HW133326   1.680   3.647   1.119  0.2452  3.5847  2.3746
 7231SOL    HW233327   1.776   3.646   1.238  3.1756  0.6211 -0.6586
 7232SOL     OW33328   2.082   1.356   2.287  0.1568 -0.3335  0.0080
 7232SOL    HW133329   2.093   1.404   2.205 -0.9543 -1.3699 -0.7527
 7232SOL    HW233330   2.121   1.416   2.350 -2.1223  2.1051 -0.9090
 7233SOL     OW33331   3.480   1.773   9.096 -0.4670 -0.2288 -0.3712
 7233SOL    HW133332   3.517   1.711   9.034 -0.0092  0.5214 -0.8508
 7233SOL    HW233333   3.559   1.817   9.129 -0.7928  1.0738 -1.3084
 7234SOL     OW33334   3.095   1.193   7.360  0.4176  0.0796  0.1680
 7234SOL    HW133335   3.085   1.123   7.296 -4.0689  0.1167  0.8499
 7234SOL    HW233336   3.057   1.150   7.436  1.5779 -0.1873  0.5999
 7235SOL     OW33337   1.937   3.762   8.208  0.4231  0.2407 -0.3134
 7235SOL    HW133338   2.019   3.810   8.197 -0.0717  0.9418 -1.0035
 7235SOL    HW233339   1.936   3.705   8.131 -2.9823 -3.4341  2.4038
 7236SOL     OW33340   4.558   0.678   6.763  0.2906  0.4267  0.2412
 7236SOL    HW133341   4.601   0.600   6.797  0.1541 -0.2650 -1.1613
 7236SOL    HW233342   4.580   0.732   6.839  1.6805  1.4624 -0.8968
 7237SOL     OW33343   2.564   0.331   4.448 -0.5651 -0.5785  0.4512
 7237SOL    HW133344   2.489   0.387   4.469  0.4162  0.4765  1.1584
 7237SOL    HW233345   2.635   0.395   4.454 -0.1923 -0.9982  0.5154
 7238SOL     OW33346   2.158   1.301   6.984  0.0685  0.1254  0.0957
 7238SOL    HW133347   2.145   1.390   6.951 -0.3666 -0.4037 -1.1745
 7238SOL    HW233348   2.207   1.309   7.066  0.0474 -2.5688  0.3720
 7239SOL     OW33349   3.162   1.950   1.508  0.3818  0.4153  0.4119
 7239SOL    HW133350   3.125   1.977   1.424  0.6058  0.1680  0.2372
 7239SOL    HW233351   3.076   1.934   1.549  0.3582 -0.4376  0.0263
 7240SOL     OW33352   1.415   1.914   6.121 -0.2925  0.7914 -0.4345
 7240SOL    HW133353   1.462   1.997   6.114 -1.7479  1.6348  0.0176
 7240SOL    HW233354   1.374   1.905   6.035 -0.6228 -2.1179  0.0137
 7241SOL     OW33355   0.299   3.000   0.207  0.0247 -0.3636 -0.1521
 7241SOL    HW133356   0.231   2.996   0.140 -0.7067 -0.8621  0.6206
 7241SOL    HW233357   0.305   3.094   0.222  0.5120 -0.4969  0.5154
 7242SOL     OW33358   2.971   0.325   6.114 -0.3849 -0.6540 -0.1844
 7242SOL    HW133359   3.007   0.398   6.165 -0.1542 -1.4794  0.8471
 7242SOL    HW233360   2.878   0.328   6.134 -0.0091  1.1637  1.3200
 7243SOL     OW33361   0.217   2.907   7.580 -0.3078 -0.2210  0.0969
 7243SOL    HW133362   0.267   2.831   7.609 -0.3574 -0.2337  0.1469
 7243SOL    HW233363   0.140   2.888   7.633  0.0529 -2.6528 -0.2555
 7244SOL     OW33364   2.693   1.591   8.441 -0.1684  0.4253 -0.1307
 7244SOL    HW133365   2.733   1.507   8.416 -3.1123 -0.8690 -0.4765
 7244SOL    HW233366   2.645   1.564   8.519  1.2886  0.8195  0.9159
 7245SOL     OW33367   2.827   0.513   7.259  0.1615 -0.1429 -0.2356
 7245SOL    HW133368   2.893   0.575   7.288 -0.4641  1.1014 -1.4802
 7245SOL    HW233369   2.847   0.436   7.313  1.2372  0.8120  0.7080
 7246SOL     OW33370   3.646   1.986   8.529  0.0591 -0.0675  0.1314
 7246SOL    HW133371   3.654   2.049   8.457 -1.0921  1.7167  1.5395
 7246SOL    HW233372   3.655   1.905   8.478 -3.8818 -1.4236  1.5598
 7247SOL     OW33373   2.355   1.221   1.521  0.3602  0.1450  1.1464
 7247SOL    HW133374   2.430   1.280   1.537  0.4285  0.2465  0.4196
 7247SOL    HW233375   2.381   1.145   1.573  3.0564  0.1195 -0.2489
 7248SOL     OW33376   0.957   1.343   6.770 -0.0984  0.3342  0.0513
 7248SOL    HW133377   0.989   1.345   6.679  2.9019 -1.0222  1.0581
 7248SOL    HW233378   0.867   1.374   6.765 -0.2335  0.3821  3.0257
 7249SOL     OW33379   1.990   2.428   5.317  0.0931 -0.1328 -0.0261
 7249SOL    HW133380   1.991   2.362   5.248 -0.0917  0.3673 -0.5047
 7249SOL    HW233381   2.026   2.506   5.274  0.7818  0.3221  1.3716
 7250SOL     OW33382   3.865   3.552  16.206 -0.5721  1.1852  0.8011
 7250SOL    HW133383   3.951   3.531  16.170  0.0654  1.0765  2.4274
 7250SOL    HW233384   3.814   3.558  16.125  0.4406  1.8856  0.2074
 7251SOL     OW33385   1.174   2.427   2.610  0.5356  0.0445  0.0998
 7251SOL    HW133386   1.100   2.470   2.652  0.8821 -0.1196  0.8823
 7251SOL    HW233387   1.154   2.444   2.518 -0.4915 -0.7431  0.1786
 7252SOL     OW33388   3.628   4.350   8.357 -0.3929 -0.0527  0.1861
 7252SOL    HW133389   3.604   4.404   8.281 -1.3770 -0.3753  0.2743
 7252SOL    HW233390   3.551   4.294   8.366  1.4804 -2.1791  3.0434
 7253SOL     OW33391   1.759   0.173   9.667  0.2452 -0.5648  0.0733
 7253SOL    HW133392   1.665   0.190   9.658  0.3434  0.2332  0.5933
 7253SOL    HW233393   1.769   0.101   9.604 -0.5308  0.7998 -1.6284
 7254SOL     OW33394   1.415   4.220   9.604  0.2162 -0.1814  0.1072
 7254SOL    HW133395   1.364   4.259   9.534 -0.4875  0.3857  0.9335
 7254SOL    HW233396   1.470   4.294   9.629 -1.3385  0.8024  0.5895
 7255SOL     OW33397   1.844   1.650   3.812 -0.5912  0.3657  0.2254
 7255SOL    HW133398   1.888   1.565   3.812 -0.5833  0.3707  0.4735
 7255SOL    HW233399   1.837   1.663   3.717  2.8712  1.6512  0.1819
 7256SOL     OW33400   2.900   1.679   6.933 -0.3539 -0.0438  0.7602
 7256SOL    HW133401   2.838   1.647   6.998 -3.0375  0.6252 -1.5216
 7256SOL    HW233402   2.963   1.729   6.985  0.0307  1.0394 -0.7361
 7257SOL     OW33403   3.369   1.325   1.539 -0.2975 -0.1358 -0.1970
 7257SOL    HW133404   3.383   1.292   1.628 -1.8550 -0.4433 -0.0577
 7257SOL    HW233405   3.424   1.400   1.520  1.3314 -1.2989 -0.0508
 7258SOL     OW33406   1.010   0.290  17.350  0.4585 -0.2543  0.2868
 7258SOL    HW133407   0.950   0.364  17.338  1.1660  0.2745  0.0012
 7258SOL    HW233408   1.089   0.340  17.370 -0.9218  2.1096 -0.0491
 7259SOL     OW33409   4.696   4.736   0.903 -0.4580 -0.0031 -0.0678
 7259SOL    HW133410   4.729   4.667   0.961  0.7056  2.3726  2.1573
 7259SOL    HW233411   4.689   0.070   0.964 -0.0945  1.5471 -1.9316
 7260SOL     OW33412   2.780   1.312  16.262  0.1540 -0.4331  0.6921
 7260SOL    HW133413   2.766   1.218  16.267  0.0821 -0.5306 -1.4670
 7260SOL    HW233414   2.804   1.330  16.353 -0.5228  1.2602  0.5471
 7261SOL     OW33415   4.063   3.514   6.305  0.1541  0.0208 -0.6459
 7261SOL    HW133416   3.970   3.532   6.293  0.2857 -0.4208 -2.3827
 7261SOL    HW233417   4.100   3.597   6.273 -0.1430  0.4568  0.1366
 7262SOL     OW33418   0.521   0.725   6.346 -0.1506 -0.0993  0.7217
 7262SOL    HW133419   0.564   0.683   6.420 -1.2985 -1.4609  0.6189
 7262SOL    HW233420   0.473   0.652   6.307  0.4390 -0.0091 -0.1792
 7263SOL     OW33421   4.037   1.792   2.171 -0.2464 -0.3622 -0.0514
 7263SOL    HW133422   4.020   1.748   2.088  0.1006  1.3198 -1.0249
 7263SOL    HW233423   4.063   1.878   2.138 -2.8962  0.9840  1.4591
 7264SOL     OW33424   2.478   0.533   9.233 -0.2145  0.0361  0.5850
 7264SOL    HW133425   2.520   0.448   9.245 -1.1910 -0.4041  0.8386
 7264SOL    HW233426   2.433   0.514   9.151  1.4517  1.7780 -0.7420
 7265SOL     OW33427   0.240   1.057   2.237 -0.0151 -0.3280  0.0371
 7265SOL    HW133428   0.233   1.054   2.333  0.6906 -0.3655  0.0847
 7265SOL    HW233429   0.229   0.963   2.224 -0.8623 -0.1723 -0.3969
 7266SOL     OW33430   4.359   4.669   6.704  0.2137  0.2760  0.1809
 7266SOL    HW133431   4.359   4.691   6.611  1.0948 -1.5601 -0.2447
 7266SOL    HW233432   4.388   4.578   6.696 -0.8962 -0.1141  0.5849
 7267SOL     OW33433   1.924   0.515  11.912 -0.3127 -0.7428  0.0607
 7267SOL    HW133434   1.867   0.552  11.844 -0.9158  1.0271  1.5124
 7267SOL    HW233435   1.876   0.437  11.938  1.4115 -1.0075  2.4751
 7268SOL     OW33436   4.733   1.677   2.455 -0.0761  0.5874  0.5699
 7268SOL    HW133437   0.004   1.660   2.361  0.7653 -0.0148  0.7687
 7268SOL    HW233438   4.690   1.761   2.467 -0.8040  0.3249 -0.2611
 7269SOL     OW33439   0.766   1.283   8.080 -0.0544 -0.6142 -0.1893
 7269SOL    HW133440   0.745   1.190   8.091  0.6494 -0.6641  0.7049
 7269SOL    HW233441   0.749   1.297   7.987  1.2724 -2.5760 -0.7139
 7270SOL     OW33442   0.032   3.895   5.428  0.1226  0.1988 -0.4522
 7270SOL    HW133443   4.689   3.852   5.404  1.3306 -1.7266 -1.1458
 7270SOL    HW233444   0.089   3.847   5.368 -2.8784 -2.9154 -0.8803
 7271SOL     OW33445   2.607   0.462   6.482 -0.2108 -0.2552 -0.7814
 7271SOL    HW133446   2.598   0.557   6.476  0.4686 -0.2542 -1.6830
 7271SOL    HW233447   2.677   0.457   6.547 -0.8825 -1.1208 -0.1249
 7272SOL     OW33448   0.106   3.383   6.094  0.1752 -0.0461 -0.4385
 7272SOL    HW133449   0.123   3.430   6.012 -0.1675  1.6640  0.4781
 7272SOL    HW233450   0.014   3.399   6.112  0.2885 -0.0855  0.1815
 7273SOL     OW33451   2.847   0.418  10.084  0.3391  0.0166  0.6564
 7273SOL    HW133452   2.900   0.491  10.053 -0.1488 -0.4254 -1.2143
 7273SOL    HW233453   2.882   0.407  10.173 -2.5836 -1.3410  1.6428
 7274SOL     OW33454   4.333   2.346  13.332  0.3525  0.2496 -0.1856
 7274SOL    HW133455   4.371   2.419  13.381 -0.5444 -0.0190  0.9203
 7274SOL    HW233456   4.359   2.358  13.241 -0.0554 -2.0958 -0.6128
 7275SOL     OW33457   1.877   1.890   8.501 -0.4895 -0.4193 -0.1303
 7275SOL    HW133458   1.785   1.911   8.487  0.5301  4.0343  0.0682
 7275SOL    HW233459   1.880   1.840   8.583  1.7040  0.6720  0.4724
 7276SOL     OW33460   4.711   1.098   7.835  0.4387  0.0191 -0.0393
 7276SOL    HW133461   0.002   1.032   7.898  2.1068 -0.4975 -1.4011
 7276SOL    HW233462   4.678   1.170   7.889 -1.1328 -1.9431  1.6182
 7277SOL     OW33463   0.905   2.760   8.875 -0.7095 -0.5057  0.3559
 7277SOL    HW133464   0.871   2.833   8.927  2.5374  0.8650  0.5545
 7277SOL    HW233465   0.996   2.785   8.856 -0.8499  0.4425  0.9326
 7278SOL     OW33466   0.724   1.929   9.517  0.4611 -0.0115 -0.5306
 7278SOL    HW133467   0.812   1.906   9.488  0.5983  0.0310 -0.1466
 7278SOL    HW233468   0.736   1.978   9.598 -0.7415 -0.6228  0.0184
 7279SOL     OW33469   3.774   1.305   4.309 -0.0672  0.0227  0.1845
 7279SOL    HW133470   3.795   1.212   4.316 -4.2112 -1.0081 -1.2476
 7279SOL    HW233471   3.720   1.304   4.231  0.5086 -0.2430 -0.2125
 7280SOL     OW33472   3.694   3.727  13.695 -0.4317 -0.0352  0.0038
 7280SOL    HW133473   3.654   3.644  13.669 -1.7937  0.7187 -0.3088
 7280SOL    HW233474   3.625   3.793  13.691  0.6102  1.1528  1.6755
 7281SOL     OW33475   3.064   0.405   7.988  0.2372 -0.3931 -0.2357
 7281SOL    HW133476   3.040   0.315   8.010 -0.1601  0.1364  1.4706
 7281SOL    HW233477   3.136   0.396   7.925  0.1197 -1.6748 -0.1955
 7282SOL     OW33478   3.344   1.360   6.724 -0.4977 -0.0470 -0.8260
 7282SOL    HW133479   3.428   1.400   6.702  0.0546 -1.2394 -0.8602
 7282SOL    HW233480   3.299   1.434   6.765  0.6046  0.8077 -1.1469
 7283SOL     OW33481   1.439   1.532   1.828 -0.7092  0.3707 -0.2117
 7283SOL    HW133482   1.442   1.569   1.916  3.3736 -0.0256 -0.1613
 7283SOL    HW233483   1.498   1.591   1.781 -0.8755  1.0095  0.3783
 7284SOL     OW33484   0.130   3.298   1.789  0.2887  0.3223  0.3487
 7284SOL    HW133485   0.087   3.252   1.717  1.8638 -1.7531  0.7354
 7284SOL    HW233486   0.052   3.342   1.822 -0.0116  0.7075 -0.8917
 7285SOL     OW33487   1.912   2.045   4.332 -0.2848 -0.4980 -0.2440
 7285SOL    HW133488   1.928   1.951   4.322 -0.8886 -0.7830  1.4605
 7285SOL    HW233489   1.818   2.048   4.348 -0.3107 -1.2877 -0.2661
 7286SOL     OW33490   2.343   1.706  15.374 -0.2915 -0.4554  0.1510
 7286SOL    HW133491   2.436   1.688  15.361  0.0081  1.3627 -0.1833
 7286SOL    HW233492   2.348   1.778  15.437  1.6934 -0.5459  0.0965
 7287SOL     OW33493   1.494   0.377  11.295  0.4774  0.1965 -0.6799
 7287SOL    HW133494   1.551   0.453  11.291  1.8926 -0.8040  0.3905
 7287SOL    HW233495   1.547   0.298  11.308  0.5248  0.0795 -1.5809
 7288SOL     OW33496   2.384   2.390   4.159  0.2623  0.4881  0.1561
 7288SOL    HW133497   2.361   2.380   4.252  0.0630 -1.5791 -0.1108
 7288SOL    HW233498   2.294   2.395   4.127 -0.4815 -1.5094  1.8908
 7289SOL     OW33499   3.917   1.208   3.222  0.3541  0.5359  0.5848
 7289SOL    HW133500   4.006   1.227   3.253  0.4737 -0.1894  0.6918
 7289SOL    HW233501   3.890   1.134   3.277 -0.2275  0.0061 -0.4121
 7290SOL     OW33502   3.432   1.839  10.854 -0.1849  0.5381 -0.3415
 7290SOL    HW133503   3.340   1.836  10.827 -0.3228  0.3895  0.1399
 7290SOL    HW233504   3.463   1.820  10.765  2.2801 -1.8363  1.0297
 7291SOL     OW33505   0.319   1.103   4.994 -0.1217  0.0032  0.7473
 7291SOL    HW133506   0.290   1.135   5.079  0.4222 -1.0385  1.3275
 7291SOL    HW233507   0.245   1.088   4.936  0.1496 -0.2260  0.4599
 7292SOL     OW33508   0.467   4.039   8.181  0.1596 -0.8275  0.6506
 7292SOL    HW133509   0.489   4.065   8.271  3.2694 -1.2493 -0.0001
 7292SOL    HW233510   0.409   4.108   8.150 -1.0375 -2.0699  0.1068
 7293SOL     OW33511   1.841   1.077   4.983  0.2402  0.1927  0.1331
 7293SOL    HW133512   1.903   1.107   4.916 -0.4616  1.0317 -0.1514
 7293SOL    HW233513   1.757   1.119   4.961 -0.4841 -0.5423  1.5183
 7294SOL     OW33514   0.450   3.797   3.208 -0.1512  0.1732 -0.0769
 7294SOL    HW133515   0.430   3.888   3.185  1.1510  0.5129  0.1211
 7294SOL    HW233516   0.419   3.746   3.134  0.5201 -1.5276  0.8171
 7295SOL     OW33517   4.172   4.554   6.070  0.7183 -0.3119  0.5698
 7295SOL    HW133518   4.255   4.526   6.108  0.1879 -1.9730  0.5131
 7295SOL    HW233519   4.115   4.523   6.139 -1.1900  0.0858 -0.8141
 7296SOL     OW33520   0.014   2.933  13.907 -0.1039  0.5336  1.0503
 7296SOL    HW133521   0.074   3.006  13.924  0.3611  0.0151  1.6481
 7296SOL    HW233522   4.675   2.982  13.884 -0.1640 -0.2560 -0.4195
 7297SOL     OW33523   0.871   3.557   8.541 -0.1836  0.3304  0.2402
 7297SOL    HW133524   0.845   3.554   8.449 -1.1634 -2.6973  0.5989
 7297SOL    HW233525   0.783   3.571   8.575 -0.3388  0.9933 -0.4364
 7298SOL     OW33526   1.974   0.848   3.676  0.1452 -0.0835 -0.3574
 7298SOL    HW133527   1.905   0.817   3.617  0.2779 -0.8644 -0.0953
 7298SOL    HW233528   1.918   0.882   3.746 -0.1835 -0.4083 -0.4629
 7299SOL     OW33529   4.196   4.571   4.160 -0.0117 -0.4675  0.0259
 7299SOL    HW133530   4.184   4.528   4.244 -0.1634 -0.9938 -0.2644
 7299SOL    HW233531   4.151   4.655   4.171 -0.2529 -0.7790  1.3910
 7300SOL     OW33532   0.307   0.162   3.707 -0.2449 -0.1154 -0.4462
 7300SOL    HW133533   0.403   0.161   3.706 -0.2476 -0.5023 -0.3800
 7300SOL    HW233534   0.306   0.076   3.665 -0.6173  0.6549 -2.0186
 7301SOL     OW33535   2.202   3.446  17.435 -0.1232  0.0042 -0.8192
 7301SOL    HW133536   2.293   3.472  17.423 -0.4852  0.1872 -3.1671
 7301SOL    HW233537   2.166   3.534  17.445  0.1844  0.1417 -0.9370
 7302SOL     OW33538   2.818   2.375   5.226  0.0447  0.6671 -0.1231
 7302SOL    HW133539   2.847   2.289   5.256  0.4596  0.8078 -0.1313
 7302SOL    HW233540   2.745   2.388   5.287 -0.0144  0.0404 -0.0534
 7303SOL     OW33541   1.273   0.046   4.983 -0.2147  0.0649 -0.1733
 7303SOL    HW133542   1.303   4.733   5.058 -2.9185  0.3243  1.0729
 7303SOL    HW233543   1.201   4.728   4.958  1.7869 -2.6025  0.1159
 7304SOL     OW33544   3.133   0.492   5.186  0.1961 -0.2215 -0.1109
 7304SOL    HW133545   3.062   0.512   5.125 -1.6543 -0.5152  1.9783
 7304SOL    HW233546   3.196   0.440   5.136 -0.4547 -0.8342 -0.2853
 7305SOL     OW33547   4.171   3.338   5.569  0.1269  0.0560  0.6227
 7305SOL    HW133548   4.230   3.405   5.604 -1.5527  0.6388  2.3471
 7305SOL    HW233549   4.169   3.360   5.476  0.1300 -0.9048  0.3969
 7306SOL     OW33550   0.156   0.814   5.926  0.0362  0.6346 -0.6822
 7306SOL    HW133551   0.200   0.861   5.996  0.9456 -0.0043 -0.8307
 7306SOL    HW233552   0.233   0.774   5.886 -0.1424  1.3002 -1.7010
 7307SOL     OW33553   1.278   4.283   6.603 -0.0400  0.1925 -0.1198
 7307SOL    HW133554   1.371   4.294   6.587  0.2036  0.1940  1.2911
 7307SOL    HW233555   1.243   4.370   6.625 -1.4172 -0.7752  1.5397
 7308SOL     OW33556   2.030   0.084   8.910 -0.2363 -0.6213 -0.7441
 7308SOL    HW133557   2.045   0.133   8.829 -1.2935  0.6885 -0.1427
 7308SOL    HW233558   2.075   0.004   8.883  0.2711  0.1802 -2.3482
 7309SOL     OW33559   2.800   1.174   3.415  0.5361 -0.2822  0.0525
 7309SOL    HW133560   2.804   1.119   3.494  0.2639 -0.1701  0.1471
 7309SOL    HW233561   2.723   1.227   3.437 -1.4091 -3.4669  0.9641
 7310SOL     OW33562   0.653   0.877  11.673 -0.3245 -0.5409 -0.0986
 7310SOL    HW133563   0.653   0.957  11.727 -0.5697  1.0769 -2.5173
 7310SOL    HW233564   0.642   0.905  11.583 -0.3482  1.0267  0.3895
 7311SOL     OW33565   2.206   2.487   1.901  0.1657  0.3401  0.1884
 7311SOL    HW133566   2.238   2.420   1.840 -0.8860  1.1881 -1.3096
 7311SOL    HW233567   2.268   2.465   1.970 -1.2804  1.7328  1.9235
 7312SOL     OW33568   3.833   4.673   8.870 -0.7666  0.5784 -0.4140
 7312SOL    HW133569   3.877   4.653   8.953 -1.3880 -1.5319 -0.5909
 7312SOL    HW233570   3.866   4.607   8.810 -2.5389 -0.3704 -0.3502
 7313SOL     OW33571   0.609   1.046   9.728  0.3549 -0.3540  0.4836
 7313SOL    HW133572   0.532   0.996   9.754 -0.0296 -0.3270 -0.6227
 7313SOL    HW233573   0.618   1.116   9.793  3.8941  1.1751 -1.6181
 7314SOL     OW33574   2.809   3.238   7.729  0.1605 -0.6864  0.0258
 7314SOL    HW133575   2.845   3.150   7.734  0.0186 -0.7930 -0.8221
 7314SOL    HW233576   2.787   3.247   7.636 -0.7214 -1.1555  0.1875
 7315SOL     OW33577   3.041   4.597   6.458  0.4174 -0.2366  0.0533
 7315SOL    HW133578   3.022   4.525   6.519  1.0359  0.1723  0.7249
 7315SOL    HW233579   3.004   4.564   6.376 -0.0606  0.2851  0.0648
 7316SOL     OW33580   0.892   2.727   1.062 -0.0079 -0.3139 -0.0515
 7316SOL    HW133581   0.834   2.668   1.110  1.2969 -0.2749  1.5858
 7316SOL    HW233582   0.912   2.687   0.978  0.8827 -3.2607  1.5739
 7317SOL     OW33583   1.244   4.553   2.948  0.3500  0.6209 -0.3286
 7317SOL    HW133584   1.188   4.478   2.969 -0.8859  1.8426  0.6609
 7317SOL    HW233585   1.326   4.504   2.950 -1.4630 -2.4107  0.4387
 7318SOL     OW33586   2.250   2.345   9.256  0.2092 -0.1015 -0.1533
 7318SOL    HW133587   2.258   2.423   9.310 -0.0285 -0.3887  0.2924
 7318SOL    HW233588   2.283   2.382   9.174  0.5856 -1.4231 -0.6026
 7319SOL     OW33589   3.264   1.854  17.563 -0.9503  0.4268  0.3102
 7319SOL    HW133590   3.354   1.839  17.537 -2.1108 -1.4787 -2.6403
 7319SOL    HW233591   3.257   1.945  17.532 -3.5341 -0.1123 -0.7463
 7320SOL     OW33592   1.313   0.450   5.151  0.2532  0.3727 -0.7086
 7320SOL    HW133593   1.347   0.364   5.125  0.5519  0.3736 -0.3074
 7320SOL    HW233594   1.251   0.466   5.079  1.5094  4.2249 -0.9258
 7321SOL     OW33595   3.927   3.481   7.349 -0.4306  0.1503 -0.0845
 7321SOL    HW133596   4.001   3.440   7.305  0.1596  0.0855  0.9553
 7321SOL    HW233597   3.921   3.570   7.314 -0.6600 -0.6084 -1.9685
 7322SOL     OW33598   1.464   0.815   7.840  0.6280 -0.0908  0.2161
 7322SOL    HW133599   1.522   0.856   7.904  2.5511 -2.9454  0.2635
 7322SOL    HW233600   1.401   0.885   7.820  0.1730 -0.5393  0.0719
 7323SOL     OW33601   2.773   2.768   1.026  0.6421 -0.0225  0.0509
 7323SOL    HW133602   2.709   2.818   0.975  0.9425  1.6062  1.2671
 7323SOL    HW233603   2.734   2.758   1.113  1.8631  0.2380  0.6421
 7324SOL     OW33604   3.410   1.382  16.501  0.0647 -0.4237 -0.4706
 7324SOL    HW133605   3.317   1.391  16.484 -0.0775  0.4440  0.7513
 7324SOL    HW233606   3.430   1.453  16.562 -2.3281  1.2321 -1.6202
 7325SOL     OW33607   1.860   0.300   8.508 -0.2953  0.2514  0.1331
 7325SOL    HW133608   1.871   0.271   8.418 -0.8724  1.5546 -0.3431
 7325SOL    HW233609   1.906   0.232   8.558  1.5688  1.3146 -0.1213
 7326SOL     OW33610   0.468   3.607   2.036  0.5098  0.2427  0.6738
 7326SOL    HW133611   0.378   3.638   2.050 -0.1351 -0.6452 -1.4333
 7326SOL    HW233612   0.473   3.613   1.940 -1.5819  2.0464  0.6615
 7327SOL     OW33613   2.171   1.712   8.740  0.4346 -0.2738  0.1430
 7327SOL    HW133614   2.076   1.706   8.732  0.5142 -1.1588 -0.1058
 7327SOL    HW233615   2.185   1.798   8.700 -2.3396  1.0836  2.0882
 7328SOL     OW33616   0.593   4.660  16.539 -0.1384  0.1371 -0.0221
 7328SOL    HW133617   0.559   0.001  16.579  1.1941  0.5603  0.2523
 7328SOL    HW233618   0.580   4.663  16.444 -2.1359 -0.7315  0.2295
 7329SOL     OW33619   0.532   1.460  11.055 -0.1324  0.0937  0.3414
 7329SOL    HW133620   0.567   1.524  11.117  2.8301 -0.2766 -0.9230
 7329SOL    HW233621   0.441   1.490  11.061 -1.0225 -2.1486 -1.9520
 7330SOL     OW33622   0.301   2.750   3.660 -0.3299 -0.2517  0.2845
 7330SOL    HW133623   0.302   2.654   3.667 -0.5251 -0.3685 -1.2245
 7330SOL    HW233624   0.389   2.777   3.634  0.4947 -1.1745  2.0916
 7331SOL     OW33625   3.541   4.384   2.233 -0.5519 -0.3933  0.1203
 7331SOL    HW133626   3.557   4.298   2.270  1.6284  0.2160  0.5934
 7331SOL    HW233627   3.475   4.418   2.294  0.0053  0.7567  0.0807
 7332SOL     OW33628   3.923   2.700   8.484  0.7754  0.1094  0.7403
 7332SOL    HW133629   3.905   2.717   8.391  2.9305  2.0782  0.6824
 7332SOL    HW233630   3.899   2.786   8.518 -1.3865 -0.7490  1.3502
 7333SOL     OW33631   1.053   1.517   5.436 -0.1738 -0.1710 -0.5483
 7333SOL    HW133632   1.118   1.515   5.366 -0.1238  1.5870 -0.5551
 7333SOL    HW233633   1.081   1.453   5.502  0.2276 -0.3736 -0.9182
 7334SOL     OW33634   2.793   0.884   9.143  0.0855  0.0172  0.4601
 7334SOL    HW133635   2.816   0.852   9.056 -1.7964 -1.4348  0.5144
 7334SOL    HW233636   2.863   0.946   9.165 -0.0339  0.1292  0.5272
 7335SOL     OW33637   3.906   0.364   9.577 -0.4754  0.0941  0.5211
 7335SOL    HW133638   3.981   0.399   9.527  2.1443 -3.1097  2.2242
 7335SOL    HW233639   3.900   0.282   9.530  1.5266  0.1320  0.1830
 7336SOL     OW33640   4.490   2.931   8.793 -0.4379 -0.7813 -0.1422
 7336SOL    HW133641   4.578   2.966   8.781 -0.7520  0.1100  0.1173
 7336SOL    HW233642   4.501   2.842   8.760  0.0978 -0.8284  0.1598
 7337SOL     OW33643   1.451   1.628   8.039  0.9268  0.3485  0.1414
 7337SOL    HW133644   1.537   1.588   8.051  0.8971  0.7985  1.8343
 7337SOL    HW233645   1.407   1.567   7.980  1.3279 -0.3602  0.5751
 7338SOL     OW33646   0.778   1.202   1.786 -0.1846  0.3285 -0.3458
 7338SOL    HW133647   0.697   1.251   1.798  0.9105  1.8474  0.8986
 7338SOL    HW233648   0.832   1.267   1.742  2.4807 -0.7040  1.3551
 7339SOL     OW33649   0.594   0.945  11.386  0.3827 -0.1686  0.4566
 7339SOL    HW133650   0.666   0.900  11.343  0.7658 -0.0715  0.9935
 7339SOL    HW233651   0.565   1.009  11.321  0.4778 -1.8829 -1.2839
 7340SOL     OW33652   4.226   4.181  16.680 -0.7986 -0.2096 -0.3766
 7340SOL    HW133653   4.232   4.085  16.684  2.5118 -0.0307 -1.6394
 7340SOL    HW233654   4.135   4.188  16.708 -1.2396 -2.6234 -1.2175
 7341SOL     OW33655   1.752   0.689   8.878  0.1371  0.8778  0.2556
 7341SOL    HW133656   1.727   0.626   8.945  1.4435 -0.0336 -0.1195
 7341SOL    HW233657   1.728   0.640   8.800 -0.2286  1.4951 -0.0237
 7342SOL     OW33658   0.550   1.970   3.819  0.2010  0.5848 -0.6868
 7342SOL    HW133659   0.510   2.005   3.739 -0.9216 -0.5532 -0.6257
 7342SOL    HW233660   0.611   1.914   3.771 -0.9940 -0.3872 -1.0795
 7343SOL     OW33661   2.848   2.945   6.463 -0.0013  0.1812  0.3517
 7343SOL    HW133662   2.854   2.971   6.371  0.5722 -1.1742  0.0041
 7343SOL    HW233663   2.803   2.861   6.456 -1.2007  0.7918  0.8261
 7344SOL     OW33664   1.358   1.666   7.626  0.0226 -0.3651 -0.4097
 7344SOL    HW133665   1.400   1.752   7.628 -0.9330  0.0730  1.6217
 7344SOL    HW233666   1.301   1.662   7.549 -0.7844 -1.4285  0.2483
 7345SOL     OW33667   4.433   0.958   8.874 -0.1776 -0.2251 -0.0931
 7345SOL    HW133668   4.359   0.898   8.878  0.3503 -0.9091 -0.6636
 7345SOL    HW233669   4.488   0.941   8.797 -0.4896 -0.4974 -0.2568
 7346SOL     OW33670   2.756   1.960   5.367  0.2583 -0.1379 -0.2356
 7346SOL    HW133671   2.687   2.021   5.391  0.5644  1.7893 -4.2967
 7346SOL    HW233672   2.827   2.021   5.346 -0.0748  0.2529 -0.2095
 7347SOL     OW33673   4.450   0.282   5.534  0.1734  0.4165 -0.6401
 7347SOL    HW133674   4.467   0.292   5.440  0.8571  1.3763 -0.4196
 7347SOL    HW233675   4.499   0.359   5.564  0.5018 -1.4302  3.6191
 7348SOL     OW33676   2.860   3.670  14.964  0.1481 -1.1416  0.2650
 7348SOL    HW133677   2.886   3.721  15.041  2.7228 -1.6138 -0.3008
 7348SOL    HW233678   2.937   3.683  14.909  2.4562 -0.3331  3.6834
 7349SOL     OW33679   0.525   4.255   0.710 -0.5304 -0.0716 -0.0113
 7349SOL    HW133680   0.472   4.232   0.633 -0.0650  0.5878 -0.5338
 7349SOL    HW233681   0.463   4.238   0.781  0.7098 -0.0054  1.0915
 7350SOL     OW33682   0.371   0.480  11.064 -0.7370 -0.3172 -0.2409
 7350SOL    HW133683   0.389   0.409  11.002  1.4016  1.3613 -1.5625
 7350SOL    HW233684   0.447   0.473  11.122 -0.9031  0.4021  0.0525
 7351SOL     OW33685   4.407   1.823   6.031 -0.2005  0.1488 -0.2935
 7351SOL    HW133686   4.416   1.850   5.939  0.4268  0.9243  0.0012
 7351SOL    HW233687   4.361   1.739   6.026 -0.2181  0.1043  0.6707
 7352SOL     OW33688   1.471   4.531  10.932  0.4388 -0.0846 -0.2265
 7352SOL    HW133689   1.535   4.576  10.877 -0.7047 -0.5092 -1.9036
 7352SOL    HW233690   1.524   4.505  11.007 -0.0005 -0.8431 -0.1807
 7353SOL     OW33691   0.295   2.480   3.699  0.3328 -0.5138  0.0881
 7353SOL    HW133692   0.292   2.388   3.673 -0.4142  0.4453 -3.3017
 7353SOL    HW233693   0.242   2.494   3.777 -1.4541 -1.3076 -0.9831
 7354SOL     OW33694   3.819   1.589  11.113  0.2923  0.2050  0.0325
 7354SOL    HW133695   3.775   1.553  11.190  3.0373 -1.3536  0.8992
 7354SOL    HW233696   3.747   1.644  11.084  1.7732  1.6047 -0.9790
 7355SOL     OW33697   1.085   2.899   6.862  0.1330  0.3436  0.4213
 7355SOL    HW133698   1.116   2.875   6.775 -0.5397  1.2870 -0.0866
 7355SOL    HW233699   1.138   2.979   6.869  2.7863 -1.2488 -1.9117
 7356SOL     OW33700   2.839   2.766  14.365  0.1519 -0.0118  0.1848
 7356SOL    HW133701   2.803   2.721  14.289 -0.4808  0.8918 -0.0497
 7356SOL    HW233702   2.820   2.859  14.350  3.2622  0.2356 -2.3210
 7357SOL     OW33703   2.421   4.115  11.631  0.0102 -0.2891 -0.4179
 7357SOL    HW133704   2.405   4.183  11.696 -0.1572 -0.8971  0.1807
 7357SOL    HW233705   2.441   4.038  11.684 -2.0957 -0.1343  0.5840
 7358SOL     OW33706   3.062   1.032   3.687 -0.0633 -0.0164 -0.3964
 7358SOL    HW133707   3.075   0.963   3.622 -2.1433  0.4321 -1.3148
 7358SOL    HW233708   2.974   1.011   3.718 -0.1372 -1.0310 -1.2958
 7359SOL     OW33709   0.043   4.167   2.732  0.2587  0.0607 -0.0194
 7359SOL    HW133710   0.025   4.100   2.667  2.0409  1.5926 -2.1005
 7359SOL    HW233711   4.721   4.143   2.801 -0.3202 -0.5551 -0.7563
 7360SOL     OW33712   2.331   3.780   2.522  0.0676 -0.1202 -0.1324
 7360SOL    HW133713   2.287   3.789   2.437 -1.5922 -0.6553  0.6583
 7360SOL    HW233714   2.302   3.690   2.538  0.2402 -0.2874 -0.7462
 7361SOL     OW33715   2.330   0.882  13.195 -0.2349  0.5469  0.4515
 7361SOL    HW133716   2.251   0.918  13.156  0.1086  0.5766 -0.2061
 7361SOL    HW233717   2.399   0.915  13.138 -0.1304 -2.0537 -0.9058
 7362SOL     OW33718   0.677   1.698  14.603  0.2310  0.2426 -0.0663
 7362SOL    HW133719   0.768   1.669  14.612  0.0036 -0.7959 -1.1450
 7362SOL    HW233720   0.634   1.635  14.661 -0.3092  0.4914 -0.1969
 7363SOL     OW33721   1.238   1.573  10.983 -0.5813 -0.3875 -0.3823
 7363SOL    HW133722   1.252   1.490  11.029  0.9887 -0.2390 -0.5745
 7363SOL    HW233723   1.184   1.620  11.046  0.9419 -2.2702  2.3245
 7364SOL     OW33724   2.304   0.334   1.553 -0.3390  0.0131  0.0645
 7364SOL    HW133725   2.349   0.415   1.577  1.3751 -0.2911 -2.0282
 7364SOL    HW233726   2.213   0.352   1.574 -0.6020 -1.4685  0.2010
 7365SOL     OW33727   2.844   0.154   8.822  0.4168  0.6652 -1.0334
 7365SOL    HW133728   2.773   0.201   8.867 -0.4213 -1.8218  0.2147
 7365SOL    HW233729   2.885   0.103   8.891  0.7560  1.1467 -0.8788
 7366SOL     OW33730   1.458   0.630   6.649 -0.1238 -0.3817  0.2457
 7366SOL    HW133731   1.491   0.577   6.576  1.5979  0.8711  0.1194
 7366SOL    HW233732   1.515   0.706   6.640 -1.2818  0.5459  0.7655
 7367SOL     OW33733   3.943   1.641  16.760  0.5247  0.0573 -0.1463
 7367SOL    HW133734   4.010   1.592  16.808 -0.0359 -1.3479 -0.8046
 7367SOL    HW233735   3.927   1.582  16.686  0.4339 -1.5408  1.1393
 7368SOL     OW33736   2.173   0.461  12.215  0.1611 -0.2308 -0.0944
 7368SOL    HW133737   2.160   0.487  12.306  1.7457 -2.3861  0.7362
 7368SOL    HW233738   2.128   0.530  12.166 -1.1724  1.8788  4.0607
 7369SOL     OW33739   4.575   0.907   2.743 -0.3647 -0.1964  0.0978
 7369SOL    HW133740   4.556   0.925   2.650  0.2858 -1.1773 -0.2234
 7369SOL    HW233741   4.661   0.947   2.746 -1.0075  1.3402 -1.4100
 7370SOL     OW33742   1.577   1.509   9.762 -0.0664  0.1895 -0.1976
 7370SOL    HW133743   1.589   1.537   9.853 -2.7565  0.0333  0.2191
 7370SOL    HW233744   1.644   1.442   9.747 -0.9947 -0.5872 -0.8889
 7371SOL     OW33745   4.607   1.283   8.025 -0.0824  0.6326  0.0326
 7371SOL    HW133746   4.596   1.234   8.107  0.2839 -0.2754 -0.4498
 7371SOL    HW233747   4.550   1.356   8.046 -1.2571 -0.6728  1.4277
 7372SOL     OW33748   4.564   0.629   8.936  0.2929  0.2092 -0.9276
 7372SOL    HW133749   4.484   0.680   8.930  0.8815  1.1340 -0.8694
 7372SOL    HW233750   4.540   0.583   9.016  2.6144  0.0015 -0.3484
 7373SOL     OW33751   2.584   2.444   8.356 -0.6857 -0.3616  0.2542
 7373SOL    HW133752   2.555   2.536   8.359 -0.7676 -0.2919 -2.7595
 7373SOL    HW233753   2.663   2.458   8.408  0.9625 -3.2016 -1.5469
 7374SOL     OW33754   4.497   3.186   7.593  0.1401  0.5550 -0.4574
 7374SOL    HW133755   4.544   3.205   7.511  1.3159 -0.1187  0.0543
 7374SOL    HW233756   4.521   3.269   7.634  1.1684 -1.0325  2.1415
 7375SOL     OW33757   4.410   4.677   0.173 -0.0162 -0.9436 -0.5196
 7375SOL    HW133758   4.493   4.638   0.202  1.3860  3.2916  1.2604
 7375SOL    HW233759   4.412   0.026   0.207  0.9816 -0.5637 -1.5691
 7376SOL     OW33760   2.329   2.281   7.155 -0.1317 -0.1272  0.0783
 7376SOL    HW133761   2.402   2.253   7.211 -0.1027 -1.5206 -0.6598
 7376SOL    HW233762   2.264   2.294   7.224  0.5301 -3.5874  1.3882
 7377SOL     OW33763   0.976   0.939   3.007 -0.2244 -0.3648 -0.5299
 7377SOL    HW133764   0.998   0.943   2.914  1.3118 -0.9618 -0.1879
 7377SOL    HW233765   0.917   0.864   3.013  0.6355 -1.0167 -0.3277
 7378SOL     OW33766   3.468   0.732   1.237 -0.4679 -0.0047  0.7331
 7378SOL    HW133767   3.385   0.740   1.191  0.4538  0.3455 -0.8461
 7378SOL    HW233768   3.474   0.820   1.276 -1.1412  0.1690  0.4448
 7379SOL     OW33769   4.178   2.390   2.122  1.0141  0.3352  0.8134
 7379SOL    HW133770   4.230   2.313   2.099  0.9727  0.4165  0.4468
 7379SOL    HW233771   4.187   2.443   2.043  0.4148 -0.2597  0.3536
 7380SOL     OW33772   4.200   3.835  16.887 -0.5151  0.4283  0.2937
 7380SOL    HW133773   4.259   3.832  16.811  0.5823 -0.0002  1.1468
 7380SOL    HW233774   4.218   3.917  16.933 -1.3651  1.0043 -0.3988
 7381SOL     OW33775   4.434   4.425   8.604 -0.5407  0.0292  0.4846
 7381SOL    HW133776   4.504   4.360   8.610  0.9586  1.6437  0.3303
 7381SOL    HW233777   4.481   4.506   8.587  3.5159 -1.9502  2.3063
 7382SOL     OW33778   1.694   2.144  16.084 -0.1812  0.0496 -0.5312
 7382SOL    HW133779   1.712   2.098  16.166 -1.3729 -0.1275 -0.3555
 7382SOL    HW233780   1.603   2.176  16.083  1.1417  3.8433  1.3942
 7383SOL     OW33781   0.062   4.241   0.277 -0.0540 -0.0563 -0.0368
 7383SOL    HW133782   0.134   4.301   0.293  1.9261 -2.0841 -1.3941
 7383SOL    HW233783   0.002   4.266   0.348 -0.2142 -2.6982  0.7709
 7384SOL     OW33784   4.693   0.393  16.547 -0.1613  0.1025 -0.0768
 7384SOL    HW133785   4.684   0.481  16.510  0.9760 -0.3269 -1.4079
 7384SOL    HW233786   4.603   0.380  16.576 -0.2614 -2.1725 -1.4019
 7385SOL     OW33787   4.359   0.177   4.092  0.5716 -0.1596 -0.7791
 7385SOL    HW133788   4.363   0.103   4.031  0.4536  0.2934 -1.3373
 7385SOL    HW233789   4.425   0.153   4.156  0.2795 -1.0828 -0.8190
 7386SOL     OW33790   3.625   4.188  17.518 -0.4692  0.2318  0.1226
 7386SOL    HW133791   3.652   4.249  17.587 -1.7513  0.1648  0.6900
 7386SOL    HW233792   3.661   4.108  17.556  0.5762 -0.3257 -2.0275
 7387SOL     OW33793   1.035   1.469  10.828 -0.0737 -0.2631 -0.3331
 7387SOL    HW133794   0.972   1.532  10.861  2.1885  1.6733  0.3311
 7387SOL    HW233795   1.115   1.501  10.870 -0.4768 -0.2246  0.3968
 7388SOL     OW33796   1.257   4.307   8.643  0.3815 -0.6997 -0.0391
 7388SOL    HW133797   1.241   4.255   8.564  0.2143 -1.7537  0.6904
 7388SOL    HW233798   1.175   4.356   8.641  0.6023 -0.2575  2.4056
 7389SOL     OW33799   1.523   4.085   5.958 -0.2941 -0.8530 -0.1122
 7389SOL    HW133800   1.443   4.075   5.907 -1.0493  1.5278  0.6070
 7389SOL    HW233801   1.498   4.098   6.050 -1.0567 -1.2579 -0.2634
 7390SOL     OW33802   2.470   3.641   1.856  0.1324  0.8626 -0.6081
 7390SOL    HW133803   2.554   3.629   1.901 -0.9583  0.2428  1.2836
 7390SOL    HW233804   2.450   3.559   1.812  0.7923  0.2662  0.1779
 7391SOL     OW33805   0.659   1.442   6.863 -0.3895  0.6287 -1.2556
 7391SOL    HW133806   0.609   1.363   6.843  0.7951 -0.6428  0.7438
 7391SOL    HW233807   0.601   1.504   6.907  1.0361  0.8111  0.3745
 7392SOL     OW33808   4.565   0.420   6.862 -0.3905 -0.1335 -0.4447
 7392SOL    HW133809   4.580   0.337   6.817  0.6466 -0.2096  0.0647
 7392SOL    HW233810   4.479   0.405   6.901 -0.5961 -1.5942 -1.4278
 7393SOL     OW33811   3.719   1.777   3.565 -0.3507  0.1148  0.2655
 7393SOL    HW133812   3.629   1.773   3.532 -0.2762  1.4149 -0.1137
 7393SOL    HW233813   3.754   1.690   3.548 -0.0780  0.1279  0.7606
 7394SOL     OW33814   4.119   4.294  10.704 -0.2071  0.4863 -0.2831
 7394SOL    HW133815   4.062   4.292  10.628  0.7435  0.6991 -0.9997
 7394SOL    HW233816   4.076   4.227  10.757 -2.1393  1.3104 -0.8187
 7395SOL     OW33817   4.141   0.042  13.623  0.5005  0.1644  0.3191
 7395SOL    HW133818   4.047   0.027  13.626  0.6939 -0.8368  1.3631
 7395SOL    HW233819   4.148   0.068  13.531 -0.0275  2.0736  0.8306
 7396SOL     OW33820   0.165   3.193   4.372 -0.2759  0.6655 -0.0089
 7396SOL    HW133821   0.219   3.115   4.364 -3.4258 -1.6340  1.0602
 7396SOL    HW233822   0.097   3.168   4.435  1.4670 -1.8542  0.8436
 7397SOL     OW33823   2.701   3.347  12.542  0.3535  0.4818 -0.2335
 7397SOL    HW133824   2.649   3.411  12.494  0.0427  0.7113  0.4000
 7397SOL    HW233825   2.642   3.307  12.606  0.6011 -0.9356 -0.9055
 7398SOL     OW33826   4.184   4.631   4.529 -1.1321  0.0220  0.4888
 7398SOL    HW133827   4.244   4.670   4.465 -1.9084 -2.4020 -1.7398
 7398SOL    HW233828   4.233   4.567   4.580 -0.5742 -0.4511 -0.6473
 7399SOL     OW33829   4.725   0.884   7.559  0.0587 -0.4777 -0.5933
 7399SOL    HW133830   4.715   0.892   7.654  2.5916  0.7499 -0.4331
 7399SOL    HW233831   0.043   0.808   7.546 -1.6350 -1.9422  0.4553
 7400SOL     OW33832   1.645   1.801  16.123 -0.8252  0.1112 -0.0171
 7400SOL    HW133833   1.622   1.814  16.031  1.9019 -0.2267 -0.7477
 7400SOL    HW233834   1.721   1.743  16.118 -1.6303 -1.0966  1.4308
 7401SOL     OW33835   2.211   4.452   4.717  0.2341 -0.4200 -0.1012
 7401SOL    HW133836   2.296   4.439   4.675 -0.1828  0.9437 -1.3661
 7401SOL    HW233837   2.171   4.509   4.651  1.4853 -1.5287 -1.8234
 7402SOL     OW33838   1.748   0.893   5.854 -0.3637  0.2170  0.7459
 7402SOL    HW133839   1.811   0.964   5.859  0.7360 -0.8483  2.2310
 7402SOL    HW233840   1.804   0.819   5.829 -1.3882  0.3040 -1.7830
 7403SOL     OW33841   0.897   0.326   9.221  0.3394  0.1572  0.0121
 7403SOL    HW133842   0.882   0.232   9.213 -2.5130  0.8685 -3.3219
 7403SOL    HW233843   0.971   0.329   9.159  1.0448 -2.6146  0.7377
 7404SOL     OW33844   1.036   0.442  11.750  0.1327 -0.2849 -0.0887
 7404SOL    HW133845   1.055   0.389  11.826 -0.9200 -1.2996 -0.5342
 7404SOL    HW233846   1.103   0.407  11.692 -0.7367  0.4273 -1.5392
 7405SOL     OW33847   1.964   4.330   7.335 -0.1087  0.2765 -0.1068
 7405SOL    HW133848   2.017   4.408   7.347  0.1065  0.3029 -1.2041
 7405SOL    HW233849   2.028   4.259   7.338  0.9222  1.3858  3.2644
 7406SOL     OW33850   2.500   0.595   1.615  0.3443  0.4008 -0.1899
 7406SOL    HW133851   2.506   0.677   1.566  0.1818  2.4659  3.2357
 7406SOL    HW233852   2.579   0.553   1.582  1.0009 -0.6105  2.6916
 7407SOL     OW33853   0.846   4.264   3.400 -0.3578 -0.0840 -0.0011
 7407SOL    HW133854   0.892   4.241   3.480  0.8036  0.6813 -0.4439
 7407SOL    HW233855   0.901   4.212   3.341  3.1273  2.2905  1.1544
 7408SOL     OW33856   2.155   1.512  11.752 -0.1088 -0.4667 -0.5476
 7408SOL    HW133857   2.227   1.522  11.690 -1.7762 -0.8409 -2.5439
 7408SOL    HW233858   2.100   1.574  11.704  0.4461 -0.0578 -0.6503
 7409SOL     OW33859   3.219   0.203   0.555 -0.4719  0.0095  0.0189
 7409SOL    HW133860   3.158   0.155   0.499  1.3355 -0.9125 -1.1819
 7409SOL    HW233861   3.259   0.256   0.487 -1.2316  0.1323 -0.3352
 7410SOL     OW33862   1.752   4.426   7.616 -0.3845  0.4356  0.0839
 7410SOL    HW133863   1.822   4.364   7.635  0.2843  1.8352  2.2001
 7410SOL    HW233864   1.725   4.395   7.529  0.8246  1.5249 -0.6951
 7411SOL     OW33865   3.980   3.653   4.699  0.4300  0.5095 -0.4754
 7411SOL    HW133866   4.038   3.729   4.699 -0.2542  1.0289  0.7438
 7411SOL    HW233867   3.928   3.674   4.777  1.3537 -1.4044  0.6764
 7412SOL     OW33868   2.054   4.514   3.413  0.1780  0.2262 -0.1804
 7412SOL    HW133869   2.007   4.482   3.490  0.3677  0.0524 -0.1372
 7412SOL    HW233870   2.059   4.433   3.362  0.5268  1.5877 -2.2712
 7413SOL     OW33871   0.606   1.978   2.805 -0.0763 -0.4721  0.4046
 7413SOL    HW133872   0.567   1.894   2.830 -1.5680 -0.3494 -1.4615
 7413SOL    HW233873   0.696   1.948   2.810  0.1921  0.5082  1.3925
 7414SOL     OW33874   0.134   3.734  14.507  0.4941 -0.0071  0.4843
 7414SOL    HW133875   0.167   3.739  14.417 -0.1553 -1.8635  0.1535
 7414SOL    HW233876   0.038   3.738  14.498  0.3517 -4.2159  0.2069
 7415SOL     OW33877   1.298   4.023   5.811  0.4718 -0.2183 -0.2148
 7415SOL    HW133878   1.230   4.081   5.844  0.7412 -0.5227  0.8766
 7415SOL    HW233879   1.254   3.960   5.754 -1.3285 -0.2042  1.1704
 7416SOL     OW33880   0.235   4.330  12.473 -0.3416 -0.5998  0.5475
 7416SOL    HW133881   0.224   4.314  12.380 -0.3890 -2.6039  0.8979
 7416SOL    HW233882   0.330   4.327  12.485 -0.3215  1.7191  0.9462
 7417SOL     OW33883   0.187   4.348   8.648 -0.4022  0.0650  0.0210
 7417SOL    HW133884   0.264   4.297   8.627  0.9048  2.5448 -1.2323
 7417SOL    HW233885   0.197   4.351   8.744  1.5173 -1.6251 -0.1272
 7418SOL     OW33886   0.485   2.008   7.121  0.3062  0.4756 -0.0581
 7418SOL    HW133887   0.476   2.101   7.140 -1.1185 -0.1004  2.1828
 7418SOL    HW233888   0.572   1.996   7.161 -0.3788 -2.6128  0.5198
 7419SOL     OW33889   4.148   1.410   2.166 -0.1014 -0.2009  0.1067
 7419SOL    HW133890   4.170   1.374   2.252  1.8830 -0.1251 -0.3625
 7419SOL    HW233891   4.232   1.412   2.120  0.2649 -0.4290  0.7567
 7420SOL     OW33892   1.272   1.260   6.365 -0.1753 -0.3603 -0.5721
 7420SOL    HW133893   1.251   1.193   6.301 -1.2063 -3.7004  3.2476
 7420SOL    HW233894   1.355   1.230   6.402 -1.6020 -3.1435  0.3519
 7421SOL     OW33895   4.190   0.411   3.970  0.0791 -0.1119 -0.6127
 7421SOL    HW133896   4.100   0.390   3.995  0.1434  0.1560 -0.1470
 7421SOL    HW233897   4.217   0.324   3.940 -1.0765 -0.8863  0.5678
 7422SOL     OW33898   1.099   1.504  11.588  0.9104 -0.0639  0.8624
 7422SOL    HW133899   1.070   1.579  11.640 -1.9487  0.1501 -1.0519
 7422SOL    HW233900   1.028   1.445  11.614  0.9059 -0.0767  0.8206
 7423SOL     OW33901   3.076   2.261   1.057 -0.4591  0.3009 -0.0055
 7423SOL    HW133902   3.033   2.340   1.090 -3.0164 -0.3464 -1.8003
 7423SOL    HW233903   3.134   2.292   0.987 -0.0441  0.0947  0.2517
 7424SOL     OW33904   4.053   0.833   8.569  0.3372  0.1486 -0.4223
 7424SOL    HW133905   4.011   0.762   8.522 -0.0049  0.6150 -0.8186
 7424SOL    HW233906   4.147   0.814   8.562  0.6906  2.2568 -1.4440
 7425SOL     OW33907   1.927   2.426   6.068  0.1884 -0.2592 -0.1749
 7425SOL    HW133908   1.884   2.369   6.133  0.6926  0.0613  0.4387
 7425SOL    HW233909   2.000   2.458   6.121 -0.6652 -0.2648  0.9943
 7426SOL     OW33910   2.832   3.300   2.362  0.4283  0.7262  0.0694
 7426SOL    HW133911   2.831   3.217   2.411 -0.9657  0.9398  0.4067
 7426SOL    HW233912   2.739   3.320   2.361  0.5783  1.3257 -1.5791
 7427SOL     OW33913   0.372   2.650   6.118  0.5649  0.0802 -0.4479
 7427SOL    HW133914   0.442   2.585   6.109  1.2408  0.8091 -0.4147
 7427SOL    HW233915   0.303   2.584   6.113  1.4757 -1.0788  2.4960
 7428SOL     OW33916   1.344   4.200  15.256  0.6688 -0.1594  0.8129
 7428SOL    HW133917   1.414   4.245  15.303 -0.5659  2.1284  0.4742
 7428SOL    HW233918   1.352   4.114  15.298  1.1311 -1.3140 -1.6234
 7429SOL     OW33919   1.392   3.409   2.912 -0.6977 -0.4556 -0.4414
 7429SOL    HW133920   1.316   3.402   2.969 -0.4238  0.9861  0.1185
 7429SOL    HW233921   1.464   3.440   2.968 -1.7053  2.2900 -0.6328
 7430SOL     OW33922   4.325   2.052   4.322  0.1775 -0.1875  0.4066
 7430SOL    HW133923   4.345   2.134   4.275 -2.9220  0.6153  0.5306
 7430SOL    HW233924   4.239   2.066   4.360 -0.0447 -0.4063 -0.0168
 7431SOL     OW33925   2.712   3.826   7.921  0.6077  0.1253  0.2380
 7431SOL    HW133926   2.740   3.852   7.834 -0.1543 -2.6615 -0.8502
 7431SOL    HW233927   2.735   3.899   7.979  0.8539  2.1713 -2.4530
 7432SOL     OW33928   3.325   4.504  15.169 -0.0636 -0.0187 -0.2335
 7432SOL    HW133929   3.255   4.552  15.125 -0.9475 -0.8287  0.2926
 7432SOL    HW233930   3.393   4.571  15.173  2.7393 -2.7654 -0.9794
 7433SOL     OW33931   2.762   2.658  14.107 -0.0463 -0.6070  0.1066
 7433SOL    HW133932   2.712   2.706  14.041  0.5529  0.0906  0.1611
 7433SOL    HW233933   2.808   2.604  14.043 -0.2641 -1.8748  1.0187
 7434SOL     OW33934   1.341   0.786  11.263  0.7254  0.0628 -0.0258
 7434SOL    HW133935   1.348   0.695  11.292 -0.3461 -0.0904 -0.2455
 7434SOL    HW233936   1.345   0.829  11.348 -1.3152  0.3279 -0.0724
 7435SOL     OW33937   2.221   3.588   3.754 -0.2166 -0.5509  0.1858
 7435SOL    HW133938   2.298   3.591   3.812  0.8680 -1.1893 -1.2077
 7435SOL    HW233939   2.155   3.588   3.823 -3.2478 -2.1199 -2.7306
 7436SOL     OW33940   3.178   4.552   8.163 -0.1561 -0.4451  0.4302
 7436SOL    HW133941   3.211   4.640   8.149 -1.5403 -0.0828 -0.5764
 7436SOL    HW233942   3.167   4.553   8.259 -1.1924  0.4455  0.3006
 7437SOL     OW33943   0.232   4.727   0.774 -0.2033  0.0235 -0.3324
 7437SOL    HW133944   0.190   4.687   0.851 -1.3990  2.2451  0.1681
 7437SOL    HW233945   0.218   0.078   0.803 -1.4445 -0.6659  1.2671
 7438SOL     OW33946   4.119   0.544   2.437 -0.2521 -0.6360 -0.9269
 7438SOL    HW133947   4.054   0.476   2.419 -0.2233 -0.5234 -1.4822
 7438SOL    HW233948   4.075   0.616   2.392  1.7554  0.1678 -1.5663
 7439SOL     OW33949   3.386   1.830   0.260  0.1273  0.1304 -0.1834
 7439SOL    HW133950   3.324   1.856   0.192 -0.2561  0.5233  0.3130
 7439SOL    HW233951   3.434   1.766   0.208 -0.6101 -1.8593  1.5659
 7440SOL     OW33952   1.458   1.643  17.531  0.0697  0.1679  0.7079
 7440SOL    HW133953   1.442   1.736  17.550  1.6520  0.6607 -0.3787
 7440SOL    HW233954   1.469   1.622  17.624  0.8275  0.1289  0.6044
 7441SOL     OW33955   3.492   0.374   8.707  0.3600 -0.0362 -0.0104
 7441SOL    HW133956   3.400   0.350   8.700  0.3946 -0.0036 -0.5745
 7441SOL    HW233957   3.522   0.333   8.788  0.0625 -0.8674 -0.3138
 7442SOL     OW33958   2.282   3.743  10.478  0.0699 -0.6266  0.0286
 7442SOL    HW133959   2.324   3.668  10.437  2.1378  0.2369  0.5852
 7442SOL    HW233960   2.197   3.701  10.485 -0.0320 -0.3671  0.3745
 7443SOL     OW33961   4.270   0.728  12.058 -0.0919  0.3742 -0.4626
 7443SOL    HW133962   4.244   0.813  12.095 -2.3441  0.5579 -2.4733
 7443SOL    HW233963   4.330   0.761  11.990  1.3464  0.3274  0.7706
 7444SOL     OW33964   3.517   0.585   2.482  0.3916  0.6803  0.2603
 7444SOL    HW133965   3.575   0.552   2.551  1.8910 -0.6170 -1.6052
 7444SOL    HW233966   3.527   0.512   2.420 -0.1070  0.3846  0.5276
 7445SOL     OW33967   4.519   2.362  11.389  0.4085  0.3351  0.0892
 7445SOL    HW133968   4.532   2.403  11.475 -0.8690 -0.1861  0.5345
 7445SOL    HW233969   4.489   2.430  11.328  0.8339 -0.5521 -1.0991
 7446SOL     OW33970   1.129   1.364   7.515  0.4189  0.4281 -0.4934
 7446SOL    HW133971   1.124   1.414   7.597  0.6649 -0.9620  0.3692
 7446SOL    HW233972   1.158   1.277   7.543  1.7953  0.1203 -2.9001
 7447SOL     OW33973   3.961   0.123   8.216 -0.0494  0.9117  0.5381
 7447SOL    HW133974   4.017   0.047   8.200 -2.0974 -0.3911 -0.3249
 7447SOL    HW233975   3.902   0.101   8.288  0.2633  0.7225  0.7397
 7448SOL     OW33976   4.542   1.074   4.698  0.1833 -0.1149  0.2784
 7448SOL    HW133977   4.606   1.070   4.769  0.8303  0.7192 -0.2522
 7448SOL    HW233978   4.601   1.127   4.643  1.1163  0.7917  2.1321
 7449SOL     OW33979   0.890   4.486  16.672 -0.4093  0.4294  0.2574
 7449SOL    HW133980   0.818   4.428  16.650  0.5486 -0.3240 -0.8792
 7449SOL    HW233981   0.909   4.529  16.589  1.7359 -2.6750 -0.8520
 7450SOL     OW33982   0.010   3.004   2.442 -0.3890  0.2518 -0.4498
 7450SOL    HW133983   4.694   3.081   2.453  1.1250  1.2660  0.0513
 7450SOL    HW233984   4.722   2.950   2.516  0.5612  1.7066  0.9673
 7451SOL     OW33985   1.276   1.849   8.766  0.0394  0.4118  0.1167
 7451SOL    HW133986   1.268   1.928   8.819 -1.4745  1.2954 -1.4766
 7451SOL    HW233987   1.248   1.881   8.681 -0.2584  1.2272  0.5193
 7452SOL     OW33988   3.243   0.427   2.564 -0.3805 -0.0921 -0.0384
 7452SOL    HW133989   3.272   0.442   2.654 -0.2814 -1.6892  0.2072
 7452SOL    HW233990   3.270   0.501   2.511  0.7145  0.0314  0.7031
 7453SOL     OW33991   3.126   3.699   8.113 -0.5806 -0.2047  0.5179
 7453SOL    HW133992   3.158   3.612   8.089 -0.1527 -0.5845  2.4629
 7453SOL    HW233993   3.112   3.735   8.025  1.2350  1.3224  0.8733
 7454SOL     OW33994   4.330   4.481   0.795 -0.3491  0.0047  0.0917
 7454SOL    HW133995   4.335   4.517   0.884 -0.6514  2.4930 -0.9218
 7454SOL    HW233996   4.423   4.469   0.775 -0.4391  0.0915 -0.3671
 7455SOL     OW33997   2.617   0.061   4.311  0.0619 -0.0581  0.2685
 7455SOL    HW133998   2.570   4.739   4.367  1.2098 -1.1103  0.0636
 7455SOL    HW233999   2.578   0.148   4.319  1.1931  0.4625  0.1079
 7456SOL     OW34000   2.731   2.391   3.746 -0.1278 -0.7629 -0.1328
 7456SOL    HW134001   2.809   2.368   3.795  0.9060  0.7534 -1.0680
 7456SOL    HW234002   2.684   2.440   3.814  1.6444 -0.8481  1.1324
 7457SOL     OW34003   4.548   1.939  10.089  0.6295 -0.3352 -0.7424
 7457SOL    HW134004   4.494   1.930  10.010 -0.0776  0.7147 -0.3758
 7457SOL    HW234005   4.530   1.853  10.128 -0.5978 -0.2957 -1.2037
 7458SOL     OW34006   1.942   2.592   6.487 -0.4557 -0.4147  0.0911
 7458SOL    HW134007   2.037   2.602   6.481 -0.4967 -0.0940  0.0212
 7458SOL    HW234008   1.925   2.596   6.393 -1.8806  1.9512  0.4608
 7459SOL     OW34009   0.649   2.389  10.895  0.1688  0.6804 -0.0524
 7459SOL    HW134010   0.741   2.371  10.916 -0.6860 -3.6448 -0.1152
 7459SOL    HW234011   0.591   2.346  10.958  1.8218 -0.9874  0.3295
 7460SOL     OW34012   0.696   2.337   7.857 -0.1801  0.3667  0.4176
 7460SOL    HW134013   0.742   2.316   7.938  1.2529 -0.9267 -0.7446
 7460SOL    HW234014   0.742   2.419   7.838 -0.3148  0.5826  1.0172
 7461SOL     OW34015   3.855   2.364   1.736  0.1905 -0.0720  0.4904
 7461SOL    HW134016   3.938   2.409   1.719  1.6959 -2.6171  1.0582
 7461SOL    HW234017   3.809   2.442   1.768  0.2458  0.7567 -1.4625
 7462SOL     OW34018   0.300   0.352   8.544  0.1936 -0.6393  0.6479
 7462SOL    HW134019   0.334   0.263   8.538 -0.0387 -0.8034  1.7748
 7462SOL    HW234020   0.283   0.363   8.450 -1.3059 -3.8197  0.5470
 7463SOL     OW34021   3.626   1.025   6.745 -0.1045  0.3179 -0.5964
 7463SOL    HW134022   3.593   0.952   6.797  0.7740 -1.0418 -1.9499
 7463SOL    HW234023   3.548   1.035   6.690 -0.8236 -0.4228  0.2859
 7464SOL     OW34024   0.589   0.839   6.089 -0.6277  0.8429 -0.0279
 7464SOL    HW134025   0.662   0.792   6.048 -0.3134  1.3977 -0.1074
 7464SOL    HW234026   0.630   0.837   6.176 -1.2194 -0.4541  0.2270
 7465SOL     OW34027   1.721   3.864   8.395 -0.3251 -0.3583 -0.0245
 7465SOL    HW134028   1.706   3.959   8.396 -0.2293 -0.3522  0.9310
 7465SOL    HW234029   1.787   3.862   8.326  1.0267  1.8271  1.2148
 7466SOL     OW34030   0.730   4.539   3.098 -0.2694 -0.2326 -0.0755
 7466SOL    HW134031   0.759   4.456   3.060  2.3977  0.5716  0.2079
 7466SOL    HW234032   0.816   4.579   3.090 -0.9401  1.4734  1.2451
 7467SOL     OW34033   2.370   1.543   4.262  0.3222  0.0857  0.6830
 7467SOL    HW134034   2.443   1.595   4.295  1.9455 -2.9486  1.8643
 7467SOL    HW234035   2.377   1.554   4.167 -0.9108 -1.4401  0.3957
 7468SOL     OW34036   0.934   3.193   7.326  0.3818  0.0342  0.2055
 7468SOL    HW134037   0.936   3.118   7.267  0.2687 -0.6719  1.1006
 7468SOL    HW234038   1.022   3.228   7.315 -0.1815  1.9304  1.7746
 7469SOL     OW34039   2.971   4.189   3.998  0.1504 -0.4341 -0.0719
 7469SOL    HW134040   3.013   4.229   3.923  0.7402  3.8032  2.5344
 7469SOL    HW234041   2.877   4.192   3.977 -0.3029  1.8900  2.2299
 7470SOL     OW34042   4.331   3.652  16.570 -0.4107 -0.2288  0.0180
 7470SOL    HW134043   4.391   3.606  16.512 -1.5809 -2.1697  0.3543
 7470SOL    HW234044   4.341   3.605  16.653  3.4078 -0.9454 -0.8455
 7471SOL     OW34045   0.638   3.369   9.066 -0.2237 -0.2647  0.4259
 7471SOL    HW134046   0.617   3.447   9.014  0.6431 -1.7569 -2.1928
 7471SOL    HW234047   0.692   3.332   8.996  2.6417  1.7807  1.5481
 7472SOL     OW34048   1.896   3.980   7.501  0.7352 -0.2299  0.5454
 7472SOL    HW134049   1.937   3.910   7.449  0.7913  0.4985 -0.4060
 7472SOL    HW234050   1.974   4.031   7.523 -0.0926 -0.1515  3.2326
 7473SOL     OW34051   3.682   2.112   4.228 -0.0786 -1.0554 -0.3354
 7473SOL    HW134052   3.706   2.082   4.141 -0.2402 -0.8078 -0.4662
 7473SOL    HW234053   3.611   2.169   4.199 -0.0788 -1.2732 -0.7549
 7474SOL     OW34054   0.173   0.943   1.312  0.5169  0.3263 -0.0143
 7474SOL    HW134055   0.175   0.925   1.406  0.5849 -2.2083 -0.4834
 7474SOL    HW234056   0.086   0.981   1.299 -0.2281 -1.4812 -0.4327
 7475SOL     OW34057   4.282   1.290   8.334  0.0180 -1.0155  0.0400
 7475SOL    HW134058   4.239   1.223   8.388 -1.6827  1.5869  1.8892
 7475SOL    HW234059   4.374   1.267   8.339  0.2826  0.3341  1.1067
 7476SOL     OW34060   0.650   0.603   4.775  0.2975  0.4945 -0.9623
 7476SOL    HW134061   0.612   0.592   4.688 -1.2734 -0.0636 -0.2149
 7476SOL    HW234062   0.592   0.674   4.803  0.4393 -0.3502  1.5126
 7477SOL     OW34063   0.552   0.605  11.234  0.0968  0.1406  0.1866
 7477SOL    HW134064   0.635   0.565  11.258 -0.2446 -1.0575 -0.6247
 7477SOL    HW234065   0.582   0.658  11.160 -0.5633 -1.9125 -1.5712
 7478SOL     OW34066   1.558   0.798   7.562 -0.1442 -0.1245  0.4668
 7478SOL    HW134067   1.500   0.798   7.639 -0.6362 -1.2306  0.1053
 7478SOL    HW234068   1.586   0.706   7.559  0.4185 -0.0685  4.6450
 7479SOL     OW34069   2.470   0.053   1.801 -0.1123 -0.4789 -0.4964
 7479SOL    HW134070   2.491   4.711   1.757  1.6462 -1.0988  1.5051
 7479SOL    HW234071   2.550   0.104   1.791 -0.7731  0.6942  0.0244
 7480SOL     OW34072   3.061   1.748  17.398  0.6446 -0.1646 -0.1978
 7480SOL    HW134073   3.048   1.675  17.459 -0.9959 -1.4065 -2.0018
 7480SOL    HW234074   3.087   1.810  17.466  1.0096 -1.6733  1.0481
 7481SOL     OW34075   1.041   0.917   2.737  0.5284  0.0203  0.0376
 7481SOL    HW134076   1.069   0.919   2.646  1.4403 -0.6109  0.2978
 7481SOL    HW234077   1.024   1.009   2.753 -1.7120 -0.4879  0.5739
 7482SOL     OW34078   0.485   3.268   2.790  0.3376  0.5510  0.1884
 7482SOL    HW134079   0.562   3.301   2.837 -0.0184 -0.4087  1.4335
 7482SOL    HW234080   0.504   3.325   2.716 -1.7609  1.6197  0.4597
 7483SOL     OW34081   1.540   0.495   2.894 -0.8676  0.3500 -0.3535
 7483SOL    HW134082   1.539   0.514   2.987 -1.2452  1.2357 -0.5381
 7483SOL    HW234083   1.449   0.473   2.872 -0.7127  0.4758 -1.1185
 7484SOL     OW34084   1.354   2.051   7.260 -0.2891 -0.1059  0.2988
 7484SOL    HW134085   1.319   2.121   7.315  1.1938 -0.5485  1.8106
 7484SOL    HW234086   1.290   2.057   7.189 -1.2557  0.1969  1.1949
 7485SOL     OW34087   3.731   2.258  12.202 -0.0582  0.2875  0.2548
 7485SOL    HW134088   3.640   2.284  12.214  0.3084  1.2761  1.0225
 7485SOL    HW234089   3.774   2.344  12.202 -1.3304  0.9144 -0.4139
 7486SOL     OW34090   0.226   4.141  15.129  0.5146 -0.2687 -0.4711
 7486SOL    HW134091   0.206   4.099  15.046  0.2717 -0.9547 -0.0636
 7486SOL    HW234092   0.220   4.074  15.198  2.1310 -0.1240 -0.1875
 7487SOL     OW34093   3.102   1.857   6.540 -0.0014 -0.1696 -0.2845
 7487SOL    HW134094   3.061   1.791   6.484 -0.1475  0.3524 -0.7906
 7487SOL    HW234095   3.177   1.810   6.575 -0.7274 -0.6756  0.6177
 7488SOL     OW34096   2.921   3.025   9.291 -0.1844 -0.7471 -0.1434
 7488SOL    HW134097   2.975   3.095   9.255  2.4997 -1.5781  2.2975
 7488SOL    HW234098   2.969   2.948   9.260 -0.6874 -1.2318  0.2892
 7489SOL     OW34099   1.822   2.695  12.233 -0.3405 -0.1543  0.4630
 7489SOL    HW134100   1.891   2.667  12.173 -2.1435 -2.4836 -0.5600
 7489SOL    HW234101   1.779   2.762  12.180  1.0803 -0.0057 -0.4942
 7490SOL     OW34102   3.254   2.785  15.550 -0.2106 -0.1378 -0.0092
 7490SOL    HW134103   3.219   2.861  15.595 -0.5128 -0.1238 -0.2641
 7490SOL    HW234104   3.274   2.728  15.624  1.2842  0.1631 -0.1854
 7491SOL     OW34105   4.090   4.632   9.468 -0.0275  0.0123 -0.4583
 7491SOL    HW134106   4.125   4.545   9.453 -0.8176 -0.7009  1.7816
 7491SOL    HW234107   4.010   4.609   9.517 -1.6933  0.8630 -2.7651
 7492SOL     OW34108   0.394   1.622   7.946 -0.3139 -0.1235 -0.5638
 7492SOL    HW134109   0.458   1.623   8.018 -0.2980 -1.0623 -0.5550
 7492SOL    HW234110   0.375   1.528   7.948  2.0099 -0.6012 -1.1379
 7493SOL     OW34111   4.483   2.272   3.023 -0.1953 -0.5867  0.5994
 7493SOL    HW134112   4.541   2.346   3.002  0.4358 -1.0545  0.6872
 7493SOL    HW234113   4.527   2.205   2.970 -0.8451 -1.1510  0.7796
 7494SOL     OW34114   3.620   0.426   4.638  0.1256 -0.3146 -1.0710
 7494SOL    HW134115   3.662   0.345   4.610  3.0466  1.0350 -0.6060
 7494SOL    HW234116   3.686   0.475   4.687  2.0877 -3.1779 -0.8322
 7495SOL     OW34117   4.686   3.539   4.192  0.2640  0.0464  0.3891
 7495SOL    HW134118   4.597   3.502   4.195 -0.6092  2.1734  0.3463
 7495SOL    HW234119   4.693   3.559   4.285 -1.8121 -2.8349  1.1795
 7496SOL     OW34120   2.209   3.028   6.328 -0.6854  0.6494 -0.4880
 7496SOL    HW134121   2.257   2.983   6.398  1.0703 -0.0137 -2.1230
 7496SOL    HW234122   2.237   3.118   6.345 -1.0146  0.8547 -1.0259
 7497SOL     OW34123   3.305   0.813   8.446 -0.0947  0.0172 -0.4377
 7497SOL    HW134124   3.341   0.729   8.471  0.8012  0.0611 -1.5818
 7497SOL    HW234125   3.380   0.859   8.409 -0.7297  2.2504  1.0405
 7498SOL     OW34126   0.866   1.471   3.756 -0.1492  0.3026  0.1872
 7498SOL    HW134127   0.917   1.394   3.781  2.1510  1.6980 -0.2684
 7498SOL    HW234128   0.926   1.545   3.764 -2.3478  1.9184  2.0161
 7499SOL     OW34129   4.408   2.602   5.065 -0.5253 -0.1845  0.0132
 7499SOL    HW134130   4.489   2.560   5.093 -1.0985 -1.2569  0.0633
 7499SOL    HW234131   4.420   2.591   4.971 -1.9653 -4.4738  0.3652
 7500SOL     OW34132   4.263   4.459   8.828  0.6051  0.7170  0.0238
 7500SOL    HW134133   4.230   4.547   8.809  0.3463  0.6835  0.3135
 7500SOL    HW234134   4.297   4.441   8.740 -1.3058 -1.2024 -0.3175
 7501SOL     OW34135   4.456   2.822   5.759 -0.3687 -0.3229  0.3513
 7501SOL    HW134136   4.520   2.875   5.805  0.2443 -0.2084 -0.6217
 7501SOL    HW234137   4.403   2.892   5.721  1.9396  0.5718 -1.1850
 7502SOL     OW34138   4.608   4.644   5.926  0.3996  0.2894 -0.3296
 7502SOL    HW134139   4.622   4.707   5.855  0.3053  1.5502  0.7786
 7502SOL    HW234140   4.561   4.580   5.872  2.3546 -2.0878  0.7785
 7503SOL     OW34141   0.089   4.517   6.495 -0.4973  0.6188 -0.0691
 7503SOL    HW134142   0.109   4.481   6.581 -1.0575 -1.7079 -0.9310
 7503SOL    HW234143   4.734   4.510   6.501 -0.3407  0.2502  2.0950
 7504SOL     OW34144   2.502   0.584   2.953  0.4563  0.0194  0.6022
 7504SOL    HW134145   2.562   0.553   2.885  0.2299 -1.8922  1.3028
 7504SOL    HW234146   2.445   0.651   2.914  0.0685 -0.2425  0.7222
 7505SOL     OW34147   3.739   2.169   1.330  0.2283 -0.2942  0.2064
 7505SOL    HW134148   3.707   2.245   1.281 -2.3690 -1.6497 -0.1645
 7505SOL    HW234149   3.720   2.202   1.418 -0.3709  1.6023 -0.6456
 7506SOL     OW34150   4.112   2.361   6.415 -0.5310  0.5799 -0.3024
 7506SOL    HW134151   4.175   2.308   6.367  0.9281  1.0718  1.0918
 7506SOL    HW234152   4.083   2.295   6.478  0.4281 -0.3952 -0.8781
 7507SOL     OW34153   2.680   2.217   4.646 -0.3868  0.1959 -0.1649
 7507SOL    HW134154   2.773   2.198   4.655 -0.5197 -0.9281 -1.2493
 7507SOL    HW234155   2.683   2.301   4.692  0.8501  0.0860 -0.0426
 7508SOL     OW34156   4.326   2.316  10.119  0.2640  0.1951  0.6383
 7508SOL    HW134157   4.372   2.305  10.036 -2.4379 -1.4525 -0.6395
 7508SOL    HW234158   4.379   2.281  10.191 -0.5320 -1.4315  0.4333
 7509SOL     OW34159   3.472   3.367  12.203  0.2046 -0.0126 -0.3167
 7509SOL    HW134160   3.460   3.449  12.249  0.0051  0.2027 -0.7478
 7509SOL    HW234161   3.385   3.347  12.168 -0.5496  1.7433  0.5942
 7510SOL     OW34162   3.033   3.635   1.278 -0.0848 -0.4740  0.1356
 7510SOL    HW134163   2.971   3.669   1.344 -0.8916 -0.7553 -0.4792
 7510SOL    HW234164   3.074   3.565   1.329  0.9172 -0.0654 -0.1034
 7511SOL     OW34165   4.394   3.088   7.200 -0.2158  0.6512  0.0845
 7511SOL    HW134166   4.465   3.042   7.245  0.9435  3.2774  0.9036
 7511SOL    HW234167   4.331   3.078   7.271 -0.0417 -2.9582 -0.2315
 7512SOL     OW34168   1.054   4.573  13.369  0.3355 -0.6513  0.0858
 7512SOL    HW134169   1.016   4.487  13.386 -0.7742  0.3815  2.8944
 7512SOL    HW234170   0.982   4.626  13.335  0.3476 -0.3177  0.5740
 7513SOL     OW34171   3.238   1.668  16.761  0.3972  0.0297  0.7176
 7513SOL    HW134172   3.271   1.636  16.845  0.4475  0.3421  0.8169
 7513SOL    HW234173   3.308   1.641  16.702  0.1726 -0.4115  0.6536
 7514SOL     OW34174   1.476   3.818   2.695  0.3658 -0.0481 -0.3853
 7514SOL    HW134175   1.500   3.784   2.609  1.9590  0.3821 -0.1111
 7514SOL    HW234176   1.482   3.913   2.687  1.4006 -0.2244 -1.7093
 7515SOL     OW34177   3.801   3.612   7.765  0.0945 -0.5904  0.2769
 7515SOL    HW134178   3.727   3.596   7.823  1.1822 -0.5479  1.6832
 7515SOL    HW234179   3.751   3.650   7.693  1.6007 -0.3161 -0.6240
 7516SOL     OW34180   0.458   1.158   6.170 -1.0595  0.4259 -0.3528
 7516SOL    HW134181   0.502   1.210   6.237  0.2768 -0.1302 -0.8130
 7516SOL    HW234182   0.448   1.074   6.215 -0.6375  0.4677 -0.1766
 7517SOL     OW34183   2.559   1.692   8.773 -0.2289  0.2089 -0.4125
 7517SOL    HW134184   2.493   1.633   8.735  0.8195 -1.3962  0.2802
 7517SOL    HW234185   2.605   1.627   8.825  0.5577 -1.8467 -3.6397
 7518SOL     OW34186   0.260   2.202   4.995  0.2829 -0.1933  0.1968
 7518SOL    HW134187   0.346   2.164   4.981 -0.3279 -0.3551 -3.3361
 7518SOL    HW234188   0.222   2.173   4.912  0.8364  0.7397 -0.3901
 7519SOL     OW34189   4.161   4.339   4.374  0.2377  0.1777 -0.1340
 7519SOL    HW134190   4.245   4.306   4.406 -1.9611 -1.2023  4.1029
 7519SOL    HW234191   4.116   4.336   4.458  0.1519 -1.0699 -0.2220
 7520SOL     OW34192   2.690   4.722   3.005 -0.0123  0.0539  0.1186
 7520SOL    HW134193   2.630   4.716   2.931  1.3209  0.8702 -1.0125
 7520SOL    HW234194   2.695   0.077   3.011 -0.9498  0.1128 -0.0090
 7521SOL     OW34195   4.375   1.361   6.531  0.2308  0.1130 -0.0152
 7521SOL    HW134196   4.328   1.321   6.604 -1.2938  1.0750 -0.4567
 7521SOL    HW234197   4.366   1.454   6.553 -1.7572  0.1381 -0.9175
 7522SOL     OW34198   4.288   3.862   4.275  0.3506 -0.2599 -0.1455
 7522SOL    HW134199   4.248   3.935   4.322 -0.7771 -0.5103 -0.7107
 7522SOL    HW234200   4.253   3.872   4.187  2.9531  0.6685 -1.0616
 7523SOL     OW34201   2.657   1.709   5.666  0.4400 -0.5847  0.4140
 7523SOL    HW134202   2.716   1.785   5.668 -0.9555  0.5277 -1.4341
 7523SOL    HW234203   2.723   1.640   5.657  1.6539  0.4123  1.4129
 7524SOL     OW34204   0.136   4.310   2.313 -0.2800  0.1320 -0.5148
 7524SOL    HW134205   0.120   4.216   2.301 -0.5726  0.1931 -0.5800
 7524SOL    HW234206   0.048   4.347   2.312 -0.4809 -0.3018  0.9419
 7525SOL     OW34207   1.404   2.159  16.025  0.2591  0.6646  0.3184
 7525SOL    HW134208   1.334   2.166  15.960 -0.3939 -0.6287  0.8746
 7525SOL    HW234209   1.359   2.107  16.092  0.2517 -2.4025 -2.0763
 7526SOL     OW34210   3.038   2.738  16.732  0.1703  0.1488 -0.1442
 7526SOL    HW134211   3.071   2.828  16.736 -0.2377  0.2336  1.3076
 7526SOL    HW234212   2.951   2.760  16.766 -0.6324 -0.7704 -1.6002
 7527SOL     OW34213   1.378   4.099   2.953 -0.0144 -0.2440  0.3592
 7527SOL    HW134214   1.464   4.070   2.985  0.2653  0.6178  0.3905
 7527SOL    HW234215   1.383   4.174   2.894 -0.4542 -1.1672 -0.8431
 7528SOL     OW34216   0.685   0.015   8.307  0.0373  0.6590 -0.5248
 7528SOL    HW134217   0.600   4.713   8.322  0.0395 -0.1102 -2.6445
 7528SOL    HW234218   0.706   4.718   8.222  2.7167  0.1038  0.3886
 7529SOL     OW34219   4.261   1.579   7.960 -0.8275  0.3469 -0.6534
 7529SOL    HW134220   4.341   1.578   8.012 -0.7426 -2.0331 -0.8091
 7529SOL    HW234221   4.208   1.512   8.003  0.5801  0.5444  1.3795
 7530SOL     OW34222   2.409   0.735   8.641  0.7527  0.0600  0.2751
 7530SOL    HW134223   2.456   0.700   8.565 -0.4528  0.1387 -0.5151
 7530SOL    HW234224   2.384   0.820   8.604  1.1738  0.0972  0.0762
 7531SOL     OW34225   2.292   0.499   7.396  0.2345 -0.3964  0.7009
 7531SOL    HW134226   2.384   0.485   7.374 -0.0657 -1.5277  0.1758
 7531SOL    HW234227   2.271   0.584   7.358 -2.2056 -1.8801 -1.2481
 7532SOL     OW34228   1.058   0.126   6.757 -0.2801 -0.6088 -0.0910
 7532SOL    HW134229   1.011   0.190   6.703 -0.8187 -1.5847 -0.7864
 7532SOL    HW234230   1.074   0.182   6.832 -0.8541 -1.3809  0.6119
 7533SOL     OW34231   0.579   1.532   2.617  0.2311 -0.0493 -0.2786
 7533SOL    HW134232   0.619   1.594   2.557 -1.3807  1.2508 -0.0055
 7533SOL    HW234233   0.505   1.497   2.567  0.3315  2.3782 -2.1118
 7534SOL     OW34234   4.671   0.321  14.652  0.4312 -0.1456 -0.1139
 7534SOL    HW134235   4.640   0.412  14.651 -0.2684 -0.3858 -0.5118
 7534SOL    HW234236   4.603   0.281  14.598 -0.7081  0.8692  0.5671
 7535SOL     OW34237   4.058   1.300   2.971 -0.5794 -0.1851  0.5099
 7535SOL    HW134238   4.044   1.299   3.065 -0.1129  1.1877  0.6040
 7535SOL    HW234239   4.000   1.229   2.944 -1.7029  0.5933  0.8334
 7536SOL     OW34240   2.097   1.245  12.466  0.3406  0.5152  0.4627
 7536SOL    HW134241   2.015   1.279  12.502  0.4008  2.2709 -1.0612
 7536SOL    HW234242   2.063   1.184  12.401  2.0492  1.3640 -1.2148
 7537SOL     OW34243   1.076   2.424  11.429  0.0873 -0.8238 -0.2760
 7537SOL    HW134244   1.132   2.378  11.366  1.1015  0.3502 -0.2218
 7537SOL    HW234245   0.996   2.372  11.429 -1.2990  1.3076  0.8376
 7538SOL     OW34246   1.254   1.334  16.523  0.2075 -0.4684  0.5870
 7538SOL    HW134247   1.185   1.392  16.554  0.2610 -1.0639  1.8344
 7538SOL    HW234248   1.321   1.397  16.496 -0.5809 -0.0668 -0.4113
 7539SOL     OW34249   3.169   3.353   9.684 -0.0542  0.3515  0.4011
 7539SOL    HW134250   3.115   3.432   9.686 -0.4522  0.0708  0.8319
 7539SOL    HW234251   3.251   3.389   9.716 -1.5178  1.8679  2.4387
 7540SOL     OW34252   4.696   3.698   1.955 -0.7205  0.2143 -0.1451
 7540SOL    HW134253   4.699   3.789   1.985  0.8103  0.2751 -0.4789
 7540SOL    HW234254   4.603   3.677   1.964 -0.8146  1.0518  0.8157
 7541SOL     OW34255   3.792   0.745  13.226  0.6790 -0.0430  0.0791
 7541SOL    HW134256   3.782   0.802  13.149 -1.8930 -0.2268  0.2707
 7541SOL    HW234257   3.765   0.807  13.293 -0.5103 -1.7216  1.1524
 7542SOL     OW34258   1.956   4.254   7.726  0.6672  0.1685  0.2219
 7542SOL    HW134259   2.027   4.215   7.674  1.8355  1.2734  1.0176
 7542SOL    HW234260   1.998   4.337   7.747  2.7787 -0.9805  0.5017
 7543SOL     OW34261   0.563   0.949  12.147  0.2455 -0.5445  0.1571
 7543SOL    HW134262   0.643   0.917  12.105  1.0503  1.2169  0.3212
 7543SOL    HW234263   0.499   0.888  12.112 -1.6375 -0.3601  3.2841
 7544SOL     OW34264   3.313   3.098   4.512  0.1202  0.1798 -0.2995
 7544SOL    HW134265   3.326   3.012   4.470 -2.2082 -0.4004  0.1588
 7544SOL    HW234266   3.237   3.128   4.463  0.3499  1.3821  0.1023
 7545SOL     OW34267   2.498   2.456   6.503  0.3926 -0.1389  0.5463
 7545SOL    HW134268   2.544   2.433   6.422  1.3468 -0.3695  1.1500
 7545SOL    HW234269   2.526   2.380   6.554  0.3975 -1.1829 -1.0393
 7546SOL     OW34270   4.441   2.572  16.558 -0.1088  0.7466  0.5170
 7546SOL    HW134271   4.420   2.582  16.465  0.3056 -0.7772  0.2705
 7546SOL    HW234272   4.429   2.663  16.586 -0.9786  0.2228  1.8353
 7547SOL     OW34273   3.628   4.608   6.513 -0.2172 -0.4270 -0.0074
 7547SOL    HW134274   3.682   4.529   6.523 -0.2981 -0.7651 -2.3828
 7547SOL    HW234275   3.572   4.602   6.591  1.4941 -1.9181  1.1186
 7548SOL     OW34276   2.685   3.451   3.957 -0.1521 -0.5841 -0.3941
 7548SOL    HW134277   2.727   3.365   3.958 -0.2680 -0.6348  0.9973
 7548SOL    HW234278   2.708   3.495   3.875 -2.1291 -1.4331 -1.3986
 7549SOL     OW34279   3.869   2.275   6.361 -0.3608  0.1933 -0.4306
 7549SOL    HW134280   3.862   2.227   6.278 -0.9589 -1.6064  0.6463
 7549SOL    HW234281   3.918   2.349   6.326  1.0565 -1.2315 -1.4292
 7550SOL     OW34282   0.272   3.290   5.719 -0.6754 -0.3772  0.7698
 7550SOL    HW134283   0.208   3.359   5.707 -0.0521  0.2746  1.2295
 7550SOL    HW234284   0.340   3.344   5.760 -0.1953 -0.2304 -0.2177
 7551SOL     OW34285   3.921   0.385   8.249 -0.0514 -0.1726 -0.5888
 7551SOL    HW134286   3.958   0.297   8.243  1.1787  0.4474 -2.1766
 7551SOL    HW234287   4.002   0.432   8.272 -0.1491  0.4795 -1.5866
 7552SOL     OW34288   0.048   3.500   5.689  0.0057  0.0351 -0.1566
 7552SOL    HW134289   0.017   3.491   5.598 -0.4993 -0.9899  0.1156
 7552SOL    HW234290   0.069   3.593   5.679  0.8985 -0.3445 -1.8485
 7553SOL     OW34291   3.815   3.064   5.422 -0.0515 -0.5779  0.7829
 7553SOL    HW134292   3.827   3.097   5.511  0.3541 -1.2622  0.9769
 7553SOL    HW234293   3.767   2.984   5.440 -0.5436 -1.0460 -2.5750
 7554SOL     OW34294   2.478   0.824  11.655 -0.2930 -0.0995  0.0370
 7554SOL    HW134295   2.499   0.731  11.661  1.4390  0.2614 -0.4728
 7554SOL    HW234296   2.439   0.844  11.570 -1.2648  1.6244  0.8815
 7555SOL     OW34297   3.210   4.289   6.419  0.5105 -0.1179  0.3092
 7555SOL    HW134298   3.300   4.308   6.447  0.4817  1.4725 -0.7106
 7555SOL    HW234299   3.229   4.195   6.421  2.1794  0.2442  0.9546
 7556SOL     OW34300   3.694   2.667   2.392 -0.6807 -0.5242 -0.5131
 7556SOL    HW134301   3.689   2.582   2.348 -0.0720 -0.3302 -0.9594
 7556SOL    HW234302   3.608   2.697   2.421 -1.3209 -0.8339 -2.0818
 7557SOL     OW34303   4.580   2.936   2.834  0.1953  0.3110 -0.0158
 7557SOL    HW134304   4.622   2.852   2.814  1.4799  1.1039 -0.6969
 7557SOL    HW234305   4.538   2.956   2.750  0.4151  1.6076  0.1756
 7558SOL     OW34306   4.665   0.948  16.514 -0.1444 -0.0045  0.2073
 7558SOL    HW134307   4.585   0.929  16.464  0.5964 -1.9681 -0.2159
 7558SOL    HW234308   4.688   1.033  16.476  1.6497 -0.4155  0.4153
 7559SOL     OW34309   1.496   2.492  16.597 -0.1752  0.3141 -0.4070
 7559SOL    HW134310   1.563   2.424  16.592  0.4130  0.7653  1.1703
 7559SOL    HW234311   1.460   2.462  16.514  0.9008 -0.4854 -0.5772
 7560SOL     OW34312   1.401   4.160   6.190  0.0893  0.6809 -0.5275
 7560SOL    HW134313   1.332   4.135   6.252  0.4388  0.9494 -0.0364
 7560SOL    HW234314   1.355   4.235   6.153 -1.3425 -0.0359 -0.2068
 7561SOL     OW34315   4.406   1.923   2.961  0.7851 -0.1938 -0.2321
 7561SOL    HW134316   4.385   1.988   2.895 -0.2387 -0.3831 -0.0908
 7561SOL    HW234317   4.483   1.887   2.918 -0.2503 -1.3265 -1.0954
 7562SOL     OW34318   2.290   3.733   5.669 -0.2424 -0.2378 -0.0889
 7562SOL    HW134319   2.319   3.785   5.594  1.8867 -0.7503  0.3991
 7562SOL    HW234320   2.284   3.800   5.737 -3.3714 -2.6718  2.0082
 7563SOL     OW34321   1.877   2.108   3.877  0.4474 -0.1981  0.0326
 7563SOL    HW134322   1.957   2.093   3.926  0.0116 -1.6062  0.3160
 7563SOL    HW234323   1.818   2.131   3.948  0.1823  0.5683 -0.4375
 7564SOL     OW34324   0.151   1.332   4.823  0.1696  0.1053  0.5871
 7564SOL    HW134325   0.209   1.400   4.857 -0.5791  1.1117 -0.1707
 7564SOL    HW234326   0.085   1.388   4.784 -0.1081 -1.1447 -0.7499
 7565SOL     OW34327   0.397   2.452   8.951  0.1632  0.1305 -0.1657
 7565SOL    HW134328   0.456   2.407   8.890 -1.6640 -0.2729 -1.6214
 7565SOL    HW234329   0.320   2.396   8.943 -0.6250  1.3228 -0.9587
 7566SOL     OW34330   0.713   2.276   2.495  0.0658 -0.7532 -0.2942
 7566SOL    HW134331   0.650   2.229   2.440 -0.1195 -0.5321 -0.2710
 7566SOL    HW234332   0.777   2.311   2.434 -1.4431 -0.4250 -1.7039
 7567SOL     OW34333   1.926   3.718   4.577 -0.2024  0.7003  0.0101
 7567SOL    HW134334   1.948   3.794   4.630  0.3068 -1.4512  2.9002
 7567SOL    HW234335   1.885   3.753   4.498 -0.0795 -0.1065 -0.4184
 7568SOL     OW34336   3.185   0.541   8.621 -0.0940 -0.8622 -0.3658
 7568SOL    HW134337   3.232   0.499   8.549  1.6328 -0.3150  0.4466
 7568SOL    HW234338   3.124   0.470   8.641  0.8605 -0.8862  2.4283
 7569SOL     OW34339   0.076   0.398   6.965 -0.1959 -0.0419 -1.0992
 7569SOL    HW134340   4.720   0.402   6.961 -0.2952 -2.7352 -1.4181
 7569SOL    HW234341   0.098   0.483   7.004 -1.0698  0.7139 -2.2584
 7570SOL     OW34342   1.597   0.957  13.829 -0.1762 -0.5756 -0.1527
 7570SOL    HW134343   1.649   0.897  13.883  0.0180  0.0530  0.3606
 7570SOL    HW234344   1.632   1.034  13.875 -0.3730 -0.1799 -0.6686
 7571SOL     OW34345   0.470   4.575   8.345  0.1758 -0.0959  0.1286
 7571SOL    HW134346   0.406   4.566   8.416 -1.9467 -0.4018 -1.8142
 7571SOL    HW234347   0.414   4.554   8.270  0.4755  0.4212 -0.2482
 7572SOL     OW34348   3.692   0.732  10.926 -0.1283  0.1351 -0.3940
 7572SOL    HW134349   3.739   0.778  10.856  1.2391  1.4147  1.3704
 7572SOL    HW234350   3.605   0.718  10.890 -0.4647 -0.5733  0.6812
 7573SOL     OW34351   1.366   0.697   3.586 -0.1805 -0.1755 -0.2373
 7573SOL    HW134352   1.393   0.709   3.495  0.9759  0.3561  0.1698
 7573SOL    HW234353   1.277   0.730   3.579 -0.4190 -0.7354  0.2113
 7574SOL     OW34354   1.114   0.195  10.351 -0.6883  0.2006  0.1932
 7574SOL    HW134355   1.082   0.210  10.440  0.2927 -0.4772  0.6631
 7574SOL    HW234356   1.089   0.271  10.299  0.3803 -0.1028 -0.7558
 7575SOL     OW34357   1.043   4.634   9.512 -0.3045  0.2724 -0.5432
 7575SOL    HW134358   1.097   4.569   9.556  1.1755  1.0647 -1.1564
 7575SOL    HW234359   1.006   4.671   9.591 -1.4029 -0.1379 -0.8720
 7576SOL     OW34360   3.345   2.023   0.036  0.3145  0.3368  0.2690
 7576SOL    HW134361   3.436   2.052   0.045  0.6302 -0.1053 -1.4949
 7576SOL    HW234362   3.344   1.982  17.707  1.8606  1.6259 -0.3647
 7577SOL     OW34363   2.696   3.220   8.186  0.5044  0.1295  0.3468
 7577SOL    HW134364   2.605   3.192   8.178  0.5689 -0.7909  2.7068
 7577SOL    HW234365   2.738   3.177   8.111  1.4658 -0.3531  1.1538
 7578SOL     OW34366   0.251   4.707   1.063  0.6462  0.3790 -0.6658
 7578SOL    HW134367   0.237   0.023   1.139 -0.6199  0.4401 -0.9363
 7578SOL    HW234368   0.342   4.724   1.039  0.3709  2.6235 -0.0992
 7579SOL     OW34369   1.452   3.197   6.243 -0.3081  0.1269 -0.1480
 7579SOL    HW134370   1.407   3.255   6.305 -0.3596  0.4142 -0.4558
 7579SOL    HW234371   1.490   3.272   6.198  0.0258 -0.2068 -0.4247
 7580SOL     OW34372   1.678   3.009   4.171  1.2870  0.1774  0.0452
 7580SOL    HW134373   1.642   3.081   4.222 -2.2013 -0.5881 -1.3490
 7580SOL    HW234374   1.599   2.961   4.145  0.7672 -0.1597  2.2297
 7581SOL     OW34375   4.092   0.567  10.257  0.1463  0.3653 -0.2924
 7581SOL    HW134376   4.044   0.488  10.282 -0.8306  1.4462  1.2984
 7581SOL    HW234377   4.106   0.617  10.338  2.6843 -1.7664  0.5987
 7582SOL     OW34378   4.617   0.242  12.962 -0.3431  0.1326  0.1070
 7582SOL    HW134379   4.565   0.168  12.933 -1.8001 -0.5753  4.6052
 7582SOL    HW234380   4.557   0.306  12.923 -1.1075  0.0658  1.2059
 7583SOL     OW34381   4.322   4.028   5.230 -0.4364 -0.1885  0.2962
 7583SOL    HW134382   4.232   4.024   5.262 -0.7458 -1.5305 -0.7342
 7583SOL    HW234383   4.341   3.935   5.216  3.4555  0.8038 -1.0397
 7584SOL     OW34384   4.423   3.891   2.425  0.2030 -0.6684  0.0813
 7584SOL    HW134385   4.475   3.950   2.370 -0.8287 -0.9115 -1.1550
 7584SOL    HW234386   4.392   3.955   2.489  1.5233  0.5498 -0.4662
 7585SOL     OW34387   4.651   1.977   7.300  0.5258 -0.0379 -0.0959
 7585SOL    HW134388   0.004   1.984   7.277  0.6025  0.7996  0.4517
 7585SOL    HW234389   4.646   2.061   7.345  1.3859 -1.5386  2.8060
 7586SOL     OW34390   1.950   2.554  14.621  0.2394 -0.3002  0.2030
 7586SOL    HW134391   2.035   2.519  14.593  1.1147  0.3194  2.1060
 7586SOL    HW234392   1.942   2.635  14.570 -1.1666 -0.9946 -0.6759
 7587SOL     OW34393   0.896   0.501   3.665  0.4941  0.1003  0.2436
 7587SOL    HW134394   0.983   0.477   3.635  0.0661  0.7856 -1.5435
 7587SOL    HW234395   0.849   0.535   3.589  0.3016 -0.6483  0.0344
 7588SOL     OW34396   0.704   0.612   2.124  0.5053 -0.1454 -0.1481
 7588SOL    HW134397   0.709   0.577   2.035  2.8290  2.3530 -1.0052
 7588SOL    HW234398   0.793   0.644   2.138  0.2226  0.9632 -0.9041
 7589SOL     OW34399   1.472   1.047   5.381 -0.0711 -0.4485 -0.6519
 7589SOL    HW134400   1.549   1.102   5.392  1.4069 -1.9626 -3.2320
 7589SOL    HW234401   1.409   1.107   5.341 -0.9712  0.4464  2.1337
 7590SOL     OW34402   1.714   0.157   2.606  0.5893  0.0993 -0.1758
 7590SOL    HW134403   1.626   0.194   2.617 -0.0981 -1.5234 -0.2802
 7590SOL    HW234404   1.721   0.163   2.511 -0.8220 -0.6306 -0.3267
 7591SOL     OW34405   1.219   4.712   7.549  0.1588 -0.2349 -0.1778
 7591SOL    HW134406   1.246   4.660   7.624  0.2230 -0.9517 -0.6912
 7591SOL    HW234407   1.135   0.006   7.581  0.9325  2.8325 -1.2974
 7592SOL     OW34408   4.207   4.426   2.408 -0.1877  0.1925 -0.2311
 7592SOL    HW134409   4.251   4.461   2.331  0.9801  1.1780  0.9002
 7592SOL    HW234410   4.257   4.346   2.423  1.4936  0.9905 -1.5683
 7593SOL     OW34411   0.482   4.023  15.932  0.0336 -0.1693  0.3908
 7593SOL    HW134412   0.564   4.010  15.980 -0.7603 -2.4578  1.1058
 7593SOL    HW234413   0.508   4.032  15.840  0.1509  1.4601  0.5724
 7594SOL     OW34414   2.884   3.872  10.687  0.1322  0.1238 -0.0989
 7594SOL    HW134415   2.895   3.835  10.599  0.2718 -1.3352  0.5351
 7594SOL    HW234416   2.947   3.945  10.689  0.6420 -0.3454  0.6480
 7595SOL     OW34417   4.420   1.994   1.689  0.9198  0.3268 -0.7280
 7595SOL    HW134418   4.512   1.971   1.693  1.0560  0.5944 -2.3822
 7595SOL    HW234419   4.428   2.053   1.614  1.2896 -0.8982 -1.6498
 7596SOL     OW34420   2.803   4.256  17.102  0.0955 -0.4921 -0.0146
 7596SOL    HW134421   2.891   4.293  17.096 -1.0425  1.9710 -1.6319
 7596SOL    HW234422   2.753   4.324  17.147  2.5720  0.8442  0.7408
 7597SOL     OW34423   2.652   0.426  12.833  0.1911 -0.3285 -0.4444
 7597SOL    HW134424   2.740   0.465  12.838  0.1580 -0.2391 -0.5649
 7597SOL    HW234425   2.605   0.508  12.843 -0.2248 -0.3049 -2.6043
 7598SOL     OW34426   2.924   0.303  12.614 -0.2583 -0.0170 -0.4962
 7598SOL    HW134427   2.979   0.320  12.690  1.0800  0.1125 -1.4980
 7598SOL    HW234428   2.919   0.385  12.564 -0.0194  1.1596  1.4292
 7599SOL     OW34429   3.380   2.271   1.780  0.5457 -0.4206  0.0977
 7599SOL    HW134430   3.403   2.265   1.687  1.9630  0.5219  0.3999
 7599SOL    HW234431   3.330   2.189   1.788  0.6569 -0.4662  0.3177
 7600SOL     OW34432   0.968   0.685   2.126 -0.1606  0.2161 -1.1198
 7600SOL    HW134433   1.047   0.670   2.075 -0.5342  0.5107 -1.7756
 7600SOL    HW234434   0.988   0.767   2.171  1.2661 -2.2484  2.7514
 7601SOL     OW34435   0.645   0.168  14.891 -0.0025  0.1301 -0.3595
 7601SOL    HW134436   0.551   0.151  14.889 -0.0426  0.6266 -2.1643
 7601SOL    HW234437   0.648   0.244  14.950 -1.6436 -0.3489  0.3366
 7602SOL     OW34438   1.872   4.249   6.349  0.0154 -0.0320 -0.0450
 7602SOL    HW134439   1.950   4.215   6.393  0.0156  0.5834  0.4247
 7602SOL    HW234440   1.811   4.182   6.381 -1.2799  1.8462  1.4155
 7603SOL     OW34441   2.307   4.573   7.770  0.0273  0.6871 -0.1024
 7603SOL    HW134442   2.375   4.619   7.820  1.0319  0.8275 -1.6225
 7603SOL    HW234443   2.319   4.615   7.685  0.3530  0.2575 -0.2680
 7604SOL     OW34444   3.404   2.391  13.184 -0.0644  0.1625 -0.0393
 7604SOL    HW134445   3.371   2.334  13.114  1.4929  0.1312 -0.7547
 7604SOL    HW234446   3.361   2.346  13.257 -0.1481 -0.3168 -0.3791
 7605SOL     OW34447   0.124   0.163  13.424  0.4991  0.4205  0.3212
 7605SOL    HW134448   0.096   0.119  13.344 -0.1309 -0.1867  0.8629
 7605SOL    HW234449   0.214   0.133  13.432  0.5694  0.5657  0.0451
 7606SOL     OW34450   2.779   0.036   4.716 -0.1338  0.0417 -0.1172
 7606SOL    HW134451   2.770   0.129   4.698  1.3224 -0.1365 -1.7110
 7606SOL    HW234452   2.869   0.011   4.696 -0.4563 -1.2709  0.0487
 7607SOL     OW34453   0.046   2.183   3.159 -0.5071  0.0519 -0.1380
 7607SOL    HW134454   0.001   2.196   3.076 -0.4594 -1.9646 -0.4764
 7607SOL    HW234455   0.025   2.265   3.204 -3.8183 -0.1709 -1.2495
 7608SOL     OW34456   3.142   2.540   4.821  0.0544 -0.2288 -0.0901
 7608SOL    HW134457   3.225   2.568   4.859  0.0577  1.2623 -1.1612
 7608SOL    HW234458   3.124   2.612   4.760 -2.2632  0.1144  1.0077
 7609SOL     OW34459   0.511   0.794  14.725  0.1504  0.6259 -0.0740
 7609SOL    HW134460   0.572   0.855  14.683  1.4336 -0.7262 -0.1430
 7609SOL    HW234461   0.571   0.755  14.788  1.9462 -0.1216 -2.2314
 7610SOL     OW34462   1.095   1.742   2.006  0.0815  0.4745  0.0999
 7610SOL    HW134463   1.054   1.711   1.925  1.2838  1.2399 -0.7921
 7610SOL    HW234464   1.028   1.795   2.048  0.5015  0.2264  1.0754
 7611SOL     OW34465   1.685   3.873   9.359 -0.7967  0.1256 -0.5807
 7611SOL    HW134466   1.697   3.911   9.446  0.7974 -2.5953  0.3946
 7611SOL    HW234467   1.693   3.951   9.304  1.0180  0.3956  0.0468
 7612SOL     OW34468   0.022   4.237   3.554 -0.2872 -0.5116 -0.6834
 7612SOL    HW134469   0.067   4.184   3.488  2.1611 -0.5287  1.0121
 7612SOL    HW234470   0.094   4.300   3.565  0.1125 -0.9614 -0.7281
 7613SOL     OW34471   4.304   3.933  16.630  0.3317  0.0994 -0.0581
 7613SOL    HW134472   4.304   3.971  16.543  2.9151 -0.7018 -0.4059
 7613SOL    HW234473   4.321   3.840  16.617 -2.1311 -0.2478 -0.7847
 7614SOL     OW34474   2.708   1.524   3.857  0.1773  0.1953 -0.1918
 7614SOL    HW134475   2.712   1.547   3.950 -1.3297  0.4068 -0.1752
 7614SOL    HW234476   2.625   1.477   3.846  0.5659 -0.7496  0.8188
 7615SOL     OW34477   0.285   4.617   4.495  0.2421  0.0169 -0.1717
 7615SOL    HW134478   0.358   4.574   4.538 -0.5353 -1.4756 -0.3697
 7615SOL    HW234479   0.227   4.629   4.570  0.4957 -1.2123  0.2125
 7616SOL     OW34480   3.139   3.720   6.236  0.3304  0.3817  0.0605
 7616SOL    HW134481   3.152   3.708   6.330  1.0051  1.9194  0.1727
 7616SOL    HW234482   3.148   3.631   6.202 -0.6819  0.3786 -0.1868
 7617SOL     OW34483   2.386   3.964   5.524  0.0511 -0.0229 -0.5426
 7617SOL    HW134484   2.429   3.967   5.439 -1.7593 -0.2357 -1.4798
 7617SOL    HW234485   2.295   3.985   5.502 -1.1031 -0.8707  3.3984
 7618SOL     OW34486   3.066   2.798   7.443  0.6708 -0.4682  0.5531
 7618SOL    HW134487   3.084   2.760   7.529 -1.7222  0.1064  1.3107
 7618SOL    HW234488   2.991   2.745   7.418 -1.2343  3.6857 -2.3736
 7619SOL     OW34489   0.496   1.145  11.222  0.3568 -0.2044 -0.1796
 7619SOL    HW134490   0.537   1.230  11.204  0.8347 -0.7209 -1.5567
 7619SOL    HW234491   0.407   1.144  11.186 -0.2154  0.2199  1.2134
 7620SOL     OW34492   0.522   0.954   5.846 -0.4537  0.5381 -0.2729
 7620SOL    HW134493   0.427   0.947   5.833 -0.2566 -0.9302 -0.8436
 7620SOL    HW234494   0.527   0.904   5.927  1.5239  1.0869 -0.0554
 7621SOL     OW34495   0.003   4.351  16.179 -0.0757  0.1385  0.2356
 7621SOL    HW134496   0.059   4.321  16.250 -0.5483  0.8692  0.9199
 7621SOL    HW234497   4.656   4.344  16.220 -0.8634  0.9094 -1.2967
 7622SOL     OW34498   3.534   1.160   2.066 -0.3274 -0.0563 -0.2993
 7622SOL    HW134499   3.482   1.228   2.109  1.0861  0.6410  0.3033
 7622SOL    HW234500   3.617   1.207   2.072 -0.8444  0.7773  0.2868
 7623SOL     OW34501   3.631   1.060   2.965 -0.1378 -0.1404 -0.3286
 7623SOL    HW134502   3.584   1.089   2.887 -1.6540  0.7052  0.9000
 7623SOL    HW234503   3.604   1.131   3.024  1.1670 -0.4833  0.6649
 7624SOL     OW34504   2.567   2.435   2.815  0.2396 -0.7184  0.5481
 7624SOL    HW134505   2.649   2.435   2.863  1.3224  0.5096 -1.2957
 7624SOL    HW234506   2.550   2.528   2.800  1.4475 -0.9989 -2.5651
 7625SOL     OW34507   2.687   1.413  13.723  0.1935 -0.2745  0.3025
 7625SOL    HW134508   2.653   1.476  13.659 -0.9977  1.5559  2.7432
 7625SOL    HW234509   2.624   1.428  13.793 -1.1974 -1.7695 -0.6381
 7626SOL     OW34510   1.936   1.643  11.662  0.5576 -0.5091 -0.9228
 7626SOL    HW134511   1.859   1.617  11.611 -0.9028  3.2684 -0.6223
 7626SOL    HW234512   1.910   1.722  11.710 -0.8732 -0.7738 -1.2496
 7627SOL     OW34513   2.253   3.560  13.920  0.5502 -0.2891  0.2292
 7627SOL    HW134514   2.227   3.477  13.879  0.3601 -0.3549  0.4840
 7627SOL    HW234515   2.316   3.595  13.857  1.8754 -1.4157  0.9548
 7628SOL     OW34516   1.573   1.052   5.732  0.2623  0.1920  0.7904
 7628SOL    HW134517   1.621   1.000   5.796  1.4422  2.8604  2.0765
 7628SOL    HW234518   1.623   1.029   5.654  0.9529  2.3349  0.6102
 7629SOL     OW34519   3.749   3.490  13.204 -0.5914  0.1073  0.3337
 7629SOL    HW134520   3.739   3.570  13.151 -0.4094 -0.4548 -0.5419
 7629SOL    HW234521   3.768   3.521  13.293  0.9811  1.0288 -0.3207
 7630SOL     OW34522   3.703   3.380   5.151  0.3429 -0.0269 -0.7050
 7630SOL    HW134523   3.790   3.414   5.130  0.8433 -2.3112 -2.3801
 7630SOL    HW234524   3.690   3.341   5.065  1.9140 -0.3035 -0.8234
 7631SOL     OW34525   2.686   4.562   4.823 -0.0456  0.1795  0.0012
 7631SOL    HW134526   2.752   4.549   4.891 -2.0023 -1.8437  1.5465
 7631SOL    HW234527   2.713   4.644   4.782 -0.5166 -0.5380 -1.7718
 7632SOL     OW34528   0.387   0.598  13.920  0.4246 -0.3331  0.6389
 7632SOL    HW134529   0.322   0.660  13.954  1.9662  0.9219  1.3204
 7632SOL    HW234530   0.469   0.607  13.969  0.0213 -0.0251  1.2626
 7633SOL     OW34531   1.592   2.592  17.388 -0.8737  0.5815 -0.3907
 7633SOL    HW134532   1.592   2.616  17.481  0.3875 -0.6102 -0.0648
 7633SOL    HW234533   1.686   2.572  17.380 -0.8291  1.5821 -2.3380
 7634SOL     OW34534   1.643   0.626   2.681 -0.2481 -0.3240  0.4943
 7634SOL    HW134535   1.606   0.581   2.756 -0.9049  1.9374  1.5414
 7634SOL    HW234536   1.700   0.690   2.724  1.8743 -1.5569 -0.4781
 7635SOL     OW34537   0.883   2.190   7.419 -0.3161 -0.3306  0.5899
 7635SOL    HW134538   0.827   2.119   7.450 -0.8848 -0.7000 -1.2703
 7635SOL    HW234539   0.864   2.189   7.325  0.1321  1.6396  0.4735
 7636SOL     OW34540   0.948   2.852  12.604 -0.0173 -0.0127 -0.1798
 7636SOL    HW134541   1.029   2.893  12.576 -0.5826  1.0272 -0.2958
 7636SOL    HW234542   0.898   2.875  12.525  1.7493  0.2962 -1.1988
 7637SOL     OW34543   2.693   3.746   4.285 -0.4684  0.5279 -0.7561
 7637SOL    HW134544   2.622   3.786   4.334 -0.4676  1.2038 -1.3073
 7637SOL    HW234545   2.652   3.663   4.260  0.5545  0.0041 -0.6993
 7638SOL     OW34546   2.581   2.174   6.512 -0.2295 -0.0679  0.2817
 7638SOL    HW134547   2.528   2.150   6.436  2.3198  1.9104 -2.1311
 7638SOL    HW234548   2.658   2.125   6.485  1.4754  1.4191  2.4004
 7639SOL     OW34549   2.647   2.405   5.431  0.0659  0.1459  0.3325
 7639SOL    HW134550   2.577   2.454   5.475 -0.8599  2.2542 -3.5110
 7639SOL    HW234551   2.702   2.392   5.509 -2.0677  0.3583  1.8598
 7640SOL     OW34552   2.459   2.598   5.016 -0.8343  0.0467  0.0357
 7640SOL    HW134553   2.431   2.539   5.086  1.3930 -1.4314 -0.3166
 7640SOL    HW234554   2.395   2.669   5.025 -1.9150 -0.7524 -1.2436
 7641SOL     OW34555   1.356   1.062   2.685 -0.0894  0.4496 -0.4888
 7641SOL    HW134556   1.403   0.993   2.732 -3.1879 -0.5211  1.1286
 7641SOL    HW234557   1.343   1.024   2.598  2.6032 -1.0336 -0.2502
 7642SOL     OW34558   2.191   4.167  13.542  0.2512  0.4250 -0.5074
 7642SOL    HW134559   2.101   4.173  13.573 -0.8156  0.5412 -3.6376
 7642SOL    HW234560   2.202   4.077  13.511  0.4259 -0.4168  2.0375
 7643SOL     OW34561   3.165   3.218   6.232 -0.4360  0.0612 -0.3853
 7643SOL    HW134562   3.137   3.187   6.318 -0.5061 -1.3380 -0.9128
 7643SOL    HW234563   3.221   3.291   6.258 -0.3679 -0.1969  0.1946
 7644SOL     OW34564   1.449   2.868   4.121  0.6339 -0.0311 -0.3688
 7644SOL    HW134565   1.369   2.915   4.096  0.3025 -1.1817 -1.4685
 7644SOL    HW234566   1.447   2.801   4.053  0.2651 -0.3869 -0.0053
 7645SOL     OW34567   2.643   0.333   5.431 -0.4695 -0.3665 -0.1738
 7645SOL    HW134568   2.612   0.298   5.347 -0.2884  1.9405 -1.1990
 7645SOL    HW234569   2.639   0.257   5.488 -0.9942 -0.4982 -0.3828
 7646SOL     OW34570   0.426   4.674   6.944  0.0928  0.1563 -0.7871
 7646SOL    HW134571   0.355   4.738   6.941 -0.5058 -0.5300 -1.1252
 7646SOL    HW234572   0.397   4.629   7.023 -1.9086 -0.8875 -2.1295
 7647SOL     OW34573   3.250   2.596   1.168 -0.4486 -0.1140  0.2308
 7647SOL    HW134574   3.155   2.593   1.179 -0.2727 -1.0057  1.5236
 7647SOL    HW234575   3.268   2.682   1.129  0.1252 -0.2377  0.2200
 7648SOL     OW34576   0.167   0.229  16.503 -0.1441  0.4000  0.2186
 7648SOL    HW134577   0.074   0.251  16.512  0.0774  1.8742 -1.0847
 7648SOL    HW234578   0.209   0.308  16.472  1.3594 -0.1262  0.9000
 7649SOL     OW34579   2.335   0.745   7.727  0.2683 -0.0073  0.2206
 7649SOL    HW134580   2.317   0.832   7.763  2.5852  0.2207  0.7831
 7649SOL    HW234581   2.260   0.746   7.667  0.2919 -0.9146  0.1673
 7650SOL     OW34582   1.446   2.781   3.558  0.1326  0.4986  0.2240
 7650SOL    HW134583   1.493   2.732   3.492  0.9373  0.2766  0.9636
 7650SOL    HW234584   1.358   2.747   3.545  0.1554 -0.2635  2.0121
 7651SOL     OW34585   1.256   3.050   3.684  0.4411 -0.5014 -0.0045
 7651SOL    HW134586   1.211   3.126   3.648  0.4302 -0.3810  0.2584
 7651SOL    HW234587   1.331   3.095   3.725  1.2577 -0.5819 -1.4253
 7652SOL     OW34588   4.046   1.550   3.460  0.3043  0.1088  0.6671
 7652SOL    HW134589   4.121   1.558   3.519 -0.8738 -0.7286  2.2708
 7652SOL    HW234590   4.029   1.638   3.426 -1.7180  0.3767  2.3867
 7653SOL     OW34591   3.124   1.412   1.024  0.1852  0.3635 -0.0196
 7653SOL    HW134592   3.043   1.391   1.070 -0.5740  2.8318 -0.2362
 7653SOL    HW234593   3.188   1.355   1.067  0.9252  0.0408 -1.5437
 7654SOL     OW34594   1.541   2.596   2.172  0.0833 -0.0534 -0.4357
 7654SOL    HW134595   1.637   2.599   2.174  0.0867 -0.2878 -0.0971
 7654SOL    HW234596   1.518   2.572   2.262 -0.1759  0.6315 -0.3243
 7655SOL     OW34597   2.618   2.011   1.895  0.4763 -0.1046 -0.1546
 7655SOL    HW134598   2.657   2.098   1.907  0.6802 -0.3436  0.9075
 7655SOL    HW234599   2.641   1.970   1.979  0.3496 -1.3363 -0.7283
 7656SOL     OW34600   1.965   0.974   7.301  0.8893  0.3924  0.2245
 7656SOL    HW134601   1.931   0.884   7.300  2.9827 -0.4051  0.4616
 7656SOL    HW234602   1.915   1.029   7.241  0.6976 -2.0527 -1.8612
 7657SOL     OW34603   1.229   4.075   6.401  0.1208 -0.0611  0.3745
 7657SOL    HW134604   1.245   4.085   6.495 -0.3789  1.2548  0.3246
 7657SOL    HW234605   1.142   4.114   6.403 -0.2231 -0.9894  3.4494
 7658SOL     OW34606   2.332   1.859   6.051 -0.5554 -0.1485  0.2415
 7658SOL    HW134607   2.386   1.848   5.973  1.3993  1.5869  1.3471
 7658SOL    HW234608   2.312   1.772   6.086  1.2384 -0.3580  0.7689
 7659SOL     OW34609   0.877   0.005   6.413 -0.1126  0.4211 -0.1954
 7659SOL    HW134610   0.876   0.097   6.439 -0.0932 -0.3055  2.3431
 7659SOL    HW234611   0.792   4.715   6.445  0.9264 -0.1307  1.9687
 7660SOL     OW34612   2.325   3.982   9.263 -0.0674  0.4627  0.5172
 7660SOL    HW134613   2.376   4.054   9.300 -0.2054  0.0512  1.5195
 7660SOL    HW234614   2.248   4.036   9.243  0.2163 -0.0494 -1.9033
 7661SOL     OW34615   0.762   2.990   8.680 -0.0527 -0.1696  0.2073
 7661SOL    HW134616   0.786   2.939   8.757 -0.9736 -0.7331  0.1188
 7661SOL    HW234617   0.789   2.930   8.610  3.6704  1.3293  0.3327
 7662SOL     OW34618   0.249   3.732  15.835  0.1942 -0.8578  0.1522
 7662SOL    HW134619   0.287   3.757  15.919  1.8921 -3.6517  0.1997
 7662SOL    HW234620   0.198   3.811  15.816  0.3546 -0.2109  2.4013
 7663SOL     OW34621   4.532   2.111   4.481  0.4072  0.1558  0.4153
 7663SOL    HW134622   4.483   2.179   4.528 -0.3805  0.1092 -0.3392
 7663SOL    HW234623   4.467   2.076   4.420 -0.0135  2.8407 -0.6574
 7664SOL     OW34624   4.466   4.191   5.574 -0.2165  0.7921  0.4971
 7664SOL    HW134625   4.440   4.157   5.660  3.3240 -2.6488  0.2185
 7664SOL    HW234626   4.549   4.143   5.566 -0.1670  0.7585  1.2414
 7665SOL     OW34627   4.705   3.402   5.417 -0.3337  0.0964 -0.1490
 7665SOL    HW134628   4.618   3.389   5.378  0.5381 -0.2352 -1.9879
 7665SOL    HW234629   0.013   3.324   5.391  0.1491  0.2390  0.3179
 7666SOL     OW34630   3.400   3.561   5.487  0.6017  0.5189  0.1457
 7666SOL    HW134631   3.359   3.596   5.566 -1.3603  0.1668 -0.7314
 7666SOL    HW234632   3.486   3.604   5.490 -0.3919  2.3854  2.2959
 7667SOL     OW34633   0.242   1.459   7.409 -0.3542  0.2343  0.2999
 7667SOL    HW134634   0.272   1.411   7.332  0.7910  2.5494 -0.7089
 7667SOL    HW234635   0.263   1.549   7.383  1.9267  0.3172  2.3177
 7668SOL     OW34636   1.294   0.939  13.862  0.3970  0.0370  0.7512
 7668SOL    HW134637   1.386   0.959  13.844  0.2600 -0.0909 -0.1102
 7668SOL    HW234638   1.252   1.020  13.834 -0.5994 -1.3949 -1.8638
 7669SOL     OW34639   0.211   0.267   6.561 -0.1531 -1.2134 -0.0325
 7669SOL    HW134640   0.302   0.237   6.560  0.7762  1.5118 -0.0182
 7669SOL    HW234641   0.175   0.200   6.619 -1.6446 -0.4622 -0.0993
 7670SOL     OW34642   0.680   2.227   1.860  0.0472 -0.1712  0.3039
 7670SOL    HW134643   0.753   2.186   1.813  1.5348  3.0410 -0.2401
 7670SOL    HW234644   0.667   2.169   1.935  2.8615 -0.3463  0.6809
 7671SOL     OW34645   0.613   1.548  10.388 -0.2079  0.2422 -0.1734
 7671SOL    HW134646   0.644   1.621  10.332  0.3044  0.9276  1.0052
 7671SOL    HW234647   0.696   1.525  10.430  0.0143  1.8054  0.2411
 7672SOL     OW34648   0.558   1.196   7.003  0.1190 -0.2002  0.1151
 7672SOL    HW134649   0.652   1.186   7.013  0.4194  1.2977 -1.1664
 7672SOL    HW234650   0.541   1.140   6.927  0.5768  1.2598 -1.0622
 7673SOL     OW34651   4.062   4.083  13.464 -0.2450 -0.3794 -0.0990
 7673SOL    HW134652   4.068   4.000  13.512  0.9625  0.2137  0.7893
 7673SOL    HW234653   3.992   4.127  13.512  0.7874  0.8079  0.3302
 7674SOL     OW34654   1.002   3.626   6.565  0.7454 -0.4390 -0.4151
 7674SOL    HW134655   0.955   3.710   6.559  1.9023  0.4763  3.2785
 7674SOL    HW234656   0.998   3.594   6.475  0.2431 -1.3260 -0.0743
 7675SOL     OW34657   1.398   1.430   4.493 -0.6314 -0.0847 -0.0400
 7675SOL    HW134658   1.478   1.464   4.453  0.0545 -2.0918 -0.3551
 7675SOL    HW234659   1.380   1.500   4.556  2.0571 -1.8447  2.6767
 7676SOL     OW34660   3.330   1.297   4.639  0.0570  0.4316 -0.1665
 7676SOL    HW134661   3.317   1.204   4.619 -3.5138  0.3847  2.2119
 7676SOL    HW234662   3.425   1.302   4.646 -0.0219  1.9011 -0.1528
 7677SOL     OW34663   0.587   0.560   3.179  0.7556 -0.2607 -0.1154
 7677SOL    HW134664   0.515   0.510   3.218  0.8551 -0.6933 -0.4822
 7677SOL    HW234665   0.547   0.607   3.105  0.9194 -1.0619 -0.7142
 7678SOL     OW34666   2.369   3.171  15.804  0.1282  0.1778  0.7789
 7678SOL    HW134667   2.374   3.244  15.865  3.4083  0.7063 -0.1293
 7678SOL    HW234668   2.284   3.194  15.765  1.2622  2.1645 -0.5005
 7679SOL     OW34669   3.020   3.567   8.453 -0.2703  0.0354 -0.2945
 7679SOL    HW134670   2.942   3.574   8.508 -0.3221 -0.9680 -0.2438
 7679SOL    HW234671   2.984   3.518   8.379  0.1453  2.2176 -1.9266
 7680SOL     OW34672   4.398   1.962   2.230 -0.3249  0.5733 -0.2644
 7680SOL    HW134673   4.470   1.930   2.175  1.9640  2.6442  1.5013
 7680SOL    HW234674   4.342   2.007   2.167  0.0286 -0.2779 -1.1912
 7681SOL     OW34675   3.216   3.794   7.175 -0.0403  0.5286 -0.3174
 7681SOL    HW134676   3.294   3.756   7.216 -2.1292 -0.5810  2.6427
 7681SOL    HW234677   3.169   3.823   7.253 -1.7577 -0.2870 -1.0506
 7682SOL     OW34678   2.032   3.155   5.891 -0.3204  0.2082  0.8386
 7682SOL    HW134679   2.032   3.066   5.927  1.7812  0.6385  1.8712
 7682SOL    HW234680   1.957   3.151   5.832 -0.4678 -0.2381  1.0520
 7683SOL     OW34681   1.008   3.814   1.906  0.6025 -0.0053  0.1921
 7683SOL    HW134682   1.035   3.905   1.895 -1.1991  0.7667  2.2034
 7683SOL    HW234683   0.943   3.806   1.836  0.0901 -0.4673  0.7238
 7684SOL     OW34684   0.501   1.128   4.620  0.2542  0.1258  0.6287
 7684SOL    HW134685   0.564   1.190   4.582  0.0812  0.6441  1.1746
 7684SOL    HW234686   0.546   1.044   4.612  1.6520  1.1118 -1.9604
 7685SOL     OW34687   1.286   2.728   5.329  0.3820 -0.2839 -0.2438
 7685SOL    HW134688   1.298   2.736   5.424  1.1814 -0.0133 -0.3702
 7685SOL    HW234689   1.220   2.658   5.329  1.0447 -0.9075  0.0112
 7686SOL     OW34690   0.917   2.711   6.966  0.0148 -0.1643 -0.6541
 7686SOL    HW134691   0.975   2.762   6.909 -1.2335  0.5637 -1.2573
 7686SOL    HW234692   0.833   2.723   6.922 -0.0908  1.4692  0.0011
 7687SOL     OW34693   2.509   2.685   7.540  0.0231 -0.3652  0.0216
 7687SOL    HW134694   2.450   2.732   7.599  1.3065  1.2650 -0.0030
 7687SOL    HW234695   2.555   2.636   7.608 -0.6235 -2.6324 -1.1628
 7688SOL     OW34696   0.955   1.361   1.666 -0.2866 -0.0774  0.1216
 7688SOL    HW134697   0.998   1.405   1.592 -2.1203 -0.7985 -1.3732
 7688SOL    HW234698   0.995   1.418   1.731 -0.8808  0.3561  0.1039
 7689SOL     OW34699   2.335   2.575   9.425 -0.3838 -0.2323 -0.4575
 7689SOL    HW134700   2.289   2.608   9.503  0.5980  0.7776 -0.3083
 7689SOL    HW234701   2.399   2.523   9.473  0.0913 -0.6105 -1.5010
 7690SOL     OW34702   4.047   0.043   5.287 -0.3285  0.1380  0.2020
 7690SOL    HW134703   4.069   0.077   5.374  3.3126 -1.8562  0.0953
 7690SOL    HW234704   3.966   4.733   5.300 -0.4977  0.2012 -0.6533
 7691SOL     OW34705   0.533   3.123   8.074  0.0507 -0.1417  0.0525
 7691SOL    HW134706   0.612   3.091   8.031 -1.0509 -1.6588 -0.8561
 7691SOL    HW234707   0.485   3.042   8.092  0.5793  0.2618  3.2981
 7692SOL     OW34708   1.982   2.695  13.544  0.0443 -0.0444  0.3264
 7692SOL    HW134709   1.905   2.717  13.596 -0.0276  1.3578 -0.3673
 7692SOL    HW234710   1.946   2.728  13.462 -0.5826 -2.0142 -0.1842
 7693SOL     OW34711   1.283   2.426   5.246 -0.0383  0.2401  0.6071
 7693SOL    HW134712   1.189   2.434   5.256 -0.1420 -1.1791  0.7991
 7693SOL    HW234713   1.309   2.392   5.331 -0.0995 -1.0798  0.1038
 7694SOL     OW34714   4.568   4.086   1.580  0.0724 -0.3620  0.3208
 7694SOL    HW134715   4.613   4.052   1.657  2.7044  1.9777 -0.1768
 7694SOL    HW234716   4.636   4.106   1.515  1.4211 -0.0191  1.8505
 7695SOL     OW34717   1.928   1.950   2.708  0.1085 -0.5438 -0.1802
 7695SOL    HW134718   1.944   2.033   2.752  1.6774  0.2280 -2.1634
 7695SOL    HW234719   1.988   1.892   2.755  0.8151  1.3006  1.2134
 7696SOL     OW34720   1.762   0.355   9.122 -0.7669  0.6552 -0.3397
 7696SOL    HW134721   1.760   0.408   9.202  0.0999  3.1416 -1.9708
 7696SOL    HW234722   1.694   0.287   9.131 -0.7628  0.8484  1.1892
 7697SOL     OW34723   1.060   4.076   1.844  0.2112 -0.1622 -0.1614
 7697SOL    HW134724   1.018   4.130   1.777  2.2307  1.7192  0.1193
 7697SOL    HW234725   1.018   4.107   1.924  0.3986  0.3750 -0.2754
 7698SOL     OW34726   3.471   1.769   3.490 -0.1412  0.2786 -0.0619
 7698SOL    HW134727   3.461   1.858   3.522 -0.8404 -0.5116  1.9050
 7698SOL    HW234728   3.384   1.736   3.515  0.4504 -1.1736  0.0551
 7699SOL     OW34729   2.341   4.485   0.726 -0.6345  0.5624  0.0258
 7699SOL    HW134730   2.422   4.536   0.731  1.2181 -2.1261 -2.6192
 7699SOL    HW234731   2.345   4.434   0.645 -0.0247  2.2207 -0.9975
 7700SOL     OW34732   2.938   1.107  16.656  0.0570  0.4471  0.8462
 7700SOL    HW134733   2.909   1.016  16.663  3.0741 -0.3212  3.2089
 7700SOL    HW234734   2.904   1.153  16.732  4.3945  1.0042  2.4356
 7701SOL     OW34735   3.374   1.129  17.097  0.3768 -0.0596  0.6172
 7701SOL    HW134736   3.382   1.057  17.034 -0.2001  1.1737 -0.8794
 7701SOL    HW234737   3.444   1.190  17.075 -0.0112  0.8532  1.9286
 7702SOL     OW34738   3.916   2.701  11.590  0.0836 -0.1668 -0.5509
 7702SOL    HW134739   3.921   2.650  11.509  0.7446  1.9992 -1.8521
 7702SOL    HW234740   3.823   2.721  11.602  0.3951 -0.0142  1.7452
 7703SOL     OW34741   0.705   0.350   1.910 -0.1296 -0.3929  0.1302
 7703SOL    HW134742   0.655   0.409   1.853  0.4362 -0.3322 -0.3028
 7703SOL    HW234743   0.778   0.336   1.849  1.3302 -0.4762  1.8889
 7704SOL     OW34744   3.935   1.533   8.106  0.0478  0.2287 -0.5459
 7704SOL    HW134745   4.004   1.470   8.125  0.0074  0.5023  0.4720
 7704SOL    HW234746   3.924   1.521   8.011 -0.5673  2.4090 -0.7579
 7705SOL     OW34747   1.324   4.182   0.285  0.4115 -0.3419  0.3089
 7705SOL    HW134748   1.367   4.220   0.209 -1.2099 -0.1088 -0.4986
 7705SOL    HW234749   1.360   4.222   0.364  0.1879 -0.2135  0.3474
 7706SOL     OW34750   1.448   3.902   8.625  0.3998 -0.0830 -0.7746
 7706SOL    HW134751   1.505   3.830   8.597  0.5628  0.3668 -1.6201
 7706SOL    HW234752   1.485   3.987   8.603  0.0475  0.1610 -0.4379
 7707SOL     OW34753   3.643   1.212  13.184 -0.3654 -0.1990 -0.2617
 7707SOL    HW134754   3.720   1.164  13.214 -0.7298 -0.0483  0.9152
 7707SOL    HW234755   3.655   1.286  13.244 -2.6095  1.2956 -1.6271
 7708SOL     OW34756   1.694   4.590   2.682  0.3164  0.1329 -0.1184
 7708SOL    HW134757   1.706   4.679   2.649  0.5005 -0.3210 -1.2735
 7708SOL    HW234758   1.655   4.612   2.767 -0.6855 -1.9343 -0.0259
 7709SOL     OW34759   3.171   3.932  10.996 -0.4268 -0.1245  0.4229
 7709SOL    HW134760   3.197   3.990  11.067  2.2547  0.0131 -0.6880
 7709SOL    HW234761   3.149   3.855  11.048  0.4986 -0.5718  0.1518
 7710SOL     OW34762   0.738   0.129   3.122 -0.0640  0.7996  0.0558
 7710SOL    HW134763   0.812   0.078   3.153 -0.5114  0.8862  1.2821
 7710SOL    HW234764   0.675   0.119   3.194  1.0472 -0.9581  0.7810
 7711SOL     OW34765   3.218   3.109   4.813 -0.3413 -0.4048  0.3020
 7711SOL    HW134766   3.309   3.089   4.839  0.5632  1.7667 -1.1778
 7711SOL    HW234767   3.215   3.113   4.718  0.1131  1.0795  0.3490
 7712SOL     OW34768   1.299   3.406   4.322  0.0075  0.2177  0.0063
 7712SOL    HW134769   1.297   3.412   4.417 -0.9550  0.2248 -0.0084
 7712SOL    HW234770   1.356   3.330   4.320 -2.0586 -1.4040  4.0927
 7713SOL     OW34771   0.061   2.636   3.539 -0.0411  0.3178  0.1844
 7713SOL    HW134772   0.108   2.569   3.588  0.5453 -0.7939 -1.9203
 7713SOL    HW234773   0.103   2.719   3.564 -0.0816 -0.4301  2.7811
 7714SOL     OW34774   0.250   1.454  11.002 -0.1187 -0.5309  0.2165
 7714SOL    HW134775   0.228   1.366  11.031 -0.5389 -0.2520  0.7404
 7714SOL    HW234776   0.174   1.505  11.031  0.6750  0.0569  1.3019
 7715SOL     OW34777   0.338   0.038  13.367  0.3188  0.3196  0.3555
 7715SOL    HW134778   0.398   0.103  13.331 -1.5011  1.5555 -0.4217
 7715SOL    HW234779   0.290   0.018  13.286  1.0233  1.0734 -0.2586
 7716SOL     OW34780   0.887   1.160   8.615  0.4635 -0.9388  0.3488
 7716SOL    HW134781   0.906   1.250   8.644  0.2726 -0.8250  0.1199
 7716SOL    HW234782   0.794   1.159   8.637  0.3108 -1.1777 -0.3117
 7717SOL     OW34783   4.302   4.081   8.494 -0.0174  0.0935  0.8079
 7717SOL    HW134784   4.304   4.176   8.479  1.8374 -0.6712 -3.7880
 7717SOL    HW234785   4.394   4.081   8.521  0.4292 -1.0298 -0.7811
 7718SOL     OW34786   0.070   2.087   7.685  0.2973 -0.0118  0.3608
 7718SOL    HW134787   4.735   2.111   7.739  0.7648  0.7450  0.6634
 7718SOL    HW234788   0.128   2.054   7.753  1.0734 -0.8278 -0.6924
 7719SOL     OW34789   1.695   3.465   5.249  0.1002 -0.0111  0.1721
 7719SOL    HW134790   1.668   3.483   5.339 -0.4642  1.7254 -0.3590
 7719SOL    HW234791   1.688   3.369   5.244 -1.6396  0.1353  0.0110
 7720SOL     OW34792   4.553   3.818   8.283 -0.0163 -0.6079  0.4183
 7720SOL    HW134793   4.468   3.859   8.298  0.2242 -0.2859  0.8897
 7720SOL    HW234794   4.533   3.724   8.285  1.9870 -1.0618  0.1023
 7721SOL     OW34795   4.668   2.427  13.938  0.1082 -0.2820  0.0323
 7721SOL    HW134796   4.602   2.362  13.918 -1.2832  0.2904  2.8800
 7721SOL    HW234797   4.625   2.495  13.990  1.0990  0.2597  0.1445
 7722SOL     OW34798   2.449   2.246  15.647 -0.3770  0.2645 -0.9133
 7722SOL    HW134799   2.461   2.159  15.686 -0.3319 -0.1166 -1.7758
 7722SOL    HW234800   2.523   2.260  15.587 -0.3098 -0.4552 -0.9979
 7723SOL     OW34801   0.445   3.691   5.587 -0.1962  0.2118  0.0101
 7723SOL    HW134802   0.527   3.739   5.585  0.4628 -0.8717  0.9359
 7723SOL    HW234803   0.441   3.637   5.508  0.9900 -2.7154  1.9343
 7724SOL     OW34804   0.712   2.392   0.497  0.0911 -0.1904 -0.3095
 7724SOL    HW134805   0.696   2.341   0.418 -2.1557  0.5993 -0.3601
 7724SOL    HW234806   0.656   2.468   0.479  0.9185  0.1221 -1.5388
 7725SOL     OW34807   1.597   3.756   2.438  0.3422 -0.4825  0.0955
 7725SOL    HW134808   1.607   3.707   2.357 -0.9511 -0.4573 -0.0724
 7725SOL    HW234809   1.594   3.845   2.403 -0.1269  0.3060  2.1416
 7726SOL     OW34810   4.561   1.713   0.186  0.5513  0.5015 -0.2778
 7726SOL    HW134811   4.569   1.618   0.170  1.3007  0.4274  0.5572
 7726SOL    HW234812   4.497   1.731   0.117  0.0971 -0.7266 -0.1826
 7727SOL     OW34813   3.253   0.300  11.690 -0.1035 -0.0352  0.1884
 7727SOL    HW134814   3.290   0.212  11.683  0.1384  0.2595 -2.1928
 7727SOL    HW234815   3.244   0.306  11.785 -1.9643  2.2382 -0.1238
 7728SOL     OW34816   3.510   1.195   6.503  0.4615  0.4840  0.1423
 7728SOL    HW134817   3.422   1.221   6.476  0.5591  0.1582 -0.4855
 7728SOL    HW234818   3.539   1.279   6.537 -0.0634  0.2265  1.2188
 7729SOL     OW34819   4.549   1.495   6.330 -0.0787 -0.1339 -0.0582
 7729SOL    HW134820   4.567   1.472   6.239  0.8143 -1.1174  0.3666
 7729SOL    HW234821   4.480   1.434   6.357  0.3585  0.3397  2.0592
 7730SOL     OW34822   1.164   0.668  13.582  0.4088 -0.2602  0.1702
 7730SOL    HW134823   1.138   0.673  13.491  1.4546  0.8728 -0.0768
 7730SOL    HW234824   1.260   0.662  13.574  0.3249 -0.7979 -0.4041
 7731SOL     OW34825   4.413   1.266   4.879 -0.4074  0.2970 -0.8841
 7731SOL    HW134826   4.469   1.215   4.821  0.0890  1.7847 -1.6986
 7731SOL    HW234827   4.353   1.308   4.817 -1.0069  0.2288 -0.3547
 7732SOL     OW34828   4.657   2.129   6.522 -0.4992 -0.1681 -0.1823
 7732SOL    HW134829   4.683   2.220   6.509  2.3261 -1.1312 -1.4461
 7732SOL    HW234830   4.711   2.102   6.596 -1.3291 -0.1377  0.4219
 7733SOL     OW34831   4.067   0.437   8.619  0.4082 -0.2336 -0.2243
 7733SOL    HW134832   4.107   0.491   8.550  1.6503 -0.3044  0.4411
 7733SOL    HW234833   3.976   0.466   8.607  0.1944 -1.7973 -2.3714
 7734SOL     OW34834   0.587   0.583   8.307  0.0502  0.3090 -0.1820
 7734SOL    HW134835   0.638   0.581   8.226 -2.0675 -0.2799 -1.4912
 7734SOL    HW234836   0.646   0.629   8.366  0.0498 -1.7148  1.4012
 7735SOL     OW34837   1.626   3.677   2.868 -0.2521  0.2678 -0.0340
 7735SOL    HW134838   1.577   3.743   2.818  0.8398  1.2870  0.2360
 7735SOL    HW234839   1.654   3.614   2.803 -0.1989 -0.5404  0.7733
 7736SOL     OW34840   1.619   1.189   1.126 -0.0581 -0.2576 -0.1146
 7736SOL    HW134841   1.673   1.133   1.183  1.3465  0.6771 -0.5165
 7736SOL    HW234842   1.535   1.182   1.171 -1.8416  0.4727 -3.3616
 7737SOL     OW34843   3.049   1.060  15.722 -0.0573 -0.6953  0.2134
 7737SOL    HW134844   3.076   1.152  15.719 -0.8039 -0.4911 -0.2941
 7737SOL    HW234845   3.062   1.046  15.629 -2.0229  3.2897 -0.6558
 7738SOL     OW34846   1.993   1.279   4.717 -0.2733 -0.2665 -0.3973
 7738SOL    HW134847   2.065   1.320   4.765 -0.9141  0.1215  0.2315
 7738SOL    HW234848   2.035   1.193   4.714 -1.6468 -0.8704 -1.8904
 7739SOL     OW34849   1.655   0.759   9.627 -0.1150 -0.6727  0.0723
 7739SOL    HW134850   1.734   0.771   9.574  1.2194 -0.5122  2.0912
 7739SOL    HW234851   1.694   0.706   9.697  2.9103  0.9421 -0.4078
 7740SOL     OW34852   2.074   4.292   6.020  0.3193 -0.8063  0.3170
 7740SOL    HW134853   2.098   4.378   6.054  0.1997 -1.3234  1.7105
 7740SOL    HW234854   2.156   4.271   5.975  0.3021 -1.5746  0.6618
 7741SOL     OW34855   0.083   3.711   6.700 -0.2418  0.0921  0.7931
 7741SOL    HW134856   0.176   3.694   6.691 -0.3781  0.7876 -1.7205
 7741SOL    HW234857   0.081   3.801   6.669  0.6013  0.3052  1.3611
 7742SOL     OW34858   1.978   4.051  11.484 -0.5765 -0.1826 -0.1298
 7742SOL    HW134859   1.890   4.017  11.499 -1.0298  1.7749  1.7923
 7742SOL    HW234860   1.998   4.108  11.559  0.9741 -0.5543 -0.2553
 7743SOL     OW34861   4.457   4.591   2.856  0.1634  0.3183  0.1286
 7743SOL    HW134862   4.463   4.686   2.855 -0.1508  0.3148 -2.4179
 7743SOL    HW234863   4.495   4.569   2.941 -1.0270 -0.7540  0.3900
 7744SOL     OW34864   1.400   4.315   2.693 -0.0264 -0.2671 -0.1140
 7744SOL    HW134865   1.435   4.362   2.768  2.2596  0.2431 -1.4801
 7744SOL    HW234866   1.381   4.394   2.641 -1.8661 -0.2611  0.5702
 7745SOL     OW34867   1.535   1.659   6.109  0.4248  0.3187 -0.1464
 7745SOL    HW134868   1.506   1.750   6.117 -1.4929 -0.2266 -0.8411
 7745SOL    HW234869   1.614   1.668   6.056  0.4942 -0.7821 -0.2309
 7746SOL     OW34870   4.712   1.139   4.921 -0.0746  0.2532  0.3405
 7746SOL    HW134871   4.708   1.169   5.011  0.7351 -0.6290  0.6666
 7746SOL    HW234872   0.021   1.210   4.880  0.1911  1.1298  2.2001
 7747SOL     OW34873   3.004   4.007  12.308  0.2636 -0.0987  0.2538
 7747SOL    HW134874   2.912   3.982  12.318  0.8368 -1.9626  0.8171
 7747SOL    HW234875   3.046   3.974  12.387  0.8239  1.3215  0.5494
 7748SOL     OW34876   4.088   4.360  14.687 -0.2525  0.1014 -0.0496
 7748SOL    HW134877   4.114   4.419  14.616 -1.4259  0.4011 -0.2174
 7748SOL    HW234878   4.010   4.406  14.717  0.4571  1.6352 -0.5479
 7749SOL     OW34879   1.395   1.051   3.346  0.5579  0.0295  0.0375
 7749SOL    HW134880   1.337   0.978   3.322  0.8803  0.5507 -2.3002
 7749SOL    HW234881   1.457   1.057   3.274  0.0500  0.8764 -0.3265
 7750SOL     OW34882   0.527   0.726   5.625  0.9161  0.3882  0.0242
 7750SOL    HW134883   0.555   0.671   5.552 -0.6719 -0.0779 -0.2327
 7750SOL    HW234884   0.603   0.781   5.641  4.0082 -3.9364  0.3128
 7751SOL     OW34885   0.365   1.494  15.240  0.3243 -0.1915 -0.1822
 7751SOL    HW134886   0.416   1.431  15.291  0.7630 -1.2948 -1.9978
 7751SOL    HW234887   0.275   1.475  15.270 -0.3781  3.6593  0.0554
 7752SOL     OW34888   0.129   4.179   9.158 -0.2319 -0.1178  0.1102
 7752SOL    HW134889   0.191   4.132   9.213 -2.0416 -1.7685  0.7409
 7752SOL    HW234890   0.056   4.119   9.144 -1.5394  1.0881  1.8184
 7753SOL     OW34891   2.588   0.658   4.179  0.1185 -0.6398 -0.4106
 7753SOL    HW134892   2.501   0.681   4.149 -0.8675 -1.3153  1.9300
 7753SOL    HW234893   2.594   0.563   4.162  1.3169 -0.4321 -1.1974
 7754SOL     OW34894   0.033   4.343  13.489 -0.5866 -0.1270 -0.4110
 7754SOL    HW134895   4.706   4.289  13.531 -0.1338 -1.8637 -1.9454
 7754SOL    HW234896   0.097   4.354  13.560  0.3855 -0.6914 -1.2014
 7755SOL     OW34897   0.946   0.785   4.514  0.0119 -0.5753 -0.2470
 7755SOL    HW134898   0.981   0.843   4.581  0.2527  2.3246 -2.8674
 7755SOL    HW234899   1.021   0.781   4.454 -0.1265  0.1769 -0.4733
 7756SOL     OW34900   3.699   2.910  13.920  0.6963 -0.9234  0.2339
 7756SOL    HW134901   3.703   2.979  13.854 -0.9772 -0.3446  0.7463
 7756SOL    HW234902   3.713   2.959  14.002 -2.3889  0.7809 -0.2539
 7757SOL     OW34903   1.663   3.821   7.092 -0.4548 -0.0667 -0.3437
 7757SOL    HW134904   1.611   3.805   7.171  0.0509 -2.9058 -0.5622
 7757SOL    HW234905   1.749   3.788   7.120 -0.2114  0.2119 -0.7665
 7758SOL     OW34906   4.507   1.213   8.932  0.7002 -0.1943 -0.4432
 7758SOL    HW134907   4.512   1.223   9.027  0.1809 -2.0287 -0.2185
 7758SOL    HW234908   4.485   1.120   8.926 -3.9573  0.9990 -1.5511
 7759SOL     OW34909   1.524   1.375   6.470 -0.4056 -0.3754  0.0415
 7759SOL    HW134910   1.588   1.433   6.429  0.3651 -0.8209  0.6256
 7759SOL    HW234911   1.454   1.441   6.478  1.4317  1.3712  1.5737
 7760SOL     OW34912   4.717   2.286  10.170  0.0647  0.0535  0.2634
 7760SOL    HW134913   4.730   2.238  10.089  1.4697 -2.3882  1.9193
 7760SOL    HW234914   4.637   2.243  10.200 -0.4610  1.0244  0.2608
 7761SOL     OW34915   0.393   3.047   1.765  0.1309 -0.4122 -0.3686
 7761SOL    HW134916   0.389   3.143   1.768 -2.3576 -0.5039 -1.5203
 7761SOL    HW234917   0.316   3.024   1.714  0.3233 -3.8475  0.8661
 7762SOL     OW34918   0.974   3.141  10.095 -0.5797  0.2783  0.7646
 7762SOL    HW134919   0.893   3.191  10.108 -1.3255 -0.8555  0.4937
 7762SOL    HW234920   0.945   3.064  10.144 -0.7278 -0.5761 -0.6888
 7763SOL     OW34921   4.457   0.186   7.065  0.2787  0.8358  0.0062
 7763SOL    HW134922   4.362   0.196   7.063 -0.0167 -2.1240 -0.3186
 7763SOL    HW234923   4.470   0.106   7.115 -2.8647  0.8675  0.8750
 7764SOL     OW34924   4.569   3.339   7.372  0.2478  0.4862 -0.2528
 7764SOL    HW134925   4.660   3.348   7.346  0.2751 -1.2928 -0.7498
 7764SOL    HW234926   4.516   3.356   7.294 -0.8264  0.4559  0.4650
 7765SOL     OW34927   1.132   3.807   2.869 -0.0691 -0.2532 -0.3014
 7765SOL    HW134928   1.044   3.773   2.856  0.9541 -1.7027 -3.4241
 7765SOL    HW234929   1.171   3.792   2.783  0.6997 -2.2477  0.4017
 7766SOL     OW34930   0.006   1.159  13.359 -0.1606  0.3222  0.3098
 7766SOL    HW134931   0.030   1.251  13.365  1.5422 -0.3185  2.9795
 7766SOL    HW234932   0.095   1.126  13.358  0.3277  1.5547  5.4034
 7767SOL     OW34933   0.901   1.151   5.547  0.9942 -0.1110 -0.4326
 7767SOL    HW134934   0.847   1.183   5.475 -2.3391  1.4244  2.7222
 7767SOL    HW234935   0.983   1.142   5.498  1.3261  0.6107 -0.0262
 7768SOL     OW34936   4.690   1.031   6.098 -0.7032  0.2600  0.1390
 7768SOL    HW134937   4.700   0.936   6.100 -0.9258  0.2470  0.6410
 7768SOL    HW234938   0.041   1.052   6.080 -1.0818  2.3694  0.7158
 7769SOL     OW34939   1.508   0.858   2.138  0.3666  0.5949 -0.3032
 7769SOL    HW134940   1.521   0.846   2.044 -1.3988 -5.3672  0.2172
 7769SOL    HW234941   1.563   0.935   2.154 -0.2465  1.0973 -0.6176
 7770SOL     OW34942   3.521   0.579  17.203 -0.0056  0.1141 -0.2762
 7770SOL    HW134943   3.453   0.629  17.159 -0.3539 -0.3623 -0.2718
 7770SOL    HW234944   3.572   0.544  17.129  0.4207  0.1395  0.0037
 7771SOL     OW34945   1.864   1.901  13.929  0.1949  0.0314 -0.1351
 7771SOL    HW134946   1.831   1.951  14.003  0.5358 -1.9063  1.3149
 7771SOL    HW234947   1.921   1.967  13.888 -2.4764  1.0159 -2.2796
 7772SOL     OW34948   1.833   3.788   9.642  0.1405 -0.4813  0.0829
 7772SOL    HW134949   1.761   3.725   9.639  0.1633 -0.4370 -1.4149
 7772SOL    HW234950   1.835   3.831   9.728  0.9777  0.6205 -0.4872
 7773SOL     OW34951   4.338   1.971   4.828 -0.0088  0.0664 -0.0245
 7773SOL    HW134952   4.254   1.976   4.873 -0.9733 -0.5890 -1.7344
 7773SOL    HW234953   4.306   1.948   4.740 -2.2840 -1.1620  1.1043
 7774SOL     OW34954   1.090   0.900   2.465  0.0664  0.1846  0.4107
 7774SOL    HW134955   1.121   0.990   2.454  0.8901 -0.0492  0.8633
 7774SOL    HW234956   1.029   0.897   2.391 -1.3231  0.9664  1.5061
 7775SOL     OW34957   0.918   4.353   8.304 -0.1246 -0.3943 -0.5063
 7775SOL    HW134958   0.855   4.415   8.340 -2.1993 -2.9878  0.3289
 7775SOL    HW234959   0.987   4.419   8.293 -0.4391  0.0995  0.5510
 7776SOL     OW34960   0.139   3.235   5.272  0.7919 -0.0362 -0.7100
 7776SOL    HW134961   0.151   3.156   5.325  0.2607  0.0751 -0.4205
 7776SOL    HW234962   0.062   3.207   5.224  0.9716 -1.9837  0.1608
 7777SOL     OW34963   2.364   1.174   4.015 -0.0743 -0.4954  0.3939
 7777SOL    HW134964   2.285   1.140   3.972  0.3525 -0.5804 -0.3291
 7777SOL    HW234965   2.335   1.173   4.106  0.2376  0.8064  0.5063
 7778SOL     OW34966   0.456   3.205  10.949  0.3588 -0.9406  0.3520
 7778SOL    HW134967   0.546   3.212  10.916  0.8340  2.0951  2.2778
 7778SOL    HW234968   0.443   3.290  10.990  2.1457 -0.7443  0.5306
 7779SOL     OW34969   2.562   3.008   7.751 -0.1891 -0.2343 -0.1037
 7779SOL    HW134970   2.607   3.045   7.676 -1.4859  0.5882 -0.4714
 7779SOL    HW234971   2.584   3.070   7.820  0.3674 -0.2782 -0.2417
 7780SOL     OW34972   4.324   2.154   8.411 -0.1338  0.7168 -0.9015
 7780SOL    HW134973   4.355   2.229   8.462  1.7916  0.2405 -1.3473
 7780SOL    HW234974   4.302   2.088   8.477  1.0885  0.0868 -1.1193
 7781SOL     OW34975   1.989   1.333   6.649 -0.0069  0.0095  0.3628
 7781SOL    HW134976   2.039   1.271   6.702 -1.7558 -0.9677  0.8741
 7781SOL    HW234977   2.064   1.392   6.648 -0.3926  0.4927 -0.4370
 7782SOL     OW34978   1.738   4.038   3.086  0.1186 -0.3230  0.1051
 7782SOL    HW134979   1.745   3.945   3.106  0.5946  0.3380  3.0805
 7782SOL    HW234980   1.831   4.054   3.072 -0.1640 -0.3862 -1.7913
 7783SOL     OW34981   1.262   0.608  17.672 -0.4987  0.1446 -0.0928
 7783SOL    HW134982   1.276   0.699  17.646  1.9936 -0.3860 -0.6302
 7783SOL    HW234983   1.352   0.601  17.705 -1.0472 -4.3672  0.3922
 7784SOL     OW34984   3.065   3.382   7.328 -0.2077  0.4438 -0.0735
 7784SOL    HW134985   3.072   3.399   7.234 -0.3761  0.2925 -0.1126
 7784SOL    HW234986   3.051   3.288   7.324  1.0077  0.2164  0.8350
 7785SOL     OW34987   0.077   2.464   7.376 -0.2062 -0.0036 -0.4048
 7785SOL    HW134988   0.058   2.541   7.323  0.3150  1.0692  0.9697
 7785SOL    HW234989   0.120   2.412   7.308  1.8125  2.6575 -1.1840
 7786SOL     OW34990   0.781   4.713   7.712 -0.0856 -0.9909  0.0649
 7786SOL    HW134991   0.829   4.663   7.778 -0.9593  0.2868  1.6736
 7786SOL    HW234992   0.748   4.654   7.644 -2.0316  0.4272 -0.2452
 7787SOL     OW34993   1.001   1.565   6.509 -0.1422  0.6234 -0.4653
 7787SOL    HW134994   1.009   1.489   6.451  1.2277  2.5757 -2.8634
 7787SOL    HW234995   1.055   1.526   6.577 -0.7992  0.9848  0.2574
 7788SOL     OW34996   1.511   2.500  14.566  0.0628  0.1349 -0.2308
 7788SOL    HW134997   1.593   2.452  14.567 -1.2165 -1.9527  3.5508
 7788SOL    HW234998   1.449   2.444  14.520  1.3318 -1.7322  0.3275
 7789SOL     OW34999   3.122   4.229   7.469  0.2794  0.8513  0.1215
 7789SOL    HW135000   3.077   4.268   7.394 -0.2021 -1.1755 -0.6679
 7789SOL    HW235001   3.108   4.136   7.450  1.3484  0.3657  1.7977
 7790SOL     OW35002   1.580   4.384  12.038 -0.0917  0.8049 -0.7609
 7790SOL    HW135003   1.543   4.451  12.096  2.8700  1.2858  0.5528
 7790SOL    HW235004   1.500   4.371  11.986 -1.4387  1.3826  1.1439
 7791SOL     OW35005   1.388   2.400   7.074 -0.9879 -0.6549 -0.1653
 7791SOL    HW135006   1.468   2.411   7.022 -0.6833 -2.4867 -0.0979
 7791SOL    HW235007   1.386   2.304   7.069 -2.7507 -0.6250  0.0308
 7792SOL     OW35008   2.923   3.097   2.782  0.0688  0.0705  0.1197
 7792SOL    HW135009   2.972   3.044   2.845 -0.1928  1.0940  1.1669
 7792SOL    HW235010   2.978   3.175   2.788 -0.8756  0.7770 -0.5446
 7793SOL     OW35011   3.365   3.702   1.061  0.3115 -0.2928  0.1464
 7793SOL    HW135012   3.415   3.747   1.129 -0.4553  1.0479 -0.1691
 7793SOL    HW235013   3.276   3.730   1.082  0.5908 -0.3457  1.4390
 7794SOL     OW35014   3.505   2.768   7.488  0.3700 -0.0649  0.2641
 7794SOL    HW135015   3.553   2.816   7.555 -0.6567 -0.0277  0.9693
 7794SOL    HW235016   3.425   2.757   7.540  1.4552 -0.8590  1.7577
 7795SOL     OW35017   2.490   4.186   8.439 -0.1741  0.7942  0.2019
 7795SOL    HW135018   2.576   4.216   8.409 -0.0749  1.9721  1.6808
 7795SOL    HW235019   2.469   4.133   8.362  0.4586 -0.3072  0.7794
 7796SOL     OW35020   2.144   1.827   2.841  0.3819  0.0683  0.1988
 7796SOL    HW135021   2.217   1.828   2.904  0.4606 -0.4396  0.1211
 7796SOL    HW235022   2.172   1.908   2.799 -2.2465  1.6839  1.6113
 7797SOL     OW35023   1.621   1.557  11.992  0.0746  0.0481  0.0702
 7797SOL    HW135024   1.604   1.613  11.916 -2.5610 -0.5227  0.2275
 7797SOL    HW235025   1.685   1.495  11.959  0.1289 -0.1236  0.4992
 7798SOL     OW35026   1.793   2.316   8.390  0.0002 -0.7960 -0.0516
 7798SOL    HW135027   1.867   2.367   8.356 -1.2486 -0.3755 -2.1309
 7798SOL    HW235028   1.720   2.337   8.332 -0.3860 -1.4357  0.2036
 7799SOL     OW35029   1.392   3.454   3.597 -0.6366  0.2263  0.5680
 7799SOL    HW135030   1.305   3.494   3.598 -0.0764  1.3950  1.5943
 7799SOL    HW235031   1.448   3.531   3.598 -1.8308  1.1343 -1.3912
 7800SOL     OW35032   0.354   3.413   9.028 -0.1246 -0.1506  0.0457
 7800SOL    HW135033   0.368   3.505   9.052 -0.4774  0.2826 -1.3533
 7800SOL    HW235034   0.437   3.373   9.051 -0.4223  0.4378  2.1069
 7801SOL     OW35035   3.749   0.338   6.885  0.5916  0.1206  0.2192
 7801SOL    HW135036   3.755   0.249   6.850  1.6851  1.0208 -1.9271
 7801SOL    HW235037   3.806   0.339   6.962  0.6326  2.1938  0.1615
 7802SOL     OW35038   4.166   1.096   0.077 -0.0790 -0.3092  0.2935
 7802SOL    HW135039   4.222   1.173   0.065  0.0168 -0.5817 -1.0042
 7802SOL    HW235040   4.227   1.033   0.117 -0.1455 -0.1809  0.6022
 7803SOL     OW35041   0.318   2.367   8.308  0.0560 -0.1214 -0.0099
 7803SOL    HW135042   0.385   2.336   8.369  0.8993  2.8458  0.5490
 7803SOL    HW235043   0.277   2.435   8.361 -0.0902 -0.9636  0.9683
 7804SOL     OW35044   3.856   0.282   5.428  0.4636  0.2598  0.0231
 7804SOL    HW135045   3.928   0.220   5.416  0.4433  0.1600  0.4079
 7804SOL    HW235046   3.777   0.232   5.406 -0.0913 -0.0673  2.7698
 7805SOL     OW35047   4.541   2.175   9.294 -0.5288 -0.6307 -0.6753
 7805SOL    HW135048   4.495   2.250   9.255 -2.2781 -1.8799 -1.0498
 7805SOL    HW235049   4.534   2.121   9.215  1.6006  1.5214 -2.3293
 7806SOL     OW35050   0.254   3.003  14.311  0.2252 -0.3185  0.1812
 7806SOL    HW135051   0.235   2.990  14.404  1.3897  0.7223  0.5591
 7806SOL    HW235052   0.200   3.080  14.295  0.3599  0.1499  2.0157
 7807SOL     OW35053   1.966   3.058   4.671 -0.4625 -0.4981  0.1393
 7807SOL    HW135054   2.056   3.048   4.702  0.0143  0.6371 -0.8523
 7807SOL    HW235055   1.984   3.052   4.577 -0.4621  1.6600 -0.0141
 7808SOL     OW35056   2.286   1.438  12.318 -0.4150 -0.0401 -0.5065
 7808SOL    HW135057   2.313   1.362  12.267 -2.2553 -0.9593 -0.1335
 7808SOL    HW235058   2.253   1.391  12.395 -0.1540 -1.0217 -0.9986
 7809SOL     OW35059   2.102   1.845   3.266 -0.3731  0.3032 -0.0639
 7809SOL    HW135060   2.179   1.826   3.319  0.7057  0.8858 -1.4417
 7809SOL    HW235061   2.045   1.883   3.333 -0.9234 -0.4081 -0.1196
 7810SOL     OW35062   3.050   1.251  15.322 -0.2430  0.1521  0.5126
 7810SOL    HW135063   3.044   1.267  15.227  1.2388 -0.4048  0.3223
 7810SOL    HW235064   2.999   1.328  15.345  1.0266  1.2684 -0.4373
 7811SOL     OW35065   1.999   2.909   6.698  0.6898 -0.2140 -0.3161
 7811SOL    HW135066   2.014   2.978   6.633  1.9020  0.5024  0.7199
 7811SOL    HW235067   1.905   2.921   6.709  0.8365  0.5020  0.1557
 7812SOL     OW35068   2.023   2.261   5.116  0.1483  0.1573  0.2033
 7812SOL    HW135069   2.009   2.166   5.111 -1.0280  0.3287  0.3427
 7812SOL    HW235070   2.085   2.279   5.046 -0.0506 -0.0554 -0.0275
 7813SOL     OW35071   2.961   4.053  17.301 -0.0251  0.9488 -0.1424
 7813SOL    HW135072   2.936   4.120  17.366 -0.6464  0.0704  0.5213
 7813SOL    HW235073   2.920   4.076  17.217 -1.1686 -1.3075 -0.1801
 7814SOL     OW35074   0.248   1.671   3.829  0.8817 -0.1121 -0.4325
 7814SOL    HW135075   0.168   1.631   3.795  1.3860  0.1884 -1.9715
 7814SOL    HW235076   0.291   1.678   3.744  1.0421 -0.1084 -0.3496
 7815SOL     OW35077   4.547   0.085   6.107  0.2097 -0.3942 -0.3541
 7815SOL    HW135078   4.538   0.009   6.050 -2.2377 -0.3908 -0.0072
 7815SOL    HW235079   4.466   0.133   6.088  0.2418 -0.1605  0.0735
 7816SOL     OW35080   0.968   1.146  12.186 -0.1639  0.2161  0.1176
 7816SOL    HW135081   0.920   1.220  12.147  0.6560 -0.4077 -2.0842
 7816SOL    HW235082   0.940   1.148  12.277 -1.2184 -0.5445 -0.1954
 7817SOL     OW35083   0.179   4.421  13.725 -0.0144 -0.0838  0.0872
 7817SOL    HW135084   0.196   4.505  13.684  0.7534 -0.2191  0.1216
 7817SOL    HW235085   0.197   4.436  13.818  0.6938  2.9674 -0.5663
 7818SOL     OW35086   4.130   0.949  12.102  0.7162  0.2028 -0.4364
 7818SOL    HW135087   4.109   0.911  12.016 -0.2569  1.4049 -0.7354
 7818SOL    HW235088   4.174   1.031  12.078  0.7988  0.1369 -0.5094
 7819SOL     OW35089   1.850   3.814  10.382 -0.1141  0.0106 -0.6666
 7819SOL    HW135090   1.882   3.814  10.472 -1.0984  1.7438 -0.3162
 7819SOL    HW235091   1.899   3.745  10.338  0.8974 -0.5975  1.4087
 7820SOL     OW35092   2.462   1.007   3.568  0.5255  0.3497  0.0191
 7820SOL    HW135093   2.379   0.964   3.588  0.5684  0.4479  0.4039
 7820SOL    HW235094   2.522   0.964   3.628  0.7302  1.1871  0.4230
 7821SOL     OW35095   3.261   2.144   8.633 -0.1479  0.3654  0.1532
 7821SOL    HW135096   3.248   2.122   8.541 -0.0362 -1.2941  0.5342
 7821SOL    HW235097   3.310   2.068   8.665 -0.3358 -0.0689 -0.6157
 7822SOL     OW35098   1.431   2.614  13.835  0.0253  0.3737  0.3718
 7822SOL    HW135099   1.399   2.533  13.875 -0.2355 -0.3142 -1.2311
 7822SOL    HW235100   1.362   2.668  13.874 -0.7056 -0.5249  0.3198
 7823SOL     OW35101   0.210   2.315  16.278 -0.2571 -0.6132  0.4412
 7823SOL    HW135102   0.115   2.315  16.274 -0.1709  0.3974 -1.5401
 7823SOL    HW235103   0.232   2.366  16.200 -0.7858  0.0973  0.7581
 7824SOL     OW35104   3.448   2.402  14.134  0.4692  0.5516 -0.7520
 7824SOL    HW135105   3.509   2.464  14.095 -0.3442  2.6703  1.3018
 7824SOL    HW235106   3.389   2.458  14.184 -1.6045  0.0311 -2.6151
 7825SOL     OW35107   1.955   1.976   7.490  0.3708 -0.6325 -0.0219
 7825SOL    HW135108   2.034   2.025   7.467 -1.3402  1.4744 -1.3806
 7825SOL    HW235109   1.987   1.887   7.504  1.5117 -0.1486  0.4613
 7826SOL     OW35110   4.555   4.142   6.201 -0.4504  0.6778 -0.0143
 7826SOL    HW135111   4.604   4.215   6.164 -0.3051  0.8214  0.4649
 7826SOL    HW235112   4.587   4.066   6.151 -1.5644  0.4472 -0.3810
 7827SOL     OW35113   0.415   3.690   9.042  0.5104  0.0146 -0.6215
 7827SOL    HW135114   0.481   3.734   9.097  0.3865 -1.1701  0.4566
 7827SOL    HW235115   0.352   3.761   9.035 -0.0690 -0.4646 -0.2243
 7828SOL     OW35116   1.828   4.672   2.386  0.3552  0.4041  0.0865
 7828SOL    HW135117   1.737   4.700   2.398  0.6846  1.3577  0.3816
 7828SOL    HW235118   1.811   4.578   2.391 -0.8816  0.5085 -2.0819
 7829SOL     OW35119   1.014   3.793   4.888 -0.2159  0.4347  0.0857
 7829SOL    HW135120   1.003   3.834   4.974  0.0956 -0.9998  0.8178
 7829SOL    HW235121   1.096   3.748   4.909 -0.2295  0.3736  0.0055
 7830SOL     OW35122   3.784   2.510   4.495 -0.2252 -0.1237 -0.5101
 7830SOL    HW135123   3.701   2.514   4.446 -1.7589 -0.3433  2.0571
 7830SOL    HW235124   3.752   2.530   4.583 -0.0154 -1.9005 -0.0261
 7831SOL     OW35125   1.729   1.658   9.217  0.0041 -0.1849 -0.1399
 7831SOL    HW135126   1.665   1.612   9.271 -0.6006 -0.6789 -1.2681
 7831SOL    HW235127   1.756   1.586   9.160 -2.1732 -0.5854 -0.6618
 7832SOL     OW35128   2.435   3.582  10.881  0.3133  0.4645 -0.0184
 7832SOL    HW135129   2.367   3.520  10.906  2.2984 -1.5615  0.3550
 7832SOL    HW235130   2.486   3.526  10.823  0.2996 -2.0183  2.3674
 7833SOL     OW35131   2.706   3.994  15.201 -0.6621 -0.0764 -0.2732
 7833SOL    HW135132   2.675   3.904  15.215 -0.9614 -0.2022 -1.7494
 7833SOL    HW235133   2.753   3.998  15.118  1.3155  0.0844  0.8536
 7834SOL     OW35134   0.339   4.628   6.350  0.0515  0.3807 -0.3071
 7834SOL    HW135135   0.270   4.686   6.318  0.4059  1.1689  0.3743
 7834SOL    HW235136   0.299   4.606   6.434  0.0813 -0.0966 -0.4143
 7835SOL     OW35137   3.500   0.588   1.885 -0.6032  0.0952 -0.1471
 7835SOL    HW135138   3.591   0.608   1.867 -0.3718 -0.7237  0.1011
 7835SOL    HW235139   3.493   0.616   1.977  1.4038 -0.8125  0.2849
 7836SOL     OW35140   1.417   0.980   4.953 -0.4521  0.6227 -0.1399
 7836SOL    HW135141   1.490   0.987   5.015  0.7700  2.0356 -1.7382
 7836SOL    HW235142   1.362   0.913   4.994  0.5117  1.0829  1.9131
 7837SOL     OW35143   0.831   3.430  12.644  0.0538 -0.3886  0.0818
 7837SOL    HW135144   0.817   3.477  12.726  1.2809  1.3197 -0.6845
 7837SOL    HW235145   0.863   3.500  12.586 -0.6715  0.3317  0.5501
 7838SOL     OW35146   2.226   1.859   4.878 -0.2130 -0.8317  0.2426
 7838SOL    HW135147   2.277   1.935   4.906  1.0509 -1.7608  0.4376
 7838SOL    HW235148   2.156   1.857   4.944  1.3133  0.4070  1.9042
 7839SOL     OW35149   4.276   1.028   6.461 -0.4069  0.1730 -0.2158
 7839SOL    HW135150   4.362   1.063   6.439 -0.6628 -0.8026 -2.7023
 7839SOL    HW235151   4.227   1.100   6.502 -2.4455 -1.0687 -0.4428
 7840SOL     OW35152   4.005   2.693   7.236 -0.4740 -0.2204  0.2935
 7840SOL    HW135153   3.951   2.698   7.157 -0.0031 -0.0673 -0.0154
 7840SOL    HW235154   3.962   2.766   7.281  0.4774  0.0829  0.7016
 7841SOL     OW35155   3.323   4.477  14.698  0.6596  0.5138 -0.2833
 7841SOL    HW135156   3.339   4.541  14.767  1.6093 -0.5988  0.5337
 7841SOL    HW235157   3.271   4.524  14.633  1.4441 -0.3405 -1.5205
 7842SOL     OW35158   0.155   2.084   6.263 -0.0166 -0.1441 -0.2663
 7842SOL    HW135159   0.188   2.056   6.178 -2.9346  0.6391 -1.6859
 7842SOL    HW235160   0.118   2.165   6.227  2.2807  0.6082 -0.9050
 7843SOL     OW35161   2.296   3.185   4.064  0.4304  0.0947 -0.3145
 7843SOL    HW135162   2.338   3.223   3.988  1.7352 -0.1762  0.2716
 7843SOL    HW235163   2.323   3.096   4.039 -0.8181 -0.1481 -0.8011
 7844SOL     OW35164   0.687   2.999   4.875  0.6727  0.0471  0.3099
 7844SOL    HW135165   0.675   3.010   4.970  0.8142 -2.2880  0.5979
 7844SOL    HW235166   0.599   2.990   4.837 -0.2767  1.6263  2.1224
 7845SOL     OW35167   2.777   4.561  15.287  0.5651  0.7726  0.0395
 7845SOL    HW135168   2.725   4.533  15.212 -0.7042  3.1555  0.0016
 7845SOL    HW235169   2.862   4.527  15.257  0.4441  0.2728  0.2712
 7846SOL     OW35170   2.473   4.252   3.380  0.2163 -0.4796  0.4100
 7846SOL    HW135171   2.411   4.268   3.452  0.4212  3.4391 -0.2753
 7846SOL    HW235172   2.437   4.169   3.349 -0.1030 -0.0088 -0.4832
 7847SOL     OW35173   0.076   4.284   6.679  0.2847 -0.2952  0.1100
 7847SOL    HW135174   0.050   4.285   6.771  1.1297 -0.8248  0.3519
 7847SOL    HW235175   0.010   4.226   6.641 -1.9962  1.8006  0.9134
 7848SOL     OW35176   1.868   0.486   4.276  0.0999  0.8911 -0.6767
 7848SOL    HW135177   1.857   0.393   4.260  2.2769  1.1910 -3.8810
 7848SOL    HW235178   1.779   0.516   4.296  0.5228  1.2788  0.6423
 7849SOL     OW35179   1.106   2.049   9.875  0.3138  0.2440  0.3087
 7849SOL    HW135180   1.186   1.999   9.892  1.2703  1.2081 -1.2713
 7849SOL    HW235181   1.149   2.135   9.873  0.8628 -0.0411 -0.0252
 7850SOL     OW35182   0.769   0.072   4.779  0.3761  0.6336 -0.5268
 7850SOL    HW135183   0.702   0.060   4.711 -1.0519 -0.4882  1.0987
 7850SOL    HW235184   0.820   0.146   4.747  1.5245  0.4835  0.9595
 7851SOL     OW35185   2.423   3.166  10.693 -0.1588 -0.3490  0.2151
 7851SOL    HW135186   2.424   3.127  10.781 -1.3522  0.9253  0.7926
 7851SOL    HW235187   2.444   3.259  10.708 -0.5807 -0.2339  0.0835
 7852SOL     OW35188   1.246   1.007   6.217 -0.2683 -0.3326 -0.0958
 7852SOL    HW135189   1.257   0.957   6.136 -1.4282 -3.5401  1.7254
 7852SOL    HW235190   1.188   0.953   6.271  1.9366 -1.1606  1.4572
 7853SOL     OW35191   2.569   1.025   4.112 -0.2652  0.3327  0.8005
 7853SOL    HW135192   2.558   1.034   4.207  1.1220 -0.3780  1.0131
 7853SOL    HW235193   2.514   1.095   4.075 -0.0800 -0.4357 -0.9402
 7854SOL     OW35194   2.209   0.430  14.272 -0.4528  0.2180  0.0101
 7854SOL    HW135195   2.119   0.414  14.301 -1.5253  1.0655 -2.8284
 7854SOL    HW235196   2.221   0.523  14.290  0.2586 -0.2232  1.7179
 7855SOL     OW35197   0.035   0.306  15.844 -0.0126  1.1676  0.5405
 7855SOL    HW135198   4.732   0.291  15.760  2.7322 -2.6905 -0.1766
 7855SOL    HW235199   4.705   0.284  15.905  0.9607 -0.1767  1.1703
 7856SOL     OW35200   3.182   4.245   8.335  0.4597  0.1281  0.0663
 7856SOL    HW135201   3.188   4.340   8.339  1.7592  0.1750 -2.8948
 7856SOL    HW235202   3.125   4.227   8.410 -0.5269 -2.1269 -1.2135
 7857SOL     OW35203   2.816   0.301   4.739 -0.1213  0.3784  0.2143
 7857SOL    HW135204   2.808   0.393   4.714  2.3405  0.8005  0.8975
 7857SOL    HW235205   2.902   0.302   4.782 -0.8166  3.6007  1.5326
 7858SOL     OW35206   0.160   2.287  14.019  0.4879 -0.7353 -0.1284
 7858SOL    HW135207   0.183   2.316  14.107  0.5739  1.4830 -0.8977
 7858SOL    HW235208   0.076   2.332  14.012  0.0694 -1.3614  0.8517
 7859SOL     OW35209   2.821   0.284  14.517  0.1420  0.1849 -0.0114
 7859SOL    HW135210   2.881   0.355  14.537  1.5452 -1.1708  0.5619
 7859SOL    HW235211   2.880   0.209  14.509  0.2302  0.4890 -2.2813
 7860SOL     OW35212   2.019   3.216   3.853 -0.7217  0.0511  0.3896
 7860SOL    HW135213   1.965   3.152   3.899  0.1099 -0.1984  1.0130
 7860SOL    HW235214   1.961   3.289   3.875 -1.6518 -0.6921  0.4388
 7861SOL     OW35215   2.155   3.199  13.390 -0.5676  0.3413  0.3253
 7861SOL    HW135216   2.110   3.241  13.318  0.2668 -0.7645 -0.8553
 7861SOL    HW235217   2.180   3.117  13.346 -1.5162  0.9711 -1.3369
 7862SOL     OW35218   2.643   0.661  15.194 -0.1403 -0.4467  0.2465
 7862SOL    HW135219   2.597   0.704  15.122  0.3932 -2.0408 -1.0558
 7862SOL    HW235220   2.711   0.617  15.143  0.4835 -1.9959  2.4193
 7863SOL     OW35221   2.466   3.821  10.686  0.2863 -0.1077  0.1138
 7863SOL    HW135222   2.409   3.786  10.618 -0.2528 -0.7827  0.9051
 7863SOL    HW235223   2.467   3.755  10.755  0.3805  0.1565  0.3640
 7864SOL     OW35224   3.435   0.155   0.005 -0.5904  0.5990 -0.4445
 7864SOL    HW135225   3.459   0.115  17.678  0.2292 -0.6145  0.3764
 7864SOL    HW235226   3.365   0.213  17.731 -1.6323 -1.6631 -2.3468
 7865SOL     OW35227   0.943   3.225   6.382 -0.5437  0.5601  0.0264
 7865SOL    HW135228   0.941   3.129   6.389 -0.0453  0.5545  0.0761
 7865SOL    HW235229   0.912   3.240   6.471  0.7574  1.1434  0.3790
 7866SOL     OW35230   4.614   3.167  12.944  0.2349 -0.0652 -0.2751
 7866SOL    HW135231   4.665   3.168  13.025  1.4596 -0.0787 -1.0480
 7866SOL    HW235232   4.582   3.257  12.944 -2.2757 -0.9333  0.8516
 7867SOL     OW35233   3.925   2.850   7.647 -0.2204  0.6069 -0.0958
 7867SOL    HW135234   3.913   2.756   7.660  0.8840  0.8242  2.7030
 7867SOL    HW235235   3.900   2.875   7.736  1.4104  0.2468  0.4797
 7868SOL     OW35236   3.567   0.626   8.789 -0.2952 -0.0352 -0.1415
 7868SOL    HW135237   3.513   0.648   8.865  1.6450  3.6865  0.1593
 7868SOL    HW235238   3.548   0.537   8.759 -1.0622  0.6091 -1.5719
 7869SOL     OW35239   3.011   4.199   5.830 -0.0213  0.4926  0.1186
 7869SOL    HW135240   3.104   4.198   5.849 -0.5560  0.8083  2.6976
 7869SOL    HW235241   2.979   4.136   5.894  0.1807 -1.6059 -1.8263
 7870SOL     OW35242   0.489   0.300   5.762  0.7353  0.0135 -0.5090
 7870SOL    HW135243   0.505   0.337   5.676  0.0514  2.2386  0.3194
 7870SOL    HW235244   0.576   0.299   5.803  0.4676 -1.4704  0.0247
 7871SOL     OW35245   3.259   3.698   9.608  0.6180 -0.3029 -0.4851
 7871SOL    HW135246   3.165   3.716   9.617  0.9772  2.2983 -1.9174
 7871SOL    HW235247   3.296   3.688   9.696  1.1399  2.1403 -0.4481
 7872SOL     OW35248   3.763   2.907  15.576  0.2263  0.3605  0.0316
 7872SOL    HW135249   3.703   2.974  15.543 -0.2446 -0.8033 -1.5383
 7872SOL    HW235250   3.728   2.831  15.528 -2.4110  2.2512 -1.0427
 7873SOL     OW35251   4.487   0.058   7.804 -0.3493  0.3712  0.2254
 7873SOL    HW135252   4.434   0.135   7.784 -0.4729 -0.0671 -1.1346
 7873SOL    HW235253   4.422   4.732   7.776  1.5967 -1.1053 -0.8040
 7874SOL     OW35254   2.179   0.099   1.645 -0.2792 -0.0060  0.1992
 7874SOL    HW135255   2.138   0.184   1.626 -0.9696 -0.5826 -0.9145
 7874SOL    HW235256   2.270   0.116   1.619 -0.6551 -0.6130 -1.5264
 7875SOL     OW35257   1.107   2.407   7.839  0.3206  0.1815  0.1895
 7875SOL    HW135258   1.066   2.339   7.786 -2.0293 -0.4133  2.7907
 7875SOL    HW235259   1.112   2.464   7.763 -2.1303  0.2526  0.1129
 7876SOL     OW35260   1.731   2.986   6.743  0.1113 -1.0023 -0.2451
 7876SOL    HW135261   1.636   2.986   6.732  0.1369 -2.9887 -0.4822
 7876SOL    HW235262   1.732   3.079   6.764 -0.5257 -1.3251  1.2313
 7877SOL     OW35263   3.600   1.535  12.241  0.1927 -0.3069  0.0608
 7877SOL    HW135264   3.612   1.455  12.191 -1.1751 -1.0157  0.8404
 7877SOL    HW235265   3.515   1.525  12.284  1.5507 -0.0952  2.8001
 7878SOL     OW35266   1.348   3.335   3.272  0.2136  0.3213 -0.4736
 7878SOL    HW135267   1.345   3.423   3.310 -1.2354 -0.0659  0.3239
 7878SOL    HW235268   1.278   3.345   3.208 -0.6548  0.6424  0.5071
 7879SOL     OW35269   3.872   4.055   8.567  0.5760  0.1275 -0.2266
 7879SOL    HW135270   3.810   4.108   8.618  1.6261 -1.0090  2.2274
 7879SOL    HW235271   3.844   3.966   8.586  0.3952 -0.0012 -1.1135
 7880SOL     OW35272   3.680   2.699   1.182  0.4416  0.0026 -0.4145
 7880SOL    HW135273   3.633   2.753   1.246 -0.8902 -1.3564 -0.2610
 7880SOL    HW235274   3.623   2.668   1.112  1.0791  1.4070 -1.5625
 7881SOL     OW35275   4.125   2.474   1.038  0.2245  0.4503 -0.0109
 7881SOL    HW135276   4.067   2.472   1.114  0.3216 -1.0223  0.0217
 7881SOL    HW235277   4.110   2.387   1.002  3.4870 -0.4955  0.9607
 7882SOL     OW35278   2.513   3.129   7.445  0.1675  0.1261  0.4310
 7882SOL    HW135279   2.492   3.190   7.375  0.3969  1.2712  1.3611
 7882SOL    HW235280   2.474   3.044   7.424  0.0519  0.3301 -0.1690
 7883SOL     OW35281   1.836   3.051   3.946  0.3925 -0.5858 -0.3099
 7883SOL    HW135282   1.790   3.066   4.029  0.9345  3.2078 -0.6909
 7883SOL    HW235283   1.801   2.966   3.917  1.7545 -0.6361 -1.7694
 7884SOL     OW35284   2.351   1.289   4.363 -0.0071  0.0198 -0.5587
 7884SOL    HW135285   2.370   1.319   4.452  0.5365 -0.1428 -0.6195
 7884SOL    HW235286   2.362   1.374   4.322  0.3999  0.6592  0.8819
 7885SOL     OW35287   4.670   0.388   2.419 -0.3773 -0.8511  0.8256
 7885SOL    HW135288   4.582   0.362   2.390 -0.7025 -1.2967  2.1908
 7885SOL    HW235289   4.718   0.306   2.407  0.0013 -0.2857 -1.4728
 7886SOL     OW35290   3.975   0.469  17.645 -0.1417  0.3238  0.7011
 7886SOL    HW135291   3.911   0.398  17.648  0.1355  0.0970  1.1536
 7886SOL    HW235292   3.966   0.510  17.731 -0.5069 -0.0664  0.8466
 7887SOL     OW35293   4.520   1.988   3.226 -0.2532 -0.1403  0.3912
 7887SOL    HW135294   4.516   2.083   3.238 -1.7964 -0.1704  0.1863
 7887SOL    HW235295   4.462   1.966   3.153  0.4536  1.3471 -0.6258
 7888SOL     OW35296   4.197   1.093   8.510 -0.5324  0.3504 -0.0923
 7888SOL    HW135297   4.191   1.018   8.570  1.0222 -1.7431 -2.5457
 7888SOL    HW235298   4.235   1.158   8.568 -2.1386 -0.2089  1.5834
 7889SOL     OW35299   3.396   2.612  15.368  0.1313 -0.2156 -0.2373
 7889SOL    HW135300   3.371   2.524  15.396 -1.6079  0.7139  1.1091
 7889SOL    HW235301   3.334   2.665  15.418 -0.1936  0.4482 -1.3686
 7890SOL     OW35302   4.432   3.557   6.599  0.0913  0.0753  0.1047
 7890SOL    HW135303   4.490   3.601   6.537 -0.9653  0.2217 -0.7901
 7890SOL    HW235304   4.489   3.509   6.659  1.3007  0.5360 -0.6796
 7891SOL     OW35305   2.524   2.127  13.202 -0.4158 -0.0665 -0.1798
 7891SOL    HW135306   2.586   2.054  13.204 -0.0615  0.2640  0.9415
 7891SOL    HW235307   2.463   2.097  13.270 -1.3883 -0.4962 -1.2391
 7892SOL     OW35308   3.299   0.801   6.503 -0.5147  0.1557 -0.0404
 7892SOL    HW135309   3.355   0.861   6.454  1.5724 -1.0389  0.8770
 7892SOL    HW235310   3.232   0.865   6.525  0.6433  1.5269 -0.5137
 7893SOL     OW35311   3.409   4.155   8.614  0.3170  0.2772  0.0808
 7893SOL    HW135312   3.341   4.088   8.626  1.0684  0.0641  3.2938
 7893SOL    HW235313   3.399   4.175   8.521  1.6520 -0.2170 -0.1690
 7894SOL     OW35314   1.391   3.870   3.335 -0.5353  0.3335  0.2522
 7894SOL    HW135315   1.471   3.918   3.356  0.3646 -0.5145 -1.2232
 7894SOL    HW235316   1.334   3.943   3.360  0.2445  0.9335  0.2563
 7895SOL     OW35317   1.125   2.310   3.201 -0.1219  0.2513 -0.0248
 7895SOL    HW135318   1.183   2.381   3.229 -1.0370 -0.2376  3.0845
 7895SOL    HW235319   1.098   2.351   3.119 -1.3459 -0.2353  0.1470
 7896SOL     OW35320   2.714   4.014  10.282  0.0276 -0.0042 -0.2874
 7896SOL    HW135321   2.650   4.082  10.263  0.1227  0.0341 -0.4711
 7896SOL    HW235322   2.693   4.008  10.375  0.4428  0.2371 -0.1789
 7897SOL     OW35323   3.281   2.199  14.035 -0.4941 -0.2001  0.3992
 7897SOL    HW135324   3.361   2.148  14.026  0.3353  1.6503 -2.6741
 7897SOL    HW235325   3.313   2.289  14.042  0.2730 -0.3706 -0.9059
 7898SOL     OW35326   3.994   0.707   8.812 -0.1611  0.7807 -0.0335
 7898SOL    HW135327   3.944   0.634   8.776  1.0122  0.5849 -1.2742
 7898SOL    HW235328   4.025   0.751   8.732 -0.7064  1.5205  0.1540
 7899SOL     OW35329   4.516   3.181   8.600  0.0898 -0.3936 -1.0270
 7899SOL    HW135330   4.462   3.216   8.529  1.1569  1.7311 -0.8196
 7899SOL    HW235331   4.472   3.099   8.623 -1.4911  0.1101 -2.2314
 7900SOL     OW35332   3.895   1.395  10.751  0.1138 -0.2044  0.0209
 7900SOL    HW135333   3.831   1.339  10.796  2.2334 -0.7859  2.3489
 7900SOL    HW235334   3.946   1.436  10.821 -1.8818  1.2289  0.6152
 7901SOL     OW35335   3.828   3.505  11.506  0.3846 -0.1383 -0.1318
 7901SOL    HW135336   3.803   3.491  11.597  3.4258 -1.6629  0.4840
 7901SOL    HW235337   3.756   3.561  11.478  1.1652  0.7315 -0.4135
 7902SOL     OW35338   1.619   1.313   3.009 -0.0611  0.2352  0.0246
 7902SOL    HW135339   1.636   1.405   3.029 -4.5337  1.1568 -0.5105
 7902SOL    HW235340   1.623   1.303   2.914  0.6126 -0.5184  0.1249
 7903SOL     OW35341   2.898   2.112  10.436  0.2165 -0.0567 -0.3734
 7903SOL    HW135342   2.909   2.022  10.465  2.1782 -0.3881 -2.1747
 7903SOL    HW235343   2.813   2.118  10.392  0.5954  0.8272 -0.9945
 7904SOL     OW35344   2.144   0.481   2.156 -0.0482 -0.5267  0.4327
 7904SOL    HW135345   2.239   0.473   2.149  0.3645  2.4405  2.5443
 7904SOL    HW235346   2.135   0.455   2.248  0.7809 -0.3745  0.5595
 7905SOL     OW35347   4.728   0.505   5.266  0.6285  0.3496  0.0059
 7905SOL    HW135348   0.055   0.568   5.240  0.2047  0.7377 -0.1587
 7905SOL    HW235349   4.736   0.451   5.188 -0.3578  1.3318 -0.7852
 7906SOL     OW35350   0.765   3.266   9.322  0.6453 -0.3179 -0.0103
 7906SOL    HW135351   0.827   3.314   9.267  0.5287 -0.7111 -0.4925
 7906SOL    HW235352   0.690   3.265   9.263  0.5475  0.5614  0.1104
 7907SOL     OW35353   2.690   0.793   6.002 -0.1844 -0.3218  0.2907
 7907SOL    HW135354   2.671   0.822   5.912  0.4016 -2.1964 -0.4188
 7907SOL    HW235355   2.780   0.768   5.982  0.1574  2.4898 -1.7404
 7908SOL     OW35356   3.370   4.655   5.110 -0.0074 -0.2829  0.3276
 7908SOL    HW135357   3.316   4.661   5.189  0.5782 -0.7439  0.7660
 7908SOL    HW235358   3.395   4.563   5.098  0.0957 -0.3972  1.4477
 7909SOL     OW35359   4.217   1.990   3.416  0.3854  0.2471  0.3850
 7909SOL    HW135360   4.219   2.018   3.325  0.1884  1.4358  0.7530
 7909SOL    HW235361   4.140   1.933   3.407  0.7359 -0.3202  0.9025
 7910SOL     OW35362   4.536   3.066  16.524 -0.0412 -0.2987 -0.0842
 7910SOL    HW135363   4.506   3.156  16.534 -1.9835 -0.4092 -4.7958
 7910SOL    HW235364   4.512   3.059  16.432 -0.1586 -2.8296  0.1399
 7911SOL     OW35365   4.112   0.288   2.933 -0.2519 -0.0048 -0.2752
 7911SOL    HW135366   4.096   0.194   2.937  2.8921 -0.5602 -0.8261
 7911SOL    HW235367   4.188   0.297   2.876 -0.2908 -3.1200 -0.8160
 7912SOL     OW35368   0.534   0.807   3.316 -0.1573 -0.6410 -0.0191
 7912SOL    HW135369   0.555   0.713   3.314  3.2600  0.1296  0.7203
 7912SOL    HW235370   0.453   0.798   3.265 -0.8682 -0.1006  1.0136
 7913SOL     OW35371   1.706   0.565  12.126  0.0345  0.0513 -0.3853
 7913SOL    HW135372   1.673   0.654  12.114 -1.3252 -0.1210  2.0293
 7913SOL    HW235373   1.795   0.571  12.091 -0.5516  0.6794 -1.7718
 7914SOL     OW35374   3.993   3.338   5.082 -0.7583  0.1521  0.2472
 7914SOL    HW135375   3.986   3.350   4.987  0.7724 -0.8584  0.0137
 7914SOL    HW235376   3.983   3.244   5.099 -0.4256  0.0389 -0.1807
 7915SOL     OW35377   1.466   3.794   7.280  0.4411 -0.2674  0.1181
 7915SOL    HW135378   1.406   3.863   7.309  1.1689  0.3199  0.2322
 7915SOL    HW235379   1.495   3.769   7.368  1.9841  0.4410 -0.1877
 7916SOL     OW35380   3.766   1.237   6.323  0.1048  0.1237  0.1935
 7916SOL    HW135381   3.754   1.217   6.416 -1.2581 -0.7086 -0.1563
 7916SOL    HW235382   3.680   1.275   6.309  0.6911  0.9176 -1.2717
 7917SOL     OW35383   0.286   1.232   7.619 -0.1786  0.1412  0.2500
 7917SOL    HW135384   0.305   1.283   7.540 -1.4668  1.7591  0.9991
 7917SOL    HW235385   0.316   1.146   7.588 -3.5349 -0.9716  0.0588
 7918SOL     OW35386   0.197   0.528  16.627 -1.0215 -0.2206 -0.3138
 7918SOL    HW135387   0.157   0.526  16.540  1.6580 -4.0947 -1.4568
 7918SOL    HW235388   0.161   0.449  16.668 -0.7096 -0.2517 -0.0993
 7919SOL     OW35389   1.540   0.547   7.422 -0.1114  0.6023 -1.0571
 7919SOL    HW135390   1.635   0.558   7.431 -0.1980 -2.3587  3.2216
 7919SOL    HW235391   1.515   0.530   7.512 -1.0332  2.9148 -0.8987
 7920SOL     OW35392   2.514   0.806  13.779  0.1041 -0.4228  0.0284
 7920SOL    HW135393   2.525   0.894  13.816  0.5655 -0.4386 -0.0753
 7920SOL    HW235394   2.508   0.743  13.851  1.4993  0.8699  1.2733
 7921SOL     OW35395   4.511   1.324   7.775 -0.1890 -0.0502 -0.2482
 7921SOL    HW135396   4.538   1.321   7.867  0.9844 -1.3266 -0.6384
 7921SOL    HW235397   4.516   1.419   7.768  1.0333 -0.2540 -2.1400
 7922SOL     OW35398   4.553   0.187  10.109  0.3017 -0.0618  0.4108
 7922SOL    HW135399   4.518   0.167  10.195 -1.1328 -0.3920 -0.2408
 7922SOL    HW235400   4.548   0.283  10.109 -3.8641 -0.2868  0.2573
 7923SOL     OW35401   1.330   1.732   6.348  0.0752 -0.3480 -0.4292
 7923SOL    HW135402   1.369   1.777   6.273  1.4568  0.7648  0.9276
 7923SOL    HW235403   1.241   1.706   6.325 -0.3005  2.9276 -2.7322
 7924SOL     OW35404   2.998   2.246   2.597 -0.6681  0.2034 -0.5365
 7924SOL    HW135405   2.915   2.294   2.598  0.8434  2.8040 -0.6861
 7924SOL    HW235406   3.034   2.235   2.685  1.6833  0.8150 -1.4123
 7925SOL     OW35407   1.957   2.736   3.992 -0.3488  0.5443 -0.1067
 7925SOL    HW135408   1.927   2.653   4.027  1.3634  1.0315  2.4798
 7925SOL    HW235409   1.886   2.754   3.930 -0.1263 -0.3147 -0.6071
 7926SOL     OW35410   3.855   3.195   7.432  0.4921 -0.1746  0.1219
 7926SOL    HW135411   3.853   3.255   7.507 -0.2671 -1.6869  1.3266
 7926SOL    HW235412   3.935   3.207   7.382  0.1945  1.1500 -0.0411
 7927SOL     OW35413   1.050   2.398   3.908  0.0248  0.5251  0.5161
 7927SOL    HW135414   1.114   2.465   3.931  2.2904 -1.7209  0.7819
 7927SOL    HW235415   0.978   2.451   3.875 -0.2043 -0.7578 -1.0502
 7928SOL     OW35416   3.598   4.373   1.754 -0.0435  0.5215 -0.0879
 7928SOL    HW135417   3.662   4.418   1.809  1.5570 -1.1843 -0.5553
 7928SOL    HW235418   3.514   4.393   1.794 -0.3233  0.9883 -0.9271
 7929SOL     OW35419   1.238   3.141   2.863 -0.3668 -0.3381 -0.3000
 7929SOL    HW135420   1.255   3.227   2.901 -3.3847  0.7893 -1.5261
 7929SOL    HW235421   1.322   3.097   2.845 -0.3393 -0.0142 -0.9983
 7930SOL     OW35422   0.453   0.124   4.666 -0.4053  0.5191  0.1812
 7930SOL    HW135423   0.392   0.100   4.736  0.4612 -1.0257  0.3998
 7930SOL    HW235424   0.488   0.202   4.711  4.2454 -2.2485  1.3037
 7931SOL     OW35425   0.963   4.674   3.172 -0.0160 -0.3702 -0.0647
 7931SOL    HW135426   1.053   4.696   3.151  0.0134 -1.3113 -0.9065
 7931SOL    HW235427   0.958   4.703   3.263 -1.5361 -3.1520  0.7575
 7932SOL     OW35428   1.026   4.267  12.342  0.2788  0.0039 -0.2436
 7932SOL    HW135429   0.947   4.299  12.299  0.5150  1.6118  0.5226
 7932SOL    HW235430   0.999   4.176  12.354  0.1855 -0.0175 -0.6166
 7933SOL     OW35431   0.822   1.634   2.352  0.2082 -0.3581 -0.2794
 7933SOL    HW135432   0.909   1.598   2.369 -0.2433 -1.9471 -1.3128
 7933SOL    HW235433   0.771   1.553   2.345 -2.5288  1.3841 -0.0574
 7934SOL     OW35434   1.241   4.340  12.195 -0.1439 -0.0036 -0.4154
 7934SOL    HW135435   1.159   4.297  12.216 -0.1984  0.4101  0.2304
 7934SOL    HW235436   1.296   4.264  12.218 -2.9902 -0.6308  4.3141
 7935SOL     OW35437   4.579   2.999   6.471 -0.3830 -0.7576  0.1584
 7935SOL    HW135438   4.541   3.085   6.452  0.0947 -0.6250 -0.2241
 7935SOL    HW235439   4.604   2.992   6.379  0.1980  1.3329  0.1445
 7936SOL     OW35440   4.701   4.373  13.229  0.1607 -0.4249  0.2529
 7936SOL    HW135441   4.732   4.353  13.317 -0.3426  1.6971  0.8944
 7936SOL    HW235442   4.732   4.464  13.232  0.3457 -0.4745 -0.0960
 7937SOL     OW35443   0.375   0.574   9.218 -0.0189  0.1085  0.6562
 7937SOL    HW135444   0.396   0.594   9.127  0.7383 -0.9532  0.5879
 7937SOL    HW235445   0.293   0.529   9.202 -0.3733  1.6040 -1.7495
 7938SOL     OW35446   2.155   0.173   5.897  0.4505  0.6258 -0.8681
 7938SOL    HW135447   2.194   0.259   5.912  0.1231  0.4882  0.7217
 7938SOL    HW235448   2.136   0.141   5.985 -2.2846  1.6586 -1.0636
 7939SOL     OW35449   4.732   1.387   3.271 -0.1131 -0.0028 -0.6215
 7939SOL    HW135450   4.658   1.333   3.241  1.1612 -0.5489 -2.7447
 7939SOL    HW235451   0.002   1.453   3.202  1.4002 -1.9997 -2.3311
 7940SOL     OW35452   2.565   3.734   3.062  0.9632  0.0103  0.5857
 7940SOL    HW135453   2.554   3.800   2.993  0.1896 -1.5511 -0.8013
 7940SOL    HW235454   2.474   3.706   3.073  0.9029  0.3915  1.0100
 7941SOL     OW35455   4.010   1.793   1.263  0.1491  0.3286  0.0266
 7941SOL    HW135456   4.038   1.707   1.292  1.0225  1.1038  1.4398
 7941SOL    HW235457   4.080   1.817   1.202  1.3474 -0.4816  1.1207
 7942SOL     OW35458   2.119   4.511   1.043  0.8179 -0.5503 -0.1039
 7942SOL    HW135459   2.120   4.575   1.115 -2.2414 -0.6569  0.0102
 7942SOL    HW235460   2.083   4.435   1.090 -0.8405  0.3104  0.0224
 7943SOL     OW35461   0.004   0.888  13.282 -0.3716  0.3896  0.3730
 7943SOL    HW135462   0.031   0.832  13.355  1.1471  0.2726 -0.2747
 7943SOL    HW235463   4.699   0.961  13.324  0.6626  0.0134  2.1309
 7944SOL     OW35464   4.458   0.473   1.468  0.3162 -0.2307  0.3873
 7944SOL    HW135465   4.493   0.494   1.381 -0.1406 -1.9915 -0.2292
 7944SOL    HW235466   4.475   0.556   1.513 -1.3493  1.2144 -1.6842
 7945SOL     OW35467   4.221   2.172  15.536  0.2017  0.4613 -0.1180
 7945SOL    HW135468   4.243   2.145  15.447 -1.2910  0.1381 -0.3811
 7945SOL    HW235469   4.298   2.226  15.554 -0.2774  0.8550  0.7429
 7946SOL     OW35470   3.442   4.151   8.330 -0.2749  0.0910  0.2069
 7946SOL    HW135471   3.357   4.187   8.303  0.8538  1.3139 -1.7200
 7946SOL    HW235472   3.433   4.057   8.345 -0.3724  0.4155  2.1399
 7947SOL     OW35473   3.786   1.241   0.084 -0.1541  0.5939  0.2165
 7947SOL    HW135474   3.827   1.168   0.038  0.5858 -0.1905  2.0995
 7947SOL    HW235475   3.847   1.244   0.158 -1.4103 -0.7399  1.3222
 7948SOL     OW35476   1.162   1.850   1.064  0.1522 -0.2733  0.4670
 7948SOL    HW135477   1.111   1.896   1.130 -2.3070  0.9694 -2.2806
 7948SOL    HW235478   1.202   1.911   1.002 -0.0075 -0.6075  0.0360
 7949SOL     OW35479   4.381   0.664   2.349  0.1790  0.1696  0.3955
 7949SOL    HW135480   4.402   0.711   2.430 -2.4833  0.9797  0.5976
 7949SOL    HW235481   4.314   0.598   2.365  0.1037  0.7578  2.4152
 7950SOL     OW35482   0.402   0.732  12.056  0.4850  0.1444 -0.2047
 7950SOL    HW135483   0.336   0.748  12.122 -2.1165 -0.7775 -2.5696
 7950SOL    HW235484   0.348   0.731  11.977 -1.2577 -1.5029  1.0275
 7951SOL     OW35485   0.229   2.748  13.852  0.3033  0.3110 -0.1664
 7951SOL    HW135486   0.149   2.793  13.825 -0.2195 -0.0726  0.7642
 7951SOL    HW235487   0.258   2.807  13.921 -0.3558 -0.8927  1.1294
 7952SOL     OW35488   2.531   2.221   7.326 -0.0080  0.3294 -0.5602
 7952SOL    HW135489   2.485   2.282   7.384  1.7269  2.1905 -1.1594
 7952SOL    HW235490   2.555   2.157   7.394 -0.9266  2.0530  1.4136
 7953SOL     OW35491   2.166   2.960   6.891 -0.7371  0.2505  0.6868
 7953SOL    HW135492   2.248   2.922   6.858 -0.4031  1.1647  0.4580
 7953SOL    HW235493   2.098   2.930   6.831  0.0501  0.8252 -0.5005
 7954SOL     OW35494   0.494   4.480  16.745  0.0644 -0.5054 -0.7685
 7954SOL    HW135495   0.433   4.552  16.734  1.4055  0.6884 -0.3414
 7954SOL    HW235496   0.574   4.526  16.719  2.2449 -3.6561  0.4042
 7955SOL     OW35497   2.562   2.147   5.248 -0.3715 -0.0808 -0.1327
 7955SOL    HW135498   2.553   2.228   5.298  0.4029 -0.6841  0.9810
 7955SOL    HW235499   2.473   2.111   5.257 -0.7131  1.0940  1.2597
 7956SOL     OW35500   0.213   3.575  13.621  0.0613  0.4251 -0.1199
 7956SOL    HW135501   0.126   3.614  13.633 -0.2495 -0.3170  0.0382
 7956SOL    HW235502   0.230   3.603  13.531  0.3941 -0.2168 -0.2562
 7957SOL     OW35503   4.595   2.006   4.027  0.2257 -0.5414  0.2533
 7957SOL    HW135504   4.639   1.982   4.109  0.1273  1.3263  0.8447
 7957SOL    HW235505   4.659   1.992   3.957  0.5271  2.1348 -0.0103
 7958SOL     OW35506   1.919   2.822   5.825  0.0388  0.0560  0.0597
 7958SOL    HW135507   1.946   2.796   5.737  0.0676 -1.7988  0.6114
 7958SOL    HW235508   1.977   2.769   5.879  0.1507 -0.4158 -0.5214
 7959SOL     OW35509   0.583   2.094  13.343  0.1353 -0.5740  0.0120
 7959SOL    HW135510   0.516   2.032  13.313 -0.2027 -0.2288  0.0467
 7959SOL    HW235511   0.565   2.093  13.437  0.5202  1.5177  0.1085
 7960SOL     OW35512   2.628   1.690   4.259  0.2517  0.2988  0.2470
 7960SOL    HW135513   2.609   1.783   4.256  1.8891  0.6012 -0.9809
 7960SOL    HW235514   2.715   1.688   4.220 -0.4686  0.7045 -1.3934
 7961SOL     OW35515   2.215   3.588  11.630 -0.0293 -0.2673  0.0041
 7961SOL    HW135516   2.143   3.539  11.590  0.5025  0.8729 -2.3228
 7961SOL    HW235517   2.197   3.679  11.606  2.7392 -0.0206 -1.1637
 7962SOL     OW35518   1.378   2.267   3.751 -0.2349 -0.1898 -0.1321
 7962SOL    HW135519   1.378   2.357   3.720 -2.3279  0.3539  1.4299
 7962SOL    HW235520   1.401   2.274   3.843  0.3900 -2.4474 -0.1085
 7963SOL     OW35521   3.560   0.868   7.996  0.4345  0.5427  0.4917
 7963SOL    HW135522   3.490   0.885   8.059  2.0797  0.2639  2.3869
 7963SOL    HW235523   3.503   0.889   7.921  2.1310  1.1650 -0.6232
 7964SOL     OW35524   3.312   0.784  15.333 -0.4059  1.0911 -0.1439
 7964SOL    HW135525   3.333   0.692  15.316  0.0765  1.5558 -2.0688
 7964SOL    HW235526   3.346   0.793  15.421 -1.2587 -0.4766  0.3569
 7965SOL     OW35527   1.782   4.533  17.279  0.3879 -0.5727 -0.4084
 7965SOL    HW135528   1.855   4.476  17.301  1.0787  0.3570 -0.2993
 7965SOL    HW235529   1.710   4.471  17.295 -1.3279  1.8604  1.4088
 7966SOL     OW35530   1.104   1.138   5.761 -0.1524 -0.5397 -0.3728
 7966SOL    HW135531   1.041   1.122   5.831 -0.1529  1.1060 -0.0141
 7966SOL    HW235532   1.046   1.128   5.685 -0.3293  0.3622 -0.3573
 7967SOL     OW35533   3.465   4.661   4.792 -0.4945 -0.4476  0.5658
 7967SOL    HW135534   3.548   4.675   4.838  0.4823 -0.7648 -1.0877
 7967SOL    HW235535   3.451   4.740   4.740 -0.6261 -0.9993 -0.2282
 7968SOL     OW35536   4.664   2.812   4.699 -0.0218 -0.0736  0.3054
 7968SOL    HW135537   4.596   2.846   4.642  2.1648  1.5572 -1.3292
 7968SOL    HW235538   4.693   2.741   4.642 -0.8123  0.0994 -0.3060
 7969SOL     OW35539   4.025   2.222   3.586 -0.2720  0.3944 -0.4510
 7969SOL    HW135540   4.011   2.136   3.625 -1.1714 -0.3072 -2.3133
 7969SOL    HW235541   4.101   2.205   3.530 -0.7698  0.8038 -1.2562
 7970SOL     OW35542   0.371   1.488   8.359  0.5239  0.2980  0.4189
 7970SOL    HW135543   0.458   1.470   8.395 -0.1011 -2.7694  0.3990
 7970SOL    HW235544   0.368   1.420   8.292 -0.8925  1.8673 -1.1041
 7971SOL     OW35545   2.471   3.645  13.774  0.1797 -0.3039 -0.0050
 7971SOL    HW135546   2.476   3.737  13.748  1.5234  0.5039  3.0776
 7971SOL    HW235547   2.552   3.611  13.736  2.0001 -0.2604  3.8676
 7972SOL     OW35548   0.475   1.660   9.036 -0.0737 -0.5607  0.5058
 7972SOL    HW135549   0.447   1.717   9.108 -1.4339  1.0484 -1.3095
 7972SOL    HW235550   0.476   1.572   9.074 -1.4754 -0.0939  1.6739
 7973SOL     OW35551   2.143   1.398   7.954  0.0375  0.2093  0.5856
 7973SOL    HW135552   2.237   1.387   7.946  0.0014  1.4360 -1.6838
 7973SOL    HW235553   2.135   1.473   8.014 -1.0632  2.5601 -2.4670
 7974SOL     OW35554   2.835   0.247   0.259  0.4727 -0.2366  0.2449
 7974SOL    HW135555   2.788   0.308   0.315  2.7820  0.7844  1.0394
 7974SOL    HW235556   2.768   0.184   0.230 -0.7493  1.3113 -0.2678
 7975SOL     OW35557   3.209   0.261   8.710 -0.1891  0.3232 -0.2930
 7975SOL    HW135558   3.160   0.279   8.790 -0.7453 -0.3376 -0.4897
 7975SOL    HW235559   3.259   0.184   8.739 -0.4977 -0.5273 -2.0444
 7976SOL     OW35560   3.709   4.594   2.962 -0.0565 -0.1678 -0.5516
 7976SOL    HW135561   3.711   4.563   3.053 -0.5782  0.6918 -0.2499
 7976SOL    HW235562   3.720   4.688   2.977 -2.5623 -0.2110  1.4944
 7977SOL     OW35563   0.543   0.239   9.273  0.8698  0.1418  0.0320
 7977SOL    HW135564   0.528   0.253   9.180  0.2403  1.8808  0.3854
 7977SOL    HW235565   0.581   0.322   9.302  2.1091 -1.2405  2.3474
 7978SOL     OW35566   4.608   4.704  14.837  0.5830 -0.1965 -0.1670
 7978SOL    HW135567   4.687   4.649  14.838  1.4981  1.1218 -0.3564
 7978SOL    HW235568   4.636   0.034  14.896  1.7819 -0.1733 -0.7691
 7979SOL     OW35569   0.729   2.447   5.066 -0.5958  0.0989  0.4922
 7979SOL    HW135570   0.730   2.353   5.047 -1.7443 -0.0645  1.2215
 7979SOL    HW235571   0.638   2.468   5.045 -0.8104 -1.4387 -0.1774
 7980SOL     OW35572   2.209   0.847   3.532 -0.5488  0.5541 -0.9523
 7980SOL    HW135573   2.118   0.843   3.561  0.5035 -0.3941  2.2061
 7980SOL    HW235574   2.227   0.753   3.537  1.3558  1.0565  1.4351
 7981SOL     OW35575   2.668   3.036   2.741 -0.2188  1.0201  0.6090
 7981SOL    HW135576   2.638   3.053   2.830  0.6816  0.6029  0.9886
 7981SOL    HW235577   2.763   3.044   2.749  0.1030 -1.4649 -0.7155
 7982SOL     OW35578   1.597   0.853  15.683 -0.3837 -0.7454  0.0474
 7982SOL    HW135579   1.557   0.790  15.624  0.2362 -0.2626 -0.8882
 7982SOL    HW235580   1.578   0.932  15.631  2.2763  0.2535  0.6028
 7983SOL     OW35581   3.620   2.434  11.355 -0.3216  0.3120 -0.3615
 7983SOL    HW135582   3.565   2.401  11.284  0.6794  1.1566 -1.5268
 7983SOL    HW235583   3.572   2.398  11.429  0.0172  0.2541 -0.1701
 7984SOL     OW35584   2.698   0.146   7.532 -0.2300 -0.4823  0.0624
 7984SOL    HW135585   2.667   0.065   7.574 -0.7231 -1.8155 -2.8593
 7984SOL    HW235586   2.620   0.201   7.523  0.7622  0.6951 -1.2932
 7985SOL     OW35587   1.875   1.814   7.226 -0.0587  0.1273  0.4161
 7985SOL    HW135588   1.841   1.892   7.269 -0.2316 -0.3060  1.0571
 7985SOL    HW235589   1.841   1.747   7.285  1.5125 -1.0331  0.0232
 7986SOL     OW35590   4.290   0.252   3.699 -0.6714  0.2616  0.3891
 7986SOL    HW135591   4.277   0.303   3.619  0.3375  1.1403  0.7920
 7986SOL    HW235592   4.358   0.306   3.740 -0.3338 -2.0123  2.8442
 7987SOL     OW35593   1.396   0.764   5.453  0.3784  0.2485 -0.6590
 7987SOL    HW135594   1.451   0.840   5.432  0.8130  0.4438  1.1509
 7987SOL    HW235595   1.308   0.798   5.435  0.4461  1.0378  0.4437
 7988SOL     OW35596   3.642   0.749  16.919  0.2558  0.0335 -0.1960
 7988SOL    HW135597   3.728   0.738  16.878  0.2501  1.1045 -0.5079
 7988SOL    HW235598   3.606   0.661  16.912 -0.3932  0.3175 -0.3925
 7989SOL     OW35599   4.145   4.063   3.668  0.0956 -0.0081 -0.0754
 7989SOL    HW135600   4.214   4.114   3.712  0.7240 -2.3467  1.6572
 7989SOL    HW235601   4.148   3.984   3.721  0.5361  1.4700  2.1300
 7990SOL     OW35602   1.145   1.182   4.964  0.6589 -0.8297  0.3831
 7990SOL    HW135603   1.240   1.196   4.963  0.5612 -0.2325 -1.6914
 7990SOL    HW235604   1.115   1.267   4.932  1.9485 -0.4825  0.1017
 7991SOL     OW35605   1.160   0.799   1.447  0.4115  0.1351  0.2150
 7991SOL    HW135606   1.251   0.800   1.419  0.0202  0.9719 -1.0111
 7991SOL    HW235607   1.113   0.801   1.364  0.2754  2.4617  0.3532
 7992SOL     OW35608   2.197   3.868   3.722  0.1905  0.3872 -0.2430
 7992SOL    HW135609   2.242   3.788   3.748  0.5054 -0.1084 -2.3523
 7992SOL    HW235610   2.267   3.927   3.695  1.6280 -0.7951  0.9536
 7993SOL     OW35611   1.641   2.707   5.697 -0.0282  1.0648  0.0010
 7993SOL    HW135612   1.672   2.654   5.623 -2.7104 -0.8362  0.2363
 7993SOL    HW235613   1.711   2.689   5.760  2.1344 -0.5020 -2.8385
 7994SOL     OW35614   0.597   1.460   6.067 -0.9941 -0.8325  0.5404
 7994SOL    HW135615   0.648   1.393   6.111 -2.2170 -0.4018  2.6465
 7994SOL    HW235616   0.545   1.482   6.145 -0.9025 -0.5961  0.5337
 7995SOL     OW35617   3.199   3.463   3.029  0.1016  0.2305  0.2118
 7995SOL    HW135618   3.279   3.420   3.000 -2.1436 -2.1096 -2.5677
 7995SOL    HW235619   3.214   3.556   3.016  1.2692  0.1046  0.6094
 7996SOL     OW35620   0.259   4.440   0.321  0.1228  0.0467 -0.1256
 7996SOL    HW135621   0.310   4.488   0.256 -2.7476 -0.3337 -2.6519
 7996SOL    HW235622   0.218   4.512   0.369 -2.3490 -1.6092  0.2608
 7997SOL     OW35623   0.162   0.071   3.276  0.7064  0.3462 -0.3264
 7997SOL    HW135624   0.190   0.009   3.209 -2.6847 -0.0325 -1.4043
 7997SOL    HW235625   0.248   0.086   3.316 -0.0013 -0.5925  1.5505
 7998SOL     OW35626   3.788   2.057  10.921 -0.5917 -0.2858  0.1715
 7998SOL    HW135627   3.704   2.098  10.900  0.4308  0.7341 -1.9624
 7998SOL    HW235628   3.828   2.061  10.834  0.8054  1.1998  0.8751
 7999SOL     OW35629   4.207   3.329  10.192  0.7769  0.2086 -0.3286
 7999SOL    HW135630   4.233   3.388  10.121  1.1101  0.2287 -0.1924
 7999SOL    HW235631   4.230   3.381  10.269  0.3204 -0.9548  0.6015
 8000SOL     OW35632   3.946   2.496   6.105  0.8568 -0.0290  0.0353
 8000SOL    HW135633   4.036   2.464   6.096  0.9798 -0.2233  2.0123
 8000SOL    HW235634   3.938   2.573   6.050  0.0281 -1.2332 -1.5305
 8001SOL     OW35635   1.432   0.572   9.215  0.3021  0.5100 -0.3908
 8001SOL    HW135636   1.443   0.642   9.278 -0.1180  1.6630 -1.6018
 8001SOL    HW235637   1.462   0.496   9.264 -0.0703  2.4322  2.7695
 8002SOL     OW35638   0.425   3.029   4.403  0.1615  0.3282 -0.3219
 8002SOL    HW135639   0.511   3.062   4.381  0.8133 -2.3941 -1.8839
 8002SOL    HW235640   0.387   3.006   4.318  1.6755  0.2673 -0.9851
 8003SOL     OW35641   2.752   2.810   2.509 -0.0199 -0.1509  0.0784
 8003SOL    HW135642   2.675   2.801   2.453 -0.4519 -1.0215  0.8113
 8003SOL    HW235643   2.745   2.903   2.529 -1.3166 -0.3653  0.6171
 8004SOL     OW35644   0.240   1.323   2.984 -0.1951 -0.1521 -0.0533
 8004SOL    HW135645   0.195   1.239   2.971  2.0706 -1.7330  2.3097
 8004SOL    HW235646   0.329   1.302   2.956  0.2340  0.2464  1.0224
 8005SOL     OW35647   1.083   4.737  14.762 -0.0401  0.3142  0.0622
 8005SOL    HW135648   1.161   0.041  14.796  0.3109  1.1198 -1.7920
 8005SOL    HW235649   1.026   0.073  14.754 -1.1591 -0.7522 -2.1648
 8006SOL     OW35650   4.260   3.028  10.861  0.5267  0.5500  0.8830
 8006SOL    HW135651   4.234   2.936  10.856  1.9095  0.1421  1.2907
 8006SOL    HW235652   4.354   3.024  10.878  1.1449  1.9311 -2.3250
 8007SOL     OW35653   4.338   0.235   9.091 -0.2903  0.4134 -0.0740
 8007SOL    HW135654   4.386   0.269   9.016 -0.7865  0.1312 -0.5175
 8007SOL    HW235655   4.389   0.159   9.118  0.9239  0.9645 -0.8436
 8008SOL     OW35656   0.925   3.649   8.178 -0.2124  0.0298 -0.0538
 8008SOL    HW135657   0.866   3.579   8.204  0.2081  0.2928  1.5770
 8008SOL    HW235658   0.895   3.727   8.225 -1.8475 -0.7280  0.1415
 8009SOL     OW35659   3.125   1.765   5.201 -0.6633  0.5598 -0.5561
 8009SOL    HW135660   3.198   1.775   5.139 -2.2814  2.1497 -2.1892
 8009SOL    HW235661   3.049   1.771   5.144 -1.6919 -0.8229  0.6767
 8010SOL     OW35662   3.286   1.902   2.895 -0.4401  1.0221  0.5112
 8010SOL    HW135663   3.272   1.870   2.984  0.1787 -0.7334 -0.0313
 8010SOL    HW235664   3.332   1.825   2.860  0.2762  0.2177  3.2431
 8011SOL     OW35665   3.196   4.576   6.125  0.4015 -0.3652 -0.0254
 8011SOL    HW135666   3.128   4.528   6.172 -0.3505  1.3292  0.5977
 8011SOL    HW235667   3.152   4.658   6.103  0.0324 -0.0398  1.9875
 8012SOL     OW35668   4.145   2.026  11.007  0.8098  0.2623 -0.2751
 8012SOL    HW135669   4.143   1.991  11.096 -0.6111 -0.6550 -0.6634
 8012SOL    HW235670   4.070   2.086  11.014  1.7307  1.1669  1.7746
 8013SOL     OW35671   0.001   4.139   1.779  0.2954  0.6335  0.3674
 8013SOL    HW135672   0.080   4.159   1.729  0.0781 -2.1852 -1.0993
 8013SOL    HW235673   4.696   4.220   1.758 -1.1914 -0.2242  0.2416
 8014SOL     OW35674   0.487   3.488  16.901  0.3730  0.0741  0.2013
 8014SOL    HW135675   0.465   3.577  16.874  0.1602 -0.2547 -0.7234
 8014SOL    HW235676   0.452   3.440  16.826 -0.7838  0.5728  0.4286
 8015SOL     OW35677   0.139   2.993   2.103  0.1839 -0.0357 -0.0660
 8015SOL    HW135678   0.178   3.081   2.102  0.3134 -0.0991 -0.5774
 8015SOL    HW235679   0.079   3.002   2.029  0.0769  0.4041  0.0706
 8016SOL     OW35680   2.961   2.285   3.840  0.0284 -0.0166 -0.0226
 8016SOL    HW135681   3.009   2.229   3.779  0.9930  0.5204  0.2482
 8016SOL    HW235682   2.997   2.247   3.921 -2.4071  2.0599  2.0178
 8017SOL     OW35683   3.824   2.889   3.973 -0.0506 -0.1482  0.0616
 8017SOL    HW135684   3.843   2.817   4.033 -0.0673  0.5225  0.8900
 8017SOL    HW235685   3.853   2.856   3.888 -2.5519 -0.1117 -0.7920
 8018SOL     OW35686   0.306   3.600   4.329  0.2201 -0.3337 -0.6517
 8018SOL    HW135687   0.365   3.569   4.261  0.3825 -0.8051 -0.2979
 8018SOL    HW235688   0.258   3.671   4.287 -0.7822 -0.5474  0.1393
 8019SOL     OW35689   2.348   1.009   2.737 -0.2634 -0.7656 -0.1770
 8019SOL    HW135690   2.385   0.967   2.815 -0.7283 -0.6074  0.1317
 8019SOL    HW235691   2.341   1.102   2.759  2.9381 -1.0316  1.9592
 8020SOL     OW35692   0.315   3.953   4.465  1.2107  0.3324  0.2781
 8020SOL    HW135693   0.337   3.905   4.545 -1.3654  0.1112  0.8526
 8020SOL    HW235694   0.382   3.915   4.408  0.5965 -0.3552  0.0187
 8021SOL     OW35695   4.391   3.289  17.576 -0.3432 -0.0628  0.3437
 8021SOL    HW135696   4.351   3.223  17.633 -1.8142  2.9755  2.7625
 8021SOL    HW235697   4.441   3.325  17.649  0.4183  2.6347 -1.5348
 8022SOL     OW35698   4.507   1.201  14.965  0.0146  0.5883  0.2951
 8022SOL    HW135699   4.485   1.108  14.957  1.3683  0.3732 -0.8694
 8022SOL    HW235700   4.423   1.235  14.934 -0.2495  0.5008  0.9016
 8023SOL     OW35701   0.970   1.563   4.320 -0.2621 -0.4109  0.2085
 8023SOL    HW135702   0.989   1.625   4.391 -3.0472 -0.1773  0.7306
 8023SOL    HW235703   1.017   1.609   4.250 -3.1667 -0.5087 -1.7670
 8024SOL     OW35704   2.230   0.296  11.321  0.1065  0.0116  0.1678
 8024SOL    HW135705   2.260   0.219  11.274  0.1613  0.7762 -1.0672
 8024SOL    HW235706   2.228   0.259  11.409 -2.4135 -1.1820 -0.3748
 8025SOL     OW35707   0.492   1.768   6.066  0.0157  0.2784  0.2121
 8025SOL    HW135708   0.526   1.684   6.098  0.0013  0.7681  1.5114
 8025SOL    HW235709   0.515   1.824   6.140 -0.0554 -1.0272  1.2324
 8026SOL     OW35710   2.458   0.839   2.100 -0.2806  0.2498 -0.0513
 8026SOL    HW135711   2.405   0.788   2.039 -1.5642 -1.2004  2.2690
 8026SOL    HW235712   2.455   0.780   2.175  2.0345 -0.8620 -0.8652
 8027SOL     OW35713   0.365   0.778  12.901 -0.5222 -0.5855  0.1152
 8027SOL    HW135714   0.324   0.747  12.982 -0.3131  0.4388  0.6061
 8027SOL    HW235715   0.436   0.831  12.938 -1.4348  0.5174  0.2732
 8028SOL     OW35716   3.151   3.444  16.508 -0.4084  0.1173  0.2240
 8028SOL    HW135717   3.211   3.502  16.461  1.6409  0.1433  2.8813
 8028SOL    HW235718   3.173   3.361  16.467  1.2552  1.3486 -1.4115
 8029SOL     OW35719   0.697   1.969   5.057 -0.3622 -0.2279  0.3936
 8029SOL    HW135720   0.692   1.877   5.030  1.5009 -0.2448  0.1180
 8029SOL    HW235721   0.708   1.968   5.152  3.2220 -0.5254 -0.0010
 8030SOL     OW35722   4.061   3.897   7.882 -0.2525  0.0065  0.0804
 8030SOL    HW135723   4.109   3.933   7.957 -1.5899  1.9504 -0.0002
 8030SOL    HW235724   4.070   3.962   7.812 -0.6059 -1.8689 -1.7065
 8031SOL     OW35725   4.380   0.322   7.677  1.0324 -0.1615  0.1279
 8031SOL    HW135726   4.360   0.413   7.656 -1.5495 -0.9687 -0.8947
 8031SOL    HW235727   4.471   0.324   7.645  0.1083 -1.9625 -2.5669
 8032SOL     OW35728   2.344   2.193   3.631 -0.6635  0.2136  0.4793
 8032SOL    HW135729   2.311   2.143   3.706 -0.8622  1.1658  1.0317
 8032SOL    HW235730   2.297   2.276   3.640 -0.2218  0.1812  3.0365
 8033SOL     OW35731   3.440   4.253  12.153 -0.4502  0.0730  0.4472
 8033SOL    HW135732   3.346   4.264  12.145 -0.5616 -2.0714 -1.1120
 8033SOL    HW235733   3.444   4.211  12.239 -3.0212 -1.5985 -0.2546
 8034SOL     OW35734   4.710   2.368   8.104 -0.1360 -0.0035  0.1746
 8034SOL    HW135735   4.689   2.422   8.181  1.7080 -0.7370  1.1927
 8034SOL    HW235736   0.025   2.304   8.149 -0.7736  0.8969  2.2575
 8035SOL     OW35737   1.988   2.547   7.172  0.2875 -0.2271 -0.0759
 8035SOL    HW135738   1.991   2.560   7.078  1.0791  1.7242  0.2079
 8035SOL    HW235739   1.897   2.572   7.190  0.2185 -0.7905  0.3786
 8036SOL     OW35740   0.236   2.160   4.710 -0.1563 -0.6708  0.1271
 8036SOL    HW135741   0.252   2.085   4.653  0.1194  0.4186 -1.2086
 8036SOL    HW235742   0.284   2.228   4.663  1.9194 -1.1343  1.5741
 8037SOL     OW35743   3.318   1.878   5.689  0.2692  0.0607  0.3279
 8037SOL    HW135744   3.304   1.847   5.600 -2.3588  1.4194  0.2748
 8037SOL    HW235745   3.389   1.942   5.677 -0.4634  0.7728 -0.1773
 8038SOL     OW35746   3.562   0.115   3.621 -0.4565 -0.4798  0.6908
 8038SOL    HW135747   3.627   0.086   3.685  0.2536 -0.7591 -0.1557
 8038SOL    HW235748   3.482   0.144   3.664 -1.5245  0.8804 -2.1744
 8039SOL     OW35749   2.184   3.596   0.810  0.3851 -0.5883  0.4929
 8039SOL    HW135750   2.103   3.562   0.773  0.5769  0.1539 -0.6296
 8039SOL    HW235751   2.176   3.574   0.903 -1.1989  1.1797  0.7752
 8040SOL     OW35752   0.285   3.698   3.908 -0.2525 -0.2024  0.1698
 8040SOL    HW135753   0.195   3.683   3.937 -1.0682  1.6144 -1.4339
 8040SOL    HW235754   0.322   3.762   3.968 -1.1935  0.6345 -0.1470
 8041SOL     OW35755   3.334   0.577  12.070 -0.0003 -0.0398  0.6510
 8041SOL    HW135756   3.371   0.542  11.988 -1.2977  0.8758 -0.3289
 8041SOL    HW235757   3.243   0.548  12.069 -0.3584  1.1399 -2.5598
 8042SOL     OW35758   4.503   4.073  11.433  0.3196  0.2411  0.5563
 8042SOL    HW135759   4.412   4.097  11.412  1.4873  2.4144 -1.9416
 8042SOL    HW235760   4.554   4.061  11.354 -2.5343  0.5786 -1.3347
 8043SOL     OW35761   4.557   0.523   0.384 -0.0547 -0.1837  0.2018
 8043SOL    HW135762   4.641   0.544   0.425 -0.2755 -1.0803  1.0958
 8043SOL    HW235763   4.579   0.478   0.302  1.4883  1.0126 -0.0430
 8044SOL     OW35764   2.188   0.272   9.028 -0.0460  0.0892  0.0305
 8044SOL    HW135765   2.217   0.192   9.073 -1.3537 -0.0656  0.5915
 8044SOL    HW235766   2.115   0.234   8.979 -0.9476 -0.2788  1.6347
 8045SOL     OW35767   0.793   2.389  11.378 -0.7032  0.0546  0.5681
 8045SOL    HW135768   0.766   2.472  11.418 -0.2572  0.4542  0.0284
 8045SOL    HW235769   0.708   2.349  11.361 -0.2679 -1.4288  1.7593
 8046SOL     OW35770   1.067   0.341   6.964  0.4082  0.4656 -0.6109
 8046SOL    HW135771   1.057   0.308   7.053 -0.0490  0.0400 -0.8189
 8046SOL    HW235772   1.162   0.347   6.953  0.2204  2.0680 -1.3376
 8047SOL     OW35773   0.940   0.761   9.051  0.1735  0.3534 -0.0541
 8047SOL    HW135774   0.954   0.849   9.085  2.9562 -0.7185  1.5689
 8047SOL    HW235775   0.921   0.709   9.130 -2.1827  3.1954  1.2245
 8048SOL     OW35776   0.869   2.390   6.632 -0.6692  0.3814 -0.7350
 8048SOL    HW135777   0.890   2.482   6.644 -0.0691  0.0335  0.8333
 8048SOL    HW235778   0.778   2.402   6.604 -0.6125  0.4187 -0.9069
 8049SOL     OW35779   1.387   1.232   5.849  0.2404 -0.4405 -0.0511
 8049SOL    HW135780   1.361   1.188   5.930 -0.7934 -1.0197 -0.6885
 8049SOL    HW235781   1.464   1.183   5.821  0.9727  1.2034 -0.8942
 8050SOL     OW35782   0.956   0.614   7.743  0.0445 -0.0176  0.0477
 8050SOL    HW135783   1.051   0.611   7.754 -0.1701 -0.9317  1.5336
 8050SOL    HW235784   0.950   0.694   7.690  0.3671 -0.8006 -1.1778
 8051SOL     OW35785   0.815   0.396   3.107 -0.2412 -0.2555  0.8832
 8051SOL    HW135786   0.746   0.458   3.129 -0.6945  0.3099 -2.1429
 8051SOL    HW235787   0.758   0.325   3.078 -1.3276  0.7745  0.4835
 8052SOL     OW35788   2.128   0.970   0.677 -0.4033  0.1626 -0.7137
 8052SOL    HW135789   2.213   0.930   0.658  1.8841  3.9226  1.5974
 8052SOL    HW235790   2.103   0.996   0.589 -0.4622 -1.0306 -1.0468
 8053SOL     OW35791   4.244   3.865   7.366  0.3863  0.0459 -0.1401
 8053SOL    HW135792   4.312   3.918   7.408  0.3642 -1.1938  1.4443
 8053SOL    HW235793   4.296   3.838   7.291  1.6354 -0.6958  0.9948
 8054SOL     OW35794   4.369   0.098   0.651  0.5503 -0.5758  0.0599
 8054SOL    HW135795   4.282   0.118   0.685  0.9869  3.7497 -1.3556
 8054SOL    HW235796   4.407   0.185   0.638 -1.9974  0.2790 -1.4758
 8055SOL     OW35797   2.183   3.466   9.192 -1.0062  0.2238 -0.3233
 8055SOL    HW135798   2.139   3.545   9.222  0.6744  1.2293 -0.4867
 8055SOL    HW235799   2.215   3.426   9.273 -0.5229 -0.1576 -0.7045
 8056SOL     OW35800   3.114   0.319   1.788 -0.2872 -0.0710 -0.1923
 8056SOL    HW135801   3.134   0.232   1.753  0.7109  0.0738  0.0305
 8056SOL    HW235802   3.194   0.364   1.764  0.3210 -0.8453  0.3798
 8057SOL     OW35803   0.453   2.980   2.268 -0.0875 -0.2465 -0.3400
 8057SOL    HW135804   0.503   2.899   2.274  1.8811  0.8965 -1.0895
 8057SOL    HW235805   0.467   3.019   2.355 -2.0918 -0.2984  0.0114
 8058SOL     OW35806   0.184   3.169   8.608 -1.0329 -0.7308 -0.4642
 8058SOL    HW135807   0.187   3.227   8.532 -0.5693 -0.8841 -0.5650
 8058SOL    HW235808   0.263   3.208   8.646 -1.4395 -0.1309 -0.2304
 8059SOL     OW35809   0.171   4.684   2.884  0.0326  0.6379 -0.2862
 8059SOL    HW135810   0.219   4.733   2.817 -1.0498  0.6017 -1.0852
 8059SOL    HW235811   0.143   4.602   2.845 -0.2579  2.3739 -3.7742
 8060SOL     OW35812   1.417   4.712   9.116  0.2441  0.6587 -0.3422
 8060SOL    HW135813   1.336   4.716   9.168 -0.5524 -3.9083 -1.2213
 8060SOL    HW235814   1.445   4.622   9.130 -4.3570 -0.6511  0.3525
 8061SOL     OW35815   0.920   3.877   2.165 -0.5163  0.0143  0.1807
 8061SOL    HW135816   0.933   3.827   2.084 -2.3284 -0.2461  0.0325
 8061SOL    HW235817   0.826   3.895   2.161 -0.5244 -0.1508 -0.3895
 8062SOL     OW35818   2.976   3.769   4.780  0.0643  0.3129  0.0633
 8062SOL    HW135819   2.914   3.770   4.853 -1.9024 -1.5004 -1.5578
 8062SOL    HW235820   3.059   3.773   4.826  0.4318 -1.6194 -0.4514
 8063SOL     OW35821   2.154   0.170   3.970 -0.1928  0.0428 -0.0089
 8063SOL    HW135822   2.168   0.208   3.883 -1.8034  0.1867 -0.2117
 8063SOL    HW235823   2.167   0.245   4.027  0.4364  0.4789 -0.7253
 8064SOL     OW35824   3.618   1.031  15.656  0.0645  0.0381 -0.3254
 8064SOL    HW135825   3.531   1.027  15.696  0.5356 -1.6096  0.5004
 8064SOL    HW235826   3.609   1.094  15.584 -1.5727  1.4118  1.0642
 8065SOL     OW35827   2.173   4.202   9.081 -0.3279  0.3604  0.4253
 8065SOL    HW135828   2.253   4.160   9.048  0.5610  1.5089  1.0863
 8065SOL    HW235829   2.132   4.229   8.998 -0.0940 -0.0237  0.1869
 8066SOL     OW35830   4.691   1.032  11.299  0.3181 -0.0863  0.3992
 8066SOL    HW135831   4.691   0.944  11.260 -2.3154 -0.0398  0.2856
 8066SOL    HW235832   4.610   1.070  11.264  0.3672 -0.3112  0.0391
 8067SOL     OW35833   0.938   2.451  10.975  0.3562 -0.0722  0.1003
 8067SOL    HW135834   0.984   2.521  11.021 -1.3968  1.0141  0.1754
 8067SOL    HW235835   1.003   2.434  10.906  0.3996  0.0564  0.1086
 8068SOL     OW35836   1.937   0.313   8.203  0.1769  0.2512  0.5047
 8068SOL    HW135837   2.018   0.262   8.195 -1.2869 -2.4850  3.1670
 8068SOL    HW235838   1.887   0.280   8.128 -0.7878 -0.8008  1.6147
 8069SOL     OW35839   1.676   0.069   7.219 -0.2169  0.0836 -0.3128
 8069SOL    HW135840   1.645   4.733   7.171 -2.0818 -0.6053  1.9706
 8069SOL    HW235841   1.646   0.044   7.307  2.7474  0.1255  0.7019
 8070SOL     OW35842   3.493   3.862   8.970  0.2749 -0.0376 -0.0116
 8070SOL    HW135843   3.425   3.913   8.927 -1.8529 -1.9154  1.1466
 8070SOL    HW235844   3.435   3.786   8.978 -0.4739  0.5704  0.3595
 8071SOL     OW35845   2.190   2.189   2.410 -0.3535  0.2597 -0.4869
 8071SOL    HW135846   2.150   2.225   2.330 -1.1327  2.7632  1.0522
 8071SOL    HW235847   2.123   2.131   2.447 -0.7518 -1.0751 -3.2793
 8072SOL     OW35848   0.462   2.964   1.140 -0.0638  0.3018 -0.0629
 8072SOL    HW135849   0.556   2.952   1.131 -0.1963 -1.2606  0.5910
 8072SOL    HW235850   0.459   2.922   1.226 -0.0816 -0.6697 -0.5424
 8073SOL     OW35851   3.917   0.822   4.656  0.0811  0.2368 -0.5151
 8073SOL    HW135852   3.902   0.755   4.589  1.0996  1.6407 -2.1542
 8073SOL    HW235853   3.958   0.893   4.606 -0.4760 -0.7999 -2.4423
 8074SOL     OW35854   0.177   2.740   2.483  0.4314  0.2131  0.0287
 8074SOL    HW135855   0.218   2.769   2.402  0.3456  2.4328  0.7720
 8074SOL    HW235856   0.253   2.754   2.539 -0.1465  1.9691  0.3723
 8075SOL     OW35857   0.499   3.385  12.560  0.4135 -0.7398 -0.7730
 8075SOL    HW135858   0.572   3.331  12.589  0.8805 -1.0391 -2.4825
 8075SOL    HW235859   0.537   3.472  12.544 -3.0427  1.0593  1.0408
 8076SOL     OW35860   3.234   0.617   2.288  0.0143 -0.1215  0.2271
 8076SOL    HW135861   3.237   0.706   2.323  1.8176  0.0092 -0.2788
 8076SOL    HW235862   3.147   0.582   2.309 -0.6981  1.7361  0.3393
 8077SOL     OW35863   2.352   1.190   4.773 -0.0884  0.5096  0.6441
 8077SOL    HW135864   2.381   1.232   4.693 -2.2109 -1.6453 -1.2351
 8077SOL    HW235865   2.299   1.256   4.817  0.0480  0.3070  1.1213
 8078SOL     OW35866   3.064   2.971   4.235  0.1927 -0.0952 -0.2097
 8078SOL    HW135867   3.064   2.965   4.139 -0.0166  0.3892 -0.2369
 8078SOL    HW235868   3.008   3.046   4.251  2.7546  1.4707  1.4261
 8079SOL     OW35869   2.369   1.638   7.279 -0.0920  0.6737  0.4628
 8079SOL    HW135870   2.288   1.601   7.316 -0.5695 -0.3547 -1.5777
 8079SOL    HW235871   2.383   1.571   7.212  1.9218 -0.3138  1.8752
 8080SOL     OW35872   4.491   1.706   6.863 -0.1074 -0.8473 -0.4900
 8080SOL    HW135873   4.432   1.777   6.888 -0.6227 -1.2206 -0.6312
 8080SOL    HW235874   4.575   1.750   6.857 -1.0774  0.9817 -0.6945
 8081SOL     OW35875   1.514   3.503  17.595  0.4502 -0.1178 -0.3742
 8081SOL    HW135876   1.590   3.558  17.613  0.2834  0.1625 -0.5281
 8081SOL    HW235877   1.503   3.471  17.685 -1.4150 -0.7812 -0.8448
 8082SOL     OW35878   2.776   0.087   3.458 -0.2278  0.0798 -0.1440
 8082SOL    HW135879   2.730   0.149   3.402  0.5169  2.3914  1.8446
 8082SOL    HW235880   2.734   0.001   3.457  4.0801 -2.0606  0.8851
 8083SOL     OW35881   2.585   0.020   2.769  0.1228 -0.4053 -0.2818
 8083SOL    HW135882   2.618   0.088   2.709 -0.9166  1.5536  1.3419
 8083SOL    HW235883   2.491   0.036   2.766  0.1787  0.0085  0.1542
 8084SOL     OW35884   2.102   1.756   8.431 -0.2546  0.0287 -0.4687
 8084SOL    HW135885   2.054   1.674   8.418 -1.1821  0.1331  2.3066
 8084SOL    HW235886   2.027   1.814   8.440 -0.7519 -0.7062  0.1211
 8085SOL     OW35887   2.683   1.793   9.105  0.8997 -0.0256 -0.1855
 8085SOL    HW135888   2.756   1.807   9.166  2.1297  0.1959 -1.7197
 8085SOL    HW235889   2.691   1.698   9.116 -1.5494 -0.1847  0.2388
 8086SOL     OW35890   4.288   4.190   9.737 -0.0487 -0.6472  0.9321
 8086SOL    HW135891   4.362   4.176   9.678 -1.2488 -0.6553 -0.5817
 8086SOL    HW235892   4.300   4.114   9.793  0.7009 -2.1867 -1.3156
 8087SOL     OW35893   0.582   4.436   5.575 -0.0859 -0.0742  0.1640
 8087SOL    HW135894   0.602   4.529   5.559  0.6407 -0.6802 -2.3678
 8087SOL    HW235895   0.528   4.432   5.654  2.2037 -0.6597  1.6742
 8088SOL     OW35896   4.529   3.261   8.915 -0.2175  0.2320  0.1756
 8088SOL    HW135897   4.592   3.329   8.941  0.1387  0.1548 -0.4990
 8088SOL    HW235898   4.580   3.230   8.841 -0.5471 -2.3869  1.0560
 8089SOL     OW35899   3.686   3.799   1.085  0.4576  0.3355 -1.0942
 8089SOL    HW135900   3.688   3.703   1.090  2.3929  0.3663 -1.3021
 8089SOL    HW235901   3.758   3.824   1.142  0.8558  1.4986 -2.0924
 8090SOL     OW35902   0.507   2.810   3.953 -0.7549 -0.1004 -0.5959
 8090SOL    HW135903   0.515   2.737   3.891 -0.8372  0.2243 -0.9945
 8090SOL    HW235904   0.489   2.758   4.031  1.3263  1.1608  0.7233
 8091SOL     OW35905   2.036   3.046   4.407  0.2269  0.5986  0.1056
 8091SOL    HW135906   1.998   2.979   4.351  0.5915 -1.1497  1.9178
 8091SOL    HW235907   2.022   3.126   4.357  3.7230  1.1456 -0.0289
 8092SOL     OW35908   0.118   4.511   3.524 -0.3630 -0.0230  0.0793
 8092SOL    HW135909   0.071   4.579   3.572 -1.6121 -1.4564  0.8836
 8092SOL    HW235910   0.039   4.472   3.487 -0.7823 -0.0403  0.9938
 8093SOL     OW35911   2.010   3.014   6.140 -0.2671  0.6575  0.2486
 8093SOL    HW135912   2.069   3.014   6.216 -0.1094  1.1373  0.1244
 8093SOL    HW235913   1.963   2.933   6.160  0.7138  0.2474  0.9006
 8094SOL     OW35914   1.967   0.140   2.493 -0.4064 -0.1821 -0.9421
 8094SOL    HW135915   1.889   0.158   2.546 -0.5302  1.9567 -1.8575
 8094SOL    HW235916   1.913   0.091   2.431  0.6520  1.0624 -2.8105
 8095SOL     OW35917   2.888   0.564  11.002  0.1506  0.1114  0.1753
 8095SOL    HW135918   2.887   0.469  10.987 -0.6379 -0.0086  0.9868
 8095SOL    HW235919   2.977   0.576  11.036  0.6274 -1.1589 -0.6082
 8096SOL     OW35920   2.252   1.415  16.269 -0.4495  0.1593  0.1779
 8096SOL    HW135921   2.324   1.357  16.293  0.1774  1.3480  1.1857
 8096SOL    HW235922   2.290   1.468  16.199 -1.7582  2.2825  1.0674
 8097SOL     OW35923   3.321   1.636   3.031  0.0015 -0.4692 -0.1038
 8097SOL    HW135924   3.401   1.613   2.984  1.6221  2.7556  1.1314
 8097SOL    HW235925   3.358   1.701   3.090 -1.0381  0.4759 -0.5051
 8098SOL     OW35926   3.424   1.962   2.665 -0.2853  0.4067  0.1427
 8098SOL    HW135927   3.348   1.973   2.721 -1.7963  0.5488 -1.9177
 8098SOL    HW235928   3.410   2.033   2.602 -2.0287  2.4650  2.8594
 8099SOL     OW35929   1.189   1.636   7.138  0.3742 -0.1283 -0.2567
 8099SOL    HW135930   1.216   1.559   7.187  1.1685 -0.9338 -1.9327
 8099SOL    HW235931   1.150   1.583   7.068  0.6898  0.5751 -0.9727
 8100SOL     OW35932   1.617   3.291   4.866  0.5457 -0.6233  0.1450
 8100SOL    HW135933   1.636   3.201   4.891  1.6857 -0.7449 -1.1778
 8100SOL    HW235934   1.578   3.324   4.947 -2.4167 -1.7784 -0.8343
 8101SOL     OW35935   0.827   0.566  11.199  0.3993 -0.1577 -0.0684
 8101SOL    HW135936   0.816   0.481  11.157 -3.8292  1.2470 -1.7517
 8101SOL    HW235937   0.921   0.560  11.219  0.0837 -1.6533  1.0358
 8102SOL     OW35938   0.999   1.947   7.066  0.1714 -0.6445 -0.1492
 8102SOL    HW135939   1.071   1.925   7.007  0.5837 -0.7806  0.3971
 8102SOL    HW235940   1.007   1.891   7.144  0.1806 -1.1573 -0.5182
 8103SOL     OW35941   4.695   0.255   3.973  0.0934 -0.5421 -0.1102
 8103SOL    HW135942   0.017   0.197   3.929  0.8559  2.1669 -2.5612
 8103SOL    HW235943   4.638   0.193   4.020 -1.5028  1.2781  0.3528
 8104SOL     OW35944   0.157   1.569  17.080  0.3296 -0.0895 -0.0265
 8104SOL    HW135945   0.237   1.516  17.076  1.2807  1.2108  1.9174
 8104SOL    HW235946   0.103   1.534  17.009  0.8768 -0.4409 -0.2742
 8105SOL     OW35947   0.925   3.113   5.177 -0.1736 -0.5593  0.0807
 8105SOL    HW135948   0.908   3.156   5.260 -2.3809  0.9191 -1.1390
 8105SOL    HW235949   0.850   3.055   5.169 -3.9574  4.5080 -0.9931
 8106SOL     OW35950   1.509   3.318   7.756  0.1626  0.0103 -0.1055
 8106SOL    HW135951   1.576   3.259   7.791  0.7320  2.1302  2.3301
 8106SOL    HW235952   1.569   3.390   7.738  0.8102 -0.5739 -0.3140
 8107SOL     OW35953   3.348   4.493   1.358 -0.4857  0.4067 -0.0660
 8107SOL    HW135954   3.374   4.436   1.430  1.4909 -0.3736 -1.4062
 8107SOL    HW235955   3.428   4.498   1.306 -1.6149  1.1537 -1.7279
 8108SOL     OW35956   3.235   2.900   5.927 -0.0183 -0.5524  0.4464
 8108SOL    HW135957   3.249   2.862   5.840  1.2524 -0.0173  0.4192
 8108SOL    HW235958   3.157   2.950   5.901 -0.3706 -0.7231  1.1845
 8109SOL     OW35959   4.532   2.514  17.277 -0.9673  0.3371  0.0742
 8109SOL    HW135960   4.486   2.513  17.192  1.6628 -1.5419 -1.3164
 8109SOL    HW235961   4.620   2.491  17.248 -2.9745 -2.8535 -3.4949
 8110SOL     OW35962   2.060   0.138   1.938 -0.8415 -0.0324 -0.1969
 8110SOL    HW135963   2.031   0.086   2.013  1.1306  1.3059  1.4928
 8110SOL    HW235964   2.135   0.089   1.904 -0.2647  0.8299 -0.1687
 8111SOL     OW35965   1.273   2.235   6.027 -0.0557 -0.1485  0.9604
 8111SOL    HW135966   1.291   2.324   5.998  0.2571 -1.4077 -2.6340
 8111SOL    HW235967   1.358   2.191   6.018  1.1829  2.7543 -1.4760
 8112SOL     OW35968   1.263   3.239   2.142  0.1011 -0.0080  0.1635
 8112SOL    HW135969   1.297   3.305   2.082 -3.7243  0.4715 -1.4987
 8112SOL    HW235970   1.239   3.291   2.220  0.5833  0.4545  0.0049
 8113SOL     OW35971   2.985   0.496   5.882 -0.4856  0.4121  0.5557
 8113SOL    HW135972   2.969   0.407   5.913  0.9393 -0.2119 -0.5035
 8113SOL    HW235973   2.970   0.474   5.790  2.2583  0.2726  0.1407
 8114SOL     OW35974   1.246   1.304   3.170  0.3081 -0.2948  0.2945
 8114SOL    HW135975   1.287   1.227   3.210 -1.0744  0.2492  2.7242
 8114SOL    HW235976   1.252   1.298   3.075  0.7253 -0.1396  0.3082
 8115SOL     OW35977   2.836   4.245   3.622 -0.0200 -0.1051 -0.1902
 8115SOL    HW135978   2.901   4.251   3.692  1.7384  2.4782 -2.0409
 8115SOL    HW235979   2.878   4.196   3.551  1.5023  2.0110 -0.7303
 8116SOL     OW35980   3.664   1.290   3.201 -0.1109  0.0673 -0.2237
 8116SOL    HW135981   3.757   1.267   3.205 -0.4166 -0.9025  1.3061
 8116SOL    HW235982   3.651   1.276   3.295  0.9300 -0.6501 -0.1901
 8117SOL     OW35983   1.074   0.386  13.693 -0.7511 -0.2930 -0.6648
 8117SOL    HW135984   1.149   0.375  13.636  0.2350 -0.3221  0.6414
 8117SOL    HW235985   1.115   0.453  13.748 -1.1529 -0.4762 -0.1307
 8118SOL     OW35986   3.069   2.146   7.680  0.1537  0.5346 -0.1454
 8118SOL    HW135987   3.029   2.145   7.593 -1.0582 -0.1309  0.4142
 8118SOL    HW235988   3.117   2.064   7.670 -0.5858  0.2970 -1.6543
 8119SOL     OW35989   4.143   1.344   3.310 -0.1373 -0.3027  0.0347
 8119SOL    HW135990   4.238   1.353   3.308 -0.0120 -1.8738 -1.0505
 8119SOL    HW235991   4.112   1.413   3.369  1.0095 -0.2446  0.5734
 8120SOL     OW35992   4.623   0.659  16.474  0.0244  0.5414  0.4567
 8120SOL    HW135993   4.571   0.739  16.477  3.4523  2.7005  1.4147
 8120SOL    HW235994   4.699   0.680  16.420  0.9104  4.0901  3.0730
 8121SOL     OW35995   4.338   3.010   7.737  0.5045  0.2735  0.0566
 8121SOL    HW135996   4.387   2.929   7.720  0.1611 -0.4224  2.4220
 8121SOL    HW235997   4.391   3.083   7.707 -0.1673  1.4356  1.6834
 8122SOL     OW35998   4.332   1.350  17.055  0.0184  0.1320  0.4258
 8122SOL    HW135999   4.337   1.441  17.087 -0.6653  0.7665 -1.2975
 8122SOL    HW236000   4.425   1.326  17.057 -0.8181 -3.2132 -1.2566
 8123SOL     OW36001   4.367   4.464   6.218 -0.0067 -0.4612 -0.1165
 8123SOL    HW136002   4.390   4.489   6.307 -0.9975 -0.0527  0.0248
 8123SOL    HW236003   4.454   4.458   6.178 -0.1014  0.7016 -0.5044
 8124SOL     OW36004   0.528   1.922   4.620 -0.1127 -0.9019 -0.6282
 8124SOL    HW136005   0.457   1.869   4.656  0.3592 -0.8617  0.3475
 8124SOL    HW236006   0.550   1.878   4.537  1.6482 -1.4849  0.1434
 8125SOL     OW36007   4.183   2.916   2.149 -0.2905 -0.4521  0.0022
 8125SOL    HW136008   4.175   2.972   2.072 -1.2685 -1.2588 -0.4881
 8125SOL    HW236009   4.093   2.887   2.165  0.1622 -2.6486 -1.4245
 8126SOL     OW36010   4.490   0.997   5.313  0.5391 -0.6245  0.6776
 8126SOL    HW136011   4.454   0.996   5.224 -0.8710  1.8789  1.2196
 8126SOL    HW236012   4.541   1.078   5.308 -2.7729  1.5996  3.1832
 8127SOL     OW36013   0.466   3.643   6.967 -0.0783 -0.1065  0.4778
 8127SOL    HW136014   0.527   3.705   7.006  0.6075 -0.1850 -0.4676
 8127SOL    HW236015   0.442   3.679   6.881 -0.1348  0.1708  0.6089
 8128SOL     OW36016   0.320   4.209  16.973  0.4447 -0.4936  0.3848
 8128SOL    HW136017   0.411   4.190  16.953  0.3251  0.9527 -1.4798
 8128SOL    HW236018   0.332   4.296  17.012 -1.1668 -1.3079  2.7123
 8129SOL     OW36019   0.750   1.267   5.317 -0.3493  0.0993 -0.5812
 8129SOL    HW136020   0.768   1.287   5.225 -1.7136 -2.0534 -1.3092
 8129SOL    HW236021   0.726   1.354   5.350  3.7347  1.4716 -1.1736
 8130SOL     OW36022   2.930   3.144  11.907 -0.0116 -0.4519 -0.4782
 8130SOL    HW136023   2.894   3.188  11.830  0.6979  1.9600  0.5476
 8130SOL    HW236024   2.963   3.220  11.956 -0.3394 -0.4584 -0.2489
 8131SOL     OW36025   4.564   3.412   2.587 -0.4992  0.2631 -0.7535
 8131SOL    HW136026   4.586   3.498   2.552  0.9113  0.7627  1.3320
 8131SOL    HW236027   4.469   3.417   2.599 -0.7291  0.2568 -2.6281
 8132SOL     OW36028   0.559   3.893   4.361  0.9082 -0.4856 -0.2678
 8132SOL    HW136029   0.611   3.910   4.440 -0.6454 -0.3058  0.7125
 8132SOL    HW236030   0.607   3.937   4.291  0.5358  0.8797  0.3232
 8133SOL     OW36031   1.826   2.044   5.293 -0.8310  0.2684  0.4080
 8133SOL    HW136032   1.799   2.131   5.264 -3.4949 -1.4589 -2.2321
 8133SOL    HW236033   1.741   2.000   5.297 -0.9413  0.6147  1.8420
 8134SOL     OW36034   1.621   3.986   4.491  0.0676  0.2626  0.1972
 8134SOL    HW136035   1.600   3.895   4.511 -0.9998  0.7045  1.1242
 8134SOL    HW236036   1.669   3.988   4.408 -2.8925 -1.0623 -1.5722
 8135SOL     OW36037   2.444   3.264   3.571  0.2655 -0.2864 -0.7144
 8135SOL    HW136038   2.526   3.223   3.599  1.3132  0.7289 -2.2926
 8135SOL    HW236039   2.407   3.276   3.658  0.4284  0.6793 -0.7865
 8136SOL     OW36040   3.048   3.619  10.879 -0.7610 -0.6792 -0.3172
 8136SOL    HW136041   3.081   3.643  10.966  0.3135 -0.0687 -0.8834
 8136SOL    HW236042   3.061   3.696  10.823 -0.9894  0.3361  1.0261
 8137SOL     OW36043   4.479   0.375   0.621  0.0587  0.1561 -1.0606
 8137SOL    HW136044   4.513   0.385   0.532 -0.4306  0.0547 -1.2634
 8137SOL    HW236045   4.526   0.441   0.672  0.5110 -0.5486 -0.5683
 8138SOL     OW36046   2.008   3.570  10.975  0.7185 -0.3404 -0.4941
 8138SOL    HW136047   1.961   3.576  11.058 -0.1338  1.9878 -1.1442
 8138SOL    HW236048   2.085   3.519  10.998  0.7087 -1.0868 -2.1639
 8139SOL     OW36049   1.563   2.061  15.006  0.1664 -0.0412  0.2597
 8139SOL    HW136050   1.649   2.026  14.980 -0.2069 -0.6974 -0.0709
 8139SOL    HW236051   1.569   2.146  14.961 -0.7593  0.4312  1.0365
 8140SOL     OW36052   0.467   0.789   4.841  0.0085  0.4696 -0.2083
 8140SOL    HW136053   0.375   0.808   4.860 -0.9171 -2.1560 -1.8864
 8140SOL    HW236054   0.508   0.844   4.907 -1.3285  2.5916 -1.1671
 8141SOL     OW36055   3.780   1.471   7.288 -0.0911  0.0133 -0.2802
 8141SOL    HW136056   3.831   1.427   7.357 -0.2349  0.5070  0.1417
 8141SOL    HW236057   3.691   1.441   7.307 -0.4300  1.4466  0.3990
 8142SOL     OW36058   2.820   3.953  14.003 -0.4743 -0.2907 -0.1782
 8142SOL    HW136059   2.758   3.954  13.930  0.5551 -1.2088 -1.0473
 8142SOL    HW236060   2.777   3.898  14.068 -0.4743 -1.0698 -0.8436
 8143SOL     OW36061   0.468   2.664   4.196  0.3702 -0.6753 -0.5142
 8143SOL    HW136062   0.554   2.624   4.186  0.6076 -0.8394  1.9787
 8143SOL    HW236063   0.410   2.590   4.176 -2.2246  1.5424 -1.0944
 8144SOL     OW36064   0.680   0.322  15.215  0.3010  0.1554 -0.4802
 8144SOL    HW136065   0.756   0.315  15.273 -0.0143 -1.4605 -0.2614
 8144SOL    HW236066   0.723   0.333  15.130  2.0290 -1.1358  0.2182
 8145SOL     OW36067   3.741   1.547   3.104  0.2550 -0.0803  0.2946
 8145SOL    HW136068   3.709   1.473   3.156  4.3227 -3.5298 -2.0774
 8145SOL    HW236069   3.824   1.570   3.147  0.0163  1.6300 -0.1401
 8146SOL     OW36070   0.166   0.477   0.062 -0.1013  0.0144  0.4350
 8146SOL    HW136071   0.116   0.558   0.048  0.3991  0.0608 -1.0694
 8146SOL    HW236072   0.180   0.442  17.731  0.9866  0.0633  0.5848
 8147SOL     OW36073   3.935   1.034   3.682 -0.6983 -0.2406 -0.0536
 8147SOL    HW136074   3.976   1.027   3.596  0.6207  1.2578  0.4591
 8147SOL    HW236075   4.008   1.042   3.743 -0.1282  1.2903 -0.9513
 8148SOL     OW36076   4.017   3.118   5.242  0.3159 -0.3745  0.1597
 8148SOL    HW136077   3.941   3.109   5.299 -0.6454  0.5762 -0.9553
 8148SOL    HW236078   4.057   3.032   5.252  0.0784 -0.3570  1.1928
 8149SOL     OW36079   3.902   2.781   2.522  0.1253 -0.1632 -0.5134
 8149SOL    HW136080   3.877   2.863   2.565  0.9499 -0.2664  0.1653
 8149SOL    HW236081   3.818   2.750   2.488  0.8035  1.5969 -3.8066
 8150SOL     OW36082   2.665   0.046   9.253 -0.4653 -0.2596 -0.3180
 8150SOL    HW136083   2.736   0.040   9.189 -1.7070  1.9425 -1.9095
 8150SOL    HW236084   2.678   4.732   9.331 -0.8022  1.0092  0.6197
 8151SOL     OW36085   3.807   0.484   6.111  0.5904  0.6213 -0.1292
 8151SOL    HW136086   3.765   0.531   6.039  1.4875  2.4313  0.5508
 8151SOL    HW236087   3.857   0.552   6.156 -1.0937  1.8348 -0.0971
 8152SOL     OW36088   4.737   4.495   5.398  0.7529 -0.1596 -0.0431
 8152SOL    HW136089   4.649   4.472   5.428  0.6179 -0.7129 -0.8515
 8152SOL    HW236090   0.046   4.451   5.467  0.8099 -0.7068 -0.4300
 8153SOL     OW36091   1.947   4.472   3.901  0.0648 -0.0354 -0.0783
 8153SOL    HW136092   1.933   4.380   3.926  2.2586  0.3261  2.5276
 8153SOL    HW236093   1.924   4.523   3.979 -0.4453  1.8103 -1.4416
 8154SOL     OW36094   1.178   3.407   3.078 -0.4151 -0.1289  0.0443
 8154SOL    HW136095   1.151   3.493   3.046 -0.7130  0.3199  1.4830
 8154SOL    HW236096   1.093   3.376   3.112 -0.9996  0.6143 -0.7550
 8155SOL     OW36097   1.130   0.654   9.341 -0.2017  0.0158 -0.6463
 8155SOL    HW136098   1.200   0.613   9.391  0.4401  0.5420 -1.1049
 8155SOL    HW236099   1.122   0.594   9.267  3.3608 -1.5664  0.2778
 8156SOL     OW36100   1.813   3.110   4.982 -0.1580  0.2784  0.0972
 8156SOL    HW136101   1.851   3.046   5.042 -1.4960 -0.5508  0.0841
 8156SOL    HW236102   1.876   3.181   4.980  0.3775 -0.2216 -0.9047
 8157SOL     OW36103   4.442   1.634   9.914  0.1293  0.2174 -0.2925
 8157SOL    HW136104   4.456   1.657  10.006  3.0583 -0.5135 -0.5513
 8157SOL    HW236105   4.450   1.539   9.909 -0.9421  0.1113  0.2221
 8158SOL     OW36106   0.875   3.669   4.696 -0.4044 -0.3592 -0.0974
 8158SOL    HW136107   0.928   3.703   4.767  0.8201  2.4758 -2.4082
 8158SOL    HW236108   0.835   3.591   4.736 -0.8677 -0.4203 -0.6749
 8159SOL     OW36109   2.980   0.393   6.830  0.4778 -0.4557 -0.0359
 8159SOL    HW136110   3.072   0.403   6.853  0.5072 -0.4613 -0.1483
 8159SOL    HW236111   2.951   0.364   6.916  0.5731  1.0139  0.4923
 8160SOL     OW36112   3.215   2.606   3.696  0.0099 -0.1715  0.0884
 8160SOL    HW136113   3.280   2.570   3.756 -1.1163 -1.3457  0.5866
 8160SOL    HW236114   3.151   2.630   3.763  1.7923  0.5102  1.5580
 8161SOL     OW36115   2.287   1.067   2.091  0.1039  0.2753  0.2126
 8161SOL    HW136116   2.339   1.004   2.041  0.9082  2.1325 -1.2990
 8161SOL    HW236117   2.326   1.153   2.077 -0.5168  0.3111 -1.3474
 8162SOL     OW36118   1.303   4.056   7.225 -0.0114  0.1153 -0.5298
 8162SOL    HW136119   1.389   4.062   7.183 -1.0841 -0.5228 -2.8383
 8162SOL    HW236120   1.260   3.986   7.175 -0.0132 -1.5637  1.8362
 8163SOL     OW36121   2.466   0.528   6.192  0.2737 -0.8031  0.3239
 8163SOL    HW136122   2.402   0.536   6.263  1.0781  0.3446  0.9184
 8163SOL    HW236123   2.467   0.619   6.160  1.9147 -1.4110 -1.3623
 8164SOL     OW36124   1.144   1.421  12.014 -0.2735  0.1828  0.1797
 8164SOL    HW136125   1.169   1.511  12.035  0.9997 -0.3807  1.1150
 8164SOL    HW236126   1.054   1.413  12.045  0.8216 -1.5354  2.8956
 8165SOL     OW36127   1.859   2.980  17.688 -0.0124 -0.5170  0.4293
 8165SOL    HW136128   1.851   2.999   0.025  0.3371 -1.7641  0.7130
 8165SOL    HW236129   1.783   3.032  17.662 -0.5461 -1.1677  0.6897
 8166SOL     OW36130   3.992   3.248  13.321 -0.1897  0.1354  1.1870
 8166SOL    HW136131   3.980   3.155  13.337 -0.4571  0.3462  2.2611
 8166SOL    HW236132   4.049   3.232  13.246 -1.3712 -1.8272  0.7036
 8167SOL     OW36133   0.591   3.510   3.852  0.3950 -0.0716  0.3909
 8167SOL    HW136134   0.602   3.419   3.883  1.9749  0.4093  1.2814
 8167SOL    HW236135   0.566   3.507   3.760  0.7836 -2.6548  0.3579
 8168SOL     OW36136   1.300   0.776   6.058 -0.2398  0.5934 -0.1665
 8168SOL    HW136137   1.388   0.755   6.028 -0.1837  1.2597 -0.4669
 8168SOL    HW236138   1.280   0.810   5.971 -2.9353 -0.6237 -0.0089
 8169SOL     OW36139   0.314   4.405   2.608  0.0882  0.5049 -0.4037
 8169SOL    HW136140   0.394   4.407   2.660  0.2150  1.1457 -0.6160
 8169SOL    HW236141   0.298   4.311   2.600  0.9968  0.2153  1.1610
 8170SOL     OW36142   3.286   2.449   3.195 -0.1212  0.0118 -0.7360
 8170SOL    HW136143   3.232   2.516   3.237 -0.5159  0.5182 -2.0550
 8170SOL    HW236144   3.284   2.384   3.266  1.0620  0.4023 -0.3472
 8171SOL     OW36145   3.811   2.855   2.912 -0.7291  0.2260 -0.2571
 8171SOL    HW136146   3.858   2.772   2.915 -0.5642  0.3417  0.3193
 8171SOL    HW236147   3.877   2.921   2.895 -0.1811 -0.7942 -2.0089
 8172SOL     OW36148   0.016   2.262   4.372 -0.5549  0.5275 -0.5950
 8172SOL    HW136149   4.689   2.326   4.347 -0.9226  0.2182 -0.4177
 8172SOL    HW236150   4.702   2.199   4.421  1.2517 -1.3835 -1.0640
 8173SOL     OW36151   3.901   4.562   4.313 -0.0204  0.0088  0.3380
 8173SOL    HW136152   3.910   4.516   4.396 -1.1371 -1.7206 -0.5137
 8173SOL    HW236153   3.915   4.652   4.344 -0.0867 -0.5470  1.9484
 8174SOL     OW36154   2.125   0.941   4.461  0.3784 -0.6826 -0.1596
 8174SOL    HW136155   2.103   0.936   4.554  2.9048  0.7623  0.5118
 8174SOL    HW236156   2.050   0.901   4.417  0.2072  1.4770 -1.8266
 8175SOL     OW36157   4.728   1.909   5.406  0.1747  0.1428 -0.3139
 8175SOL    HW136158   0.036   1.935   5.328 -0.6757  0.2670 -0.7994
 8175SOL    HW236159   0.044   1.927   5.481  1.4440 -1.5250 -0.8396
 8176SOL     OW36160   4.369   3.694   5.982 -0.2679  0.1439 -0.0323
 8176SOL    HW136161   4.315   3.746   5.923 -2.7290 -1.8939  0.4163
 8176SOL    HW236162   4.381   3.754   6.055  3.3264  0.3953 -0.7961
 8177SOL     OW36163   1.230   1.315   5.600 -0.2559  0.0063 -0.5056
 8177SOL    HW136164   1.232   1.246   5.666 -0.0227 -1.3320 -1.9086
 8177SOL    HW236165   1.200   1.265   5.524  0.8175 -1.2248 -0.1106
 8178SOL     OW36166   0.865   4.348   7.190 -0.1858  0.2628 -0.5255
 8178SOL    HW136167   0.859   4.299   7.272 -0.3163 -1.0839 -1.3252
 8178SOL    HW236168   0.863   4.270   7.134 -0.9580 -1.6514  2.1582
 8179SOL     OW36169   1.572   3.646   3.296  0.0711 -0.2059 -0.5232
 8179SOL    HW136170   1.620   3.657   3.378  0.6368 -1.8703 -0.6221
 8179SOL    HW236171   1.484   3.674   3.318 -0.6157 -1.8230 -1.1709
 8180SOL     OW36172   2.969   1.571  17.639 -0.5948 -0.1677  0.3614
 8180SOL    HW136173   2.913   1.504  17.678 -0.7408 -1.0026 -1.2870
 8180SOL    HW236174   2.941   1.654  17.677  1.1863  0.5960 -0.0070
 8181SOL     OW36175   0.802   3.389   2.372  0.1295 -0.3008  0.0603
 8181SOL    HW136176   0.712   3.416   2.355 -0.3589 -2.7560 -1.1861
 8181SOL    HW236177   0.835   3.461   2.426 -1.0961  0.4035 -0.1362
 8182SOL     OW36178   3.309   1.606   7.146  0.0768 -0.1008  0.4056
 8182SOL    HW136179   3.325   1.692   7.184 -0.3041  0.0129  0.3079
 8182SOL    HW236180   3.289   1.563   7.229 -3.4530  0.9276  0.0959
 8183SOL     OW36181   1.955   1.995  12.204  0.6468  0.1347  0.8728
 8183SOL    HW136182   1.964   1.902  12.183 -0.6089  0.2074  0.0268
 8183SOL    HW236183   1.912   1.982  12.289  0.6744  0.1040  0.8816
 8184SOL     OW36184   1.041   2.323   6.208 -0.6069  0.3240 -0.0139
 8184SOL    HW136185   1.069   2.413   6.221  1.9094 -0.4919  0.1305
 8184SOL    HW236186   1.078   2.305   6.121  2.2756  1.7670  0.9382
 8185SOL     OW36187   1.555   0.755   5.976 -0.0388  0.0736  0.1791
 8185SOL    HW136188   1.610   0.827   5.947 -1.6681  1.8530  1.4692
 8185SOL    HW236189   1.627   0.692   5.985  0.4675  0.7669  0.9528
 8186SOL     OW36190   3.126   1.903   2.404  0.1039 -0.0339  0.4012
 8186SOL    HW136191   3.172   1.969   2.456 -0.8636  1.6316 -0.8380
 8186SOL    HW236192   3.120   1.959   2.326  0.3517  2.8202  2.4269
 8187SOL     OW36193   0.264   4.348  15.424 -0.1440 -0.3621 -0.2321
 8187SOL    HW136194   0.335   4.385  15.477  0.5190  0.9010 -1.9989
 8187SOL    HW236195   0.235   4.275  15.479 -2.2202  0.9365  0.4235
 8188SOL     OW36196   0.655   2.885   6.989 -0.0143 -0.1822 -0.2670
 8188SOL    HW136197   0.674   2.886   7.083  2.0978  0.6168 -0.6984
 8188SOL    HW236198   0.562   2.907   6.984 -0.0494  0.0838  1.7988
 8189SOL     OW36199   3.501   1.573  16.655 -0.1787 -0.0677 -0.2425
 8189SOL    HW136200   3.547   1.593  16.736 -3.5078  2.1676  1.0863
 8189SOL    HW236201   3.512   1.645  16.593 -4.8103  0.2995 -0.6394
 8190SOL     OW36202   4.643   0.548   7.828  0.1273 -0.1481 -0.0324
 8190SOL    HW136203   4.737   0.562   7.839 -0.1186 -0.1481  2.0611
 8190SOL    HW236204   4.625   0.506   7.744  0.5878  0.7014 -0.5581
 8191SOL     OW36205   1.555   3.865   4.760  0.1577 -0.0714 -0.0410
 8191SOL    HW136206   1.520   3.826   4.679 -0.4763 -0.7900  0.5752
 8191SOL    HW236207   1.630   3.811   4.783 -0.3627 -0.5904  0.4390
 8192SOL     OW36208   2.439   3.944   7.528 -0.2288 -0.0745  0.4906
 8192SOL    HW136209   2.514   3.890   7.503 -0.4115 -0.4781  0.8072
 8192SOL    HW236210   2.371   3.925   7.464  0.8200  1.9990 -1.2251
 8193SOL     OW36211   4.266   3.008   8.557 -0.1576 -0.4691 -0.0509
 8193SOL    HW136212   4.176   3.010   8.527 -0.3212  1.4217  0.5477
 8193SOL    HW236213   4.295   2.934   8.503  1.4275  0.7720 -0.9130
 8194SOL     OW36214   2.700   0.199  17.553  0.0706  0.3685 -0.0493
 8194SOL    HW136215   2.790   0.227  17.565  0.2816 -0.3191 -0.0119
 8194SOL    HW236216   2.714   0.107  17.529  0.9209  0.3941  0.3685
 8195SOL     OW36217   0.615   4.687   3.308  0.6101 -0.1665 -0.2704
 8195SOL    HW136218   0.633   4.641   3.390  1.7673 -0.2162 -0.5622
 8195SOL    HW236219   0.640   4.623   3.242 -1.1143 -2.5592  1.3870
 8196SOL     OW36220   0.913   0.797   9.440  0.1873 -0.3777 -0.2777
 8196SOL    HW136221   0.968   0.735   9.393  0.9872  0.5940 -0.6111
 8196SOL    HW236222   0.913   0.762   9.529 -1.2373  0.6637  0.1424
 8197SOL     OW36223   0.107   3.099   8.098  0.1063  0.9079 -0.3589
 8197SOL    HW136224   0.145   3.133   8.179  1.5482 -0.3380 -0.5246
 8197SOL    HW236225   0.019   3.137   8.100 -0.4805 -0.6403  3.0694
 8198SOL     OW36226   3.656   3.899  16.938 -0.5065 -0.4250 -0.3427
 8198SOL    HW136227   3.629   3.817  16.979  1.1820  0.2491  2.1047
 8198SOL    HW236228   3.750   3.881  16.940  0.0146  2.1444 -1.5708
 8199SOL     OW36229   4.366   3.265  10.745 -0.3229  0.0881  0.1563
 8199SOL    HW136230   4.426   3.210  10.695 -2.3374 -0.3050 -1.8511
 8199SOL    HW236231   4.319   3.195  10.790 -1.1609 -0.6882 -1.9339
 8200SOL     OW36232   2.648   0.248   4.948 -0.0376  0.6408  0.4596
 8200SOL    HW136233   2.662   0.339   4.976  0.1687  0.1643  1.9268
 8200SOL    HW236234   2.701   0.255   4.869  0.6478 -1.3810  0.7409
 8201SOL     OW36235   4.461   3.115  15.372 -0.4635 -0.0045  0.2737
 8201SOL    HW136236   4.398   3.082  15.436  0.9065 -1.2631  0.9674
 8201SOL    HW236237   4.431   3.204  15.353 -0.7696 -0.0064  0.7643
 8202SOL     OW36238   3.810   4.677   5.390  0.4321  0.3112  0.1038
 8202SOL    HW136239   3.780   4.622   5.462  0.4102  0.8498  0.5090
 8202SOL    HW236240   3.749   0.008   5.411  0.6815  0.3448  0.7199
 8203SOL     OW36241   0.126   2.955   3.566 -0.2355 -0.0721  0.0852
 8203SOL    HW136242   0.074   2.908   3.631  1.4951 -0.0935  1.4827
 8203SOL    HW236243   0.212   2.932   3.602 -0.5313  0.6267  1.2649
 8204SOL     OW36244   2.282   1.072  12.136  0.1027  0.7226 -0.2166
 8204SOL    HW136245   2.339   0.995  12.136 -0.8020  0.0533  0.8161
 8204SOL    HW236246   2.340   1.121  12.195  2.3697  0.3059 -2.1164
 8205SOL     OW36247   1.282   2.798  16.650  0.3297 -0.4048  0.1186
 8205SOL    HW136248   1.348   2.866  16.661  2.6634 -2.5415 -0.6868
 8205SOL    HW236249   1.331   2.716  16.656  1.0066 -0.1968 -2.9848
 8206SOL     OW36250   2.408   0.158   5.540 -0.1370 -0.1538  0.0588
 8206SOL    HW136251   2.444   0.097   5.476  0.5165  0.6334 -0.3250
 8206SOL    HW236252   2.329   0.109   5.564  1.0547 -3.3341 -2.5465
 8207SOL     OW36253   3.836   1.809   6.713 -0.1572 -0.1744  0.0895
 8207SOL    HW136254   3.923   1.825   6.750  0.1451  0.9939 -1.1611
 8207SOL    HW236255   3.835   1.715   6.694  0.2689 -0.2193  0.2879
 8208SOL     OW36256   0.292   1.644  13.404 -0.1877 -0.0230  0.2588
 8208SOL    HW136257   0.341   1.568  13.371 -1.5881 -0.5037 -0.7589
 8208SOL    HW236258   0.275   1.602  13.488 -1.6126 -0.0424 -0.0262
 8209SOL     OW36259   2.768   2.393   5.667  0.1031 -0.5590  0.1538
 8209SOL    HW136260   2.768   2.416   5.760 -0.8910 -0.1210  0.0535
 8209SOL    HW236261   2.845   2.438   5.632 -0.7840  1.6393  0.9976
 8210SOL     OW36262   4.652   1.927   4.638  0.3141 -0.6742 -0.0985
 8210SOL    HW136263   4.615   1.994   4.580  2.0825 -0.5946 -1.1310
 8210SOL    HW236264   4.603   1.853   4.602 -0.5437  1.6558 -3.7697
 8211SOL     OW36265   4.553   3.642   5.556 -0.1713 -0.1182  0.3590
 8211SOL    HW136266   4.601   3.597   5.486  1.2296  1.1535  0.5030
 8211SOL    HW236267   4.465   3.644   5.520  1.0743 -1.6622 -2.7898
 8212SOL     OW36268   2.057   3.304   1.069 -0.8271 -0.1346  0.2243
 8212SOL    HW136269   2.026   3.372   1.010  2.2752  0.8945 -0.2367
 8212SOL    HW236270   2.015   3.335   1.149  0.7838  0.6756  0.7577
 8213SOL     OW36271   0.304   0.697   5.405  0.0991  0.2438 -0.5307
 8213SOL    HW136272   0.395   0.680   5.382  0.2618 -0.6503  0.7943
 8213SOL    HW236273   0.257   0.685   5.322  1.8183 -1.2978 -1.2710
 8214SOL     OW36274   3.130   0.767  13.150  0.4755  0.5677  0.2205
 8214SOL    HW136275   3.129   0.672  13.163 -1.0103  0.1233 -3.2924
 8214SOL    HW236276   3.206   0.792  13.203  0.7717  1.1887 -0.5089
 8215SOL     OW36277   1.963   0.252   4.875 -0.1984  0.0887 -0.0667
 8215SOL    HW136278   1.902   0.323   4.898 -1.5322 -1.7695  2.0684
 8215SOL    HW236279   1.960   0.255   4.780  2.9864 -1.6461 -0.2064
 8216SOL     OW36280   2.500   2.627   7.974  0.1012 -0.3441 -0.3060
 8216SOL    HW136281   2.458   2.675   8.045 -0.8864  0.2000 -1.2725
 8216SOL    HW236282   2.472   2.680   7.900 -0.7371  0.1827  0.3950
 8217SOL     OW36283   0.402   3.732   2.487  0.2383 -0.5870  0.4403
 8217SOL    HW136284   0.415   3.642   2.515 -2.5426 -2.3512 -3.9254
 8217SOL    HW236285   0.472   3.751   2.424  0.2173  0.2118  0.6554
 8218SOL     OW36286   0.122   0.651   7.540 -0.1292 -0.0865 -0.0790
 8218SOL    HW136287   0.109   0.559   7.516 -0.2538  0.0737 -0.6183
 8218SOL    HW236288   0.217   0.651   7.550 -0.0970  1.1603 -0.3938
 8219SOL     OW36289   1.093   1.425   6.992  0.0248 -0.2161  0.2686
 8219SOL    HW136290   1.034   1.384   6.929 -0.8158  2.2822 -0.5888
 8219SOL    HW236291   1.162   1.359   7.001 -0.5137 -0.6670  1.0753
 8220SOL     OW36292   3.998   1.736  13.853  0.6318 -0.4244 -0.3021
 8220SOL    HW136293   3.952   1.652  13.852  1.3982 -0.8560  0.8087
 8220SOL    HW236294   3.990   1.759  13.945  1.0783  0.4613 -0.4877
 8221SOL     OW36295   0.648   0.595   1.768 -0.3453 -0.3600  0.8618
 8221SOL    HW136296   0.719   0.658   1.776 -0.6554 -0.1435  1.8005
 8221SOL    HW236297   0.651   0.540   1.689  0.8735  1.2325 -0.2026
 8222SOL     OW36298   1.538   4.051   4.948  0.3321 -0.0285  0.4565
 8222SOL    HW136299   1.502   3.988   5.010  0.6389  0.2581  0.9307
 8222SOL    HW236300   1.540   3.996   4.870  1.3405  0.5927  0.0303
 8223SOL     OW36301   3.297   3.382   1.867  0.6324  0.8319  0.4304
 8223SOL    HW136302   3.228   3.371   1.802  2.3099 -0.1034 -1.1594
 8223SOL    HW236303   3.294   3.476   1.882  0.5794  1.1472 -1.6000
 8224SOL     OW36304   4.096   2.721  13.858 -0.0328 -0.0126 -0.0526
 8224SOL    HW136305   4.185   2.726  13.823 -0.1369  0.9093 -0.1907
 8224SOL    HW236306   4.055   2.803  13.830  0.3124  0.9804  2.3155
 8225SOL     OW36307   2.900   3.788  17.383 -0.4164  0.3325  0.2593
 8225SOL    HW136308   2.877   3.748  17.467  0.4995 -0.0697  0.3295
 8225SOL    HW236309   2.941   3.868  17.416 -4.1931  2.0562  0.6889
 8226SOL     OW36310   2.785   0.975   3.721 -0.0322  0.1768 -0.0296
 8226SOL    HW136311   2.790   0.917   3.645 -0.5505  1.7319 -1.2531
 8226SOL    HW236312   2.730   0.930   3.785 -1.2351  0.3732 -0.8998
 8227SOL     OW36313   1.547   3.172   3.179  0.1047  0.3067 -0.0842
 8227SOL    HW136314   1.603   3.218   3.116  0.0989  0.4382  0.0061
 8227SOL    HW236315   1.492   3.242   3.214  0.6616  0.6718  0.0671
 8228SOL     OW36316   1.971   2.635   5.607  0.1194 -0.3756  0.4685
 8228SOL    HW136317   2.040   2.570   5.596 -0.2147 -0.5522 -0.6370
 8228SOL    HW236318   1.896   2.576   5.594 -2.8556  3.8295 -1.7023
 8229SOL     OW36319   2.085   4.539   0.767  0.3505  0.4062 -0.7338
 8229SOL    HW136320   2.170   4.512   0.733  1.1271 -0.5141  2.0013
 8229SOL    HW236321   2.101   4.531   0.861 -1.1514  0.6347 -0.4577
 8230SOL     OW36322   3.827   3.416   6.153 -0.5358 -0.4454 -0.1960
 8230SOL    HW136323   3.883   3.339   6.148 -0.9075 -0.7216 -0.0603
 8230SOL    HW236324   3.752   3.374   6.110  0.9095  0.8600 -3.9996
 8231SOL     OW36325   3.534   2.607   0.975  0.2256  0.6469  0.2767
 8231SOL    HW136326   3.565   2.568   0.893 -0.0972  2.2003 -0.5853
 8231SOL    HW236327   3.462   2.550   1.001 -0.3457  1.4502  0.4400
 8232SOL     OW36328   2.881   2.428   7.778 -0.2217  0.1330  0.0551
 8232SOL    HW136329   2.911   2.376   7.853  1.5900 -0.1742 -0.8768
 8232SOL    HW236330   2.891   2.366   7.706  1.6080 -0.0501  0.4674
 8233SOL     OW36331   2.743   0.673   2.441 -0.4979 -0.3424 -0.0676
 8233SOL    HW136332   2.764   0.766   2.448 -0.2599 -0.5101  1.4530
 8233SOL    HW236333   2.822   0.631   2.407 -0.3194  1.6321 -2.0494
 8234SOL     OW36334   4.300   0.591   3.058 -0.1565  0.1489 -0.3532
 8234SOL    HW136335   4.355   0.666   3.041  1.8270 -1.2160  0.0639
 8234SOL    HW236336   4.209   0.623   3.058 -0.1653  0.1122  2.1372
 8235SOL     OW36337   0.063   0.975   8.082 -0.2846 -0.2837 -0.0989
 8235SOL    HW136338   0.085   1.041   8.148  0.2157 -0.9554  0.4088
 8235SOL    HW236339   0.076   0.895   8.133 -0.4473  0.0756  0.5086
 8236SOL     OW36340   0.871   4.250  11.020 -0.2238  0.3553 -0.5324
 8236SOL    HW136341   0.808   4.286  10.957 -2.1933 -0.6851  0.8441
 8236SOL    HW236342   0.847   4.289  11.104 -0.3956  0.6577 -0.7215
 8237SOL     OW36343   1.373   1.689   5.562  0.0555 -0.1055  0.2224
 8237SOL    HW136344   1.335   1.699   5.649 -1.5153  1.7131 -0.6781
 8237SOL    HW236345   1.395   1.596   5.554  0.5258  0.0058  0.1854
 8238SOL     OW36346   1.717   3.417   4.455 -0.3217  0.6655  0.0001
 8238SOL    HW136347   1.765   3.495   4.428  1.2996 -0.6927 -1.0580
 8238SOL    HW236348   1.677   3.438   4.540  0.5024 -0.2864  0.6201
 8239SOL     OW36349   4.618   0.926   1.528 -0.7295  0.0519 -0.2911
 8239SOL    HW136350   4.618   0.971   1.444 -0.1082 -0.7972 -0.7502
 8239SOL    HW236351   4.713   0.919   1.538 -0.6940  2.0197  0.6187
 8240SOL     OW36352   4.528   0.116  12.394  0.4788  0.1672 -0.5378
 8240SOL    HW136353   4.552   0.024  12.406  0.6323 -0.1324 -3.2522
 8240SOL    HW236354   4.612   0.151  12.366 -0.1618  0.7791 -1.6768
 8241SOL     OW36355   1.676   2.176   7.013 -0.0727  0.2208  0.1395
 8241SOL    HW136356   1.756   2.180   6.960  0.7772 -2.1015  1.2453
 8241SOL    HW236357   1.647   2.085   7.005 -2.3110  0.9261  0.2102
 8242SOL     OW36358   3.377   2.538  12.603  0.2047 -0.1073  0.1729
 8242SOL    HW136359   3.322   2.607  12.640  0.0545  0.3272 -0.8572
 8242SOL    HW236360   3.431   2.518  12.680  0.6540  0.5126  0.0176
 8243SOL     OW36361   2.823   1.530   8.826  1.0308 -0.4087 -0.1330
 8243SOL    HW136362   2.864   1.494   8.905  0.4542  1.7964  1.1875
 8243SOL    HW236363   2.828   1.622   8.853 -1.7433 -0.5938  1.0376
 8244SOL     OW36364   1.411   3.087   4.329 -0.3101  0.0593  0.2671
 8244SOL    HW136365   1.483   3.140   4.296 -0.7672  0.8629  0.5575
 8244SOL    HW236366   1.445   3.050   4.411  0.1566  0.2766  0.1682
 8245SOL     OW36367   3.848   1.325   2.425 -0.2066  0.2514  0.0180
 8245SOL    HW136368   3.886   1.388   2.365  0.5487 -0.8582 -0.6774
 8245SOL    HW236369   3.813   1.388   2.488 -0.4725  0.0265  0.0976
 8246SOL     OW36370   2.370   1.319   0.858 -0.3015 -0.1042 -0.0119
 8246SOL    HW136371   2.418   1.237   0.862 -0.7234 -0.3652 -0.2222
 8246SOL    HW236372   2.442   1.382   0.854 -1.7365  1.4271 -2.3265
 8247SOL     OW36373   1.722   4.293  10.273  0.0660  0.0600  0.1079
 8247SOL    HW136374   1.651   4.229  10.286 -1.0398  1.2396 -0.1755
 8247SOL    HW236375   1.801   4.238  10.274 -1.2049 -1.7885  0.4547
 8248SOL     OW36376   3.312   2.193   5.532  0.0016 -0.3895  0.2228
 8248SOL    HW136377   3.398   2.157   5.554  0.2343 -0.4042 -0.7226
 8248SOL    HW236378   3.322   2.288   5.523 -2.0103 -0.0640  1.3289
 8249SOL     OW36379   4.043   3.476   8.771  0.0774  0.0198 -0.0512
 8249SOL    HW136380   4.120   3.420   8.764 -0.3684 -0.7169  0.9229
 8249SOL    HW236381   4.061   3.512   8.858 -0.8302 -1.4029  0.7277
 8250SOL     OW36382   4.077   3.164  13.809 -0.0023  0.1564  0.3068
 8250SOL    HW136383   4.072   3.080  13.763 -1.7276  0.5431 -0.2396
 8250SOL    HW236384   4.113   3.148  13.896 -2.2751 -0.0800  1.2163
 8251SOL     OW36385   2.270   0.590   3.473  0.0249 -0.6545 -0.7445
 8251SOL    HW136386   2.301   0.585   3.383  3.0751  3.3667  0.0740
 8251SOL    HW236387   2.328   0.526   3.514  0.6593 -1.2374 -2.5685
 8252SOL     OW36388   1.146   4.536   1.374  0.0446  0.5729 -0.6626
 8252SOL    HW136389   1.068   4.580   1.409 -0.0910  0.9801 -1.4885
 8252SOL    HW236390   1.195   4.542   1.456 -0.4818  1.6167 -0.4234
 8253SOL     OW36391   1.699   2.741   2.760 -0.4092  0.2270  0.1183
 8253SOL    HW136392   1.784   2.729   2.802  0.1742  1.0543 -0.8294
 8253SOL    HW236393   1.735   2.753   2.672 -0.4297 -1.7312 -0.1568
 8254SOL     OW36394   2.583   1.973   8.148 -0.4170 -0.2331 -0.1506
 8254SOL    HW136395   2.658   1.942   8.200  0.4049  0.7081 -0.7607
 8254SOL    HW236396   2.579   2.060   8.188  0.9842 -0.8132  1.2717
 8255SOL     OW36397   3.331   3.756   3.191  0.0176 -0.1747  0.0148
 8255SOL    HW136398   3.391   3.728   3.260 -0.2431 -0.6704  0.0410
 8255SOL    HW236399   3.258   3.771   3.251  0.4814 -3.7778  1.4952
 8256SOL     OW36400   0.981   2.462   5.247  0.1173  0.2554 -0.3983
 8256SOL    HW136401   1.004   2.499   5.332 -1.2897 -1.2912  0.6459
 8256SOL    HW236402   0.887   2.472   5.236 -0.0798  0.9418  1.9816
 8257SOL     OW36403   0.349   4.231  13.585  0.5528 -0.3575 -0.5978
 8257SOL    HW136404   0.302   4.147  13.575 -0.2279  0.1112 -0.9194
 8257SOL    HW236405   0.296   4.285  13.644 -2.8058  0.1758 -4.0580
 8258SOL     OW36406   4.209   0.873   6.251  0.2475  0.1863  0.3334
 8258SOL    HW136407   4.188   0.947   6.194 -2.9854  0.3810  1.7722
 8258SOL    HW236408   4.208   0.923   6.332  0.4281  0.3845  0.2123
 8259SOL     OW36409   4.633   3.700   6.490  0.0515 -0.3498  0.1746
 8259SOL    HW136410   4.694   3.690   6.563  0.0410  0.3194  0.2792
 8259SOL    HW236411   4.690   3.696   6.413  1.6892  0.2950  1.3676
 8260SOL     OW36412   3.835   2.765   7.032 -0.5446 -0.2808  0.2385
 8260SOL    HW136413   3.756   2.739   6.985  0.2818  0.7704 -1.7353
 8260SOL    HW236414   3.810   2.844   7.079 -2.7132 -0.4114 -0.7012
 8261SOL     OW36415   0.553   4.535   7.816  0.7078 -0.7395  0.5035
 8261SOL    HW136416   0.540   4.534   7.721  1.7750  1.8663  0.3460
 8261SOL    HW236417   0.575   4.445   7.840  1.1995 -0.6697  0.3148
 8262SOL     OW36418   2.906   1.987   8.851  0.3840  0.5541 -0.2673
 8262SOL    HW136419   2.943   1.903   8.876  0.5121  0.4013 -0.9673
 8262SOL    HW236420   2.973   2.049   8.823  1.0291  0.3753  0.8772
 8263SOL     OW36421   0.870   4.599  12.818  0.3508  0.3579 -0.2892
 8263SOL    HW136422   0.963   4.619  12.805  1.3238 -2.0101  3.1459
 8263SOL    HW236423   0.885   4.530  12.883 -0.6158 -0.3101 -0.7824
 8264SOL     OW36424   0.149   1.442  14.135 -0.4947  0.1227 -0.3903
 8264SOL    HW136425   0.123   1.479  14.219  0.1399 -0.7986  0.2120
 8264SOL    HW236426   0.139   1.347  14.145  2.8907 -0.1013  0.8443
 8265SOL     OW36427   3.415   4.189  15.647 -0.0496  0.1635  0.2985
 8265SOL    HW136428   3.455   4.198  15.561  0.6253 -0.5844  0.5324
 8265SOL    HW236429   3.434   4.271  15.692 -2.4412 -0.9394  3.2958
 8266SOL     OW36430   0.213   4.121   3.424  0.3470 -0.1923 -0.4328
 8266SOL    HW136431   0.265   4.115   3.504  0.7430 -3.2183 -0.9109
 8266SOL    HW236432   0.248   4.047   3.374 -1.9027 -0.8354 -1.0592
 8267SOL     OW36433   0.421   0.378   7.918  0.4335 -0.2254  0.0238
 8267SOL    HW136434   0.412   0.316   7.991 -0.7880  1.1958  1.0763
 8267SOL    HW236435   0.338   0.427   7.920 -0.9413 -2.5243 -0.7835
 8268SOL     OW36436   0.731   2.976  13.696 -0.1039  0.1473  0.1010
 8268SOL    HW136437   0.662   2.966  13.762 -0.5281  0.5658 -0.2725
 8268SOL    HW236438   0.780   2.898  13.722 -2.3654 -1.0631  0.7323
 8269SOL     OW36439   0.229   2.074   6.967 -0.2004  0.5867  0.2137
 8269SOL    HW136440   0.206   2.126   7.044  0.3258  0.4555  0.4557
 8269SOL    HW236441   0.318   2.049   6.991  0.4751  0.9349 -1.9492
 8270SOL     OW36442   2.102   1.724   9.058  0.3496 -0.0031 -0.2077
 8270SOL    HW136443   2.188   1.692   9.085  0.4667  0.8800  0.4529
 8270SOL    HW236444   2.129   1.814   9.041  3.3915 -0.8700  0.0606
 8271SOL     OW36445   1.027   0.649   3.370  0.0321 -0.0756 -0.1018
 8271SOL    HW136446   1.094   0.683   3.311 -0.1362 -0.4237 -0.4932
 8271SOL    HW236447   1.024   0.554   3.358  1.6353 -0.1338 -0.0582
 8272SOL     OW36448   0.767   1.457   7.142  0.2797 -0.5166 -0.1924
 8272SOL    HW136449   0.680   1.491   7.125  0.8428  0.8732 -0.2998
 8272SOL    HW236450   0.805   1.477   7.056  0.0381  1.1753  0.1056
 8273SOL     OW36451   3.734   1.084  14.442  0.2582 -0.1608  0.1707
 8273SOL    HW136452   3.680   1.138  14.383  2.4995  0.8665 -0.9442
 8273SOL    HW236453   3.681   1.005  14.449  1.1947 -0.9352 -1.5278
 8274SOL     OW36454   3.457   4.329   0.442  0.2648  0.0562 -0.4057
 8274SOL    HW136455   3.515   4.271   0.392 -1.5281 -1.6443 -0.4792
 8274SOL    HW236456   3.500   4.335   0.527  2.0962  0.0815 -1.3364
 8275SOL     OW36457   3.839   4.469  14.322 -0.2266 -0.0811  0.2862
 8275SOL    HW136458   3.889   4.507  14.250  0.5585  0.1200  0.9419
 8275SOL    HW236459   3.870   4.531  14.388  3.3610 -0.1495 -1.3649
 8276SOL     OW36460   3.203   0.675   0.401 -0.3550  0.3584  0.9234
 8276SOL    HW136461   3.237   0.735   0.335 -1.2421 -1.3511 -1.0809
 8276SOL    HW236462   3.248   0.716   0.476  0.9284  1.8816 -0.6873
 8277SOL     OW36463   3.265   3.180   7.175  0.2950 -0.3759  0.2667
 8277SOL    HW136464   3.213   3.112   7.218  2.6165 -2.8047 -0.7620
 8277SOL    HW236465   3.352   3.139   7.178  0.8991  0.8037 -1.5704
 8278SOL     OW36466   3.205   4.357   3.400  0.3383 -0.8052 -0.1380
 8278SOL    HW136467   3.206   4.265   3.425  2.0268 -0.5162  0.8591
 8278SOL    HW236468   3.298   4.379   3.404 -0.2149  1.4323  0.4719
 8279SOL     OW36469   3.946   3.191   6.815 -0.3009  0.4610 -0.1377
 8279SOL    HW136470   3.997   3.211   6.736  3.5632 -1.2375  1.8898
 8279SOL    HW236471   3.959   3.096   6.814 -0.2681  0.4718 -0.9195
 8280SOL     OW36472   0.172   3.834   2.381 -0.1960 -0.1617 -0.5267
 8280SOL    HW136473   0.259   3.850   2.418 -1.1302  1.4014  0.9926
 8280SOL    HW236474   0.149   3.742   2.399 -0.9186 -0.4449 -2.8777
 8281SOL     OW36475   1.848   3.746   5.422  0.0427 -0.1281 -0.0627
 8281SOL    HW136476   1.836   3.820   5.481  3.4206 -1.5273  2.3815
 8281SOL    HW236477   1.846   3.671   5.482 -0.1238  0.6159  0.8631
 8282SOL     OW36478   2.059   1.838  15.573 -0.2670 -0.7081  0.2313
 8282SOL    HW136479   2.082   1.931  15.577  1.0764 -0.9158 -2.8332
 8282SOL    HW236480   2.115   1.810  15.646  1.0441  1.9119  0.2285
 8283SOL     OW36481   2.073   1.690  15.319 -0.2468  0.1594 -0.0766
 8283SOL    HW136482   2.072   1.756  15.388  2.0537 -0.4376  0.5152
 8283SOL    HW236483   2.164   1.661  15.313  0.4556  2.2063  0.8625
 8284SOL     OW36484   4.448   2.330   5.373 -0.3034  0.7285  0.1834
 8284SOL    HW136485   4.449   2.268   5.300  0.7624  0.4654  0.4245
 8284SOL    HW236486   4.420   2.272   5.444 -0.3637  0.5531  0.0182
 8285SOL     OW36487   3.322   0.493   4.350  0.1763  0.2042  0.6273
 8285SOL    HW136488   3.230   0.502   4.375 -0.5777  1.6044 -2.7534
 8285SOL    HW236489   3.302   0.473   4.259  2.3050  0.3857  0.1301
 8286SOL     OW36490   1.000   0.730  17.146 -0.4362 -0.1254  0.3613
 8286SOL    HW136491   0.910   0.712  17.120 -0.0352  0.2423 -1.2869
 8286SOL    HW236492   1.028   0.806  17.094  1.0335  0.3801  1.8826
 8287SOL     OW36493   1.332   2.386   6.473 -0.1596  0.4262  0.2671
 8287SOL    HW136494   1.312   2.434   6.554 -1.4638  0.0924  0.1471
 8287SOL    HW236495   1.425   2.367   6.487 -0.3993 -1.2762 -0.4521
 8288SOL     OW36496   3.264   0.728   1.900 -0.0674  0.2040  0.2821
 8288SOL    HW136497   3.343   0.686   1.867  0.1177 -0.3315  1.4044
 8288SOL    HW236498   3.306   0.814   1.903  1.4255 -0.5547  0.9330
 8289SOL     OW36499   0.876   4.111   8.420 -0.9289 -0.4233 -1.2156
 8289SOL    HW136500   0.832   4.132   8.503  1.4815  0.8466 -0.2651
 8289SOL    HW236501   0.895   4.198   8.385  2.5941  0.2245  2.4094
 8290SOL     OW36502   3.847   1.747   8.547  0.0919 -0.5328  0.4534
 8290SOL    HW136503   3.873   1.773   8.459 -1.2940  0.3290  0.2984
 8290SOL    HW236504   3.892   1.663   8.562  0.1195 -0.3865  1.2298
 8291SOL     OW36505   1.945   3.558   2.979 -0.0302 -0.5693  0.3436
 8291SOL    HW136506   1.990   3.635   2.944 -1.0457 -0.9201 -1.6910
 8291SOL    HW236507   1.990   3.493   2.925 -1.5766 -0.1080 -1.5033
 8292SOL     OW36508   3.109   1.799   7.051 -0.4030 -0.4353 -0.1517
 8292SOL    HW136509   3.154   1.715   7.063  0.9287  0.1956 -0.6959
 8292SOL    HW236510   3.153   1.849   7.121 -0.1173 -0.6131 -0.2044
 8293SOL     OW36511   2.534   2.731   2.825  0.4956 -0.1024  0.2332
 8293SOL    HW136512   2.613   2.717   2.877  1.4136 -1.4054 -1.5180
 8293SOL    HW236513   2.554   2.805   2.769 -0.8374  0.0896  0.0022
 8294SOL     OW36514   2.480   3.639   6.640 -0.0605 -0.4158  0.4857
 8294SOL    HW136515   2.388   3.630   6.615  0.7735 -0.1571 -2.7151
 8294SOL    HW236516   2.510   3.687   6.563 -0.5311 -0.2824  0.3856
 8295SOL     OW36517   3.726   3.844   4.800 -0.5453  0.0623 -0.4778
 8295SOL    HW136518   3.773   3.926   4.786  0.8601  0.2391  5.3425
 8295SOL    HW236519   3.667   3.849   4.725  0.3961  3.4928 -0.9939
 8296SOL     OW36520   3.005   1.050   7.622  0.0384  0.4324  0.1464
 8296SOL    HW136521   3.084   1.036   7.676  0.7335 -0.2826 -1.0558
 8296SOL    HW236522   2.979   0.958   7.613 -1.3385  0.7363  1.1264
 8297SOL     OW36523   1.765   1.404   2.570 -0.3674  0.3760  0.0134
 8297SOL    HW136524   1.806   1.489   2.589  1.4425 -0.6973  0.9388
 8297SOL    HW236525   1.697   1.397   2.637  3.7440 -1.9031  3.9668
 8298SOL     OW36526   3.809   1.525   3.601 -0.1436 -0.1161 -0.3066
 8298SOL    HW136527   3.885   1.518   3.543 -0.9592 -2.4002 -1.1104
 8298SOL    HW236528   3.743   1.470   3.560 -0.9870 -1.5090  2.9732
 8299SOL     OW36529   2.730   2.592  17.211 -0.0865  0.0854 -0.2828
 8299SOL    HW136530   2.652   2.635  17.244 -0.9325  0.0053 -2.1791
 8299SOL    HW236531   2.703   2.501  17.197  1.5051 -0.4453  0.0616
 8300SOL     OW36532   3.734   4.317  17.716 -0.8746  0.7382 -0.4518
 8300SOL    HW136533   3.776   4.270   0.031  1.1343  1.2597 -1.3106
 8300SOL    HW236534   3.805   4.376  17.691 -0.0877  0.1191  0.3371
 8301SOL     OW36535   4.489   2.872   3.301 -0.0432  0.7331  0.3276
 8301SOL    HW136536   4.557   2.916   3.250  0.9153  1.1301  1.9451
 8301SOL    HW236537   4.502   2.782   3.271 -1.2096  0.0620  1.7937
 8302SOL     OW36538   3.088   1.014   2.520  0.7544 -0.5342 -0.4129
 8302SOL    HW136539   3.016   1.018   2.457 -0.8523  0.3941  1.4872
 8302SOL    HW236540   3.069   1.086   2.580  0.7418  0.2103 -1.3220
 8303SOL     OW36541   0.667   4.677   3.946 -0.5048  0.7284 -0.1453
 8303SOL    HW136542   0.729   4.710   4.011  0.5254 -2.9047  0.7208
 8303SOL    HW236543   0.624   0.018   3.920 -0.9728 -0.0609 -1.8188
 8304SOL     OW36544   4.389   1.535   5.357  0.8417  0.6372  0.2431
 8304SOL    HW136545   4.361   1.448   5.386  1.7686 -0.3501 -1.8635
 8304SOL    HW236546   4.343   1.532   5.274  1.4472  0.3707 -0.0810
 8305SOL     OW36547   4.337   2.156  13.031 -0.5646 -0.0050  0.6609
 8305SOL    HW136548   4.401   2.203  13.083 -0.1534  2.2676 -1.9027
 8305SOL    HW236549   4.252   2.196  13.050  0.5174  1.7858  1.6898
 8306SOL     OW36550   2.318   1.743   3.442 -0.3050 -0.0575  0.6491
 8306SOL    HW136551   2.341   1.714   3.531 -0.3642 -0.9837  0.3596
 8306SOL    HW236552   2.288   1.660   3.407 -0.7289 -0.6334  2.3633
 8307SOL     OW36553   2.662   1.490   6.324  0.3077 -0.2770  0.0999
 8307SOL    HW136554   2.705   1.407   6.303  2.9402  1.0979  0.0509
 8307SOL    HW236555   2.654   1.528   6.237 -0.9818  0.8727  0.7205
 8308SOL     OW36556   2.063   3.938  11.926 -0.1997  0.3255  0.5147
 8308SOL    HW136557   2.002   3.989  11.979  0.3541  1.6601 -0.1551
 8308SOL    HW236558   2.010   3.895  11.860  1.1176  1.3936 -1.2238
 8309SOL     OW36559   1.796   4.360   2.768 -0.0353 -0.0485 -0.0323
 8309SOL    HW136560   1.885   4.369   2.734  0.4964 -0.2166  1.3215
 8309SOL    HW236561   1.757   4.446   2.751 -0.5035 -0.1351  0.6397
 8310SOL     OW36562   2.338   3.719   0.623 -0.6191  0.0392  0.3849
 8310SOL    HW136563   2.286   3.678   0.692 -0.2597 -2.8953 -1.0872
 8310SOL    HW236564   2.270   3.702   0.558  0.5684  1.0754 -1.1186
 8311SOL     OW36565   1.770   2.903   1.201 -0.0076 -0.0325  0.0385
 8311SOL    HW136566   1.805   2.975   1.148  2.4139 -0.5261  0.9423
 8311SOL    HW236567   1.745   2.846   1.129  0.6421  0.5713 -0.6722
 8312SOL     OW36568   3.435   2.262   5.151  0.1392 -0.4680 -0.1329
 8312SOL    HW136569   3.496   2.244   5.223 -0.8488 -0.4313  0.7153
 8312SOL    HW236570   3.502   2.283   5.086  0.4507 -1.3793 -0.1139
 8313SOL     OW36571   3.063   3.785   9.143  0.8530  0.1051  0.9369
 8313SOL    HW136572   3.066   3.722   9.071  1.0533 -0.4187  1.3983
 8313SOL    HW236573   2.983   3.832   9.121  0.6917 -1.7423 -2.3908
 8314SOL     OW36574   4.102   2.287  13.174  0.0378 -0.2992  0.0714
 8314SOL    HW136575   4.044   2.363  13.178  0.0579 -0.3616  1.4483
 8314SOL    HW236576   4.159   2.290  13.251 -1.1759  0.3081  0.9495
 8315SOL     OW36577   0.555   1.008   7.210 -0.0471 -0.1683 -0.0472
 8315SOL    HW136578   0.508   1.085   7.177 -0.0588  0.7816  2.1617
 8315SOL    HW236579   0.635   1.009   7.157  0.4797  1.4378  0.7586
 8316SOL     OW36580   1.249   3.037   6.449  0.8123  0.1808  0.6737
 8316SOL    HW136581   1.296   3.119   6.465  2.0444 -0.3590 -0.2499
 8316SOL    HW236582   1.164   3.063   6.413  0.6470 -2.3056 -0.7244
 8317SOL     OW36583   0.228   2.786   8.005  0.6412  0.5255  0.1337
 8317SOL    HW136584   0.317   2.814   7.981  0.4290  0.5429 -0.6380
 8317SOL    HW236585   0.249   2.698   8.034 -1.4294 -0.8972 -2.7166
 8318SOL     OW36586   0.199   3.438  13.189 -0.0162  0.2953 -0.1047
 8318SOL    HW136587   0.279   3.434  13.137 -0.0973  0.2232 -0.2234
 8318SOL    HW236588   0.145   3.368  13.152 -2.2337  0.1009  3.5142
 8319SOL     OW36589   0.529   0.941   3.993  0.6876 -0.2083 -0.1193
 8319SOL    HW136590   0.501   0.903   3.910  0.1008  0.5104 -0.2530
 8319SOL    HW236591   0.616   0.904   3.978 -0.4195 -1.6297 -2.9906
 8320SOL     OW36592   4.059   1.083   4.566 -0.2945  0.1492  0.4109
 8320SOL    HW136593   4.128   1.053   4.625  0.6823  2.6649  0.5462
 8320SOL    HW236594   4.071   1.177   4.559 -1.6860  0.2792 -0.1058
 8321SOL     OW36595   2.464   4.353   4.580 -0.2756  0.1138 -0.5234
 8321SOL    HW136596   2.511   4.273   4.555  0.3546  0.6290 -1.0170
 8321SOL    HW236597   2.423   4.370   4.495  0.0846  2.1485 -0.2870
 8322SOL     OW36598   1.915   3.539   0.942  1.1980 -0.4690 -0.3826
 8322SOL    HW136599   1.869   3.616   0.908 -1.2659 -1.2194  1.2501
 8322SOL    HW236600   1.864   3.534   1.023  0.2756 -1.1188 -1.0063
 8323SOL     OW36601   3.205   3.950   9.895 -0.7347  0.1620 -0.0653
 8323SOL    HW136602   3.301   3.953   9.892 -0.7055  0.1810  0.9299
 8323SOL    HW236603   3.196   3.919   9.985  0.4558 -3.2876 -1.1249
 8324SOL     OW36604   3.883   1.325   8.364  0.3094  0.0235 -0.4702
 8324SOL    HW136605   3.796   1.295   8.391 -0.3558 -0.3020 -2.9595
 8324SOL    HW236606   3.889   1.272   8.285  0.0247 -1.1797  0.3144
 8325SOL     OW36607   1.028   3.713   4.453  0.6142  0.1170  0.5441
 8325SOL    HW136608   0.974   3.696   4.530 -2.7287  1.5335 -1.4670
 8325SOL    HW236609   1.115   3.715   4.492  1.2276 -0.9196 -0.7749
 8326SOL     OW36610   2.864   2.630   7.014 -0.4425 -0.2763 -0.0524
 8326SOL    HW136611   2.951   2.621   7.055 -0.1269  0.5496 -0.5466
 8326SOL    HW236612   2.815   2.586   7.084  1.8998 -0.0802  1.7557
 8327SOL     OW36613   0.208   2.034   6.522  0.5018 -0.1950 -0.2676
 8327SOL    HW136614   0.303   2.041   6.510  0.2699  1.5495 -1.0473
 8327SOL    HW236615   0.183   2.046   6.430 -0.3772  3.2235  0.4383
 8328SOL     OW36616   0.041   1.922   1.902  0.0048 -0.3001 -0.2645
 8328SOL    HW136617   4.685   1.923   1.912 -0.0778 -3.1819 -0.6549
 8328SOL    HW236618   0.055   1.982   1.829 -0.8053  1.6586  1.1834
 8329SOL     OW36619   1.905   4.127   9.642 -0.3209  0.0604  0.7992
 8329SOL    HW136620   1.915   4.141   9.736  1.9151 -1.8930  0.8480
 8329SOL    HW236621   1.845   4.053   9.630  0.4119 -0.2041 -1.1405
 8330SOL     OW36622   2.793   0.731   8.261 -0.1381  0.0953  0.3458
 8330SOL    HW136623   2.698   0.738   8.276  0.0610 -0.8650  2.0209
 8330SOL    HW236624   2.828   0.687   8.337 -2.1438 -0.9527  0.6596
 8331SOL     OW36625   0.696   0.953   4.595  0.2094 -0.4738  0.3380
 8331SOL    HW136626   0.720   0.860   4.591  1.8178  0.0160 -1.6571
 8331SOL    HW236627   0.715   0.958   4.689 -0.1427  2.5383  0.2517
 8332SOL     OW36628   1.891   2.959   0.805  0.3738  0.0826 -0.2009
 8332SOL    HW136629   1.889   2.976   0.899  0.8312 -0.1537 -0.1522
 8332SOL    HW236630   1.955   3.024   0.777  1.2006 -0.6310  0.0451
 8333SOL     OW36631   2.094   3.310   6.121 -0.2927  0.2332 -0.5609
 8333SOL    HW136632   2.047   3.318   6.037  0.9264 -0.0692 -1.2681
 8333SOL    HW236633   2.123   3.219   6.126 -1.8018 -0.2622 -0.7049
 8334SOL     OW36634   2.339   3.704   3.512  0.1171 -0.2756 -0.1966
 8334SOL    HW136635   2.306   3.653   3.586  0.4775 -0.1857  0.0285
 8334SOL    HW236636   2.428   3.733   3.533  0.2708 -1.0712  0.2162
 8335SOL     OW36637   2.621   4.069  17.096  0.4998  0.5247  0.6534
 8335SOL    HW136638   2.658   4.156  17.082  0.1049  0.4763 -0.7229
 8335SOL    HW236639   2.694   4.008  17.087 -0.1393 -0.3956  1.7752
 8336SOL     OW36640   1.998   2.349   6.609 -0.1755  0.5725  0.2647
 8336SOL    HW136641   1.983   2.283   6.541  1.9118 -1.4476  1.7715
 8336SOL    HW236642   1.958   2.427   6.571 -0.0007  2.1483  3.2874
 8337SOL     OW36643   2.711   3.911   7.410 -0.4954  0.3240  0.0707
 8337SOL    HW136644   2.694   3.976   7.342 -0.9706 -1.3924 -1.4207
 8337SOL    HW236645   2.747   3.842   7.355  1.2337  0.2609  1.2729
 8338SOL     OW36646   3.027   1.704   5.609 -0.0196 -0.1320 -0.0686
 8338SOL    HW136647   3.119   1.685   5.626 -0.3383 -1.9116 -0.3457
 8338SOL    HW236648   3.007   1.782   5.661 -2.1218  0.0035 -1.0898
 8339SOL     OW36649   3.772   2.931   7.883  0.2270  0.5721 -0.0643
 8339SOL    HW136650   3.827   3.003   7.915 -1.3219  1.8148 -0.1940
 8339SOL    HW236651   3.707   2.980   7.833 -1.1706 -1.6350 -0.4238
 8340SOL     OW36652   1.070   4.094   5.325  0.1506 -0.1893 -0.2572
 8340SOL    HW136653   1.147   4.137   5.286  0.4639  1.3175  2.0249
 8340SOL    HW236654   1.079   4.087   5.420 -0.9975 -0.0900 -0.1423
 8341SOL     OW36655   0.745   0.431   4.258  0.4082  0.1222 -0.2586
 8341SOL    HW136656   0.695   0.510   4.238 -1.4175 -0.4299  2.1155
 8341SOL    HW236657   0.790   0.467   4.335 -0.0598  0.1893 -0.0134
 8342SOL     OW36658   3.474   3.012   6.419 -0.5599  0.8253  0.2476
 8342SOL    HW136659   3.435   2.950   6.480 -0.8982  0.7748 -0.0207
 8342SOL    HW236660   3.431   2.991   6.336 -1.0524  2.1316  0.1717
 8343SOL     OW36661   0.916   3.656   2.837  0.1617  0.3941 -0.4124
 8343SOL    HW136662   0.916   3.582   2.899 -2.4635  1.0764  0.3909
 8343SOL    HW236663   0.828   3.641   2.802 -0.0973 -0.9874  0.7905
 8344SOL     OW36664   3.734   0.984   1.971  0.2933  0.1247 -0.1182
 8344SOL    HW136665   3.676   1.014   2.041  0.9154 -1.6445  1.1680
 8344SOL    HW236666   3.818   0.992   2.017 -0.6849 -1.7378  2.0436
 8345SOL     OW36667   0.431   0.248   2.359  0.0923 -0.1295 -0.3458
 8345SOL    HW136668   0.433   0.165   2.406 -0.6613  0.2656  0.3826
 8345SOL    HW236669   0.473   0.229   2.275  0.2266 -0.4324 -0.2064
 8346SOL     OW36670   0.690   0.289  11.237  0.8722 -0.1315 -0.1047
 8346SOL    HW136671   0.595   0.294  11.246  0.8514 -0.7079 -0.0231
 8346SOL    HW236672   0.698   0.197  11.212  1.0873  0.5098 -2.4129
 8347SOL     OW36673   0.308   1.750  11.989 -0.4465 -0.2203  0.1287
 8347SOL    HW136674   0.321   1.692  11.914  2.4351  0.1458  0.3605
 8347SOL    HW236675   0.333   1.696  12.064  2.4098 -0.3305 -0.9103
 8348SOL     OW36676   0.144   2.344   8.735  0.2120  0.3159 -0.2626
 8348SOL    HW136677   0.088   2.371   8.808  0.1369  0.1973 -0.2767
 8348SOL    HW236678   0.072   2.295   8.695  0.8382 -0.8632  0.0594
 8349SOL     OW36679   3.725   1.154   1.755 -0.3416  0.0814 -0.0277
 8349SOL    HW136680   3.708   1.078   1.700  1.2744 -0.7816  0.6711
 8349SOL    HW236681   3.750   1.113   1.837  0.4092  0.8532  0.1317
 8350SOL     OW36682   2.765   4.461   9.335 -0.0136  0.5999 -0.0685
 8350SOL    HW136683   2.714   4.510   9.399  0.6734  0.2450  0.7538
 8350SOL    HW236684   2.783   4.386   9.391 -1.5471 -1.7700 -2.7865
 8351SOL     OW36685   2.743   3.722   4.898  0.1956 -0.0986 -0.0401
 8351SOL    HW136686   2.735   3.626   4.906 -0.3633  0.2471  3.6755
 8351SOL    HW236687   2.653   3.752   4.883 -0.5529 -1.4562  1.5265
 8352SOL     OW36688   0.385   4.619   6.629 -0.0781 -0.0960 -0.4746
 8352SOL    HW136689   0.364   4.526   6.632 -0.3550 -0.0300 -0.3098
 8352SOL    HW236690   0.410   4.629   6.721  1.2538 -2.1395 -0.6171
 8353SOL     OW36691   4.410   1.674   1.778 -0.0168  0.1342  0.4243
 8353SOL    HW136692   4.417   1.741   1.711  0.3119  2.3857  2.7127
 8353SOL    HW236693   4.497   1.634   1.780  0.5177  1.2931  0.6862
 8354SOL     OW36694   3.888   4.581  11.715 -0.3624  0.1162 -0.1628
 8354SOL    HW136695   3.978   4.594  11.686  0.1018  0.4886  1.4686
 8354SOL    HW236696   3.906   4.529  11.793  0.2783  0.8235  0.1606
 8355SOL     OW36697   1.971   2.081   8.312 -0.6237  0.1326 -0.5584
 8355SOL    HW136698   1.949   1.998   8.355 -0.6511  0.0705 -0.6913
 8355SOL    HW236699   1.928   2.140   8.374  0.6234 -0.5466  0.9543
 8356SOL     OW36700   4.465   4.098   8.024 -0.0139  0.0271  0.1989
 8356SOL    HW136701   4.392   4.145   8.065 -1.2755 -2.0813  0.3792
 8356SOL    HW236702   4.447   4.006   8.044  2.4231 -0.1777  1.4351
 8357SOL     OW36703   1.610   0.560   4.338  0.2904  0.6412 -0.3142
 8357SOL    HW136704   1.540   0.512   4.382  1.1138  0.4622  0.8031
 8357SOL    HW236705   1.564   0.621   4.280 -1.0564  0.8400  0.9648
 8358SOL     OW36706   2.327   3.594   3.011 -0.0366 -0.5751 -0.5913
 8358SOL    HW136707   2.260   3.553   3.066  0.2050 -0.1737 -0.0021
 8358SOL    HW236708   2.337   3.545   2.929 -0.3871  0.5971 -1.3457
 8359SOL     OW36709   4.256   4.305  17.067 -0.3079  0.0422 -0.0994
 8359SOL    HW136710   4.308   4.325  16.989 -0.3883 -2.1136 -0.6903
 8359SOL    HW236711   4.243   4.395  17.098  1.7020 -0.1644  1.3291
 8360SOL     OW36712   3.125   2.920   3.167  0.3886 -0.1502  0.2530
 8360SOL    HW136713   3.136   3.004   3.123 -1.6970  0.7439  1.4125
 8360SOL    HW236714   3.031   2.905   3.155  0.7239 -1.4892 -0.7044
 8361SOL     OW36715   0.432   2.315   3.117  0.4857 -0.2484  0.0411
 8361SOL    HW136716   0.461   2.406   3.129  0.2098 -0.1416 -0.0945
 8361SOL    HW236717   0.514   2.268   3.100 -0.1050 -0.7514 -1.4564
 8362SOL     OW36718   0.565   4.077  12.733  0.5729  0.0178 -0.2410
 8362SOL    HW136719   0.484   4.100  12.687 -0.7085  1.4584  2.7268
 8362SOL    HW236720   0.547   3.989  12.766  2.4996 -0.7793 -1.3265
 8363SOL     OW36721   1.147   4.315   3.727 -0.0316 -0.4531  0.3878
 8363SOL    HW136722   1.176   4.259   3.799  1.0573  1.4474  1.4331
 8363SOL    HW236723   1.211   4.301   3.657  1.7761 -1.7383  2.2639
 8364SOL     OW36724   3.802   3.825   5.476  0.2198 -0.1001  0.1379
 8364SOL    HW136725   3.754   3.751   5.514  0.9760 -0.6256  0.0710
 8364SOL    HW236726   3.748   3.845   5.400  0.6375  2.3088  0.4867
 8365SOL     OW36727   1.247   0.067   6.583 -0.5084 -0.8876  0.4148
 8365SOL    HW136728   1.166   0.056   6.633 -1.0801 -1.7616 -0.6971
 8365SOL    HW236729   1.271   0.154   6.615  0.6464 -1.5924  1.4488
 8366SOL     OW36730   1.596   1.203  16.249  0.2444  0.1642 -0.0252
 8366SOL    HW136731   1.568   1.172  16.163 -0.4116 -1.9565  0.9366
 8366SOL    HW236732   1.551   1.287  16.251  1.0120  0.5137  2.0990
 8367SOL     OW36733   1.242   2.614   4.727 -0.5041 -0.5654 -0.3704
 8367SOL    HW136734   1.330   2.600   4.761  0.3943  0.9412 -2.0850
 8367SOL    HW236735   1.247   2.658   4.642  0.9627  0.4729  0.2610
 8368SOL     OW36736   3.385   4.017  12.755  0.2235  0.1235 -0.1378
 8368SOL    HW136737   3.455   4.082  12.748  0.6029 -0.2433  0.2421
 8368SOL    HW236738   3.341   4.038  12.837 -1.7735 -0.8699 -0.9350
 8369SOL     OW36739   0.423   0.234   6.067 -0.3099 -0.1639 -0.3412
 8369SOL    HW136740   0.345   0.282   6.094  1.0156  0.3472  2.5333
 8369SOL    HW236741   0.470   0.301   6.018  0.3297  0.7094  1.4765
 8370SOL     OW36742   3.441   3.778   7.347 -0.1791 -0.4883 -0.0835
 8370SOL    HW136743   3.504   3.846   7.372 -0.2253 -0.9541  1.3034
 8370SOL    HW236744   3.489   3.710   7.299  0.8384 -0.9532  1.5784
 8371SOL     OW36745   2.048   0.189   8.678  0.3483  0.1974  0.9706
 8371SOL    HW136746   2.108   0.118   8.655  0.2747  1.1871 -2.3718
 8371SOL    HW236747   2.096   0.269   8.656  0.2489 -0.0562 -0.2117
 8372SOL     OW36748   2.928   0.261   5.158 -0.0955 -0.2973 -0.3648
 8372SOL    HW136749   2.949   0.290   5.070  0.1543  0.5840 -0.0131
 8372SOL    HW236750   2.851   0.317   5.167 -0.8073 -1.7688  2.6291
 8373SOL     OW36751   1.759   3.987   0.714 -0.3662 -0.3273  0.8552
 8373SOL    HW136752   1.668   4.016   0.716 -0.4791 -0.6654  0.6231
 8373SOL    HW236753   1.805   4.058   0.760 -1.1500  0.1353  0.9278
 8374SOL     OW36754   2.626   1.972   8.747  0.2240 -0.2728 -0.0066
 8374SOL    HW136755   2.716   1.968   8.780  0.4747  1.0420 -0.5451
 8374SOL    HW236756   2.596   1.889   8.786  1.5391 -0.7487 -0.0061
 8375SOL     OW36757   3.157   3.007   7.627  0.4832  0.2865  0.2939
 8375SOL    HW136758   3.245   3.045   7.618  0.5521 -0.2515 -1.3359
 8375SOL    HW236759   3.153   2.951   7.549  1.3695 -1.8780  1.7926
 8376SOL     OW36760   2.953   1.346  13.618  0.2058 -0.8703 -0.1465
 8376SOL    HW136761   2.939   1.390  13.534 -0.5447 -0.6297  0.1019
 8376SOL    HW236762   2.873   1.378  13.661  0.0558  1.2624 -1.9975
 8377SOL     OW36763   1.179   2.817   4.087  0.2251 -0.0639 -0.1523
 8377SOL    HW136764   1.106   2.795   4.029  1.3762 -1.1152 -1.2053
 8377SOL    HW236765   1.170   2.912   4.098 -0.8101 -0.1905  0.1238
 8378SOL     OW36766   1.880   3.248   6.297 -0.0925  0.2112  0.5686
 8378SOL    HW136767   1.943   3.214   6.234  2.4149  1.4814  2.4008
 8378SOL    HW236768   1.868   3.338   6.266 -2.6163 -0.6706 -1.0179
 8379SOL     OW36769   1.410   1.904   7.982  0.1834  0.1135  0.2990
 8379SOL    HW136770   1.432   1.811   7.974 -0.6803 -0.0675  0.1326
 8379SOL    HW236771   1.411   1.918   8.077 -1.1229  0.8852  0.1872
 8380SOL     OW36772   1.849   1.823   9.040  0.8457 -0.0014 -0.2440
 8380SOL    HW136773   1.811   1.782   9.118  0.7467  0.5357 -0.0094
 8380SOL    HW236774   1.933   1.777   9.034 -0.0606 -2.2143  3.8864
 8381SOL     OW36775   4.245   1.779   2.603 -0.0936 -0.0752  0.2559
 8381SOL    HW136776   4.245   1.741   2.516  0.5011  0.6124 -0.0390
 8381SOL    HW236777   4.304   1.854   2.593 -0.4900  0.5340  2.3614
 8382SOL     OW36778   1.390   1.526  15.950  0.2615 -0.0265 -0.2482
 8382SOL    HW136779   1.474   1.564  15.927 -0.6599  2.0951 -0.1370
 8382SOL    HW236780   1.363   1.507  15.860  1.4007  0.5830 -0.7215
 8383SOL     OW36781   1.753   2.439   9.008 -0.0459 -0.3250  0.5475
 8383SOL    HW136782   1.754   2.479   8.921  2.0938 -0.5573  0.4701
 8383SOL    HW236783   1.677   2.482   9.047  0.2394 -0.8427  1.6694
 8384SOL     OW36784   0.318   4.430   4.255  0.0180  0.3258  0.1840
 8384SOL    HW136785   0.408   4.459   4.265 -0.1545  0.4385  1.5281
 8384SOL    HW236786   0.269   4.473   4.326 -0.0365  1.2928 -0.4475
 8385SOL     OW36787   3.261   3.662  10.190  0.8073  0.0829  0.1288
 8385SOL    HW136788   3.266   3.575  10.150  0.0627 -1.0180  2.4032
 8385SOL    HW236789   3.329   3.711  10.145  1.5013  1.0643  2.2450
 8386SOL     OW36790   1.763   2.645   7.851 -0.1142 -0.2142 -0.2222
 8386SOL    HW136791   1.690   2.584   7.866 -0.2612 -0.1857 -0.8438
 8386SOL    HW236792   1.714   2.711   7.803 -1.0473 -2.7406 -2.7554
 8387SOL     OW36793   2.730   0.550  11.641 -0.0942  0.5680 -0.2178
 8387SOL    HW136794   2.724   0.467  11.688  0.2731  0.2883 -0.6615
 8387SOL    HW236795   2.787   0.521  11.569 -1.3553 -1.1215 -0.5356
 8388SOL     OW36796   2.481   1.551  14.430  0.0125 -0.1354 -0.2492
 8388SOL    HW136797   2.552   1.614  14.416 -0.2020  0.3427  0.8413
 8388SOL    HW236798   2.402   1.604  14.439 -0.3700 -0.8251  0.5412
 8389SOL     OW36799   2.888   4.418   1.939 -0.2362  0.6873  0.0288
 8389SOL    HW136800   2.902   4.338   1.889 -0.1803  0.8297 -0.1858
 8389SOL    HW236801   2.824   4.458   1.880 -0.7735 -0.5127 -0.2005
 8390SOL     OW36802   0.984   2.963   3.691 -0.0693 -0.3723  0.1667
 8390SOL    HW136803   1.078   2.954   3.676 -0.3920  0.0475 -2.0859
 8390SOL    HW236804   0.977   3.042   3.744  2.9303  1.6501 -2.4547
 8391SOL     OW36805   2.026   3.022   7.651 -0.2899 -0.1131 -0.3189
 8391SOL    HW136806   2.011   2.955   7.584 -2.6399 -0.4713  0.5788
 8391SOL    HW236807   2.080   3.082   7.600 -0.8632  0.3102 -0.4331
 8392SOL     OW36808   4.375   0.415   4.340 -0.5996 -0.5178  0.2226
 8392SOL    HW136809   4.394   0.367   4.259  1.3056  3.2979 -1.5910
 8392SOL    HW236810   4.450   0.474   4.337  0.1698 -1.3956  1.9218
 8393SOL     OW36811   3.469   3.902   7.049 -0.1445 -0.0675  0.0953
 8393SOL    HW136812   3.437   3.813   7.067  0.6306 -0.4399 -0.4107
 8393SOL    HW236813   3.394   3.957   7.024  2.5751  3.7890  0.4445
 8394SOL     OW36814   4.008   0.147   8.579 -0.1587 -0.0011  0.7814
 8394SOL    HW136815   4.048   0.234   8.584  1.1195 -0.5714  0.3977
 8394SOL    HW236816   3.938   0.163   8.641 -1.3758 -0.8718 -0.3629
 8395SOL     OW36817   0.492   2.796   5.420 -0.0649  0.9423  0.0045
 8395SOL    HW136818   0.424   2.799   5.488 -1.9000  0.5184 -1.8352
 8395SOL    HW236819   0.449   2.847   5.352 -0.2036  0.4276 -0.2929
 8396SOL     OW36820   2.000   3.907   0.600  0.4597  0.5334  0.7144
 8396SOL    HW136821   1.999   3.926   0.694  0.8434  0.6300  0.7003
 8396SOL    HW236822   1.917   3.936   0.562 -0.7229 -2.9607  0.6156
 8397SOL     OW36823   3.267   1.085   6.658 -0.6470 -0.4652  0.3298
 8397SOL    HW136824   3.269   1.101   6.753 -2.5352 -1.0706  0.4701
 8397SOL    HW236825   3.311   1.165   6.629 -0.2196 -0.6937  0.3506
 8398SOL     OW36826   1.553   1.829   0.463  0.1933 -0.1567 -0.2160
 8398SOL    HW136827   1.540   1.734   0.456 -0.3732 -0.0997  0.1872
 8398SOL    HW236828   1.642   1.832   0.500  0.2495  2.2098 -0.5919
 8399SOL     OW36829   1.515   0.962   6.798 -0.5854 -0.0493 -0.7715
 8399SOL    HW136830   1.426   0.993   6.784 -0.2225  1.1633 -0.3931
 8399SOL    HW236831   1.561   1.011   6.729 -1.7459 -0.0157 -1.5278
 8400SOL     OW36832   4.164   0.501   7.824  0.1396 -0.4416 -0.1830
 8400SOL    HW136833   4.189   0.534   7.737 -1.2661  1.1887  0.0324
 8400SOL    HW236834   4.156   0.406   7.812 -1.0386 -0.4048  0.3196
 8401SOL     OW36835   1.417   3.578   6.710  0.1504 -0.0670 -0.6545
 8401SOL    HW136836   1.422   3.617   6.622 -1.5356  2.6618  0.4603
 8401SOL    HW236837   1.448   3.489   6.692  0.1478 -0.4300  1.1496
 8402SOL     OW36838   3.432   3.621   6.365  0.3533  0.4158 -0.1653
 8402SOL    HW136839   3.426   3.690   6.299 -1.3643 -0.8309 -1.3279
 8402SOL    HW236840   3.385   3.653   6.442 -0.3357 -0.8692 -0.0358
 8403SOL     OW36841   0.233   4.003  14.590 -0.3063 -0.0252  0.5292
 8403SOL    HW136842   0.205   3.926  14.540  0.8245 -0.0538 -0.0842
 8403SOL    HW236843   0.188   4.071  14.540  0.1261  1.0118  1.5609
 8404SOL     OW36844   2.148   3.673   8.638  0.3260 -0.2577 -0.1230
 8404SOL    HW136845   2.225   3.692   8.585  0.5184  0.3168  0.3666
 8404SOL    HW236846   2.170   3.704   8.726 -1.7500 -0.8451  0.6101
 8405SOL     OW36847   1.378   2.600   2.860 -0.0925 -0.1124  0.9264
 8405SOL    HW136848   1.327   2.579   2.937 -0.1167  0.8839  1.1900
 8405SOL    HW236849   1.407   2.689   2.882  0.3070  0.0607 -0.2796
 8406SOL     OW36850   1.808   3.587   7.447  0.0748 -0.0619 -0.5493
 8406SOL    HW136851   1.810   3.604   7.541 -1.8414 -1.6239 -0.2329
 8406SOL    HW236852   1.720   3.550   7.438  0.9226 -2.1930 -0.0428
 8407SOL     OW36853   0.690   3.548  14.196  0.2196 -0.0058 -0.3034
 8407SOL    HW136854   0.631   3.595  14.137 -2.2356 -0.6006  1.6609
 8407SOL    HW236855   0.767   3.606  14.204  0.8794 -1.0239  0.7166
 8408SOL     OW36856   0.420   3.019   4.720  0.1147 -0.2102  0.0995
 8408SOL    HW136857   0.333   3.005   4.683  0.3729 -0.0914 -0.5554
 8408SOL    HW236858   0.462   3.078   4.657  0.2605  0.6834  1.0343
 8409SOL     OW36859   0.979   1.069  16.774 -0.5167 -0.2872  0.3876
 8409SOL    HW136860   0.960   1.161  16.754  0.1064  0.3037  2.5654
 8409SOL    HW236861   1.032   1.058  16.695 -0.5366 -0.6389  0.4232
 8410SOL     OW36862   3.301   1.250   1.152  0.1706 -0.1533 -0.2148
 8410SOL    HW136863   3.393   1.269   1.135  0.7072 -2.1021  0.4761
 8410SOL    HW236864   3.301   1.277   1.244  1.3385  0.5535 -0.4364
 8411SOL     OW36865   3.819   3.872  13.472 -0.0132  0.7587 -0.5509
 8411SOL    HW136866   3.911   3.845  13.469  0.3842  2.2709 -1.9617
 8411SOL    HW236867   3.791   3.826  13.551 -0.2736  0.9049 -0.5601
 8412SOL     OW36868   1.426   0.699   3.328 -0.1131  0.3368  0.3665
 8412SOL    HW136869   1.348   0.690   3.272  0.8370 -0.6792 -0.7861
 8412SOL    HW236870   1.491   0.668   3.265 -1.0394 -2.0579  0.5961
 8413SOL     OW36871   1.770   2.940  14.675 -0.2992  0.0014  0.1759
 8413SOL    HW136872   1.682   2.924  14.709 -0.6662  0.4645 -0.5508
 8413SOL    HW236873   1.783   3.029  14.706  0.5897 -0.7325  1.9280
 8414SOL     OW36874   3.068   2.794   0.545 -0.6676  0.6028  0.1339
 8414SOL    HW136875   3.095   2.734   0.615 -1.0901  0.3725  0.0963
 8414SOL    HW236876   3.145   2.777   0.490  0.3168 -3.0028  2.6692
 8415SOL     OW36877   3.013   4.215   8.081  0.5788 -0.1671 -0.3350
 8415SOL    HW136878   3.097   4.242   8.045  0.7509 -0.5276 -0.2015
 8415SOL    HW236879   3.042   4.180   8.166  1.0760 -1.1002 -0.8940
 8416SOL     OW36880   4.457   1.928   9.838  0.2191 -0.1303  0.1661
 8416SOL    HW136881   4.408   1.989   9.782 -0.8397 -0.4221  0.7697
 8416SOL    HW236882   4.439   1.841   9.802 -0.0720 -0.2829  0.6800
 8417SOL     OW36883   1.848   3.974   3.836 -0.1552  0.3505  0.0292
 8417SOL    HW136884   1.909   3.905   3.860 -0.3186 -0.0672 -0.7494
 8417SOL    HW236885   1.888   4.008   3.755 -0.6446  0.4017 -0.1899
 8418SOL     OW36886   1.646   3.303   2.050  0.3012  0.4671 -0.9266
 8418SOL    HW136887   1.641   3.217   2.009  1.3140 -0.9391  1.9308
 8418SOL    HW236888   1.592   3.291   2.128  1.2734  1.4853 -0.1011
 8419SOL     OW36889   4.545   0.116   6.822 -0.5965  0.2625  0.3063
 8419SOL    HW136890   4.468   0.073   6.787 -1.4930  3.1891 -1.2978
 8419SOL    HW236891   4.531   0.144   6.913 -1.9558  0.4307  0.0389
 8420SOL     OW36892   4.301   4.175   0.432  0.1660 -0.3348 -0.6728
 8420SOL    HW136893   4.310   4.254   0.486  0.0826 -0.3475 -0.6417
 8420SOL    HW236894   4.359   4.198   0.359  2.0530  3.6200  2.0316
 8421SOL     OW36895   4.487   3.071  12.068  0.3890 -0.4432 -0.2975
 8421SOL    HW136896   4.528   3.003  12.014 -1.0119 -1.4215 -0.1122
 8421SOL    HW236897   4.561   3.101  12.122  0.2101 -0.1722 -0.2059
 8422SOL     OW36898   3.898   1.411  10.485  0.1533  0.1850 -0.0966
 8422SOL    HW136899   3.921   1.325  10.449 -0.8328  0.2807 -0.9285
 8422SOL    HW236900   3.903   1.400  10.580 -0.8761 -0.6318 -0.1475
 8423SOL     OW36901   1.680   1.077   2.147  0.7942 -1.0110  0.5678
 8423SOL    HW136902   1.690   1.149   2.085  0.0367 -1.6597 -0.3146
 8423SOL    HW236903   1.719   1.127   2.218 -3.2631 -0.4125  2.3547
 8424SOL     OW36904   3.941   3.922   1.172  0.6193  0.5417  0.0860
 8424SOL    HW136905   4.002   3.931   1.245  0.0214  3.2249  0.2633
 8424SOL    HW236906   4.003   3.891   1.106  1.8568 -0.6771  1.8496
 8425SOL     OW36907   4.379   1.098   9.443 -0.2386  0.2310  0.0939
 8425SOL    HW136908   4.464   1.119   9.403 -1.1538  0.5500 -1.6532
 8425SOL    HW236909   4.344   1.023   9.396  1.4027 -1.4916  1.6065
 8426SOL     OW36910   2.661   2.843   7.382 -0.0541 -0.0823  0.2244
 8426SOL    HW136911   2.729   2.779   7.404  0.6608 -0.6928 -3.8242
 8426SOL    HW236912   2.586   2.801   7.425  0.9274 -2.9563 -0.8839
 8427SOL     OW36913   0.006   2.748   2.709  0.5003  0.1050 -0.5306
 8427SOL    HW136914   0.059   2.758   2.629  2.9463  0.1020  1.1014
 8427SOL    HW236915   0.036   2.662   2.740  0.0518  0.3561  0.5835
 8428SOL     OW36916   0.863   4.673   5.895 -0.1395 -0.0571  0.3437
 8428SOL    HW136917   0.774   4.695   5.867 -1.5285 -2.4921  2.9518
 8428SOL    HW236918   0.905   4.728   5.828  1.0893 -0.1584  1.0360
 8429SOL     OW36919   2.290   0.212   5.174 -0.3235 -0.2341  0.0416
 8429SOL    HW136920   2.198   0.239   5.177 -0.3891 -0.7955  3.1267
 8429SOL    HW236921   2.285   0.144   5.241  1.2490  0.7015  1.1093
 8430SOL     OW36922   1.644   2.680   1.904  0.4041 -0.7420  0.3148
 8430SOL    HW136923   1.620   2.661   1.813  1.1131  0.0612 -0.0447
 8430SOL    HW236924   1.615   2.602   1.950  2.2878 -0.6854  1.6311
 8431SOL     OW36925   3.440   3.533   2.785  0.1493  0.0772  0.2285
 8431SOL    HW136926   3.363   3.580   2.755  0.8494  1.5721  0.7503
 8431SOL    HW236927   3.425   3.456   2.730  2.1432 -0.9911  1.1726
 8432SOL     OW36928   3.764   2.245   8.364 -1.2801 -0.4183 -0.0229
 8432SOL    HW136929   3.836   2.303   8.341 -0.8073 -1.0500 -0.1231
 8432SOL    HW236930   3.803   2.162   8.338 -1.3266 -0.1679 -0.9009
 8433SOL     OW36931   0.410   0.110   3.372 -0.2228  0.3787 -0.6908
 8433SOL    HW136932   0.391   0.056   3.449 -1.3341  2.0930  0.2195
 8433SOL    HW236933   0.474   0.053   3.329 -1.8898 -1.9466 -0.0962
 8434SOL     OW36934   1.691   3.110   7.883 -0.4309 -0.1332  0.3683
 8434SOL    HW136935   1.609   3.061   7.886 -0.9402  0.7015  0.0159
 8434SOL    HW236936   1.734   3.071   7.959 -0.9267 -0.8072  0.3007
 8435SOL     OW36937   2.536   2.149   5.899 -0.6050  0.1050  0.6563
 8435SOL    HW136938   2.464   2.212   5.891 -0.2098  0.6267  1.2572
 8435SOL    HW236939   2.566   2.147   5.808  2.9041  1.3977  1.7872
 8436SOL     OW36940   1.921   2.037   8.003  0.2163 -0.6518 -0.0317
 8436SOL    HW136941   1.910   2.044   8.098  0.9996  4.1951 -0.3050
 8436SOL    HW236942   2.016   2.022   7.998  0.5863  1.5185  0.7575
 8437SOL     OW36943   1.951   0.341  14.059  0.0949 -0.2680 -0.0543
 8437SOL    HW136944   1.931   0.367  14.149  0.1643 -2.0150  0.4770
 8437SOL    HW236945   1.861   0.334  14.029  0.2505  0.5845 -0.7265
 8438SOL     OW36946   2.721   2.161   6.109  0.5616 -0.3541  0.2754
 8438SOL    HW136947   2.732   2.072   6.078  2.9666 -0.4983  1.5460
 8438SOL    HW236948   2.649   2.179   6.049  0.9128  1.0431  0.2526
 8439SOL     OW36949   2.430   3.679   9.787  0.2302 -0.2637  0.4199
 8439SOL    HW136950   2.436   3.588   9.757 -0.8753 -0.7534  1.6834
 8439SOL    HW236951   2.359   3.710   9.731  1.4031  0.4743 -0.6541
 8440SOL     OW36952   2.863   1.857   3.348 -0.2966 -0.1741  0.1048
 8440SOL    HW136953   2.845   1.768   3.380 -1.0455 -0.3396 -0.7942
 8440SOL    HW236954   2.816   1.913   3.410  1.4482  0.9417  0.4211
 8441SOL     OW36955   1.463   4.727   2.640  0.0376 -0.0021 -0.4038
 8441SOL    HW136956   1.477   4.713   2.547  0.8398  2.8041 -0.7118
 8441SOL    HW236957   1.382   4.677   2.644 -0.4882  0.9165  0.8023
 8442SOL     OW36958   1.119   0.498   3.986  0.1149  0.3476  0.0505
 8442SOL    HW136959   1.200   0.528   3.945  1.0449 -0.8614  1.0508
 8442SOL    HW236960   1.052   0.562   3.958  0.4328  1.4871  1.8913
 8443SOL     OW36961   0.016   0.056   2.160  0.3264 -0.0525  0.0363
 8443SOL    HW136962   0.044   0.145   2.139  1.1952 -0.4118 -0.3170
 8443SOL    HW236963   0.017   0.005   2.079 -2.2535 -0.1990  0.1008
 8444SOL     OW36964   0.296   1.286   0.145  0.0781  0.1646  0.2027
 8444SOL    HW136965   0.313   1.378   0.163 -0.8199  0.6922 -1.5824
 8444SOL    HW236966   0.241   1.294   0.067  0.5242 -0.5300 -0.1861
 8445SOL     OW36967   3.117   3.206   6.785  0.5940  0.1818 -0.3880
 8445SOL    HW136968   3.047   3.271   6.784  0.5292  0.1225  0.0245
 8445SOL    HW236969   3.079   3.131   6.739  0.1990 -0.6085  1.2277
 8446SOL     OW36970   3.172   4.353   2.588  0.1986  0.1286  0.2107
 8446SOL    HW136971   3.143   4.272   2.630  1.6488 -0.5874 -0.1760
 8446SOL    HW236972   3.157   4.413   2.662  0.6397  0.7653 -0.2186
 8447SOL     OW36973   3.341   0.208  13.568  0.4312  0.3841  0.2477
 8447SOL    HW136974   3.284   0.188  13.642 -0.6666  1.6553 -0.2429
 8447SOL    HW236975   3.357   0.302  13.580  0.0911  0.4182  0.4417
 8448SOL     OW36976   4.232   4.356   5.279  0.5591 -0.7558 -0.5439
 8448SOL    HW136977   4.153   4.380   5.328  0.4074 -3.8224  0.7156
 8448SOL    HW236978   4.221   4.261   5.281 -0.8254 -0.6170 -2.3598
 8449SOL     OW36979   3.434   3.343   6.249 -0.2725  0.1010 -0.0527
 8449SOL    HW136980   3.438   3.439   6.254 -1.0539  0.1771 -0.8826
 8449SOL    HW236981   3.442   3.325   6.343 -2.2737  0.2900  0.1667
 8450SOL     OW36982   2.676   2.715  16.965 -0.1616  0.2824 -0.0976
 8450SOL    HW136983   2.731   2.659  17.020  0.3673 -2.1918 -3.1337
 8450SOL    HW236984   2.639   2.763  17.038 -0.1084 -1.3815  1.0320
 8451SOL     OW36985   3.625   1.011   6.112  0.0601  0.1956 -0.0138
 8451SOL    HW136986   3.634   1.051   6.026 -0.0809  0.4890  0.1074
 8451SOL    HW236987   3.702   1.039   6.161  0.9048  0.0596 -1.2682
 8452SOL     OW36988   2.855   0.592   4.713  0.0211 -0.9830 -0.2956
 8452SOL    HW136989   2.765   0.586   4.745  0.5112  0.9753  1.4828
 8452SOL    HW236990   2.851   0.685   4.691  0.3351 -1.4216 -2.1765
 8453SOL     OW36991   3.481   0.114   5.652  0.2227 -0.0992  0.3350
 8453SOL    HW136992   3.446   0.081   5.735  1.1034 -0.3766  0.6030
 8453SOL    HW236993   3.445   0.044   5.597 -0.1547  1.9692 -2.0124
 8454SOL     OW36994   3.764   2.704   8.211 -0.1865 -0.0227  0.1711
 8454SOL    HW136995   3.760   2.794   8.178 -0.0325 -0.2467 -0.4554
 8454SOL    HW236996   3.695   2.697   8.277  0.5822 -1.1947  0.8499
 8455SOL     OW36997   0.299   2.954  14.066 -0.1278 -0.3349  0.3929
 8455SOL    HW136998   0.287   2.956  14.161  1.5487  0.5333  0.5724
 8455SOL    HW236999   0.272   3.042  14.039  1.8226  0.1284 -0.0373
 8456SOL     OW37000   0.559   2.194   3.360 -0.1319  0.2803 -0.0230
 8456SOL    HW137001   0.514   2.266   3.315 -0.0837  0.0718 -0.4041
 8456SOL    HW237002   0.604   2.166   3.280  2.2456 -0.8231  1.7119
 8457SOL     OW37003   1.115   3.310   3.635  0.0928 -0.2210 -0.5419
 8457SOL    HW137004   1.031   3.311   3.589 -0.1886  0.4799 -0.0141
 8457SOL    HW237005   1.147   3.399   3.621  1.4208 -0.4167  1.1921
 8458SOL     OW37006   3.657   3.439  15.968  0.4496 -0.0828  0.6769
 8458SOL    HW137007   3.581   3.494  15.989  2.0115  1.0893  3.2942
 8458SOL    HW237008   3.670   3.470  15.878 -0.3643 -0.8213  0.3031
 8459SOL     OW37009   0.532   2.205  17.249 -0.3768 -0.1397  0.1705
 8459SOL    HW137010   0.558   2.139  17.313 -2.1843 -1.6276 -0.6182
 8459SOL    HW237011   0.584   2.280  17.277  2.0461 -1.4965 -0.7284
 8460SOL     OW37012   4.306   2.143   2.029 -0.1025 -0.2321  0.5907
 8460SOL    HW137013   4.273   2.132   1.940  1.1408  0.4656  0.0542
 8460SOL    HW237014   4.398   2.158   2.008  0.5227 -1.4884  2.4721
 8461SOL     OW37015   2.957   1.896   3.831  0.0057 -0.4168  0.0252
 8461SOL    HW137016   3.024   1.833   3.857 -2.4361 -3.0593 -0.0018
 8461SOL    HW237017   2.993   1.914   3.745 -0.4497  1.4727  0.2305
 8462SOL     OW37018   2.963   2.589   3.811 -0.5067 -0.2396  0.6673
 8462SOL    HW137019   2.873   2.619   3.802 -0.4893 -0.2109  0.5928
 8462SOL    HW237020   2.960   2.493   3.802 -0.4918 -0.2351  0.6157
 8463SOL     OW37021   2.720   1.678  14.249  0.1022  0.3569  0.0397
 8463SOL    HW137022   2.650   1.727  14.206  1.0193  1.9181  0.3260
 8463SOL    HW237023   2.759   1.740  14.310  0.7807  1.6869 -1.7692
 8464SOL     OW37024   2.780   4.495   2.709 -0.2286  0.5291  0.3986
 8464SOL    HW137025   2.825   4.579   2.698  0.1928  0.1553 -0.7055
 8464SOL    HW237026   2.714   4.507   2.641 -1.3483  4.0642  2.1462
 8465SOL     OW37027   0.249   1.098   4.666  0.1673  0.3464  0.5591
 8465SOL    HW137028   0.219   1.171   4.721 -2.0698  0.5351 -0.9343
 8465SOL    HW237029   0.343   1.114   4.652  0.1704 -1.4353 -1.4187
 8466SOL     OW37030   1.218   1.109   6.753 -0.0882 -0.2655 -0.0897
 8466SOL    HW137031   1.163   1.034   6.776 -0.8576  0.0740 -0.8480
 8466SOL    HW237032   1.227   1.081   6.662 -1.1347  1.9021 -0.8696
 8467SOL     OW37033   2.276   0.749  10.040 -0.1557 -0.3187  0.0569
 8467SOL    HW137034   2.350   0.765   9.982 -1.5095  4.1782 -0.4708
 8467SOL    HW237035   2.314   0.767  10.126 -0.3778  1.0605 -0.1357
 8468SOL     OW37036   4.689   3.052   0.281 -0.3460  0.0191 -0.1382
 8468SOL    HW137037   4.667   3.001   0.359  1.1907  2.6843  2.0262
 8468SOL    HW237038   4.717   2.982   0.223  0.5195 -1.9795  2.6982
 8469SOL     OW37039   4.290   2.339  17.194 -0.2534  0.5640  0.1579
 8469SOL    HW137040   4.352   2.339  17.122  2.1825  1.4929  2.2672
 8469SOL    HW237041   4.247   2.423  17.179 -0.0771  0.7367  0.6132
 8470SOL     OW37042   0.374   1.587  14.287 -0.0820  0.0579 -0.4962
 8470SOL    HW137043   0.385   1.494  14.268 -2.1636 -0.2906 -0.0479
 8470SOL    HW237044   0.279   1.577  14.296 -0.0376  0.4609  0.4428
 8471SOL     OW37045   4.359   1.850   6.332  0.4533 -0.7314  0.0840
 8471SOL    HW137046   4.310   1.768   6.323 -3.0400  1.2715  0.7823
 8471SOL    HW237047   4.369   1.868   6.239 -0.4593  0.1191  0.1594
 8472SOL     OW37048   4.645   4.042  10.921 -0.0738  0.3350 -0.3106
 8472SOL    HW137049   4.730   4.080  10.944 -0.8609  0.8657  1.7191
 8472SOL    HW237050   4.664   3.967  10.864  0.1080 -1.7281  2.4892
 8473SOL     OW37051   2.437   3.503   5.689  0.1846  0.3673 -0.5480
 8473SOL    HW137052   2.422   3.598   5.685  1.2421  0.5529 -0.0796
 8473SOL    HW237053   2.345   3.474   5.690  0.7199 -1.2768  0.5402
 8474SOL     OW37054   2.548   0.286  11.461 -0.6341 -0.5207 -0.2308
 8474SOL    HW137055   2.546   0.325  11.373 -0.5827  0.6079  0.2738
 8474SOL    HW237056   2.476   0.336  11.499 -0.9346  0.3506 -1.9221
 8475SOL     OW37057   4.595   3.528   4.809 -0.2328 -0.2078 -0.4784
 8475SOL    HW137058   4.521   3.589   4.802  0.1689  0.1661 -1.4363
 8475SOL    HW237059   4.646   3.549   4.731  0.4481  3.5087  0.9617
 8476SOL     OW37060   0.209   1.132   6.028 -0.3436 -0.0294 -0.3770
 8476SOL    HW137061   0.285   1.182   6.059 -0.5669 -0.7352  1.3574
 8476SOL    HW237062   0.243   1.093   5.948  0.9811 -1.5221  0.8875
 8477SOL     OW37063   1.039   4.106   5.590 -0.0304  0.2320  0.1411
 8477SOL    HW137064   1.052   4.036   5.654 -1.6579 -0.6646 -0.4978
 8477SOL    HW237065   0.993   4.161   5.653 -1.4562 -0.2448 -0.4745
 8478SOL     OW37066   2.621   0.593   3.870  0.2759  0.1281 -0.8531
 8478SOL    HW137067   2.532   0.607   3.838  0.0513  0.3352 -0.1138
 8478SOL    HW237068   2.642   0.664   3.930  0.3809 -1.1792  0.6655
 8479SOL     OW37069   2.494   3.136  11.638 -0.3304  0.3453 -0.7507
 8479SOL    HW137070   2.540   3.203  11.587  0.4648 -0.5473 -1.1941
 8479SOL    HW237071   2.472   3.188  11.715 -1.2583 -2.1281  0.6396
 8480SOL     OW37072   0.735   0.250   5.867 -0.2465 -0.2269 -0.5037
 8480SOL    HW137073   0.772   0.337   5.881 -1.7762  0.0451  1.9357
 8480SOL    HW237074   0.778   0.204   5.939  0.2463 -0.1336 -0.7426
 8481SOL     OW37075   2.512   2.228   8.678 -0.3991 -0.3864  0.1981
 8481SOL    HW137076   2.552   2.142   8.669 -2.4787 -1.5405  2.0318
 8481SOL    HW237077   2.422   2.214   8.650 -1.5793  2.0732  2.6811
 8482SOL     OW37078   2.394   2.443   7.444  0.3190 -0.4273 -0.0886
 8482SOL    HW137079   2.335   2.423   7.517  0.9347 -0.9580  0.2705
 8482SOL    HW237080   2.414   2.536   7.455 -2.3084  0.4570 -2.7598
 8483SOL     OW37081   1.806   1.936   3.649  0.0232  0.1364  0.0358
 8483SOL    HW137082   1.717   1.927   3.684  1.2357 -1.1969  2.7882
 8483SOL    HW237083   1.840   1.987   3.722  1.1779  0.7554 -0.9223
 8484SOL     OW37084   2.389   3.724   8.512  0.5671  0.5428  0.1863
 8484SOL    HW137085   2.429   3.667   8.446 -2.6231 -0.5609 -0.7791
 8484SOL    HW237086   2.467   3.771   8.542  1.9551 -0.9614 -1.0219
 8485SOL     OW37087   2.283   1.425   9.356  0.0110  0.7502 -0.8175
 8485SOL    HW137088   2.355   1.483   9.383  0.1754  1.3455 -2.5570
 8485SOL    HW237089   2.208   1.469   9.396  1.5888 -0.1260  3.1361
 8486SOL     OW37090   1.543   0.103  14.026 -0.0815 -0.2240 -0.9187
 8486SOL    HW137091   1.461   0.139  14.062  0.5889  0.6983 -0.3261
 8486SOL    HW237092   1.532   0.127  13.934  1.4345 -1.0215 -1.2903
 8487SOL     OW37093   1.101   0.955  16.998  0.2387  0.6887  0.5711
 8487SOL    HW137094   1.051   0.983  16.921  0.2603 -1.9681 -0.3802
 8487SOL    HW237095   1.187   0.952  16.954  0.0099  0.7881  0.1155
 8488SOL     OW37096   3.917   2.158   5.185 -0.4101  0.2211 -0.2055
 8488SOL    HW137097   3.841   2.106   5.158 -0.0566 -0.5670  0.3046
 8488SOL    HW237098   3.950   2.111   5.262  0.5787  0.3908 -0.5294
 8489SOL     OW37099   0.223   2.534   8.096 -0.3356 -0.4965  0.0839
 8489SOL    HW137100   0.270   2.461   8.139 -1.3545 -0.8570  0.5930
 8489SOL    HW237101   0.138   2.489   8.091  1.6229 -4.0104 -1.9537
 8490SOL     OW37102   4.287   2.182  13.606  0.0643 -0.0547  0.0153
 8490SOL    HW137103   4.303   2.215  13.518 -1.1034  1.0002  0.2000
 8490SOL    HW237104   4.342   2.231  13.667 -2.0276  2.0776  0.2306
 8491SOL     OW37105   4.350   2.316   4.216  0.1904 -0.5175 -0.3013
 8491SOL    HW137106   4.395   2.367   4.283 -1.8699  1.0205 -0.0651
 8491SOL    HW237107   4.421   2.300   4.153 -0.6454  1.8087 -1.8289
 8492SOL     OW37108   2.339   4.469   9.774 -0.2734  0.0876  0.1539
 8492SOL    HW137109   2.315   4.447   9.684 -0.5213  0.5911  0.1004
 8492SOL    HW237110   2.429   4.435   9.772 -1.2279 -2.4510  0.0977
 8493SOL     OW37111   4.278   1.899  12.742  0.2375  0.5393  0.2751
 8493SOL    HW137112   4.189   1.865  12.754  0.6334 -0.9703 -1.0508
 8493SOL    HW237113   4.328   1.869  12.818  0.5635  0.8372  0.1796
 8494SOL     OW37114   4.314   1.277   5.440  0.1076 -0.0020  0.3150
 8494SOL    HW137115   4.387   1.229   5.479  1.5448  1.0713 -1.0678
 8494SOL    HW237116   4.260   1.280   5.519 -2.4923 -0.9893 -1.4011
 8495SOL     OW37117   1.625   2.253   4.965 -0.1916  0.6015 -0.3354
 8495SOL    HW137118   1.645   2.280   5.055 -1.3611 -2.2398  0.7884
 8495SOL    HW237119   1.634   2.158   4.973  2.8498  1.0448  1.4881
 8496SOL     OW37120   2.699   2.361   8.137  0.0795  0.0392  0.8352
 8496SOL    HW137121   2.634   2.328   8.076  1.2490 -2.0461  0.7163
 8496SOL    HW237122   2.648   2.393   8.212 -0.1472 -2.5482  1.8141
 8497SOL     OW37123   1.112   2.210   9.382 -0.5047  0.5272 -0.3938
 8497SOL    HW137124   1.142   2.127   9.346 -0.8425  0.2683 -0.0794
 8497SOL    HW237125   1.177   2.278   9.362  1.3076 -1.3097 -0.6272
 8498SOL     OW37126   0.354   0.475  12.281  0.1608  0.0190  0.2022
 8498SOL    HW137127   0.307   0.448  12.360 -0.7165  1.1568  0.0714
 8498SOL    HW237128   0.365   0.569  12.297 -0.8723 -0.2319  2.4072
 8499SOL     OW37129   3.595   3.162   4.612  0.1191 -0.1592  0.4282
 8499SOL    HW137130   3.502   3.176   4.594 -0.0593 -3.7709 -1.5179
 8499SOL    HW237131   3.602   3.067   4.619  0.2501 -0.1927 -0.1186
 8500SOL     OW37132   4.719   2.519  11.627  0.9591 -0.6367 -0.6152
 8500SOL    HW137133   4.669   2.542  11.704  2.3067 -1.7363  0.6026
 8500SOL    HW237134   4.702   2.425  11.629 -0.1988 -0.4505 -1.6877
 8501SOL     OW37135   0.241   3.954   5.974 -0.2226  0.7768 -0.2732
 8501SOL    HW137136   0.318   3.972   6.029  0.2719  0.3192 -0.8147
 8501SOL    HW237137   0.276   3.897   5.905  1.2201  0.5010  0.6821
 8502SOL     OW37138   1.787   0.024  11.065 -0.4774  0.6672  0.5518
 8502SOL    HW137139   1.804   4.687  11.120 -0.8660 -0.5868 -1.0624
 8502SOL    HW237140   1.791   4.718  10.980  0.9912 -0.1551  1.0502
 8503SOL     OW37141   0.449   2.689   3.015 -0.0138  0.2528  0.0347
 8503SOL    HW137142   0.508   2.762   3.037 -0.2247 -0.2218  2.1406
 8503SOL    HW237143   0.475   2.676   2.923  1.3966  2.3325  0.1252
 8504SOL     OW37144   2.825   3.798  11.723 -0.0612  0.2275 -0.3792
 8504SOL    HW137145   2.884   3.860  11.681 -2.1890  0.4435 -3.0802
 8504SOL    HW237146   2.755   3.854  11.756  0.5301  2.0163 -2.1493
 8505SOL     OW37147   0.354   3.685  11.573  0.4943 -0.1848 -0.1610
 8505SOL    HW137148   0.329   3.595  11.551  0.6139  0.3117 -2.3706
 8505SOL    HW237149   0.338   3.686  11.667 -1.1912  0.4493 -0.4496
 8506SOL     OW37150   4.272   1.064  17.398 -0.6891  0.3083 -0.1061
 8506SOL    HW137151   4.204   1.002  17.371 -0.4121 -0.0667  0.0644
 8506SOL    HW237152   4.215   1.141  17.409 -0.9843  0.0909 -0.1096
 8507SOL     OW37153   4.374   3.059   2.303  0.3763 -0.2580  0.5403
 8507SOL    HW137154   4.336   3.017   2.380 -2.3062  0.0121 -0.6133
 8507SOL    HW237155   4.320   3.014   2.237 -1.3279 -1.3572  2.6727
 8508SOL     OW37156   1.436   1.669   6.896 -0.1488 -0.5014 -0.2509
 8508SOL    HW137157   1.346   1.675   6.866 -0.3162 -1.1920  0.1087
 8508SOL    HW237158   1.415   1.647   6.987  2.2047  1.5523  0.7930
 8509SOL     OW37159   3.130   1.052   3.003 -0.3368 -0.5065  0.9473
 8509SOL    HW137160   3.141   0.961   2.978  0.0394 -0.1669 -0.1306
 8509SOL    HW237161   3.072   1.084   2.933  1.5769 -0.8307 -0.7921
 8510SOL     OW37162   2.230   1.939   8.236 -0.3907 -0.3378 -0.2382
 8510SOL    HW137163   2.186   2.010   8.282  1.9297 -1.1126  3.1396
 8510SOL    HW237164   2.189   1.863   8.277 -0.1786 -1.0142 -1.2773
 8511SOL     OW37165   0.527   1.259   2.908  0.3220 -0.3623 -0.2768
 8511SOL    HW137166   0.579   1.323   2.860 -0.3009  1.1454  1.0530
 8511SOL    HW237167   0.549   1.281   2.999 -0.9507  0.0514 -0.0678
 8512SOL     OW37168   2.153   1.562   0.555 -0.8639 -0.0403 -0.3269
 8512SOL    HW137169   2.075   1.601   0.594 -0.0288 -0.1124  1.4368
 8512SOL    HW237170   2.149   1.584   0.462  0.1185  2.3787  0.1847
 8513SOL     OW37171   0.595   3.381  17.141 -0.0861  0.3144 -0.5717
 8513SOL    HW137172   0.625   3.462  17.182  0.2032  0.6426 -1.4401
 8513SOL    HW237173   0.556   3.417  17.062  1.9222  1.2445 -1.1161
 8514SOL     OW37174   0.258   3.482   2.611  0.4771 -0.3340 -0.2333
 8514SOL    HW137175   0.194   3.537   2.566 -3.2590 -1.6873  3.4239
 8514SOL    HW237176   0.231   3.394   2.585 -0.9306  0.8134 -2.6887
 8515SOL     OW37177   0.528   2.252   2.819  0.0735 -0.1261  0.4685
 8515SOL    HW137178   0.575   2.172   2.844 -0.3727  0.2524  2.4872
 8515SOL    HW237179   0.591   2.322   2.837 -0.5848  0.9905 -1.5590
 8516SOL     OW37180   2.519   1.419   8.996  0.6855  0.2360  0.3623
 8516SOL    HW137181   2.434   1.459   8.976  0.4619  0.1043  1.0493
 8516SOL    HW237182   2.501   1.326   9.012 -1.2058  0.6440  0.5899
 8517SOL     OW37183   0.022   0.775   3.841 -0.1770  0.0284 -0.4345
 8517SOL    HW137184   0.079   0.760   3.916  0.5077 -0.4437 -1.0596
 8517SOL    HW237185   0.068   0.843   3.791  0.6131 -0.1873  0.0058
 8518SOL     OW37186   2.757   1.633   1.364 -0.1471  0.3720 -0.1226
 8518SOL    HW137187   2.790   1.567   1.302  2.2287  0.7004  0.7715
 8518SOL    HW237188   2.825   1.694   1.336 -0.4649  0.5184 -0.5604
 8519SOL     OW37189   1.505   2.746   8.874 -0.0787  0.0590 -0.1865
 8519SOL    HW137190   1.595   2.730   8.847  0.5796  1.9315  0.9051
 8519SOL    HW237191   1.497   2.840   8.857  2.5764  0.2834 -0.1222
 8520SOL     OW37192   2.773   1.923   8.345  0.3080  0.6253 -0.0707
 8520SOL    HW137193   2.750   2.014   8.359  1.2376  0.6991  0.9503
 8520SOL    HW237194   2.701   1.881   8.393  0.2495 -0.0670 -0.7665
 8521SOL     OW37195   1.053   1.428   4.890 -0.3046  0.1340  0.7213
 8521SOL    HW137196   1.080   1.501   4.946  0.4166 -0.5164  1.2188
 8521SOL    HW237197   0.998   1.471   4.825 -1.1493 -0.7193  0.8864
 8522SOL     OW37198   0.496   2.460   7.589 -0.3431  0.3057 -0.7889
 8522SOL    HW137199   0.564   2.527   7.586 -1.3025  1.3584  0.4113
 8522SOL    HW237200   0.545   2.382   7.612 -2.0994 -0.2385  1.1025
 8523SOL     OW37201   3.567   2.066   4.772  0.3360 -0.4071  0.2337
 8523SOL    HW137202   3.634   1.998   4.780 -0.5151 -1.2125  0.4801
 8523SOL    HW237203   3.554   2.060   4.678 -0.9999 -1.4667  0.4820
 8524SOL     OW37204   4.093   0.923  13.610 -0.4055  0.2560  0.2563
 8524SOL    HW137205   4.106   1.002  13.559 -1.7029  0.7832  0.7427
 8524SOL    HW237206   4.175   0.910  13.657 -1.3256  0.5808  1.9724
 8525SOL     OW37207   3.532   1.540   4.666 -0.0973 -0.0249  0.4900
 8525SOL    HW137208   3.551   1.446   4.678 -1.3725 -0.0444  2.3566
 8525SOL    HW237209   3.587   1.569   4.738 -2.0925 -1.2901  2.5231
 8526SOL     OW37210   2.103   1.264  11.530 -0.0809 -0.3731  0.4519
 8526SOL    HW137211   2.124   1.184  11.577 -1.1362 -1.7693 -1.4645
 8526SOL    HW237212   2.122   1.338  11.587 -0.2541  0.0203 -0.0004
 8527SOL     OW37213   4.322   1.467  11.582  0.2107 -0.4230 -0.2726
 8527SOL    HW137214   4.271   1.447  11.503  1.4764  1.2894 -1.5520
 8527SOL    HW237215   4.405   1.497  11.543 -0.1649  3.4093  1.8668
 8528SOL     OW37216   4.688   3.628   7.443  0.2736 -0.0293  0.3639
 8528SOL    HW137217   4.735   3.568   7.385  0.1943 -0.0890  0.3624
 8528SOL    HW237218   4.637   3.569   7.498  0.3365 -0.7431 -0.3359
 8529SOL     OW37219   1.082   0.256  10.618 -0.2664 -0.1175  0.3922
 8529SOL    HW137220   1.152   0.210  10.663 -0.2683 -0.1553  0.3572
 8529SOL    HW237221   1.131   0.335  10.596  1.4299 -1.4220 -0.5146
 8530SOL     OW37222   4.544   0.014   9.886 -0.2019  0.4036  0.3991
 8530SOL    HW137223   4.615   0.061   9.841 -0.9866  2.0688  0.8868
 8530SOL    HW237224   4.539   0.056   9.972 -1.1320  2.0539 -0.4665
 8531SOL     OW37225   2.630   1.757  15.855  0.5000 -0.1326 -0.6694
 8531SOL    HW137226   2.628   1.665  15.881  1.9421 -0.0091 -0.1159
 8531SOL    HW237227   2.726   1.760  15.854  0.6003 -2.7422  1.4286
 8532SOL     OW37228   0.342   3.435   6.460  0.2498 -0.1581 -0.1361
 8532SOL    HW137229   0.326   3.362   6.399 -0.8530 -1.5887  1.8598
 8532SOL    HW237230   0.339   3.499   6.389  0.1189 -1.3335 -1.1938
 8533SOL     OW37231   2.976   0.532   2.351 -0.9157  0.5716  0.2064
 8533SOL    HW137232   2.944   0.510   2.263  0.5739  0.2453 -0.2661
 8533SOL    HW237233   2.966   0.450   2.399  1.1429  1.1872  1.6865
 8534SOL     OW37234   4.175   1.393  12.647 -0.7275  0.7106 -0.4327
 8534SOL    HW137235   4.156   1.477  12.605  1.0363  2.0069  1.3746
 8534SOL    HW237236   4.181   1.415  12.740  0.8681  0.1181 -0.3926
 8535SOL     OW37237   4.486   1.816   5.016  0.2767 -0.0047 -0.5185
 8535SOL    HW137238   4.454   1.808   5.106 -0.2849  0.7121 -0.6588
 8535SOL    HW237239   4.423   1.873   4.972 -0.7381  1.7046  3.1563
 8536SOL     OW37240   2.733   3.391   0.886  0.9170  0.3859 -0.7854
 8536SOL    HW137241   2.663   3.423   0.828  0.1336 -0.7823 -0.4851
 8536SOL    HW237242   2.714   3.451   0.958  1.5746  0.7365 -0.9056
 8537SOL     OW37243   3.766   2.581   0.173 -0.6241  0.0632  0.5319
 8537SOL    HW137244   3.861   2.591   0.176 -0.7087  1.0957 -0.1777
 8537SOL    HW237245   3.744   2.589   0.265 -2.6014  0.9470 -0.0226
 8538SOL     OW37246   1.718   2.388   6.311 -0.6289  0.0637  0.2500
 8538SOL    HW137247   1.801   2.359   6.349 -0.6736  1.1248  1.1559
 8538SOL    HW237248   1.669   2.364   6.390 -2.0677 -0.8269 -0.9367
 8539SOL     OW37249   2.083   1.374   0.764 -0.1343 -0.1404 -0.1658
 8539SOL    HW137250   2.177   1.355   0.765  0.1180  0.9846 -2.2479
 8539SOL    HW237251   2.088   1.459   0.806 -2.1360 -0.0303 -0.1609
 8540SOL     OW37252   3.579   0.094   7.410 -0.1235  0.7175  0.0719
 8540SOL    HW137253   3.595   0.108   7.503  0.5967  0.6570 -0.0440
 8540SOL    HW237254   3.626   0.012   7.394 -0.1731  0.5865  0.6030
 8541SOL     OW37255   0.258   0.764   2.203 -0.0723  0.1018  0.5804
 8541SOL    HW137256   0.207   0.700   2.252  1.6785 -0.1173  2.1118
 8541SOL    HW237257   0.191   0.780   2.137  2.2277 -0.6556 -1.9473
 8542SOL     OW37258   4.046   3.953   7.156  0.2468  0.3826  0.1938
 8542SOL    HW137259   4.039   4.023   7.091 -1.1351  1.1251  1.1372
 8542SOL    HW237260   4.138   3.954   7.185  0.6277 -1.7751 -0.9296
 8543SOL     OW37261   2.931   0.490   5.597 -0.2919  0.4847  0.7081
 8543SOL    HW137262   2.950   0.424   5.530  1.1105  0.6823  0.8938
 8543SOL    HW237263   2.843   0.462   5.621  0.2452 -1.1269  0.7972
 8544SOL     OW37264   1.898   3.056   2.002  0.0073 -0.0375  0.2710
 8544SOL    HW137265   1.932   2.995   1.937 -1.9871 -1.5236  0.6371
 8544SOL    HW237266   1.888   3.003   2.081  0.1985  0.6841  0.7900
 8545SOL     OW37267   1.631   0.028   5.053  0.1524  0.5117 -0.3199
 8545SOL    HW137268   1.716   0.024   5.098 -0.6307  0.0000  1.1458
 8545SOL    HW237269   1.639   0.110   5.005 -0.5358  1.4637  1.1916
 8546SOL     OW37270   3.038   2.386   4.308 -0.0221  0.2815 -0.7514
 8546SOL    HW137271   2.952   2.399   4.268 -0.4589  1.0921  0.4502
 8546SOL    HW237272   3.053   2.477   4.334  0.0161 -0.1639  0.7486
 8547SOL     OW37273   4.136   2.701   5.600  0.0121 -0.4981  0.6469
 8547SOL    HW137274   4.149   2.792   5.628  0.7758 -0.5455  0.4492
 8547SOL    HW237275   4.099   2.721   5.514  0.2725  0.4803  0.7611
 8548SOL     OW37276   3.058   0.121   0.367  0.7062 -0.3672  0.1920
 8548SOL    HW137277   3.085   0.046   0.314  1.3917 -0.2661  0.3915
 8548SOL    HW237278   2.980   0.156   0.324  1.5987  0.5667 -0.6552
 8549SOL     OW37279   3.215   3.404  10.109  0.2590  0.2690  0.5235
 8549SOL    HW137280   3.237   3.360  10.191 -2.8473 -1.4049  0.4522
 8549SOL    HW237281   3.134   3.363  10.080  1.0252 -0.8827  0.0204
 8550SOL     OW37282   3.321   0.029   2.590 -0.0179  0.2945 -0.1267
 8550SOL    HW137283   3.253   4.731   2.647  1.0551 -1.6784 -0.1282
 8550SOL    HW237284   3.401   4.735   2.631 -0.0854  0.7706  0.3972
 8551SOL     OW37285   0.482   0.308  10.887  0.2768 -0.1818 -0.0275
 8551SOL    HW137286   0.574   0.306  10.914 -0.0090 -1.8173  0.8509
 8551SOL    HW237287   0.493   0.349  10.802 -1.6917  1.2793  0.4169
 8552SOL     OW37288   0.386   1.649  12.262  0.2432 -0.0563 -0.4178
 8552SOL    HW137289   0.363   1.642  12.354 -0.8811 -1.9274 -0.8435
 8552SOL    HW237290   0.357   1.564  12.228  3.2548 -0.6545 -1.5307
 8553SOL     OW37291   0.617   2.504   8.244 -0.4836 -0.8363  0.4112
 8553SOL    HW137292   0.568   2.441   8.192  0.7675 -0.7523 -0.8697
 8553SOL    HW237293   0.628   2.461   8.329 -0.6902  0.4111  1.0788
 8554SOL     OW37294   1.021   2.478   8.973 -0.5348  0.2183  0.1552
 8554SOL    HW137295   0.959   2.537   9.015 -1.7701 -0.2414 -1.0467
 8554SOL    HW237296   1.100   2.510   9.017 -0.7034 -0.0492  0.6560
 8555SOL     OW37297   4.469   3.214   3.712  0.3103  0.0259 -0.1203
 8555SOL    HW137298   4.390   3.163   3.696  0.8920 -1.4393  1.6707
 8555SOL    HW237299   4.533   3.169   3.657 -1.2059 -2.9220  0.5472
 8556SOL     OW37300   3.673   4.631  16.981 -0.1205 -0.3230 -0.1906
 8556SOL    HW137301   3.706   4.544  17.004 -0.2565 -0.7609 -1.6442
 8556SOL    HW237302   3.748   4.689  16.975  0.3007 -0.9342 -0.8835
 8557SOL     OW37303   1.901   2.766  14.446 -0.2800  0.3413 -0.0558
 8557SOL    HW137304   1.920   2.770  14.352 -1.9772  0.8260 -0.3666
 8557SOL    HW237305   1.806   2.773  14.443 -0.5210 -2.0514  3.1021
 8558SOL     OW37306   1.935   1.128   9.415  0.0581 -0.2563 -0.2968
 8558SOL    HW137307   2.015   1.078   9.433  0.3252 -0.0777 -0.9966
 8558SOL    HW237308   1.864   1.063   9.414 -0.2973  0.1098  1.1842
 8559SOL     OW37309   3.409   0.790   5.802  0.1381 -0.0499 -0.1858
 8559SOL    HW137310   3.338   0.732   5.829 -0.8950  1.2453 -0.1104
 8559SOL    HW237311   3.472   0.727   5.769 -1.1802 -1.0626 -0.7639
 8560SOL     OW37312   3.093   0.940   5.851  0.0462  0.7181 -0.7834
 8560SOL    HW137313   3.033   0.898   5.911  2.0324 -0.8573  0.1009
 8560SOL    HW237314   3.165   0.964   5.909 -0.6848 -0.3285  0.5376
 8561SOL     OW37315   0.460   4.587  10.560  0.2253 -0.2482 -0.3605
 8561SOL    HW137316   0.454   4.564  10.468  1.1936  0.9454 -0.7163
 8561SOL    HW237317   0.554   4.570  10.564 -0.1355 -2.5303 -1.7021
 8562SOL     OW37318   0.616   3.823   5.946  0.4502 -0.3129 -0.0171
 8562SOL    HW137319   0.668   3.852   6.021  2.0479  0.9596 -1.6292
 8562SOL    HW237320   0.689   3.806   5.887  0.5489 -2.3017  0.6662
 8563SOL     OW37321   2.848   0.354  11.853  0.1444  1.0645 -0.4515
 8563SOL    HW137322   2.931   0.308  11.867 -1.2248 -1.1332  0.5127
 8563SOL    HW237323   2.818   0.313  11.772 -1.1017  1.1238 -0.0216
 8564SOL     OW37324   1.853   0.013   5.193  0.1307 -0.0761 -0.3956
 8564SOL    HW137325   1.806   4.708   5.264 -0.4577  0.1390 -0.6444
 8564SOL    HW237326   1.891   4.672   5.158 -2.4731 -1.2221 -0.6034
 8565SOL     OW37327   3.972   4.732   1.605  0.6801  1.0422 -0.2325
 8565SOL    HW137328   4.027   0.053   1.656 -0.0985 -0.3625  2.2658
 8565SOL    HW237329   3.886   0.029   1.627  0.2382 -0.7368  0.9725
 8566SOL     OW37330   2.420   3.477   5.381  0.4962  0.6799  0.1420
 8566SOL    HW137331   2.462   3.520   5.455  3.1565 -1.8964  0.1141
 8566SOL    HW237332   2.369   3.409   5.426  1.0277  0.8344  0.9810
 8567SOL     OW37333   3.201   0.240  17.660  0.0840  0.1890 -0.2702
 8567SOL    HW137334   3.123   0.273  17.705  0.6879  1.1570  0.0537
 8567SOL    HW237335   3.165   0.159  17.622 -1.5919  0.6331  0.3754
 8568SOL     OW37336   1.378   1.437  16.196  0.3571 -0.1587 -0.4187
 8568SOL    HW137337   1.383   1.478  16.110  1.8352 -2.9472 -1.6294
 8568SOL    HW237338   1.336   1.513  16.238  0.2724  0.4498 -1.5888
 8569SOL     OW37339   2.714   3.141   4.738 -0.3123 -0.0636  0.0307
 8569SOL    HW137340   2.688   3.150   4.830 -0.2022  0.7997 -0.0239
 8569SOL    HW237341   2.801   3.181   4.741 -0.8544  1.0078  1.7594
 8570SOL     OW37342   3.489   3.668  13.354 -0.5048  0.2382  0.8695
 8570SOL    HW137343   3.413   3.720  13.380 -0.9035  0.0661  0.0308
 8570SOL    HW237344   3.461   3.645  13.265  0.5457  0.7313  0.4131
 8571SOL     OW37345   0.273   2.710   1.179 -0.7305 -0.1092  0.1758
 8571SOL    HW137346   0.300   2.668   1.261  0.6832  0.4729  0.0061
 8571SOL    HW237347   0.334   2.685   1.109 -1.9388  0.4764 -1.0909
 8572SOL     OW37348   2.944   1.592   2.928  0.0228  0.4652  0.3370
 8572SOL    HW137349   2.904   1.607   2.842  1.4364 -1.1880 -0.5986
 8572SOL    HW237350   2.880   1.539   2.975 -0.3195 -0.0809 -0.7465
 8573SOL     OW37351   2.932   1.608   0.331 -0.1811 -0.6928 -0.5514
 8573SOL    HW137352   2.985   1.547   0.280  2.1381  0.8652 -0.0063
 8573SOL    HW237353   2.882   1.547   0.385 -1.6544  0.0013 -1.1351
 8574SOL     OW37354   4.322   2.105   0.802 -0.0040  0.7077 -0.3024
 8574SOL    HW137355   4.329   2.055   0.721  1.3970 -2.4500  1.7530
 8574SOL    HW237356   4.267   2.178   0.774  0.7885  0.5660 -2.1849
 8575SOL     OW37357   3.085   0.697   1.439 -0.0995  0.0364 -0.4425
 8575SOL    HW137358   3.070   0.657   1.525 -0.1533  1.8964  0.4050
 8575SOL    HW237359   3.158   0.644   1.408 -0.4841 -2.4354  2.8645
 8576SOL     OW37360   4.657   2.439   4.671  0.3094  0.2875  0.2309
 8576SOL    HW137361   4.622   2.362   4.715 -1.8667 -0.1219 -2.1960
 8576SOL    HW237362   4.728   2.461   4.730 -0.7319  2.4463  0.6722
 8577SOL     OW37363   3.488   4.257  16.988  0.1722  0.6161  0.0053
 8577SOL    HW137364   3.581   4.277  16.979  0.2098 -0.9434 -3.0112
 8577SOL    HW237365   3.503   4.207  17.068  0.4775  1.8818  0.7474
 8578SOL     OW37366   2.978   3.244   2.111 -0.1023  0.3753  0.5006
 8578SOL    HW137367   2.906   3.289   2.067 -0.9781  0.1143  1.6577
 8578SOL    HW237368   2.930   3.204   2.184 -2.7534  1.6148 -0.5638
 8579SOL     OW37369   1.951   3.464   9.418 -0.0013 -0.1504  0.6287
 8579SOL    HW137370   1.927   3.375   9.391  1.5699 -1.1463  2.4183
 8579SOL    HW237371   1.906   3.515   9.352  1.1379  0.4636  0.3170
 8580SOL     OW37372   3.921   2.375   2.193 -0.7427 -0.1834  0.2326
 8580SOL    HW137373   3.904   2.315   2.120 -0.9933 -0.7872  0.7877
 8580SOL    HW237374   4.012   2.396   2.170 -1.3794  1.8704 -0.4715
 8581SOL     OW37375   0.794   3.868  10.415 -0.3179 -0.4814 -0.1154
 8581SOL    HW137376   0.770   3.792  10.363 -0.0446  0.5269 -1.7007
 8581SOL    HW237377   0.889   3.866  10.411 -0.2860  0.4677  0.2193
 8582SOL     OW37378   4.262   1.838  10.854  0.2140  0.0974  0.2670
 8582SOL    HW137379   4.288   1.896  10.783  0.4292  1.1283  1.1870
 8582SOL    HW237380   4.214   1.901  10.907  0.3595  0.7682 -0.4061
 8583SOL     OW37381   1.433   1.523   3.531 -0.3591  0.1669  0.3624
 8583SOL    HW137382   1.527   1.534   3.545 -0.3026 -0.6864  0.7133
 8583SOL    HW237383   1.383   1.605   3.532 -0.6632 -0.0254  1.3624
 8584SOL     OW37384   2.702   0.843   7.300  0.3664  0.3324 -0.4928
 8584SOL    HW137385   2.773   0.814   7.358 -0.4878 -1.1822 -0.1852
 8584SOL    HW237386   2.637   0.857   7.369 -1.6570  0.8745 -2.5057
 8585SOL     OW37387   0.421   2.749   6.385  0.1044 -0.2120 -0.1619
 8585SOL    HW137388   0.427   2.744   6.290 -1.0186 -0.5120 -0.2258
 8585SOL    HW237389   0.403   2.838   6.415 -1.6488 -0.7013  0.2532
 8586SOL     OW37390   4.424   3.989   7.548 -0.1287  0.1863 -0.1232
 8586SOL    HW137391   4.400   3.913   7.601 -3.0769  0.0776 -1.6013
 8586SOL    HW237392   4.517   3.975   7.532  0.5425  3.2767  1.2833
 8587SOL     OW37393   3.407   3.504  13.031  0.7265  0.1605  0.3700
 8587SOL    HW137394   3.345   3.577  13.035 -0.0147 -0.3140 -2.2408
 8587SOL    HW237395   3.492   3.548  13.034 -0.6080  2.4579  4.3232
 8588SOL     OW37396   4.303   2.709   6.645 -0.0608  0.3420  0.3325
 8588SOL    HW137397   4.291   2.800   6.671 -0.6795  0.8991 -1.8905
 8588SOL    HW237398   4.383   2.716   6.593 -0.8045 -3.1128 -1.3193
 8589SOL     OW37399   4.698   4.502   7.894  0.4372  0.3136 -0.1312
 8589SOL    HW137400   4.702   4.595   7.917 -1.3830  0.5838 -0.8714
 8589SOL    HW237401   4.644   4.458   7.960  1.0479 -2.3710 -1.4205
 8590SOL     OW37402   1.088   1.851   9.649 -0.2367 -0.3011 -0.3965
 8590SOL    HW137403   1.056   1.782   9.706  0.4687  0.9565  1.4974
 8590SOL    HW237404   1.077   1.922   9.712  0.6982  0.0249 -0.5930
 8591SOL     OW37405   1.616   4.155   3.694 -0.2071  0.0623 -0.0183
 8591SOL    HW137406   1.626   4.083   3.632  1.2371  1.4009 -1.3372
 8591SOL    HW237407   1.661   4.118   3.770 -0.3677 -1.0317 -0.4525
 8592SOL     OW37408   2.511   1.790   7.488  0.0057 -0.1133  0.5541
 8592SOL    HW137409   2.475   1.748   7.409  0.4467  0.8397 -0.1453
 8592SOL    HW237410   2.593   1.822   7.449  1.4085 -1.8046  2.0905
 8593SOL     OW37411   3.392   3.212   8.041 -0.3074  0.1875  0.0825
 8593SOL    HW137412   3.335   3.211   8.118 -0.5663  1.8180 -0.0911
 8593SOL    HW237413   3.407   3.119   8.025  0.7504  0.1813  1.1393
 8594SOL     OW37414   0.710   1.922   1.872 -0.3719 -0.9383  0.6842
 8594SOL    HW137415   0.781   1.869   1.910  0.8409  0.7976  0.8522
 8594SOL    HW237416   0.660   1.947   1.949 -0.8886 -1.8669  0.6537
 8595SOL     OW37417   3.228   3.433   8.049  0.4906  0.6685  0.3244
 8595SOL    HW137418   3.308   3.384   8.033  1.1485  1.4792  1.1150
 8595SOL    HW237419   3.161   3.365   8.043  0.8686  0.3127  0.1963
 8596SOL     OW37420   2.816   3.736  12.968  0.2397 -0.1726 -0.0710
 8596SOL    HW137421   2.890   3.679  12.945  0.9661  0.1253  1.5436
 8596SOL    HW237422   2.854   3.823  12.976 -1.8987  0.9099 -1.7779
 8597SOL     OW37423   3.361   1.178   3.061  0.5030 -0.9023 -0.0371
 8597SOL    HW137424   3.267   1.163   3.068  0.6757 -0.7637  2.6240
 8597SOL    HW237425   3.377   1.150   2.971  1.2866 -2.6752  0.6477
 8598SOL     OW37426   0.415   0.473   0.226 -0.1672 -0.1053 -0.2133
 8598SOL    HW137427   0.438   0.483   0.134  2.4324  0.0627  0.4602
 8598SOL    HW237428   0.320   0.457   0.218 -0.0115 -0.8273 -0.6544
 8599SOL     OW37429   1.038   1.679   4.082 -0.8099 -0.1460 -0.1126
 8599SOL    HW137430   1.039   1.771   4.053 -4.8634  0.2920  1.0374
 8599SOL    HW237431   0.945   1.659   4.068 -0.7062 -1.0998  0.6097
 8600SOL     OW37432   0.588   0.320   4.819 -0.0419 -0.1822 -0.4205
 8600SOL    HW137433   0.628   0.303   4.904 -0.8549  0.3252  0.0667
 8600SOL    HW237434   0.590   0.416   4.816 -3.8023 -0.0739  0.7498
 8601SOL     OW37435   1.482   4.062   2.617 -0.0760 -0.0526 -0.0549
 8601SOL    HW137436   1.568   4.098   2.592 -0.7740  2.4978  1.1639
 8601SOL    HW237437   1.441   4.139   2.657  0.5448  1.0313 -1.5273
 8602SOL     OW37438   0.914   0.644  16.090  0.0456 -0.3385 -0.2659
 8602SOL    HW137439   0.842   0.705  16.107  1.4058  0.8644  1.1952
 8602SOL    HW237440   0.878   0.577  16.033 -0.8701 -0.9109  1.0025
 8603SOL     OW37441   0.031   3.915   2.954  0.3852  0.4232  0.3655
 8603SOL    HW137442   0.011   3.842   3.014 -2.4663 -1.9110 -3.4383
 8603SOL    HW237443   4.690   3.914   2.902 -0.5787  3.4465  1.8088
 8604SOL     OW37444   1.199   0.835   0.818  0.3779 -0.2598 -0.0303
 8604SOL    HW137445   1.181   0.928   0.809  1.7592 -0.0867 -0.9187
 8604SOL    HW237446   1.145   0.797   0.748  1.2601 -0.8316 -0.4000
 8605SOL     OW37447   4.165   2.357   8.694  0.2065  0.2206  0.2178
 8605SOL    HW137448   4.091   2.296   8.697 -0.3356  0.7862 -1.9312
 8605SOL    HW237449   4.136   2.415   8.765 -1.5745 -0.1455 -0.2110
 8606SOL     OW37450   1.703   4.654   3.908 -0.1452 -0.4248  0.1509
 8606SOL    HW137451   1.672   4.577   3.956 -1.0871  0.3389  0.7665
 8606SOL    HW237452   1.713   4.628   3.817  0.5733  1.2592 -0.2605
 8607SOL     OW37453   3.135   3.805   5.682 -0.5544 -0.0893 -0.8183
 8607SOL    HW137454   3.226   3.824   5.657 -1.0309  1.5338 -1.3123
 8607SOL    HW237455   3.097   3.891   5.666  1.4776  1.0616  0.4684
 8608SOL     OW37456   0.456   2.026   3.559 -0.0788  0.5191  0.2946
 8608SOL    HW137457   0.488   2.060   3.475  0.8078  0.2959  0.5424
 8608SOL    HW237458   0.389   2.092   3.573 -0.6645 -0.2329  0.9872
 8609SOL     OW37459   4.385   3.247  11.906  0.4939 -1.0326  0.7193
 8609SOL    HW137460   4.326   3.178  11.876 -0.6262  0.5720 -0.7941
 8609SOL    HW237461   4.442   3.195  11.962 -1.3570 -1.5889  2.0839
 8610SOL     OW37462   1.369   2.537   3.730 -0.2778  0.2777 -0.3363
 8610SOL    HW137463   1.315   2.574   3.661  0.1457 -0.7137 -1.2028
 8610SOL    HW237464   1.342   2.581   3.810  1.9974  0.4374  0.3590
 8611SOL     OW37465   1.166   2.036  12.571 -0.0729 -0.1655 -0.1432
 8611SOL    HW137466   1.259   2.043  12.548  0.0387 -0.0843  0.3296
 8611SOL    HW237467   1.172   2.072  12.660 -2.2882  0.2694 -0.1659
 8612SOL     OW37468   3.670   2.017   8.112  0.4060 -0.0006  0.0725
 8612SOL    HW137469   3.729   1.942   8.102  1.0389  0.5626 -0.3899
 8612SOL    HW237470   3.723   2.088   8.078 -1.7776  1.7323  0.3287
 8613SOL     OW37471   2.761   0.220  11.633  0.3727 -0.0982 -0.1152
 8613SOL    HW137472   2.830   0.209  11.567  1.4906  0.1999  1.0009
 8613SOL    HW237473   2.691   0.253  11.577 -0.4889 -1.0620  0.3907
 8614SOL     OW37474   3.627   3.274  11.710 -0.2252 -0.2921 -0.2406
 8614SOL    HW137475   3.680   3.353  11.706 -1.8404  0.8201  0.2206
 8614SOL    HW237476   3.553   3.296  11.767  1.7637 -0.3357  2.3561
 8615SOL     OW37477   1.754   0.972   3.043  0.2563  0.3924 -0.7095
 8615SOL    HW137478   1.808   1.048   3.020  4.1126 -1.8534  0.7459
 8615SOL    HW237479   1.803   0.936   3.117 -2.4205 -0.0094  0.8226
 8616SOL     OW37480   4.510   2.904  11.656 -0.3607 -0.6671  0.4857
 8616SOL    HW137481   4.564   2.982  11.671 -0.8068 -0.1519 -0.5999
 8616SOL    HW237482   4.432   2.939  11.700 -0.5010  1.0354 -1.1183
 8617SOL     OW37483   0.857   1.607   3.231  0.2413 -0.3992  0.1864
 8617SOL    HW137484   0.849   1.518   3.197 -2.2573  0.5236 -1.6942
 8617SOL    HW237485   0.951   1.620   3.220  0.5185 -0.6550  2.2904
 8618SOL     OW37486   1.264   0.898   8.292  0.0802 -0.3752 -0.4530
 8618SOL    HW137487   1.175   0.927   8.313  0.4982 -0.0200  0.8133
 8618SOL    HW237488   1.301   0.980   8.260 -1.5211  1.0183  1.3042
 8619SOL     OW37489   3.337   2.667  16.588  0.6342  0.2466 -0.3725
 8619SOL    HW137490   3.390   2.745  16.606  1.4415 -0.1925 -0.8474
 8619SOL    HW237491   3.372   2.638  16.504  2.9152  2.6812 -0.2595
 8620SOL     OW37492   3.877   3.778   2.013 -0.6060  0.3536  0.0221
 8620SOL    HW137493   3.870   3.871   2.037  0.1014  0.3169  0.3733
 8620SOL    HW237494   3.853   3.787   1.921  2.4406  0.2158 -0.7939
 8621SOL     OW37495   4.658   4.601   0.242  0.0678  0.0343 -0.1071
 8621SOL    HW137496   4.710   4.544   0.184  0.1177  0.3286 -0.3543
 8621SOL    HW237497   4.728   4.628   0.301 -0.1121  0.2462  0.0115
 8622SOL     OW37498   1.675   1.793   7.755 -0.0063 -0.1338  0.0910
 8622SOL    HW137499   1.600   1.851   7.740 -1.3361 -1.3352  2.0979
 8622SOL    HW237500   1.674   1.770   7.848  1.7160  0.3511  0.2318
 8623SOL     OW37501   1.158   2.154   6.550  0.4282  0.1372  0.5414
 8623SOL    HW137502   1.192   2.243   6.541 -2.6517  1.0202 -2.2377
 8623SOL    HW237503   1.086   2.152   6.487  0.9116 -0.7489  0.0122
 8624SOL     OW37504   0.975   1.641   7.955 -0.0954  0.4316  0.0037
 8624SOL    HW137505   0.912   1.643   8.028 -0.3663  3.0745 -0.2813
 8624SOL    HW237506   1.051   1.606   8.001 -0.2749  0.3504  0.2399
 8625SOL     OW37507   2.924   3.609   3.587 -0.6546 -0.1155  0.4624
 8625SOL    HW137508   2.881   3.686   3.623 -3.1510 -1.5348  0.5528
 8625SOL    HW237509   3.014   3.640   3.575 -0.5287 -0.9547 -0.7890
 8626SOL     OW37510   1.237   1.114   7.547  0.0572 -0.1300  0.4082
 8626SOL    HW137511   1.303   1.048   7.526  1.1560  0.9109  0.6420
 8626SOL    HW237512   1.255   1.123   7.641  0.4597 -1.6286  0.4890
 8627SOL     OW37513   0.342   1.289   5.527  0.7510  0.1685  0.1559
 8627SOL    HW137514   0.257   1.250   5.504  0.2258  2.5727 -2.0571
 8627SOL    HW237515   0.398   1.235   5.471 -0.4044  0.5488 -1.3723
 8628SOL     OW37516   1.462   3.704   1.462 -0.1487  0.5114 -0.2016
 8628SOL    HW137517   1.552   3.734   1.454  0.3064 -0.8075  0.1047
 8628SOL    HW237518   1.481   3.617   1.497  1.7105  1.1459  0.3340
 8629SOL     OW37519   0.278   2.149  13.824 -0.2980  0.0142  0.0715
 8629SOL    HW137520   0.248   2.214  13.888  1.1386  0.7432  0.0081
 8629SOL    HW237521   0.329   2.204  13.764  1.1166 -1.5241 -0.1200
 8630SOL     OW37522   0.294   2.550   7.043  0.1894 -0.6061  0.2606
 8630SOL    HW137523   0.321   2.532   7.133  1.4361 -1.8430 -0.3577
 8630SOL    HW237524   0.321   2.467   7.002 -0.6774 -0.5004 -0.5350
 8631SOL     OW37525   1.995   1.579   3.090 -0.0779  0.1223 -0.1013
 8631SOL    HW137526   1.983   1.567   3.184  0.1135 -0.5415 -0.1566
 8631SOL    HW237527   2.063   1.645   3.095 -0.2706  0.4222 -1.2574
 8632SOL     OW37528   1.052   3.934   6.071 -0.1969  0.1639  0.0098
 8632SOL    HW137529   1.114   3.957   6.139 -1.8912  1.0899  1.2446
 8632SOL    HW237530   1.019   3.850   6.103 -1.5259 -0.3109 -2.5613
 8633SOL     OW37531   2.644   1.069   6.323  0.4498 -0.0007 -0.0563
 8633SOL    HW137532   2.711   1.004   6.304  0.5502 -0.1673  0.8420
 8633SOL    HW237533   2.683   1.132   6.384 -3.0590  3.3772 -1.2530
 8634SOL     OW37534   3.765   3.900  14.982 -0.4820 -0.1963 -0.3319
 8634SOL    HW137535   3.736   3.843  14.911 -2.0951  0.1649  0.0434
 8634SOL    HW237536   3.761   3.982  14.933  1.4201 -0.6731 -1.2849
 8635SOL     OW37537   4.305   3.563   3.827 -0.6665  0.1938  0.2524
 8635SOL    HW137538   4.360   3.536   3.901  0.9849  0.4157 -0.8841
 8635SOL    HW237539   4.223   3.526   3.859 -1.3409 -1.3934 -3.3377
 8636SOL     OW37540   2.188   4.234   2.417 -0.1385  0.0922  0.3369
 8636SOL    HW137541   2.279   4.208   2.427 -0.7153 -1.6959  0.8553
 8636SOL    HW237542   2.133   4.159   2.440  0.6349 -0.1749  1.3070
 8637SOL     OW37543   3.853   1.734   1.676  0.1776 -0.4976 -0.2948
 8637SOL    HW137544   3.814   1.753   1.590  0.2681 -0.3714 -0.3070
 8637SOL    HW237545   3.943   1.765   1.668 -0.5510  1.5327 -0.3900
 8638SOL     OW37546   0.338   0.573   8.162  0.3480  0.5528 -0.1170
 8638SOL    HW137547   0.418   0.607   8.204  1.8278  1.8442 -3.9358
 8638SOL    HW237548   0.304   0.513   8.228  0.8224  1.6623  1.1427
 8639SOL     OW37549   2.024   1.597  15.772  0.4161 -0.2173 -0.1422
 8639SOL    HW137550   2.049   1.510  15.804  3.1160  0.7856  0.4440
 8639SOL    HW237551   2.103   1.649  15.785 -0.3616  1.1030 -0.6330
 8640SOL     OW37552   0.950   1.365   6.054 -0.1861 -0.8389 -0.0478
 8640SOL    HW137553   0.895   1.371   5.977 -1.4786  1.2393  1.0549
 8640SOL    HW237554   0.977   1.275   6.033 -1.6990 -1.1968 -0.4624
 8641SOL     OW37555   2.758   0.485   1.472  0.2909  0.1299 -0.0855
 8641SOL    HW137556   2.713   0.401   1.487  0.9601 -0.3230 -0.6428
 8641SOL    HW237557   2.805   0.480   1.389 -0.1360  3.2228 -0.4948
 8642SOL     OW37558   1.053   1.717   3.780 -0.6689  0.4985 -0.3466
 8642SOL    HW137559   1.052   1.705   3.875  0.2295  0.5521 -0.3291
 8642SOL    HW237560   1.118   1.788   3.773 -1.7215  1.6028  1.0706
 8643SOL     OW37561   4.057   3.742  13.491  0.1370 -0.3875 -0.2392
 8643SOL    HW137562   4.049   3.653  13.457  0.2196 -1.0608  1.4884
 8643SOL    HW237563   4.135   3.728  13.545 -1.0526  0.1913  1.6262
 8644SOL     OW37564   2.355   2.843   4.210 -0.3222  0.0864 -0.1655
 8644SOL    HW137565   2.327   2.778   4.274  0.1139  0.8662  0.8139
 8644SOL    HW237566   2.324   2.923   4.253 -0.1846 -1.3031  2.5384
 8645SOL     OW37567   4.406   2.779  16.116  0.2468  0.0997  0.1218
 8645SOL    HW137568   4.459   2.743  16.045  0.4451 -0.9558  0.8021
 8645SOL    HW237569   4.476   2.824  16.162 -0.2036  2.3337 -1.3711
 8646SOL     OW37570   3.979   4.512  12.014 -0.3691 -0.2205  0.0707
 8646SOL    HW137571   4.020   4.429  11.991  1.8183  0.4386  1.6108
 8646SOL    HW237572   4.053   4.573  12.014 -2.3344  2.1961 -2.0665
 8647SOL     OW37573   2.303   2.732   9.181  0.0961 -0.1267 -0.7028
 8647SOL    HW137574   2.366   2.677   9.135 -1.5491 -2.2851 -0.4316
 8647SOL    HW237575   2.300   2.673   9.257 -0.4109  1.3841  0.4398
 8648SOL     OW37576   1.798   0.044   5.905  0.0652  0.0974  0.1243
 8648SOL    HW137577   1.723   0.053   5.846  0.8388  0.1484 -0.8529
 8648SOL    HW237578   1.873   0.055   5.846 -0.1124 -1.9842 -0.5011
 8649SOL     OW37579   2.425   3.469   7.419  0.1535 -0.2695 -0.3510
 8649SOL    HW137580   2.431   3.544   7.360 -0.7621  0.3268  0.3109
 8649SOL    HW237581   2.445   3.399   7.357  1.0785 -2.6526  2.6204
 8650SOL     OW37582   2.295   3.332  10.386 -0.3865  0.0873  0.2528
 8650SOL    HW137583   2.220   3.372  10.429 -1.3556 -1.1938 -0.2268
 8650SOL    HW237584   2.350   3.406  10.361 -1.1777  0.7307  0.4424
 8651SOL     OW37585   2.084   4.566   6.611  0.8380 -0.4978 -0.6971
 8651SOL    HW137586   2.076   4.475   6.584 -0.4310 -0.4930 -0.3493
 8651SOL    HW237587   2.049   4.555   6.699  0.0384 -0.0186 -0.9544
 8652SOL     OW37588   2.623   0.622   3.318  0.0998  0.0774 -0.5561
 8652SOL    HW137589   2.676   0.627   3.239  1.0029  0.4962  0.0731
 8652SOL    HW237590   2.548   0.571   3.286  0.3617  0.2668 -1.4509
 8653SOL     OW37591   1.192   4.123  14.429 -0.6711  0.1071 -0.2261
 8653SOL    HW137592   1.145   4.178  14.492  0.2571  2.3903 -1.4877
 8653SOL    HW237593   1.117   4.110  14.371  0.2087 -0.8296 -1.1415
 8654SOL     OW37594   1.867   1.245   9.187  0.5277  0.3332 -0.0692
 8654SOL    HW137595   1.904   1.207   9.266  0.8035 -0.3281 -0.5176
 8654SOL    HW237596   1.901   1.334   9.181 -4.0650  2.1615  1.1699
 8655SOL     OW37597   1.988   0.594   2.996  1.0801  0.0235 -0.1159
 8655SOL    HW137598   1.962   0.667   2.941  2.3245  0.9625  0.5518
 8655SOL    HW237599   1.928   0.526   2.965 -0.0854  2.0334 -2.2705
 8656SOL     OW37600   0.721   0.473  11.456 -0.3032 -0.1417 -0.1750
 8656SOL    HW137601   0.754   0.404  11.399  0.8990  0.0555  0.2728
 8656SOL    HW237602   0.631   0.442  11.450  0.1307 -1.4745  0.3185
 8657SOL     OW37603   2.012   0.823   0.904  0.5511  0.0851  0.4219
 8657SOL    HW137604   2.064   0.881   0.959  0.4019 -0.2194  0.8768
 8657SOL    HW237605   2.032   0.879   0.828 -0.5194  0.1431  0.1827
 8658SOL     OW37606   4.664   3.331   2.816 -0.3849 -0.3359 -0.0165
 8658SOL    HW137607   4.727   3.274   2.772  1.4890  0.6004  1.4625
 8658SOL    HW237608   4.611   3.363   2.742 -2.2948  0.4997  1.6922
 8659SOL     OW37609   4.067   3.396   8.054 -0.0430  0.5137  0.2066
 8659SOL    HW137610   4.055   3.475   8.106  2.2337 -0.4694  2.2156
 8659SOL    HW237611   4.055   3.436   7.968 -0.0850 -0.1190 -0.0889
 8660SOL     OW37612   2.348   0.988   8.527 -0.0691  0.4028 -0.2609
 8660SOL    HW137613   2.313   1.077   8.529  1.7171  1.0782  1.0778
 8660SOL    HW237614   2.440   1.005   8.550 -0.2302  0.0468  0.6545
 8661SOL     OW37615   0.245   2.224   2.060 -0.1515  0.3080 -0.2925
 8661SOL    HW137616   0.184   2.153   2.080  0.5577 -0.4626 -0.8665
 8661SOL    HW237617   0.242   2.275   2.141 -1.9124  0.5208 -0.4950
 8662SOL     OW37618   3.623   0.161   5.421  0.4623 -0.8072 -0.5151
 8662SOL    HW137619   3.595   0.174   5.512  0.5475 -2.4515 -0.2423
 8662SOL    HW237620   3.548   0.190   5.369  2.2147  2.5346 -1.1044
 8663SOL     OW37621   3.002   4.680   4.593 -0.2401 -1.0335 -0.1309
 8663SOL    HW137622   3.008   4.666   4.498 -1.1185 -0.9367 -0.2016
 8663SOL    HW237623   3.074   4.629   4.631  1.3278  1.0786 -0.2677
 8664SOL     OW37624   1.240   3.293   6.995 -0.0598 -0.5174  0.3175
 8664SOL    HW137625   1.335   3.306   6.986  0.2152 -2.5911  0.0753
 8664SOL    HW237626   1.222   3.303   7.088 -1.0841  1.2658 -0.0799
 8665SOL     OW37627   1.532   0.328   9.361  0.6108 -0.6768  0.1474
 8665SOL    HW137628   1.447   0.297   9.330 -0.2976  2.5391 -0.5692
 8665SOL    HW237629   1.585   0.253   9.336  1.1757 -1.2158  2.9309
 8666SOL     OW37630   2.755   2.398   2.582 -0.4942  0.1220  0.1376
 8666SOL    HW137631   2.710   2.396   2.666  0.1440 -0.9445  0.4582
 8666SOL    HW237632   2.686   2.412   2.518  0.2414 -1.9873 -1.1353
 8667SOL     OW37633   4.300   0.782  13.790 -0.2534  0.1854  0.3529
 8667SOL    HW137634   4.310   0.760  13.882 -3.5881 -2.0886  0.2009
 8667SOL    HW237635   4.222   0.728  13.774 -0.7636  1.0865 -0.1822
 8668SOL     OW37636   3.910   4.149   2.388  0.1246  0.9063 -0.2071
 8668SOL    HW137637   3.922   4.115   2.299  2.2017 -0.1660  0.4930
 8668SOL    HW237638   3.973   4.100   2.439 -0.8555 -0.0426  0.1006
 8669SOL     OW37639   2.791   0.131   8.269 -0.2086  0.7738 -0.3383
 8669SOL    HW137640   2.754   0.159   8.353  1.0873  0.5146  0.3259
 8669SOL    HW237641   2.717   0.151   8.212 -0.3417  0.6329 -0.2140
 8670SOL     OW37642   0.289   3.671   4.953  0.2216 -0.1911  0.1860
 8670SOL    HW137643   0.338   3.639   4.877  0.3281 -1.2726  0.7196
 8670SOL    HW237644   0.245   3.593   4.986 -0.9440  0.1142 -0.6331
 8671SOL     OW37645   2.258   1.717   0.076  0.5663 -0.4913  0.1146
 8671SOL    HW137646   2.225   1.645   0.022 -0.9739 -1.2764  2.1210
 8671SOL    HW237647   2.351   1.717   0.053  0.1957  2.8397 -1.3151
 8672SOL     OW37648   4.227   4.406   3.165 -0.2990  0.3741  0.2435
 8672SOL    HW137649   4.300   4.381   3.223  0.6431 -1.4274 -1.7287
 8672SOL    HW237650   4.263   4.377   3.081 -1.3251  1.9787 -0.7436
 8673SOL     OW37651   1.658   4.013   2.383  0.1038  0.0120  0.2692
 8673SOL    HW137652   1.681   4.031   2.474 -0.3409 -1.5882  0.6995
 8673SOL    HW237653   1.738   4.049   2.344 -0.6522 -1.4807 -2.6306
 8674SOL     OW37654   0.931   3.394   1.840 -0.4127 -0.6613 -0.1909
 8674SOL    HW137655   0.844   3.386   1.877 -0.6380 -1.7761 -0.9457
 8674SOL    HW237656   0.923   3.329   1.770 -0.8271 -0.1386 -0.6263
 8675SOL     OW37657   0.485   2.043   9.372 -0.1980 -0.1343 -0.6825
 8675SOL    HW137658   0.553   1.982   9.342  1.0509  1.3631 -0.8857
 8675SOL    HW237659   0.456   1.993   9.449  0.4386  0.8280  0.1782
 8676SOL     OW37660   3.811   3.074   3.174 -0.1190 -0.5122 -0.0457
 8676SOL    HW137661   3.820   3.041   3.263  3.5622 -2.5037 -1.1684
 8676SOL    HW237662   3.822   2.997   3.118  3.0096  0.9759 -1.4900
 8677SOL     OW37663   1.189   1.412   6.617  0.1381 -0.4374  1.0904
 8677SOL    HW137664   1.233   1.336   6.580 -2.5892 -1.0319 -0.9513
 8677SOL    HW237665   1.263   1.472   6.616  1.2753 -1.8576 -0.0876
 8678SOL     OW37666   2.275   1.707  12.237  0.0496  0.1018 -0.5061
 8678SOL    HW137667   2.203   1.740  12.290 -0.8833  2.1132 -3.0190
 8678SOL    HW237668   2.275   1.615  12.263 -3.6291 -0.2148 -1.5700
 8679SOL     OW37669   4.257   3.535   6.820 -0.6251  0.1721 -0.3484
 8679SOL    HW137670   4.334   3.587   6.795 -0.3468  0.6746  1.5673
 8679SOL    HW237671   4.219   3.519   6.733 -0.3260 -2.0268 -0.0743
 8680SOL     OW37672   0.702   2.223   4.377 -0.7708  0.0879  0.0231
 8680SOL    HW137673   0.683   2.240   4.469 -0.7911  1.7852 -0.2848
 8680SOL    HW237674   0.769   2.290   4.362  0.1431 -0.9290 -0.3933
 8681SOL     OW37675   1.743   1.362  17.188  0.0248  0.1020 -0.3779
 8681SOL    HW137676   1.740   1.393  17.097  1.9747  1.6018  0.0636
 8681SOL    HW237677   1.743   1.445  17.235  1.6389 -0.6437  0.9042
 8682SOL     OW37678   1.556   2.182   6.148 -0.6169  0.1147  0.6248
 8682SOL    HW137679   1.591   2.266   6.118 -1.0396  0.1022  0.1044
 8682SOL    HW237680   1.565   2.196   6.242 -2.5127  0.0409  0.8211
 8683SOL     OW37681   0.764   2.846  10.109  0.1715  0.5263 -0.0007
 8683SOL    HW137682   0.803   2.898  10.179 -0.4741  1.3632 -0.2557
 8683SOL    HW237683   0.733   2.916  10.052 -1.4530 -0.3306 -0.1962
 8684SOL     OW37684   1.919   2.421  14.359  0.4887 -0.0507  0.2014
 8684SOL    HW137685   1.914   2.490  14.425  3.1401 -0.0667  0.4128
 8684SOL    HW237686   1.826   2.400  14.359  0.3848  0.4165 -1.2545
 8685SOL     OW37687   3.914   0.702   7.120 -0.1609  0.2521  0.2551
 8685SOL    HW137688   3.912   0.705   7.216  0.4145  1.3016  0.2434
 8685SOL    HW237689   3.894   0.611   7.099  0.3173  0.5960 -1.6866
 8686SOL     OW37690   4.089   3.737  11.577 -0.4378  0.4500  0.4840
 8686SOL    HW137691   4.147   3.799  11.533  0.7243 -1.0437 -0.0914
 8686SOL    HW237692   4.138   3.654  11.569  0.1876  0.9977 -1.2759
 8687SOL     OW37693   2.955   1.592   5.364 -0.4102  0.1851  0.6594
 8687SOL    HW137694   2.996   1.606   5.450  0.5463 -1.3593  0.4546
 8687SOL    HW237695   2.999   1.645   5.298  0.2828 -1.9931 -0.6417
 8688SOL     OW37696   2.699   1.607   3.476 -0.3208  0.5013 -0.3846
 8688SOL    HW137697   2.762   1.578   3.542 -0.3934  1.2951  0.0351
 8688SOL    HW237698   2.633   1.647   3.533 -0.6448 -0.0617 -0.3661
 8689SOL     OW37699   0.045   4.250   4.637  0.2808  0.4801 -1.0031
 8689SOL    HW137700   0.006   4.168   4.606 -3.9230  1.7839  0.8738
 8689SOL    HW237701   0.072   4.225   4.725 -1.9129  0.8139 -0.2471
 8690SOL     OW37702   0.985   2.277   2.771  0.4308 -0.2152  0.1240
 8690SOL    HW137703   0.984   2.186   2.803  2.1163 -0.1749  0.2965
 8690SOL    HW237704   1.003   2.262   2.678  1.4999 -3.3055  0.8288
 8691SOL     OW37705   4.441   0.174   0.303  0.2626  0.4898  0.5932
 8691SOL    HW137706   4.384   0.242   0.268 -0.5829 -0.4271  0.1990
 8691SOL    HW237707   4.525   0.218   0.287 -0.8133  1.2555 -3.0136
 8692SOL     OW37708   0.092   1.780  11.047  0.1867  0.2562 -0.2937
 8692SOL    HW137709   0.110   1.835  11.123  1.7886  1.2914 -1.4500
 8692SOL    HW237710   0.010   1.823  11.021  1.0151  0.1270 -3.0631
 8693SOL     OW37711   0.764   2.445   1.999  0.4239 -0.3130  0.6258
 8693SOL    HW137712   0.772   2.350   1.998  1.2743 -0.2272 -0.3999
 8693SOL    HW237713   0.809   2.464   1.917  2.1432  3.6042  2.4703
 8694SOL     OW37714   0.448   1.420   9.155 -0.2371 -0.1039 -0.3965
 8694SOL    HW137715   0.399   1.338   9.155 -0.0731 -0.2033  0.7967
 8694SOL    HW237716   0.521   1.405   9.215 -0.2080  0.2246 -0.3479
 8695SOL     OW37717   4.499   2.481   9.443  0.4360 -0.2797 -0.4282
 8695SOL    HW137718   4.451   2.414   9.490  1.0214 -1.5999 -1.7361
 8695SOL    HW237719   4.482   2.458   9.352  2.7679  0.5293 -1.0690
 8696SOL     OW37720   1.022   0.587   7.410 -0.1478  0.2699  0.2851
 8696SOL    HW137721   0.998   0.630   7.493  1.8761 -1.2448  1.6521
 8696SOL    HW237722   1.084   0.525   7.449 -0.0536  1.1301  1.5069
 8697SOL     OW37723   1.036   2.260   8.517  0.3053 -0.1942  0.5892
 8697SOL    HW137724   1.100   2.309   8.465 -1.9321  1.8564 -0.2759
 8697SOL    HW237725   1.010   2.328   8.579 -0.4277 -0.5221  0.6370
 8698SOL     OW37726   2.457   2.124   4.487 -0.0514  1.1238 -0.4505
 8698SOL    HW137727   2.532   2.166   4.530  2.0311 -1.5755 -1.4829
 8698SOL    HW237728   2.500   2.073   4.418 -0.6153  0.2628 -0.1684
 8699SOL     OW37729   1.951   4.535   4.211 -0.0251  0.2115  0.0853
 8699SOL    HW137730   1.962   4.629   4.204 -0.8078  0.3662  1.0352
 8699SOL    HW237731   1.896   4.533   4.289 -0.7979  0.5098 -0.4478
 8700SOL     OW37732   0.393   1.396   4.022  0.1149 -0.7062  0.0708
 8700SOL    HW137733   0.455   1.450   3.974 -1.1628  0.6534 -0.0579
 8700SOL    HW237734   0.447   1.328   4.063 -2.7521 -2.5193  0.8105
 8701SOL     OW37735   0.930   3.163   4.243 -0.0949 -0.6013  0.5083
 8701SOL    HW137736   0.919   3.242   4.190 -0.6984 -1.6679 -0.9588
 8701SOL    HW237737   0.983   3.191   4.318  0.5772  1.5314 -0.7837
 8702SOL     OW37738   4.138   0.080  15.765 -0.4270  0.5534 -0.3511
 8702SOL    HW137739   4.144   4.739  15.715  1.6082  0.3955  0.1278
 8702SOL    HW237740   4.092   0.063  15.847  0.0848  1.5227  0.1484
 8703SOL     OW37741   3.810   3.812   6.620  0.7229 -0.8797 -0.0957
 8703SOL    HW137742   3.782   3.811   6.712  0.0579 -0.1887 -0.2919
 8703SOL    HW237743   3.900   3.839   6.637  0.5379  0.3432 -1.0296
 8704SOL     OW37744   3.932   2.501   8.098  0.0826  0.4042  0.0379
 8704SOL    HW137745   3.873   2.576   8.111 -1.7213 -0.8576 -0.8567
 8704SOL    HW237746   4.017   2.529   8.064 -1.0488  1.3591 -1.9746
 8705SOL     OW37747   4.708   4.060   6.948  0.4607  0.0728 -0.0364
 8705SOL    HW137748   0.062   4.064   6.930  0.7481  2.1753  1.9496
 8705SOL    HW237749   4.709   4.035   7.041  1.3812  0.4545  0.0558
 8706SOL     OW37750   0.150   1.166   8.279  0.5282 -0.2303 -0.0515
 8706SOL    HW137751   0.230   1.201   8.240  0.2907 -1.6789 -1.8613
 8706SOL    HW237752   0.148   1.201   8.368  1.9302 -0.1451 -0.0599
 8707SOL     OW37753   4.337   2.177   9.696 -0.0208 -0.3572  0.2587
 8707SOL    HW137754   4.266   2.164   9.632 -0.1658 -0.2509  0.3976
 8707SOL    HW237755   4.415   2.153   9.647  1.2682  1.2043  1.5447
 8708SOL     OW37756   2.595   1.661   2.089  0.5872  0.6037 -0.2031
 8708SOL    HW137757   2.657   1.609   2.037  0.3345 -1.5506  1.6422
 8708SOL    HW237758   2.572   1.608   2.166  1.7277  0.2649 -0.0893
 8709SOL     OW37759   2.059   3.476   4.538  0.2969 -1.0283 -0.1331
 8709SOL    HW137760   2.016   3.558   4.562  1.2811 -1.1245  1.9884
 8709SOL    HW237761   1.986   3.422   4.507  0.2916 -0.8039 -0.5138
 8710SOL     OW37762   4.206   1.983   5.098 -0.0754 -0.0373 -0.0060
 8710SOL    HW137763   4.262   1.922   5.147 -2.7124 -1.8478  0.7357
 8710SOL    HW237764   4.120   1.944   5.105 -0.2658  0.5408  0.8546
 8711SOL     OW37765   1.917   0.188   6.755 -0.5938  0.1088 -0.8348
 8711SOL    HW137766   1.973   0.148   6.822 -0.6569  0.6197 -0.4743
 8711SOL    HW237767   1.981   0.219   6.691  0.4264  2.2349  1.1906
 8712SOL     OW37768   0.315   3.233   3.530 -0.3523  0.3636 -0.0738
 8712SOL    HW137769   0.293   3.271   3.614 -0.8494 -1.9493  0.8549
 8712SOL    HW237770   0.274   3.285   3.460  0.0879  0.3473 -0.3463
 8713SOL     OW37771   1.628   0.159   6.536 -0.0978 -0.1185 -0.7180
 8713SOL    HW137772   1.641   0.065   6.542 -1.5712 -0.2289  0.8812
 8713SOL    HW237773   1.594   0.185   6.622 -1.4130 -4.0081 -0.0455
 8714SOL     OW37774   4.256   1.546   8.463 -0.1212  0.1747 -0.0483
 8714SOL    HW137775   4.247   1.609   8.392  0.1702  0.1596 -0.0976
 8714SOL    HW237776   4.268   1.469   8.407  1.6547  1.5089 -1.4719
 8715SOL     OW37777   0.660   3.823  12.836  0.4185  0.0167  0.5587
 8715SOL    HW137778   0.593   3.760  12.863  1.4538 -0.9516  0.8630
 8715SOL    HW237779   0.678   3.884  12.908  0.7838 -0.5591  0.9501
 8716SOL     OW37780   1.686   4.115   6.713 -0.3356  0.1553 -0.1585
 8716SOL    HW137781   1.773   4.110   6.753 -0.2073 -1.1137 -0.5936
 8716SOL    HW237782   1.685   4.043   6.650 -1.0108 -1.4351  1.6602
 8717SOL     OW37783   0.945   0.548   7.147  0.4441  0.0835  0.3626
 8717SOL    HW137784   0.973   0.458   7.131  0.7634  0.3710 -0.6970
 8717SOL    HW237785   0.996   0.567   7.226  1.1701  0.4250 -0.1813
 8718SOL     OW37786   3.996   0.559   1.909  0.0253 -0.5394  0.0311
 8718SOL    HW137787   3.950   0.566   1.993  0.5445  2.0287  0.1124
 8718SOL    HW237788   4.024   0.468   1.916  0.3517 -0.4703 -0.4081
 8719SOL     OW37789   1.286   3.250   0.474  0.0222 -0.0472  0.4392
 8719SOL    HW137790   1.206   3.293   0.443 -0.9099 -0.7457  1.8736
 8719SOL    HW237791   1.299   3.301   0.555  0.2687 -0.5407  0.7129
 8720SOL     OW37792   0.272   2.311   2.876 -0.2974 -0.4895  0.7909
 8720SOL    HW137793   0.299   2.273   2.960 -0.6573 -0.5240  0.8904
 8720SOL    HW237794   0.349   2.298   2.821 -0.0360  1.2027  0.7763
 8721SOL     OW37795   1.095   0.364   3.503  0.1300  0.5813 -0.1658
 8721SOL    HW137796   1.120   0.273   3.521  1.1514  0.9091  0.0795
 8721SOL    HW237797   1.122   0.381   3.413  1.5737 -1.7173 -0.1772
 8722SOL     OW37798   2.451   0.767  13.429 -0.0235 -0.1079  0.0924
 8722SOL    HW137799   2.512   0.841  13.433  1.1705 -0.8388 -4.6859
 8722SOL    HW237800   2.402   0.796  13.352 -0.6109 -2.3107 -0.3552
 8723SOL     OW37801   0.785   4.507   1.811 -0.0503 -0.6122  0.0046
 8723SOL    HW137802   0.739   4.518   1.893  1.1569  2.0464  0.3263
 8723SOL    HW237803   0.807   4.599   1.795  3.2329 -1.4948 -0.7107
 8724SOL     OW37804   2.988   3.482   4.717 -0.3850  0.6141  0.0122
 8724SOL    HW137805   2.954   3.504   4.630  3.9746 -1.9851 -2.3378
 8724SOL    HW237806   3.014   3.564   4.759 -1.0559 -0.7003  3.0090
 8725SOL     OW37807   2.916   0.897   5.604 -0.1080 -0.2251  0.2647
 8725SOL    HW137808   2.986   0.915   5.541 -0.7023 -3.5258 -1.3132
 8725SOL    HW237809   2.969   0.875   5.680 -0.1172 -4.0369 -0.8531
 8726SOL     OW37810   2.918   0.046   6.783  0.0353 -0.3739 -0.0175
 8726SOL    HW137811   2.881   0.035   6.695  0.5874 -0.2596 -0.2606
 8726SOL    HW237812   3.001   0.093   6.774 -0.4831  0.1472 -2.0262
 8727SOL     OW37813   3.481   1.662   0.801  0.0887  0.3241 -0.0623
 8727SOL    HW137814   3.465   1.751   0.769  1.1585  0.8258  0.8046
 8727SOL    HW237815   3.421   1.662   0.876 -0.3942 -0.3266 -0.4471
 8728SOL     OW37816   2.606   2.493   4.454 -0.3750  0.4267 -0.1073
 8728SOL    HW137817   2.533   2.503   4.515 -1.0764 -0.9458 -0.7259
 8728SOL    HW237818   2.681   2.480   4.511 -0.8148  1.5152  0.7165
 8729SOL     OW37819   3.713   2.412   2.556  0.1165 -0.2053 -0.1071
 8729SOL    HW137820   3.796   2.439   2.516 -0.5970  1.8961 -0.1917
 8729SOL    HW237821   3.739   2.415   2.648  0.0848  0.3474 -0.1183
 8730SOL     OW37822   0.978   3.427   4.223  0.0510  0.2659 -0.0857
 8730SOL    HW137823   0.896   3.468   4.249 -1.1468 -1.2849 -1.4179
 8730SOL    HW237824   1.028   3.445   4.303 -1.8016 -1.6467  1.4839
 8731SOL     OW37825   0.141   3.355  10.339 -0.1478  0.1602 -0.5026
 8731SOL    HW137826   0.229   3.319  10.322  0.0207  1.1926 -1.8034
 8731SOL    HW237827   0.174   3.416  10.406 -1.7720 -0.5160  0.9025
 8732SOL     OW37828   2.137   3.093   9.081 -0.2310  0.4431  0.3013
 8732SOL    HW137829   2.223   3.072   9.118  0.4180  0.7354 -1.0535
 8732SOL    HW237830   2.138   3.189   9.078 -1.1237  0.4388 -0.2120
 8733SOL     OW37831   0.994   3.074   2.667 -0.2026  0.1079  0.4329
 8733SOL    HW137832   1.034   3.144   2.717 -0.7093  0.4844  0.3176
 8733SOL    HW237833   0.924   3.033   2.718 -0.7973  0.7431  0.1382
 8734SOL     OW37834   2.210   3.109   8.027  0.1952 -0.2736  0.0087
 8734SOL    HW137835   2.218   3.170   7.954  2.3590  1.2824  1.5466
 8734SOL    HW237836   2.197   3.024   7.984  0.4850 -0.0894 -0.4309
 8735SOL     OW37837   1.737   3.724   1.390 -0.1030 -0.2837 -0.3590
 8735SOL    HW137838   1.767   3.749   1.478 -2.2028 -0.9511  0.5400
 8735SOL    HW237839   1.747   3.814   1.359  2.5678  0.1506  1.7281
 8736SOL     OW37840   2.811   4.544   6.573  0.1005 -0.4119  0.4356
 8736SOL    HW137841   2.716   4.541   6.561  0.5187  0.4849 -3.2365
 8736SOL    HW237842   2.822   4.453   6.543  0.9054 -0.1012 -0.2085
 8737SOL     OW37843   4.733   1.449  13.396  0.1006 -0.4183  0.1212
 8737SOL    HW137844   4.698   1.508  13.463 -1.8176 -0.3918 -0.9166
 8737SOL    HW237845   4.672   1.459  13.323  0.8177 -0.6431 -0.5108
 8738SOL     OW37846   3.283   0.502   7.490 -0.2718  0.1783 -0.2351
 8738SOL    HW137847   3.323   0.468   7.570 -2.1524  0.0931  0.6599
 8738SOL    HW237848   3.331   0.464   7.416 -1.3159 -1.8638  0.1178
 8739SOL     OW37849   0.181   1.641   0.613 -0.2018 -0.3226 -0.6981
 8739SOL    HW137850   0.110   1.701   0.637  0.3948  0.2421 -0.3296
 8739SOL    HW237851   0.202   1.599   0.696 -0.5963  0.0532 -0.4054
 8740SOL     OW37852   0.489   3.494   4.145 -0.1572  0.2113  0.2420
 8740SOL    HW137853   0.452   3.406   4.147  0.2429  0.0971  2.3755
 8740SOL    HW237854   0.465   3.525   4.057 -0.2933 -0.8853 -0.1056
 8741SOL     OW37855   0.193   3.084   6.824  0.2595 -0.2942  0.3204
 8741SOL    HW137856   0.199   3.000   6.778 -1.4524 -0.6580  0.7549
 8741SOL    HW237857   0.284   3.112   6.819 -0.1543  0.9041 -0.4537
 8742SOL     OW37858   2.459   3.755   1.006  0.4519 -0.0524  0.4603
 8742SOL    HW137859   2.470   3.838   1.053 -1.4255  0.9229 -0.7951
 8742SOL    HW237860   2.542   3.759   0.959 -1.4330 -1.0213 -2.9700
 8743SOL     OW37861   0.834   2.502   3.778 -0.4656 -0.5297 -0.1946
 8743SOL    HW137862   0.774   2.575   3.771 -0.7884 -0.7994 -0.2496
 8743SOL    HW237863   0.771   2.432   3.760  0.8077 -1.7146 -0.1286
 8744SOL     OW37864   0.431   3.073   8.371  0.2835  0.8148 -0.1492
 8744SOL    HW137865   0.458   3.056   8.461 -0.5941  3.3248  0.5896
 8744SOL    HW237866   0.463   2.990   8.334  0.3809  0.0132  1.7220
 8745SOL     OW37867   1.797   0.572   5.427  0.2944  0.5002 -0.1709
 8745SOL    HW137868   1.873   0.548   5.373  2.0134  2.5360  1.3352
 8745SOL    HW237869   1.725   0.542   5.372 -0.7825  0.0026  1.4926
 8746SOL     OW37870   0.468   0.793   3.753  0.7245  0.0948  0.1053
 8746SOL    HW137871   0.514   0.863   3.706  2.6430 -1.7678 -0.7958
 8746SOL    HW237872   0.377   0.807   3.728  0.8800  0.7822 -0.0907
 8747SOL     OW37873   1.260   0.535   0.579  0.0348  0.6376  0.1016
 8747SOL    HW137874   1.191   0.598   0.556  0.1455  0.8991  0.4840
 8747SOL    HW237875   1.212   0.456   0.603  1.1104  0.1994  0.8041
 8748SOL     OW37876   0.373   0.103  10.603  0.3130  0.5416 -0.3780
 8748SOL    HW137877   0.383   0.008  10.593 -1.0614  0.2576  0.8605
 8748SOL    HW237878   0.457   0.121  10.646  0.6289  1.1957 -1.2914
 8749SOL     OW37879   4.183   2.203   2.388  0.3547 -0.0797  0.5802
 8749SOL    HW137880   4.176   2.256   2.309 -1.0649  0.5427  1.1222
 8749SOL    HW237881   4.092   2.174   2.394  0.2572  0.0697 -0.1175
 8750SOL     OW37882   4.277   4.315   2.896 -0.3377 -0.3648 -0.2894
 8750SOL    HW137883   4.251   4.390   2.842 -2.2073 -0.0601  1.0255
 8750SOL    HW237884   4.322   4.274   2.822  0.6104  0.6877 -0.3007
 8751SOL     OW37885   0.741   2.539   9.294  0.0524 -0.2243 -0.1356
 8751SOL    HW137886   0.775   2.453   9.317  1.9416  0.5590 -0.0233
 8751SOL    HW237887   0.653   2.521   9.261 -0.8638 -1.3655  2.8924
 8752SOL     OW37888   1.258   2.913  15.353 -0.4760 -0.1015  0.7311
 8752SOL    HW137889   1.248   2.886  15.445 -1.8503 -1.2741  0.2258
 8752SOL    HW237890   1.332   2.975  15.358 -0.7440  0.3564 -0.9645
 8753SOL     OW37891   2.089   1.582  17.358 -0.5463 -0.3224 -0.7319
 8753SOL    HW137892   2.100   1.506  17.302  1.5159  0.2089 -1.0729
 8753SOL    HW237893   2.023   1.548  17.418  0.4814  2.6107  2.0953
 8754SOL     OW37894   4.635   1.597   5.233  0.6168 -0.1061  0.5128
 8754SOL    HW137895   4.589   1.562   5.157  0.4001  0.0160  0.5869
 8754SOL    HW237896   4.558   1.598   5.290  0.0802  2.3907 -0.2330
 8755SOL     OW37897   1.015   2.565   1.851 -0.1776 -0.0401 -0.2953
 8755SOL    HW137898   1.101   2.597   1.881  0.7200 -3.2573  0.4906
 8755SOL    HW237899   0.977   2.646   1.816 -2.3994  0.0163  2.2393
 8756SOL     OW37900   0.285   1.090   5.756  0.5878 -0.2147  0.1083
 8756SOL    HW137901   0.285   1.029   5.682 -3.5666  0.8034 -0.7473
 8756SOL    HW237902   0.312   1.167   5.705  2.1910 -1.1126 -0.4078
 8757SOL     OW37903   3.207   3.711   8.755  0.0734  0.1163 -0.0519
 8757SOL    HW137904   3.188   3.671   8.839  0.4763 -1.0553 -0.5217
 8757SOL    HW237905   3.154   3.665   8.690 -1.1330  1.6592 -0.1612
 8758SOL     OW37906   2.845   3.613   6.397  0.4345 -0.2082 -0.1252
 8758SOL    HW137907   2.896   3.547   6.351 -0.3617 -0.1866 -1.0443
 8758SOL    HW237908   2.917   3.656   6.443 -1.2434  3.5663 -1.0117
 8759SOL     OW37909   0.186   1.479   9.419 -0.2621  0.1702 -0.3765
 8759SOL    HW137910   0.255   1.416   9.440 -1.3265 -1.2614 -1.2274
 8759SOL    HW237911   0.175   1.526   9.502  0.5777 -0.8080  0.2860
 8760SOL     OW37912   4.522   3.946  17.422  0.1137  0.4376 -0.4927
 8760SOL    HW137913   4.554   3.990  17.344  3.1124 -0.8917 -0.0356
 8760SOL    HW237914   4.430   3.968  17.408  0.1224  0.1988 -0.9322
 8761SOL     OW37915   2.066   0.732   5.003 -0.0558 -0.5682 -0.0250
 8761SOL    HW137916   2.017   0.788   5.063 -0.0223 -0.2805 -0.2636
 8761SOL    HW237917   2.151   0.737   5.048  1.1399 -0.9299 -2.1944
 8762SOL     OW37918   3.987   0.165  11.029  0.4604  0.1858  0.8218
 8762SOL    HW137919   3.969   0.167  10.935  0.4704 -1.3195  0.7913
 8762SOL    HW237920   3.901   0.197  11.057  0.4449  0.8277  0.0389
 8763SOL     OW37921   2.800   2.351  13.636 -0.1638 -0.1618 -0.0238
 8763SOL    HW137922   2.849   2.307  13.566 -0.3043 -1.5976  0.7606
 8763SOL    HW237923   2.758   2.273  13.673 -0.9118  0.6941  0.9271
 8764SOL     OW37924   3.502   1.519   5.193 -0.2486 -0.7096  0.1167
 8764SOL    HW137925   3.407   1.512   5.189 -0.2160 -0.9393 -0.2601
 8764SOL    HW237926   3.520   1.486   5.105  0.4148  2.6380 -0.9760
 8765SOL     OW37927   3.495   4.551   0.229 -0.3139 -0.1970  0.1456
 8765SOL    HW137928   3.572   4.513   0.271  0.2791  0.2433 -0.5489
 8765SOL    HW237929   3.427   4.483   0.233  0.0097 -0.6370 -1.7530
 8766SOL     OW37930   4.335   3.894   6.167 -0.5417 -0.0703 -0.2456
 8766SOL    HW137931   4.307   3.985   6.155 -2.0033 -0.4375  0.3388
 8766SOL    HW237932   4.402   3.913   6.232  0.4563  1.6843 -1.7798
 8767SOL     OW37933   4.613   3.400  14.165 -0.7077 -0.1577  0.4674
 8767SOL    HW137934   4.652   3.423  14.249 -0.3378  1.4623 -0.1421
 8767SOL    HW237935   4.540   3.462  14.168 -0.8144 -0.1761 -1.5516
 8768SOL     OW37936   0.540   0.705   9.602 -0.7457 -0.7231 -0.3069
 8768SOL    HW137937   0.448   0.721   9.623 -0.8738 -1.5095 -0.2646
 8768SOL    HW237938   0.573   0.671   9.686 -2.5334  0.3061  0.8114
 8769SOL     OW37939   1.958   4.178   5.263  0.1478 -0.0038  0.0124
 8769SOL    HW137940   2.020   4.209   5.197  0.9846 -0.5636  0.5469
 8769SOL    HW237941   1.883   4.160   5.206  1.1463 -1.3836 -0.8740
 8770SOL     OW37942   2.186   3.317   8.272  0.4840 -0.1254 -0.1585
 8770SOL    HW137943   2.161   3.258   8.202 -0.8396  0.3857 -0.1162
 8770SOL    HW237944   2.272   3.287   8.301 -0.1038 -2.1430 -0.4890
 8771SOL     OW37945   0.282   1.510   6.985 -0.1930  0.0547 -0.2007
 8771SOL    HW137946   0.292   1.562   6.905  0.2185  1.4812  0.7779
 8771SOL    HW237947   0.228   1.434   6.961 -1.1005 -0.0623  2.2054
 8772SOL     OW37948   3.555   1.107   8.935  0.3603 -0.7924  0.3789
 8772SOL    HW137949   3.533   1.171   9.002 -0.4565  0.8381 -1.4616
 8772SOL    HW237950   3.649   1.124   8.926 -0.0512  0.6243 -1.3038
 8773SOL     OW37951   1.883   2.969   8.559 -0.2207 -0.7297 -0.1464
 8773SOL    HW137952   1.960   3.025   8.545 -1.9248  2.5102  3.2901
 8773SOL    HW237953   1.876   2.990   8.653  1.5264 -0.1166 -0.1497
 8774SOL     OW37954   2.147   3.421   2.855  0.1210 -0.6221  0.0672
 8774SOL    HW137955   2.099   3.381   2.783  1.4438  0.6201 -1.5147
 8774SOL    HW237956   2.158   3.352   2.920 -1.6689  1.3245  2.4514
 8775SOL     OW37957   3.761   2.458   2.850 -0.0120  0.4418 -0.0874
 8775SOL    HW137958   3.703   2.529   2.876 -0.6126 -0.2700  0.5150
 8775SOL    HW237959   3.845   2.504   2.841  0.8733 -1.2364 -0.4099
 8776SOL     OW37960   3.363   0.760   2.961  0.2838 -0.4008 -0.0809
 8776SOL    HW137961   3.282   0.725   2.924  0.1016  0.0057 -0.0630
 8776SOL    HW237962   3.424   0.687   2.972 -0.1145 -0.9194 -1.3069
 8777SOL     OW37963   3.024   3.566   9.704 -0.0359  0.0671 -0.7880
 8777SOL    HW137964   2.998   3.579   9.795 -0.7609 -3.2659 -0.5053
 8777SOL    HW237965   2.955   3.609   9.653  1.3350 -0.0297 -2.7411
 8778SOL     OW37966   3.158   4.200   0.273  0.5501  0.1714  0.3667
 8778SOL    HW137967   3.236   4.234   0.231 -0.2259 -1.3739 -2.3376
 8778SOL    HW237968   3.090   4.247   0.225 -1.4134  0.3116  3.2334
 8779SOL     OW37969   1.230   4.196   3.173  0.0859  0.2599  0.0971
 8779SOL    HW137970   1.198   4.266   3.115  1.9293  0.8680 -0.1905
 8779SOL    HW237971   1.259   4.131   3.108 -3.9995 -1.7626  0.3391
 8780SOL     OW37972   4.559   3.721   8.584 -0.1478 -0.6978  0.1116
 8780SOL    HW137973   4.561   3.640   8.533  0.2816 -1.1347  0.8131
 8780SOL    HW237974   4.650   3.751   8.589  0.1526 -1.3058 -1.6873
 8781SOL     OW37975   4.447   3.126   0.701 -0.2794 -0.3072 -0.8796
 8781SOL    HW137976   4.377   3.154   0.759 -1.7495 -0.1355 -2.7533
 8781SOL    HW237977   4.511   3.183   0.744  0.5438 -1.5752 -0.4111
 8782SOL     OW37978   2.538   3.488   0.665  0.0548  0.1543  0.1583
 8782SOL    HW137979   2.487   3.569   0.671  1.9961  1.5005 -1.5645
 8782SOL    HW237980   2.618   3.518   0.621  0.2881  1.4966  1.4742
 8783SOL     OW37981   1.766   1.798   2.906  0.2448  0.1352  0.1433
 8783SOL    HW137982   1.733   1.872   2.855 -0.8039  0.2126  0.9326
 8783SOL    HW237983   1.818   1.845   2.971 -0.7292  1.1381  0.1853
 8784SOL     OW37984   1.994   2.828   7.422  0.1631  0.0041  0.4506
 8784SOL    HW137985   1.984   2.739   7.454  0.2751 -1.1346 -2.6930
 8784SOL    HW237986   2.028   2.820   7.333  0.4698 -1.1556  0.6761
 8785SOL     OW37987   2.290   1.386   1.991 -0.2543  0.4177  0.1246
 8785SOL    HW137988   2.317   1.425   2.073  0.3908 -3.2067  1.6550
 8785SOL    HW237989   2.374   1.349   1.962 -0.4370 -0.5348  0.8199
 8786SOL     OW37990   2.939   2.184   6.334 -0.2507  0.3695  0.4209
 8786SOL    HW137991   2.922   2.270   6.297  0.6561  0.8088  1.0478
 8786SOL    HW237992   2.858   2.136   6.314  1.2199 -1.4680 -1.1132
 8787SOL     OW37993   3.229   0.024   5.313 -0.1823  0.1911  0.4497
 8787SOL    HW137994   3.254   4.706   5.384  0.4536 -0.2395 -0.1313
 8787SOL    HW237995   3.135   0.005   5.304  0.1951 -0.6689 -1.5368
 8788SOL     OW37996   1.438   4.418   7.352 -0.0133 -0.7453 -0.1920
 8788SOL    HW137997   1.495   4.480   7.307  0.0899 -0.1212  0.7993
 8788SOL    HW237998   1.500   4.358   7.393  0.5664 -0.1386 -0.1860
 8789SOL     OW37999   0.229   1.262   3.370  0.0841  0.6374 -0.1044
 8789SOL    HW138000   0.273   1.334   3.324  0.1249  1.3117  0.9919
 8789SOL    HW238001   0.137   1.286   3.360  0.3241  0.4690 -2.6108
 8790SOL     OW38002   4.277   3.076   1.932 -0.7353 -0.0861  0.0038
 8790SOL    HW138003   4.354   3.021   1.947  0.1439  1.1335 -0.1156
 8790SOL    HW238004   4.288   3.106   1.842  1.2460  0.2839  0.3837
 8791SOL     OW38005   0.723   3.007   6.743  0.7771  0.6045 -0.3311
 8791SOL    HW138006   0.798   3.059   6.772  2.0163 -2.2152  1.5173
 8791SOL    HW238007   0.702   2.969   6.828  0.0563  0.9384 -0.3662
 8792SOL     OW38008   0.199   2.498   9.234 -0.7267  0.3043 -0.2315
 8792SOL    HW138009   0.120   2.534   9.274  0.0525  2.0769 -0.2830
 8792SOL    HW238010   0.160   2.451   9.160 -1.8925 -1.7319  1.6549
 8793SOL     OW38011   4.400   1.707  10.559  0.2216  0.0792 -0.2492
 8793SOL    HW138012   4.386   1.664  10.644 -0.1901  1.9805  0.6441
 8793SOL    HW238013   4.481   1.666  10.531  0.5971  0.9533 -0.4241
 8794SOL     OW38014   1.299   1.139   8.141  0.0572 -0.0675 -0.6080
 8794SOL    HW138015   1.341   1.152   8.056 -1.0026  1.9457 -0.8262
 8794SOL    HW238016   1.246   1.218   8.149 -0.1833 -0.4589  1.6099
 8795SOL     OW38017   0.979   3.230   6.880 -0.1366  0.3932  0.6515
 8795SOL    HW138018   0.993   3.143   6.917 -0.1209 -0.7180 -1.8954
 8795SOL    HW238019   1.065   3.265   6.902 -0.7869  1.9897  0.5908
 8796SOL     OW38020   3.026   4.039  14.323  0.2467 -0.3581  0.0082
 8796SOL    HW138021   3.112   4.055  14.285  0.8641  0.1112  1.5800
 8796SOL    HW238022   2.982   4.122  14.305  0.1192 -0.3617  0.2951
 8797SOL     OW38023   2.828   3.487   9.168 -0.3400  0.3014 -0.2849
 8797SOL    HW138024   2.898   3.493   9.233  0.6408  0.2936 -1.3505
 8797SOL    HW238025   2.763   3.551   9.199 -1.6716 -0.1716 -2.1043
 8798SOL     OW38026   1.965   3.293   1.861  0.3170  0.3781 -0.1186
 8798SOL    HW138027   1.916   3.243   1.926 -0.0622  2.2271  1.0139
 8798SOL    HW238028   1.904   3.295   1.787 -0.5515 -0.1861  0.5759
 8799SOL     OW38029   0.808   4.157  12.870 -0.0640 -0.3779 -0.0843
 8799SOL    HW138030   0.716   4.167  12.845 -0.0230 -1.0409 -0.5175
 8799SOL    HW238031   0.801   4.098  12.945  3.4150  0.0960  0.5768
 8800SOL     OW38032   4.694   1.320   9.911 -0.1379  0.0007  0.1620
 8800SOL    HW138033   0.006   1.368   9.976  0.4779 -0.6651  0.1689
 8800SOL    HW238034   4.622   1.291   9.965  2.9459 -2.3029  3.0059
 8801SOL     OW38035   3.463   2.258   4.146 -0.6660 -0.0688 -0.1909
 8801SOL    HW138036   3.462   2.346   4.108 -1.8438  0.3538  0.8376
 8801SOL    HW238037   3.432   2.264   4.236  0.3287 -0.4854  0.1879
 8802SOL     OW38038   2.896   1.757   2.436 -0.0740  0.1787 -0.0819
 8802SOL    HW138039   2.845   1.830   2.471  1.7481  0.9681  0.9367
 8802SOL    HW238040   2.984   1.796   2.428 -0.2599  1.0260  1.9235
 8803SOL     OW38041   3.398   3.140   7.506 -0.2480  0.5134  0.2157
 8803SOL    HW138042   3.467   3.206   7.512 -0.1161  0.4167 -0.2276
 8803SOL    HW238043   3.324   3.198   7.486 -0.9259 -0.1298  0.8704
 8804SOL     OW38044   3.244   3.883   2.910 -0.3561  0.1307  0.1846
 8804SOL    HW138045   3.297   3.856   2.985 -0.5201  0.1743  0.3182
 8804SOL    HW238046   3.166   3.828   2.903  0.5402 -1.0101 -0.5766
 8805SOL     OW38047   0.224   2.941   6.226  0.3371  0.2229  0.4131
 8805SOL    HW138048   0.223   2.983   6.312  1.1759 -1.2337  1.1393
 8805SOL    HW238049   0.167   2.866   6.247 -0.5118  0.6035 -0.5194
 8806SOL     OW38050   2.448   1.100  17.485  0.2205  0.3729 -0.7523
 8806SOL    HW138051   2.533   1.061  17.503  0.3384  0.0241 -2.0774
 8806SOL    HW238052   2.413   1.054  17.408 -2.0411  2.8809 -1.2585
 8807SOL     OW38053   3.203   3.231  16.348  0.0365  0.3198  0.4513
 8807SOL    HW138054   3.126   3.234  16.291  0.3736 -3.1233 -0.1805
 8807SOL    HW238055   3.239   3.144  16.333 -0.4195  0.3078 -0.5795
 8808SOL     OW38056   0.519   1.781  16.067  0.0747  0.1199 -0.0547
 8808SOL    HW138057   0.523   1.686  16.057 -2.3146  0.3580 -3.0917
 8808SOL    HW238058   0.505   1.801  16.159 -1.2456  0.5712 -0.3565
 8809SOL     OW38059   3.373   1.265   4.075  0.3427  0.3621 -0.2800
 8809SOL    HW138060   3.322   1.335   4.034  0.8852 -0.2715 -2.0078
 8809SOL    HW238061   3.346   1.197   4.013 -1.9138  0.4504  0.5861
 8810SOL     OW38062   2.359   0.726   2.616  0.0028 -0.2470 -0.1681
 8810SOL    HW138063   2.286   0.665   2.606  0.9265 -1.2797 -0.6642
 8810SOL    HW238064   2.308   0.804   2.637  0.3725 -0.7693  2.6347
 8811SOL     OW38065   4.331   2.207   0.126  0.9201  0.2828 -0.3531
 8811SOL    HW138066   4.404   2.146   0.117  0.3229 -0.2546 -1.4922
 8811SOL    HW238067   4.277   2.180   0.052  2.3087 -3.4275 -0.0281
 8812SOL     OW38068   4.007   0.526   5.746 -0.4492  0.8074  0.5050
 8812SOL    HW138069   3.990   0.448   5.799  0.7714  0.9685  1.1314
 8812SOL    HW238070   4.096   0.513   5.713 -0.3029  2.1801  0.3793
 8813SOL     OW38071   3.993   3.424  13.772  0.6445  0.6957  0.1998
 8813SOL    HW138072   4.042   3.349  13.806  0.1633 -1.1121 -3.1116
 8813SOL    HW238073   3.908   3.381  13.761  0.7730  0.9123 -1.5879
 8814SOL     OW38074   3.658   2.396   5.751  0.1086 -0.1218 -0.3418
 8814SOL    HW138075   3.620   2.475   5.712  1.7026  0.1173 -1.4126
 8814SOL    HW238076   3.645   2.422   5.842 -1.1494 -1.4824 -0.1356
 8815SOL     OW38077   2.117   1.384   6.234 -0.2095  0.1402  0.1078
 8815SOL    HW138078   2.184   1.430   6.284 -1.1437  2.7192 -1.0106
 8815SOL    HW238079   2.105   1.311   6.295 -0.5085 -1.3253 -1.7010
 8816SOL     OW38080   0.693   4.467   4.277 -0.6610 -0.5823  0.3956
 8816SOL    HW138081   0.780   4.474   4.238 -0.6118 -0.4505  0.5283
 8816SOL    HW238082   0.705   4.385   4.326  2.6215 -0.6539 -0.5794
 8817SOL     OW38083   1.875   0.867   5.141 -0.3812 -0.5052 -0.1954
 8817SOL    HW138084   1.784   0.848   5.164 -0.3158  0.6505  1.0021
 8817SOL    HW238085   1.859   0.940   5.081 -1.8770 -1.7469 -1.3327
 8818SOL     OW38086   3.603   1.241   5.634  0.1715  0.0199 -0.0988
 8818SOL    HW138087   3.538   1.265   5.568 -0.8122  2.2509  1.6471
 8818SOL    HW238088   3.567   1.295   5.705 -1.0305 -1.1754  0.1991
 8819SOL     OW38089   2.155   2.079  10.377  0.4793 -0.2752 -0.3404
 8819SOL    HW138090   2.118   2.012  10.320 -0.6992  0.7303 -0.7611
 8819SOL    HW238091   2.145   2.166  10.338  1.4009  0.8176  1.8512
 8820SOL     OW38092   3.704   3.654   6.096  0.2031 -0.6738  0.2654
 8820SOL    HW138093   3.791   3.687   6.073 -0.3943  1.6765  1.4251
 8820SOL    HW238094   3.734   3.571   6.135 -1.6153 -1.9577 -1.0397
 8821SOL     OW38095   0.052   3.330   6.596  0.0734 -0.4409 -0.2820
 8821SOL    HW138096   0.144   3.358   6.601 -0.9868  2.7825  0.8143
 8821SOL    HW238097   0.063   3.237   6.616  2.3075 -0.1413 -0.0391
 8822SOL     OW38098   1.192   1.649   8.121  0.1956  0.3276  0.5095
 8822SOL    HW138099   1.172   1.741   8.106  0.3364  0.2398 -0.2499
 8822SOL    HW238100   1.287   1.659   8.128  0.3168 -0.3318 -0.1142
 8823SOL     OW38101   0.632   0.720  15.514 -0.6619 -0.1766 -0.0512
 8823SOL    HW138102   0.601   0.640  15.471  0.0711 -0.3744 -0.2107
 8823SOL    HW238103   0.691   0.680  15.578  0.9885  0.9139 -0.8770
 8824SOL     OW38104   4.290   3.612   8.232 -0.0114  0.2110 -0.6831
 8824SOL    HW138105   4.276   3.691   8.285  1.6743 -0.8397  1.3093
 8824SOL    HW238106   4.204   3.572   8.239  1.1982 -2.3730 -0.7527
 8825SOL     OW38107   1.814   2.399   4.680  0.1531 -0.2393 -0.0794
 8825SOL    HW138108   1.875   2.341   4.637  1.5024  1.2909 -0.2380
 8825SOL    HW238109   1.841   2.483   4.643 -1.2495 -0.0058 -0.5838
 8826SOL     OW38110   3.469   0.039   8.028 -0.1189  0.6270 -0.3108
 8826SOL    HW138111   3.409   0.073   7.962 -1.5885 -1.4782 -0.0798
 8826SOL    HW238112   3.551   0.057   7.983  0.7974 -0.1349  1.0383
 8827SOL     OW38113   1.258   2.713   8.740 -0.0633 -0.2160  0.0746
 8827SOL    HW138114   1.337   2.696   8.791 -0.7290  0.7636  1.4263
 8827SOL    HW238115   1.210   2.775   8.794  0.3574  1.2977 -1.2936
 8828SOL     OW38116   1.075   3.744   5.694  0.0339 -0.2637 -0.2497
 8828SOL    HW138117   1.095   3.686   5.767 -2.2551  0.7346  1.1835
 8828SOL    HW238118   1.105   3.688   5.622 -0.1741 -1.5318  0.6589
 8829SOL     OW38119   2.169   4.036   4.357  0.7602 -1.2812  0.9632
 8829SOL    HW138120   2.243   4.064   4.303 -0.2816 -0.2851  0.0538
 8829SOL    HW238121   2.225   4.006   4.429  3.7346  0.6203 -0.5588
 8830SOL     OW38122   4.477   4.213   7.724  0.4519  0.3880  0.5250
 8830SOL    HW138123   4.476   4.169   7.809 -0.6494  0.7290  0.6978
 8830SOL    HW238124   4.451   4.137   7.671 -0.9207  0.7274  0.7121
 8831SOL     OW38125   3.766   3.328  13.680 -0.2668  0.2472  0.7363
 8831SOL    HW138126   3.708   3.280  13.738 -0.8053  0.1929  0.1528
 8831SOL    HW238127   3.702   3.386  13.638  0.8368  2.0764  1.5683
 8832SOL     OW38128   4.208   4.435   9.607  0.2138 -0.3854  1.0644
 8832SOL    HW138129   4.275   4.504   9.607  0.8021 -0.9639 -0.3162
 8832SOL    HW238130   4.254   4.359   9.642 -0.6084 -0.2548  2.4378
 8833SOL     OW38131   4.620   4.397   2.327 -0.7385 -0.0887  0.1877
 8833SOL    HW138132   4.636   4.490   2.309  0.5859  0.0334  1.9514
 8833SOL    HW238133   4.590   4.392   2.418 -1.7179  2.7921  0.0240
 8834SOL     OW38134   3.627   1.486   1.512  0.3998  0.6947 -0.1026
 8834SOL    HW138135   3.714   1.490   1.550  0.4195 -3.9962  0.3499
 8834SOL    HW238136   3.597   1.577   1.520 -0.3086  0.5096 -0.6582
 8835SOL     OW38137   4.131   4.278  11.924 -0.6698  0.6417 -0.5133
 8835SOL    HW138138   4.132   4.299  11.831  0.4029  0.3930 -0.5469
 8835SOL    HW238139   4.223   4.260  11.942 -0.4748 -0.0713 -2.2796
 8836SOL     OW38140   3.484   3.385  14.621  0.2770 -0.2035  0.2202
 8836SOL    HW138141   3.527   3.400  14.705 -1.3818  1.1132  0.8432
 8836SOL    HW238142   3.523   3.302  14.593  0.1305 -0.2530  0.1609
 8837SOL     OW38143   2.978   2.176   7.159 -0.0391 -0.6441  0.5552
 8837SOL    HW138144   3.070   2.202   7.170 -0.4273  1.2117 -0.6553
 8837SOL    HW238145   2.972   2.149   7.068 -1.0070  1.0053  0.1323
 8838SOL     OW38146   0.801   4.084   7.040  0.3089  0.3995  0.1906
 8838SOL    HW138147   0.719   4.075   7.089  0.0280  0.8193 -0.2064
 8838SOL    HW238148   0.857   4.025   7.091  0.0470  0.8149  0.9597
 8839SOL     OW38149   2.036   0.900   9.800 -0.4035 -0.2310  0.0822
 8839SOL    HW138150   2.046   0.875   9.708  3.2130  0.7838  0.1927
 8839SOL    HW238151   1.948   0.936   9.809  0.1726  0.9188  1.0936
 8840SOL     OW38152   3.878   1.904  12.943 -0.0294 -0.6866 -0.2011
 8840SOL    HW138153   3.919   1.990  12.956  2.2474 -2.0821  1.7736
 8840SOL    HW238154   3.788   1.928  12.922 -0.2461  0.0044  1.4713
 8841SOL     OW38155   1.449   4.161   9.249 -0.1359  0.1727  0.5183
 8841SOL    HW138156   1.373   4.158   9.307  0.3356 -0.2605  1.1245
 8841SOL    HW238157   1.420   4.105   9.178 -2.5269  0.0714  1.5665
 8842SOL     OW38158   3.723   3.134   1.250 -0.6665  0.1198  0.7518
 8842SOL    HW138159   3.679   3.055   1.282 -1.3078  0.3990  0.5639
 8842SOL    HW238160   3.802   3.098   1.210 -0.2784  0.3085  1.3455
 8843SOL     OW38161   1.996   2.008   2.051 -0.2332 -0.0626  0.2051
 8843SOL    HW138162   1.914   1.975   2.014 -0.7944  1.4494  0.1050
 8843SOL    HW238163   1.967   2.099   2.062  0.0245 -0.0039  0.3823
 8844SOL     OW38164   3.640   4.205   2.425 -0.7237  0.6447 -0.2697
 8844SOL    HW138165   3.732   4.199   2.402  0.1131  0.4900  3.1733
 8844SOL    HW238166   3.622   4.113   2.448  1.2011  0.5051  0.6612
 8845SOL     OW38167   2.104   0.065   3.562  0.2944  0.1343  0.2225
 8845SOL    HW138168   2.097   0.040   3.470  0.0632 -2.4920  0.9693
 8845SOL    HW238169   2.011   0.070   3.584 -0.0581 -0.1182 -1.2251
 8846SOL     OW38170   3.095   4.358   6.882 -0.3060  0.0859  0.0167
 8846SOL    HW138171   3.080   4.267   6.909  1.6607 -0.6630 -1.4151
 8846SOL    HW238172   3.096   4.363   6.787  1.7253  0.3443  0.0430
 8847SOL     OW38173   2.648   0.458   1.122 -0.1029 -1.0654 -0.1035
 8847SOL    HW138174   2.729   0.474   1.170 -1.2944 -2.5413  2.4153
 8847SOL    HW238175   2.647   0.362   1.125 -1.3125 -1.0610 -0.1085
 8848SOL     OW38176   3.569   4.527   3.952  0.1302  0.0735 -0.2605
 8848SOL    HW138177   3.604   4.543   4.039  1.0785 -1.5405 -0.3416
 8848SOL    HW238178   3.610   4.442   3.934  2.9114  1.7438 -1.7730
 8849SOL     OW38179   3.559   3.602   7.898 -0.1718  0.3289  0.6913
 8849SOL    HW138180   3.517   3.655   7.966  1.5416  0.5974  1.5475
 8849SOL    HW238181   3.547   3.514   7.931  1.0717 -0.4323 -0.8690
 8850SOL     OW38182   2.585   1.698   5.074  0.1902 -0.4960  0.1518
 8850SOL    HW138183   2.633   1.669   5.152  0.2209 -2.7256 -0.6959
 8850SOL    HW238184   2.500   1.717   5.114  0.6645 -0.3600  1.1124
 8851SOL     OW38185   3.502   0.835   5.382  0.0451 -0.9394 -0.0005
 8851SOL    HW138186   3.439   0.866   5.447 -0.8547 -0.2617 -1.1931
 8851SOL    HW238187   3.458   0.760   5.341  0.7928 -0.1926 -2.1587
 8852SOL     OW38188   4.622   2.587   2.102 -0.4110  0.0196 -0.6360
 8852SOL    HW138189   4.629   2.667   2.154 -0.7110  0.3575 -1.1150
 8852SOL    HW238190   4.651   2.609   2.014 -2.0740  2.5590 -0.5813
 8853SOL     OW38191   4.309   4.352  14.231  0.3212 -0.5358  0.3639
 8853SOL    HW138192   4.322   4.382  14.321 -2.7220  0.0886  0.6235
 8853SOL    HW238193   4.292   4.435  14.186 -0.9368 -2.2791 -2.3586
 8854SOL     OW38194   2.589   2.972   3.266 -0.4828 -0.4259  0.0764
 8854SOL    HW138195   2.638   3.052   3.286 -0.5757 -0.1227 -0.9071
 8854SOL    HW238196   2.553   2.992   3.179 -1.9097  1.8602  1.1774
 8855SOL     OW38197   1.910   1.969  16.251  0.0614 -0.1244 -0.3012
 8855SOL    HW138198   1.971   1.991  16.322 -0.3020 -1.6907  0.5060
 8855SOL    HW238199   1.882   1.881  16.277  0.0222  0.1514  0.6175
 8856SOL     OW38200   1.231   0.024   8.100 -0.2580  0.4540 -0.5090
 8856SOL    HW138201   1.326   0.032   8.109 -0.1388 -0.8577 -0.5562
 8856SOL    HW238202   1.228   4.731   8.011  0.5318 -0.1478 -0.3145
 8857SOL     OW38203   4.648   2.837   2.249 -0.5318 -0.0742  0.6065
 8857SOL    HW138204   4.699   2.891   2.310  1.4487 -0.3464 -0.8362
 8857SOL    HW238205   4.672   2.880   2.168  0.2301 -1.3036  0.1942
 8858SOL     OW38206   3.677   0.761   7.603 -0.0307  0.3721  0.4352
 8858SOL    HW138207   3.607   0.778   7.540  0.4507 -2.6617 -0.8922
 8858SOL    HW238208   3.692   0.848   7.640 -1.1673  0.7483  0.0174
 8859SOL     OW38209   4.119   1.393   1.432 -0.2120 -0.1164  0.2106
 8859SOL    HW138210   4.162   1.308   1.432  0.7980  0.4008  0.5091
 8859SOL    HW238211   4.040   1.366   1.479  0.2767 -1.5259  0.2161
 8860SOL     OW38212   4.378   2.853  13.837  0.5751 -0.3381 -0.0856
 8860SOL    HW138213   4.393   2.842  13.931 -0.0150 -1.3266 -0.1121
 8860SOL    HW238214   4.449   2.915  13.817 -0.2752  0.5388 -0.4331
 8861SOL     OW38215   2.719   2.414   1.794  0.2953  0.2043  0.1975
 8861SOL    HW138216   2.662   2.377   1.726  0.6094  1.3008 -0.6785
 8861SOL    HW238217   2.799   2.424   1.743  0.0774 -0.8961 -0.3540
 8862SOL     OW38218   4.171   4.574   7.869 -0.7053  0.2516  0.3126
 8862SOL    HW138219   4.087   4.619   7.875 -0.1967  1.5833 -2.6790
 8862SOL    HW238220   4.143   4.482   7.865 -0.4984  0.2025 -0.0627
 8863SOL     OW38221   1.110   1.472   1.860  0.5407 -0.7846 -0.4744
 8863SOL    HW138222   1.183   1.517   1.901 -0.2348  1.1049 -1.1400
 8863SOL    HW238223   1.139   1.385   1.886  0.7135  0.1103  2.2932
 8864SOL     OW38224   2.499   1.259   6.501 -0.3455  0.5070 -0.4722
 8864SOL    HW138225   2.419   1.226   6.461 -1.8457  1.1661  2.0022
 8864SOL    HW238226   2.555   1.190   6.463  0.3999  0.9388 -0.1480
 8865SOL     OW38227   3.122   2.861   0.168  0.2654  0.1871  0.0829
 8865SOL    HW138228   3.124   2.947   0.210  0.1026  1.0763 -1.7149
 8865SOL    HW238229   3.032   2.867   0.135 -0.6431 -0.0151  2.5465
 8866SOL     OW38230   1.738   2.005   9.800 -0.3459  0.3474 -0.4110
 8866SOL    HW138231   1.788   1.927   9.777  0.7490  0.0945  2.7178
 8866SOL    HW238232   1.784   2.067   9.745  1.4500  0.7940  1.5715
 8867SOL     OW38233   1.222   4.702  14.050  0.3530 -0.3248 -0.4855
 8867SOL    HW138234   1.181   0.025  14.110  0.4023 -1.6011  0.8774
 8867SOL    HW238235   1.260   0.022  13.986  0.0487 -2.3964 -2.5822
 8868SOL     OW38236   1.508   4.402   8.583  0.8370 -0.3251  0.0957
 8868SOL    HW138237   1.437   4.400   8.647 -1.0492  0.1100 -1.9860
 8868SOL    HW238238   1.461   4.450   8.515  3.0257  4.0694  1.6664
 8869SOL     OW38239   1.935   1.721   6.831  0.2703 -0.0290  0.6574
 8869SOL    HW138240   1.909   1.767   6.751  0.3450  1.8899  1.7517
 8869SOL    HW238241   1.871   1.749   6.896 -0.5942 -2.1499  0.7218
 8870SOL     OW38242   2.410   0.500   3.197  0.6718 -0.1088  0.1701
 8870SOL    HW138243   2.405   0.545   3.112 -0.7606 -0.8351 -0.1385
 8870SOL    HW238244   2.335   0.443   3.179 -1.3920  2.2357  1.2197
 8871SOL     OW38245   3.079   1.117  13.674  0.4484  0.1165  0.0220
 8871SOL    HW138246   3.030   1.067  13.610  0.6014  1.3176 -1.0370
 8871SOL    HW238247   3.029   1.198  13.689  0.7598  0.3650 -0.2734
 8872SOL     OW38248   4.387   2.388   6.573 -0.4937  0.0283 -0.2806
 8872SOL    HW138249   4.316   2.334   6.609  1.4816 -0.2592  3.1484
 8872SOL    HW238250   4.436   2.416   6.651 -2.0713 -0.9226  1.0582
 8873SOL     OW38251   0.309   1.364   7.886  0.1749  0.5485 -0.3824
 8873SOL    HW138252   0.258   1.428   7.837  2.1185  1.4938 -1.1496
 8873SOL    HW238253   0.326   1.300   7.817 -0.6985 -0.5421  0.4121
 8874SOL     OW38254   2.338   2.514   9.010 -0.1647  0.1241  0.2994
 8874SOL    HW138255   2.353   2.426   8.974 -1.7137  0.3950 -0.9917
 8874SOL    HW238256   2.243   2.507   9.020 -0.0693 -2.0525 -0.1443
 8875SOL     OW38257   4.692   4.659   9.265  0.1974 -0.6787 -0.0594
 8875SOL    HW138258   4.728   4.648   9.353 -0.9987 -1.8326  0.2810
 8875SOL    HW238259   0.009   4.604   9.211  1.9162  1.1374 -0.1013
 8876SOL     OW38260   2.299   2.361   4.442  0.0569  0.1631  0.3384
 8876SOL    HW138261   2.243   2.327   4.373 -1.8661  1.0744  1.4588
 8876SOL    HW238262   2.351   2.282   4.455 -1.3862 -1.0478 -1.3051
 8877SOL     OW38263   3.710   1.611  10.750  0.1791  0.3189 -0.0441
 8877SOL    HW138264   3.760   1.529  10.744  1.0111  0.7649  0.9150
 8877SOL    HW238265   3.703   1.640  10.841 -0.8383  1.4396 -0.4880
 8878SOL     OW38266   4.138   2.651   1.814 -0.2210 -1.0500  0.0129
 8878SOL    HW138267   4.144   2.723   1.751  0.4663 -0.8522  0.3073
 8878SOL    HW238268   4.194   2.684   1.885 -1.8110  0.0025  0.7693
 8879SOL     OW38269   2.141   0.793   9.234 -0.0059  0.4017 -0.2995
 8879SOL    HW138270   2.228   0.756   9.247  0.6079  2.2460  0.8652
 8879SOL    HW238271   2.095   0.723   9.188  1.3293  0.4520 -1.6888
 8880SOL     OW38272   1.650   2.069   4.449 -0.3613  0.1581  0.3097
 8880SOL    HW138273   1.612   2.071   4.361  0.2733 -2.6251 -0.0450
 8880SOL    HW238274   1.612   1.985   4.477  1.7201 -1.3678 -1.4872
 8881SOL     OW38275   2.326   4.066   1.630 -0.0070 -0.0077  0.3005
 8881SOL    HW138276   2.313   4.150   1.673  2.2227  0.1979  0.6127
 8881SOL    HW238277   2.358   4.001   1.693  0.4758 -0.7747 -0.7255
 8882SOL     OW38278   1.405   3.478   5.611 -0.3061  0.3457 -0.2053
 8882SOL    HW138279   1.474   3.425   5.572  1.1021  2.3378 -0.4017
 8882SOL    HW238280   1.399   3.420   5.687  4.5100 -0.4898 -0.4665
 8883SOL     OW38281   0.589   2.018  11.118 -0.0218  0.1270  0.4223
 8883SOL    HW138282   0.535   1.963  11.174 -0.9947 -0.1641 -0.7907
 8883SOL    HW238283   0.557   2.100  11.155 -0.9999  0.2443 -0.6788
 8884SOL     OW38284   1.405   0.224   5.167  0.7014  0.2933 -0.1522
 8884SOL    HW138285   1.478   0.198   5.223 -0.0557 -1.6733 -0.0648
 8884SOL    HW238286   1.409   0.158   5.097  0.7712 -0.1834  0.3000
 8885SOL     OW38287   0.063   2.831   7.786  0.0019 -0.1798  0.2336
 8885SOL    HW138288   0.116   2.802   7.860 -0.0289  0.4419  0.5015
 8885SOL    HW238289   4.719   2.848   7.830 -0.7303 -1.4416 -0.6591
 8886SOL     OW38290   2.969   2.811   2.683 -0.2061  0.1763  0.3171
 8886SOL    HW138291   2.904   2.815   2.613 -1.1335 -0.3879  1.1441
 8886SOL    HW238292   3.044   2.759   2.652  0.1718  0.5167  0.6582
 8887SOL     OW38293   1.696   3.825   6.342  0.2793  0.0542 -0.1877
 8887SOL    HW138294   1.663   3.850   6.256 -2.3811 -0.0731  0.7925
 8887SOL    HW238295   1.709   3.908   6.388  0.0649 -0.3104  0.5337
 8888SOL     OW38296   2.573   3.423  15.792  0.5173 -0.1181  0.4259
 8888SOL    HW138297   2.511   3.490  15.821 -0.8040 -0.8368 -0.7012
 8888SOL    HW238298   2.621   3.486  15.738 -2.0087  0.8180 -0.7441
 8889SOL     OW38299   2.328   0.762   5.039 -0.2808  0.2484  0.0882
 8889SOL    HW138300   2.346   0.815   4.961 -1.9364  1.2806  0.4282
 8889SOL    HW238301   2.389   0.810   5.096  0.8802 -0.0067 -0.9272
 8890SOL     OW38302   1.446   4.276   2.020  0.7929 -0.0825  0.0347
 8890SOL    HW138303   1.368   4.264   1.966 -0.4236 -0.9351  1.9666
 8890SOL    HW238304   1.514   4.225   1.976 -1.6056 -3.9969  0.8745
 8891SOL     OW38305   0.938   3.227   2.164  0.3825  0.1247  0.7078
 8891SOL    HW138306   0.913   3.293   2.228 -0.3982 -0.7347  1.2956
 8891SOL    HW238307   1.020   3.252   2.121  0.1228 -0.9879 -0.4521
 8892SOL     OW38308   1.038   1.655   5.039 -0.1967 -0.1098  0.0719
 8892SOL    HW138309   1.033   1.740   5.081  2.3957  0.9868 -1.8523
 8892SOL    HW238310   0.943   1.647   5.031 -0.2618  2.8960 -2.1560
 8893SOL     OW38311   4.276   1.298  14.848 -0.0230  0.1053  0.8285
 8893SOL    HW138312   4.267   1.221  14.791  1.4114  2.0828 -2.1125
 8893SOL    HW238313   4.203   1.342  14.805  1.9690  1.7730 -0.8839
 8894SOL     OW38314   0.870   4.260  17.571 -0.3799  0.7644  0.5460
 8894SOL    HW138315   0.784   4.276  17.532  0.8697  1.2509 -2.0471
 8894SOL    HW238316   0.900   4.351  17.571 -1.8027  1.2439 -2.0160
 8895SOL     OW38317   2.108   2.058   4.058  0.3125  0.1160  0.4213
 8895SOL    HW138318   2.090   2.073   4.151  1.8978  0.0572  0.7470
 8895SOL    HW238319   2.137   2.145   4.032 -0.7457  0.6898  1.1776
 8896SOL     OW38320   2.704   2.714   3.766 -0.2938 -0.4500 -0.0658
 8896SOL    HW138321   2.662   2.750   3.688 -0.5002  0.5004  0.4800
 8896SOL    HW238322   2.622   2.679   3.803 -0.5394 -1.2472 -1.3804
 8897SOL     OW38323   1.629   0.132   3.446  0.3050 -0.0032 -0.2837
 8897SOL    HW138324   1.622   0.087   3.361  1.7624  1.1707 -1.0279
 8897SOL    HW238325   1.562   0.082   3.492  0.8459 -0.1529  0.3360
 8898SOL     OW38326   4.030   3.754   7.477  0.1958 -0.9575  0.1088
 8898SOL    HW138327   4.055   3.676   7.527  2.0130 -0.1455  0.4934
 8898SOL    HW238328   4.118   3.781   7.448 -0.7150  0.1384 -1.5945
 8899SOL     OW38329   0.823   0.283   8.027 -0.1400 -0.2497  0.0770
 8899SOL    HW138330   0.797   0.310   7.939 -0.4925 -0.2808  0.1684
 8899SOL    HW238331   0.767   0.207   8.043 -1.7523  1.3952  2.3638
 8900SOL     OW38332   3.230   4.158  17.272 -0.4815  0.1572 -0.4887
 8900SOL    HW138333   3.158   4.095  17.278  0.2894 -0.7112 -0.3459
 8900SOL    HW238334   3.301   4.116  17.225  1.3444  0.3068  2.1192
 8901SOL     OW38335   1.061   0.496  15.266  0.0122  0.2822 -0.3167
 8901SOL    HW138336   1.104   0.445  15.197  2.1017  0.2161  1.0101
 8901SOL    HW238337   0.992   0.535  15.214 -1.2463 -1.3333  0.1524
 8902SOL     OW38338   0.826   3.810   1.700 -0.2018  0.1429 -0.3665
 8902SOL    HW138339   0.751   3.869   1.690  0.7787  1.8408  2.2400
 8902SOL    HW238340   0.777   3.729   1.690 -1.5291  0.8625  0.3642
 8903SOL     OW38341   4.342   3.562   9.080 -0.6991  0.3308 -0.1785
 8903SOL    HW138342   4.400   3.625   9.038 -0.5214  0.8383  0.8493
 8903SOL    HW238343   4.384   3.560   9.166 -2.4528  0.6475  0.6993
 8904SOL     OW38344   3.486   3.142   5.875 -0.2902  0.0939 -0.4086
 8904SOL    HW138345   3.495   3.202   5.801  1.2980 -2.0405 -1.9575
 8904SOL    HW238346   3.401   3.099   5.865 -0.4796  0.0280  1.4275
 8905SOL     OW38347   4.280   1.458   5.127  0.7109  0.1157  1.0048
 8905SOL    HW138348   4.303   1.385   5.069  3.6292  0.7210  1.4286
 8905SOL    HW238349   4.212   1.500   5.075  1.1469 -2.2831 -1.5084
 8906SOL     OW38350   3.909   4.433   2.374 -0.1667  0.1688 -0.3404
 8906SOL    HW138351   4.000   4.462   2.364 -0.0739  0.5994  1.8856
 8906SOL    HW238352   3.923   4.343   2.403 -0.2383  0.5930  1.0132
 8907SOL     OW38353   3.940   4.282  12.240 -0.2670 -0.7117  0.0306
 8907SOL    HW138354   3.893   4.308  12.319  0.7432 -1.3387  0.8392
 8907SOL    HW238355   4.015   4.343  12.243  1.0753 -2.3476 -0.1279
 8908SOL     OW38356   4.563   0.732  14.871 -0.0538  0.0428  0.1830
 8908SOL    HW138357   4.539   0.817  14.908 -2.9589  0.0721 -1.7010
 8908SOL    HW238358   4.655   0.728  14.893 -0.1917  0.3544  0.8050
 8909SOL     OW38359   3.535   3.867   4.607  0.2513  0.7747  0.0248
 8909SOL    HW138360   3.468   3.807   4.641  1.9942 -0.9530  0.3869
 8909SOL    HW238361   3.555   3.827   4.522  1.1049 -0.6204  0.8830
 8910SOL     OW38362   4.669   2.646  16.328  0.5391 -0.1070 -0.3809
 8910SOL    HW138363   4.688   2.641  16.422  1.7251 -1.1544 -0.6856
 8910SOL    HW238364   4.665   2.558  16.291  1.8940 -0.8473  1.2107
 8911SOL     OW38365   0.546   4.620  12.538  0.1087  0.2756 -0.2431
 8911SOL    HW138366   0.568   4.670  12.617  0.2424  1.5934 -1.1112
 8911SOL    HW238367   0.474   4.676  12.507 -1.5090 -0.5547  1.9535
 8912SOL     OW38368   2.689   1.207  14.623  0.2118 -0.3351  0.9355
 8912SOL    HW138369   2.605   1.220  14.579  0.6585  0.3041  0.2677
 8912SOL    HW238370   2.688   1.113  14.637 -1.7929 -0.8927 -2.8798
 8913SOL     OW38371   1.119   2.239  12.381  0.0974 -0.0127 -0.0121
 8913SOL    HW138372   1.138   2.162  12.434  1.5432 -1.1815 -2.2100
 8913SOL    HW238373   1.197   2.291  12.402 -0.3738  0.7998 -0.2789
 8914SOL     OW38374   4.168   0.481  12.106 -0.1096  0.1771 -0.2777
 8914SOL    HW138375   4.184   0.497  12.199 -1.0987  0.0959 -0.0872
 8914SOL    HW238376   4.214   0.556  12.070 -0.5690  0.9117  0.6517
 8915SOL     OW38377   4.282   1.901  13.069 -0.4536  0.1992 -0.1928
 8915SOL    HW138378   4.352   1.872  13.010 -0.2159  0.2154  0.0780
 8915SOL    HW238379   4.291   1.995  13.056  1.1963  0.0578 -0.1162
 8916SOL     OW38380   2.721   0.687  10.069  0.3892 -0.1209  0.3136
 8916SOL    HW138381   2.776   0.764  10.059  0.1188  0.2204  1.4669
 8916SOL    HW238382   2.751   0.644   9.989  0.9040 -1.9389  1.4630
 8917SOL     OW38383   4.459   1.392   3.978 -0.0553  0.1446 -0.4840
 8917SOL    HW138384   4.496   1.304   3.971 -1.4862 -0.4617 -0.1918
 8917SOL    HW238385   4.530   1.449   4.008  0.4895  0.0452 -1.5510
 8918SOL     OW38386   4.188   4.544   2.755 -0.0311 -0.2591  0.0396
 8918SOL    HW138387   4.242   4.510   2.684 -0.4856  0.3702 -0.6051
 8918SOL    HW238388   4.242   4.596   2.816  1.4789 -1.1718 -0.5273
 8919SOL     OW38389   3.383   4.676   3.845 -0.8205 -0.3648 -0.0724
 8919SOL    HW138390   3.384   4.648   3.754 -0.4278 -0.2134 -0.1158
 8919SOL    HW238391   3.457   4.619   3.867  0.1547  0.1401 -2.0172
 8920SOL     OW38392   0.194   2.550   4.737  0.2658  0.2532  0.3481
 8920SOL    HW138393   0.224   2.564   4.647  0.9299 -0.5778  0.4373
 8920SOL    HW238394   0.262   2.601   4.781  1.6123 -0.6223 -0.7175
 8921SOL     OW38395   3.769   4.329  16.984  0.1647 -0.0899  0.2061
 8921SOL    HW138396   3.852   4.318  17.029  0.9374 -1.8894 -1.6870
 8921SOL    HW238397   3.795   4.307  16.895 -2.0136  1.1837 -0.7640
 8922SOL     OW38398   4.473   2.064  15.144 -0.7244  0.5441  0.3940
 8922SOL    HW138399   4.529   2.116  15.085  0.1002 -1.6011 -0.7056
 8922SOL    HW238400   4.522   1.982  15.149 -0.4977  0.3400 -4.3038
 8923SOL     OW38401   1.413   2.443   4.210 -0.4201  0.1541  0.0649
 8923SOL    HW138402   1.491   2.420   4.262  0.7793  0.9508 -1.3700
 8923SOL    HW238403   1.351   2.406   4.273 -2.0471  1.8448 -0.5299
 8924SOL     OW38404   3.069   1.107   8.103 -0.3562  0.0202 -0.3905
 8924SOL    HW138405   3.064   1.060   8.186 -2.5770 -0.3396 -0.7355
 8924SOL    HW238406   3.130   1.176   8.129  1.1782 -0.8900 -1.6309
 8925SOL     OW38407   3.034   0.942   0.881  0.5156  0.3102 -0.4318
 8925SOL    HW138408   3.120   0.971   0.911  1.0708 -1.1961 -0.5649
 8925SOL    HW238409   2.980   0.968   0.956  0.9772  2.0506 -0.7093
 8926SOL     OW38410   2.238   4.588   5.034 -0.7219 -0.8427  0.2264
 8926SOL    HW138411   2.283   4.667   5.005 -0.1046  0.3459  4.4074
 8926SOL    HW238412   2.247   4.531   4.958  0.0843  0.9585 -1.0145
 8927SOL     OW38413   4.561   3.659   7.841  0.1203 -0.6215  0.2971
 8927SOL    HW138414   4.471   3.662   7.874  0.6000  1.8921  1.3335
 8927SOL    HW238415   4.599   3.744   7.861  2.0241 -1.3620 -0.1220
 8928SOL     OW38416   2.340   4.692  14.052  0.0388 -0.7214 -0.1417
 8928SOL    HW138417   2.263   0.007  14.039  1.5718  1.6254  0.6204
 8928SOL    HW238418   2.298   4.606  14.047  0.0481 -0.5763 -3.0964
 8929SOL     OW38419   4.619   3.577   5.089 -0.2081 -0.9255  0.1880
 8929SOL    HW138420   4.560   3.505   5.109  2.3983 -3.1130  0.0774
 8929SOL    HW238421   4.651   3.548   5.004  0.4106  2.5689 -0.7829
 8930SOL     OW38422   3.105   3.364  11.690 -0.0170 -0.4532 -0.5704
 8930SOL    HW138423   3.172   3.417  11.734 -0.2828 -1.0809  0.6108
 8930SOL    HW238424   3.145   3.334  11.609  0.4890 -3.1762  0.6925
 8931SOL     OW38425   2.716   1.299   4.431  0.1616 -0.1527 -0.1615
 8931SOL    HW138426   2.711   1.341   4.516 -0.2154 -1.0040  0.2285
 8931SOL    HW238427   2.796   1.249   4.446  2.3145  3.5382  0.6274
 8932SOL     OW38428   2.352   3.043   5.268  0.2434  0.0126  0.0807
 8932SOL    HW138429   2.282   2.987   5.304 -0.1860 -0.4860 -1.5052
 8932SOL    HW238430   2.299   3.085   5.200  0.2647 -1.5407 -0.8903
 8933SOL     OW38431   2.310   4.356  15.293  0.0589  0.0295  0.3172
 8933SOL    HW138432   2.255   4.383  15.220 -0.2038  0.1720  0.5673
 8933SOL    HW238433   2.278   4.420  15.356 -1.0450 -0.0389 -0.1712
 8934SOL     OW38434   2.521   3.198  16.181 -0.5438  0.1624 -0.1708
 8934SOL    HW138435   2.445   3.231  16.133 -0.1666  0.7024 -0.3942
 8934SOL    HW238436   2.551   3.125  16.127 -0.1419 -0.9791  1.5946
 8935SOL     OW38437   4.278   4.342  14.894 -0.3397 -0.0195  0.2426
 8935SOL    HW138438   4.369   4.373  14.894 -0.1633 -0.5538 -2.3261
 8935SOL    HW238439   4.240   4.344  14.806  1.1632 -1.2725 -0.4550
 8936SOL     OW38440   1.802   0.143   2.995 -0.1849 -0.5746  0.0476
 8936SOL    HW138441   1.843   0.060   3.019  1.2995 -0.5169 -2.2900
 8936SOL    HW238442   1.762   0.161   3.080  0.6389  0.2095  0.2678
 8937SOL     OW38443   0.830   1.076   6.258 -0.0623  0.0288  0.0139
 8937SOL    HW138444   0.747   1.048   6.296  0.7841  1.1884  2.6903
 8937SOL    HW238445   0.851   1.140   6.326  1.4635  0.8041 -1.1691
 8938SOL     OW38446   4.431   0.871   3.468  0.8188 -0.4499 -0.6433
 8938SOL    HW138447   4.472   0.949   3.506 -0.2678  0.7777 -2.0072
 8938SOL    HW238448   4.427   0.879   3.373  0.3297 -0.9274 -0.6621
 8939SOL     OW38449   2.605   1.791   4.804  0.5973  0.4162 -0.4785
 8939SOL    HW138450   2.522   1.744   4.804  0.7704  0.1084 -1.2745
 8939SOL    HW238451   2.635   1.770   4.892 -1.9639  1.7475  0.6858
 8940SOL     OW38452   2.146   2.253   3.845 -0.4488  0.0091  0.0303
 8940SOL    HW138453   2.089   2.249   3.768 -0.1579 -2.9736 -0.0280
 8940SOL    HW238454   2.138   2.345   3.869 -0.4373 -0.0613  0.2974
 8941SOL     OW38455   3.116   3.227   3.331  0.2980  0.1914 -0.0071
 8941SOL    HW138456   3.150   3.212   3.420  1.2027  0.0735 -0.3681
 8941SOL    HW238457   3.197   3.240   3.281 -0.4339  0.1145 -1.2005
 8942SOL     OW38458   4.624   1.778  16.152  0.1354  0.2723  0.0821
 8942SOL    HW138459   4.638   1.836  16.077  2.3078  0.0100  0.2779
 8942SOL    HW238460   4.670   1.823  16.223 -0.9612 -0.4018  1.2355
 8943SOL     OW38461   0.243   0.384  12.013 -0.0590 -0.1565  0.5077
 8943SOL    HW138462   0.332   0.399  11.981 -0.0425 -1.0432  0.1549
 8943SOL    HW238463   0.261   0.341  12.096 -2.7025 -0.8582  0.7078
 8944SOL     OW38464   1.816   1.973   8.817 -0.1826  0.4345  0.6081
 8944SOL    HW138465   1.864   1.952   8.897 -0.0232  3.5505  1.3537
 8944SOL    HW238466   1.776   1.889   8.795 -1.5982  1.2420  0.0989
 8945SOL     OW38467   0.097   0.739  16.309 -0.3718  0.6981  0.4324
 8945SOL    HW138468   0.165   0.785  16.357  1.4039 -0.9811 -0.4769
 8945SOL    HW238469   0.040   0.807  16.272  1.4558  2.1612  0.3049
 8946SOL     OW38470   0.539   2.323   1.660  0.3043 -0.3427 -0.1292
 8946SOL    HW138471   0.473   2.389   1.685 -0.2090  0.6387 -4.1787
 8946SOL    HW238472   0.576   2.296   1.744 -1.2384  1.8120  1.2479
 8947SOL     OW38473   3.932   0.547   3.359 -0.2141 -0.7109 -0.4285
 8947SOL    HW138474   3.937   0.458   3.396 -0.2071  0.2804  1.9197
 8947SOL    HW238475   4.007   0.582   3.406 -1.6427  1.4788  0.1892
 8948SOL     OW38476   2.334   1.295   7.198  0.0259 -0.3684 -0.2870
 8948SOL    HW138477   2.423   1.267   7.177 -0.8267 -1.5251 -2.3480
 8948SOL    HW238478   2.290   1.237   7.260  1.0702  2.3429  2.9671
 8949SOL     OW38479   4.604   4.472   3.990  0.0523 -0.2646  0.6080
 8949SOL    HW138480   4.575   4.423   3.912 -1.9143  2.1774 -0.1779
 8949SOL    HW238481   4.687   4.518   3.973 -0.0782 -1.0372 -2.2667
 8950SOL     OW38482   2.432   3.085   4.930  0.0433  0.6713  0.6507
 8950SOL    HW138483   2.518   3.114   4.960  0.2068 -0.0904  0.9234
 8950SOL    HW238484   2.403   3.166   4.888 -1.2768 -1.0694 -1.8273
 8951SOL     OW38485   3.710   4.340  15.439 -0.0076  0.1695 -0.2095
 8951SOL    HW138486   3.614   4.341  15.443 -0.0568  3.0830 -2.0517
 8951SOL    HW238487   3.730   4.267  15.381  2.0373  1.4457 -1.1012
 8952SOL     OW38488   0.341   4.370   2.144  0.0656  0.1832 -0.2171
 8952SOL    HW138489   0.418   4.323   2.176  1.1814  1.5131 -0.9040
 8952SOL    HW238490   0.270   4.314   2.174 -0.3642  1.6377  1.4317
 8953SOL     OW38491   3.781   0.896   2.295  0.6201 -0.0850 -0.0542
 8953SOL    HW138492   3.792   0.868   2.386  0.7442  3.9251  1.1444
 8953SOL    HW238493   3.690   0.869   2.283  0.0623  1.4843  0.6914
 8954SOL     OW38494   1.081   3.613  10.684  0.3654  0.1894  0.6953
 8954SOL    HW138495   1.170   3.607  10.649  0.3511  0.7265  0.5724
 8954SOL    HW238496   1.062   3.706  10.693 -1.9313 -0.5779  3.8229
 8955SOL     OW38497   0.143   0.683  14.029 -0.1463  0.2485 -0.3473
 8955SOL    HW138498   0.115   0.639  14.109  0.1169  0.3976 -0.1756
 8955SOL    HW238499   0.061   0.683  13.978  1.0134  1.4020 -2.2245
 8956SOL     OW38500   0.436   0.341   6.956 -0.1272 -0.1862 -0.2217
 8956SOL    HW138501   0.402   0.260   6.918  2.2116 -0.9833 -0.5924
 8956SOL    HW238502   0.421   0.317   7.047  0.8496 -0.4907 -0.1440
 8957SOL     OW38503   4.034   1.672  11.285  0.4120  0.0145  0.0440
 8957SOL    HW138504   3.977   1.678  11.208 -0.1966  0.7580  0.5618
 8957SOL    HW238505   3.962   1.674  11.348  0.6833  3.6337  0.2373
 8958SOL     OW38506   0.563   1.811   4.388 -0.6057  0.0934  1.0030
 8958SOL    HW138507   0.607   1.726   4.391  1.6748  1.2981  2.2092
 8958SOL    HW238508   0.471   1.793   4.367 -0.2413  0.4876 -0.9551
 8959SOL     OW38509   1.013   0.818   7.979  0.4121 -0.2558 -0.3430
 8959SOL    HW138510   1.022   0.724   7.992  0.4331 -0.3159 -0.7976
 8959SOL    HW238511   0.986   0.848   8.066  1.7824  1.3831 -0.4693
 8960SOL     OW38512   0.819   2.072   2.291 -0.8283 -0.0576  0.3563
 8960SOL    HW138513   0.805   2.006   2.359  0.1320  0.7085  1.3035
 8960SOL    HW238514   0.898   2.118   2.321 -1.1723  0.7801 -0.0262
 8961SOL     OW38515   2.557   4.551  15.444 -1.0177  0.4144 -0.4024
 8961SOL    HW138516   2.642   4.556  15.399 -0.7199 -0.0445  0.1066
 8961SOL    HW238517   2.497   4.520  15.376 -1.4257  0.7628 -0.1997
 8962SOL     OW38518   1.641   3.347   6.716  0.0675  0.2012 -0.2082
 8962SOL    HW138519   1.731   3.365   6.746 -0.2374  2.8594 -0.9683
 8962SOL    HW238520   1.655   3.326   6.624 -0.4881  1.9865 -0.6933
 8963SOL     OW38521   2.413   2.034   2.316  0.0673  0.6082  0.5991
 8963SOL    HW138522   2.410   2.072   2.228  0.9759  1.4307  0.9364
 8963SOL    HW238523   2.342   2.086   2.354 -0.2599  1.7774 -1.6169
 8964SOL     OW38524   2.594   2.452   3.209  0.0298 -0.5208 -0.1225
 8964SOL    HW138525   2.656   2.452   3.137 -1.8147 -1.1540 -1.7221
 8964SOL    HW238526   2.596   2.361   3.238 -2.9958 -2.0280 -4.6398
 8965SOL     OW38527   2.331   3.268   7.771 -0.7454 -0.1788 -0.4214
 8965SOL    HW138528   2.297   3.284   7.683 -0.9920 -1.3106 -0.5239
 8965SOL    HW238529   2.383   3.188   7.767 -3.1965 -1.7623  0.0895
 8966SOL     OW38530   0.319   2.077   4.192  0.5474 -0.5162  0.0495
 8966SOL    HW138531   0.256   2.007   4.174  1.0622 -0.8338 -0.5081
 8966SOL    HW238532   0.293   2.135   4.121 -0.1224 -1.0543 -0.1540
 8967SOL     OW38533   0.303   2.588   9.489  0.0992  1.0194 -0.1348
 8967SOL    HW138534   0.329   2.497   9.501  0.9735  1.1373 -1.1862
 8967SOL    HW238535   0.258   2.581   9.405  0.6819  2.7608 -0.6029
 8968SOL     OW38536   1.827   0.941  12.638  0.6671  0.2631 -0.5308
 8968SOL    HW138537   1.780   0.859  12.658  1.4867 -0.0629  0.0647
 8968SOL    HW238538   1.864   0.917  12.553  0.9704  1.2064 -0.6548
 8969SOL     OW38539   4.071   1.882   6.236 -0.2257 -0.0537 -0.5982
 8969SOL    HW138540   4.093   1.790   6.222  1.4260  0.2700 -0.0503
 8969SOL    HW238541   4.005   1.878   6.305  0.4427 -0.8411 -0.0085
 8970SOL     OW38542   2.149   4.296   8.806 -0.2367 -0.4092  0.4255
 8970SOL    HW138543   2.149   4.209   8.767 -2.7461 -0.0288 -0.4142
 8970SOL    HW238544   2.056   4.309   8.823 -0.6397 -0.5632 -1.7020
 8971SOL     OW38545   3.391   2.120   6.472 -0.0586 -0.5079 -0.3235
 8971SOL    HW138546   3.348   2.097   6.390  0.5009 -0.4332 -0.6430
 8971SOL    HW238547   3.344   2.096   6.552 -1.6309 -0.0221 -1.1159
 8972SOL     OW38548   2.317   1.532  11.126 -0.3053 -0.4450  0.1406
 8972SOL    HW138549   2.393   1.503  11.076  1.3660  2.0335  1.2751
 8972SOL    HW238550   2.274   1.581  11.056 -2.3299  0.3753  1.9315
 8973SOL     OW38551   3.569   2.514   4.354  0.1741 -0.5537  0.3645
 8973SOL    HW138552   3.521   2.542   4.275  1.8291  0.2576 -0.3627
 8973SOL    HW238553   3.521   2.437   4.384 -1.9973  0.1336 -1.3040
 8974SOL     OW38554   1.604   1.803   5.444 -0.1386  0.2021  0.8423
 8974SOL    HW138555   1.659   1.791   5.522  0.5278 -1.1583  0.1601
 8974SOL    HW238556   1.521   1.765   5.475  0.2783 -0.1623  1.5202
 8975SOL     OW38557   1.419   2.090   9.151 -0.5742  0.1333 -0.0287
 8975SOL    HW138558   1.446   2.071   9.061 -0.5628 -0.1724  0.0388
 8975SOL    HW238559   1.472   2.032   9.204 -1.4444  0.1043  0.8072
 8976SOL     OW38560   2.173   1.539   2.486 -0.9368 -0.2307 -0.1303
 8976SOL    HW138561   2.235   1.608   2.511 -1.2675 -0.1053  0.3489
 8976SOL    HW238562   2.190   1.476   2.556  2.4283  0.3109 -0.4683
 8977SOL     OW38563   1.340   1.469   6.081 -0.6051 -0.0024  0.0032
 8977SOL    HW138564   1.364   1.406   6.149  0.4469 -1.0771 -1.3888
 8977SOL    HW238565   1.407   1.537   6.088  2.2345 -2.9444  1.4001
 8978SOL     OW38566   2.439   2.199   8.091  0.0433  0.5652 -0.2216
 8978SOL    HW138567   2.453   2.105   8.100  0.7731  0.7547  0.6625
 8978SOL    HW238568   2.397   2.208   8.177  2.2025  0.1345  0.8913
 8979SOL     OW38569   1.651   4.468   1.783  0.2149  0.2838 -0.1225
 8979SOL    HW138570   1.713   4.396   1.795  0.0870 -0.0406 -1.3941
 8979SOL    HW238571   1.688   4.540   1.833 -0.6334  1.0383 -0.5912
 8980SOL     OW38572   3.481   1.304  12.984  0.0824  0.1584  0.9668
 8980SOL    HW138573   3.499   1.254  12.903  0.1846 -0.1551  1.1830
 8980SOL    HW238574   3.534   1.264  13.053  2.0470 -3.0737 -2.4186
 8981SOL     OW38575   0.023   0.178   9.168 -0.6946  0.2140  0.1253
 8981SOL    HW138576   4.673   0.164   9.138  0.7315 -0.7428 -3.6778
 8981SOL    HW238577   0.039   0.092   9.205  1.3922  0.1810 -0.8509
 8982SOL     OW38578   3.872   1.706  15.852 -0.5283 -0.3174  0.2980
 8982SOL    HW138579   3.882   1.733  15.760 -0.0856  1.0330  0.7468
 8982SOL    HW238580   3.793   1.754  15.877  0.3961  0.1171  2.3447
 8983SOL     OW38581   4.594   1.626  16.962  0.0237 -0.1150 -0.6029
 8983SOL    HW138582   4.572   1.640  16.871  1.8016  1.7919 -0.7261
 8983SOL    HW238583   4.648   1.704  16.973  1.5228 -1.1385 -0.6537
 8984SOL     OW38584   4.295   0.892   8.308 -0.0700 -0.4634 -0.1952
 8984SOL    HW138585   4.266   0.935   8.228 -3.0802  0.3273  1.3142
 8984SOL    HW238586   4.264   0.956   8.372 -1.3861 -0.7562 -0.5356
 8985SOL     OW38587   2.801   0.095   1.412 -0.3973 -0.2619  0.0976
 8985SOL    HW138588   2.864   0.141   1.356 -0.9674 -1.6555 -1.6838
 8985SOL    HW238589   2.733   0.161   1.423  1.4419  1.4674  1.0009
 8986SOL     OW38590   4.457   2.326   7.549  0.3224  0.1164  0.0807
 8986SOL    HW138591   4.424   2.410   7.580 -1.2880 -1.3268  2.3417
 8986SOL    HW238592   4.458   2.275   7.630  0.4745  0.5452  0.3456
 8987SOL     OW38593   1.739   1.847   6.262  0.3822  0.2954 -0.1424
 8987SOL    HW138594   1.668   1.876   6.319  0.9615  0.2476  0.6050
 8987SOL    HW238595   1.781   1.779   6.315  0.5581  0.8354  0.4121
 8988SOL     OW38596   1.805   0.032  14.017 -0.2089  0.7598 -0.5788
 8988SOL    HW138597   1.713   0.057  14.026  0.2328  2.5493 -0.9211
 8988SOL    HW238598   1.834   0.016  14.106  1.7233 -2.9703 -1.8674
 8989SOL     OW38599   1.242   2.766   9.716 -0.1448 -0.3820 -0.3909
 8989SOL    HW138600   1.327   2.762   9.672  0.4017 -0.4791  0.6733
 8989SOL    HW238601   1.238   2.861   9.726  1.2213 -0.5229  1.5317
 8990SOL     OW38602   4.471   2.822   5.446  0.1846  0.4077 -0.5453
 8990SOL    HW138603   4.397   2.765   5.464  2.0053 -1.5826  0.5159
 8990SOL    HW238604   4.532   2.798   5.515  1.7374 -0.5428 -2.2479
 8991SOL     OW38605   1.712   2.586   7.307  0.4794  0.0957  0.0008
 8991SOL    HW138606   1.754   2.589   7.393  0.2386  0.1705  0.1165
 8991SOL    HW238607   1.662   2.505   7.318  1.3682 -0.5897 -1.1183
 8992SOL     OW38608   1.608   1.069  12.374 -0.1987 -0.8062 -0.0031
 8992SOL    HW138609   1.698   1.086  12.401 -0.2424  2.2610 -1.7504
 8992SOL    HW238610   1.621   1.081  12.280  2.2634 -1.4903  0.2679
 8993SOL     OW38611   4.554   0.602   4.363 -0.2871 -0.1051 -0.0508
 8993SOL    HW138612   4.609   0.591   4.285  0.8446  1.2943  0.5302
 8993SOL    HW238613   4.498   0.673   4.330 -0.5215  0.2181  1.0566
 8994SOL     OW38614   2.351   1.785   5.210  0.1736  0.0151 -0.6827
 8994SOL    HW138615   2.383   1.781   5.300  2.4638 -0.0668 -1.4955
 8994SOL    HW238616   2.351   1.880   5.198 -0.1955  0.1190  0.1418
 8995SOL     OW38617   2.795   4.615   8.386 -0.4359 -0.0749 -0.2890
 8995SOL    HW138618   2.839   4.690   8.346 -0.7861  0.2290 -0.0996
 8995SOL    HW238619   2.721   4.594   8.330  1.4901 -2.1776 -2.0725
 8996SOL     OW38620   4.420   4.117   9.515 -0.2559  0.4413 -0.0208
 8996SOL    HW138621   4.437   4.024   9.526 -0.3587  0.0087 -3.4044
 8996SOL    HW238622   4.508   4.150   9.499  0.6131 -1.7787  0.2754
 8997SOL     OW38623   2.136   0.597   2.553  0.4887  0.5796  0.0741
 8997SOL    HW138624   2.106   0.680   2.516  1.8679  0.5273 -1.1427
 8997SOL    HW238625   2.095   0.537   2.490 -1.1588  1.0519  0.6936
 8998SOL     OW38626   1.283   3.187  13.160 -0.2390 -0.3436 -0.4787
 8998SOL    HW138627   1.310   3.120  13.097  0.5250  1.5634 -2.2029
 8998SOL    HW238628   1.303   3.271  13.118  0.5850 -0.7162 -0.8405
 8999SOL     OW38629   2.593   1.997   7.087 -0.0927 -0.0346  0.0705
 8999SOL    HW138630   2.630   1.994   7.175 -1.3641 -2.5983  0.5082
 8999SOL    HW238631   2.507   1.961   7.107  1.0674 -2.2825  1.0680
 9000SOL     OW38632   3.565   1.680   2.040 -0.2842  0.4890  0.4797
 9000SOL    HW138633   3.637   1.664   1.979 -1.6346 -0.5467 -0.8558
 9000SOL    HW238634   3.606   1.666   2.126  1.8851  1.0224 -0.4590
 9001SOL     OW38635   0.929   4.090   8.128 -0.0580 -0.2676 -0.2074
 9001SOL    HW138636   0.908   4.051   8.213  0.6773 -1.1457 -0.4320
 9001SOL    HW238637   0.924   4.183   8.152  1.8312 -0.4269  0.8669
 9002SOL     OW38638   2.179   3.086  10.530 -0.0976  0.2637 -0.6106
 9002SOL    HW138639   2.274   3.085  10.543 -0.5039  1.0397  2.4837
 9002SOL    HW238640   2.166   3.105  10.623  1.7915  0.3773 -0.3721
 9003SOL     OW38641   3.781   2.312   8.626 -0.0443 -0.1174 -0.1409
 9003SOL    HW138642   3.750   2.223   8.637  0.6813 -0.1467  1.5796
 9003SOL    HW238643   3.757   2.320   8.533  2.7325  0.6328 -0.7801
 9004SOL     OW38644   1.949   2.710  17.703 -0.6854  0.2344  0.2857
 9004SOL    HW138645   1.909   2.714   0.033 -0.6386 -2.2982  0.4174
 9004SOL    HW238646   1.917   2.790  17.660  1.9335  0.0891 -1.9293
 9005SOL     OW38647   3.442   4.271  15.192  0.3881  0.0897  0.0017
 9005SOL    HW138648   3.527   4.302  15.160  1.6521 -0.4391  2.8398
 9005SOL    HW238649   3.388   4.350  15.191 -0.9648 -0.8371 -0.2622
 9006SOL     OW38650   3.998   1.190   0.261 -0.5840 -0.1135 -0.1083
 9006SOL    HW138651   4.057   1.230   0.325 -0.8647  0.2888 -0.1011
 9006SOL    HW238652   4.064   1.155   0.202  1.9767  2.4573  1.2521
 9007SOL     OW38653   0.113   3.600   8.249 -0.6605  0.1468  0.8861
 9007SOL    HW138654   0.025   3.595   8.288 -0.8750  2.0946  0.6776
 9007SOL    HW238655   0.098   3.589   8.155  0.6444 -0.7617  0.7801
 9008SOL     OW38656   4.015   4.408   0.336 -0.0614 -0.4602  0.1744
 9008SOL    HW138657   4.047   4.435   0.423 -0.7833  2.4373 -0.4561
 9008SOL    HW238658   4.095   4.430   0.288 -0.5740  0.9890 -0.0340
 9009SOL     OW38659   2.353   3.327   1.341  0.9713 -0.3489  0.7571
 9009SOL    HW138660   2.388   3.256   1.395  2.3536  0.5448  1.0183
 9009SOL    HW238661   2.264   3.294   1.330  0.8876  0.3438 -0.5571
 9010SOL     OW38662   2.832   0.857   3.463 -0.4563 -0.4259 -0.4154
 9010SOL    HW138663   2.860   0.890   3.378 -0.3104  0.5515  0.0171
 9010SOL    HW238664   2.912   0.815   3.493 -0.3073 -0.9491 -1.5436
 9011SOL     OW38665   4.736   3.068  15.387  0.6941  0.5412  0.0811
 9011SOL    HW138666   4.646   3.038  15.378  1.1195 -0.0949 -1.9770
 9011SOL    HW238667   0.025   3.040  15.474 -1.0824 -1.0958  0.1402
 9012SOL     OW38668   2.679   0.053   6.421 -0.1482  0.3198 -0.2152
 9012SOL    HW138669   2.769   0.041   6.451  0.8722  0.3006 -3.2924
 9012SOL    HW238670   2.693   0.038   6.328 -0.8109  0.3117 -0.3137
 9013SOL     OW38671   1.114   0.862   3.541  0.2803 -0.1818  0.1232
 9013SOL    HW138672   1.080   0.780   3.504  1.7279 -0.1715 -1.2177
 9013SOL    HW238673   1.104   0.917   3.464 -0.3923 -1.5220 -0.7496
 9014SOL     OW38674   2.289   0.857   3.277 -0.3044 -0.0044 -0.0061
 9014SOL    HW138675   2.379   0.887   3.287  0.0550 -1.5209  1.3727
 9014SOL    HW238676   2.256   0.894   3.359 -1.5171 -0.6603 -0.1943
 9015SOL     OW38677   2.207   0.419   4.120  0.3962 -0.1022 -0.4255
 9015SOL    HW138678   2.299   0.444   4.118 -0.0157  1.3830 -0.4138
 9015SOL    HW238679   2.168   0.497   4.159  0.1541  0.4149 -1.7106
 9016SOL     OW38680   0.369   2.101  16.416  0.2207 -0.3427  0.2587
 9016SOL    HW138681   0.305   2.156  16.371 -0.7080 -0.3531  1.5764
 9016SOL    HW238682   0.395   2.160  16.487 -0.8416 -1.2549  1.4042
 9017SOL     OW38683   0.063   1.097   3.065 -0.1384 -0.7649 -0.1530
 9017SOL    HW138684   0.022   1.087   3.151  0.5221 -1.2524  0.1014
 9017SOL    HW238685   4.739   1.150   3.016 -0.3094 -0.7090  0.1325
 9018SOL     OW38686   1.031   2.654  15.659 -0.1003  0.2923  0.0839
 9018SOL    HW138687   0.974   2.731  15.656 -1.6978 -0.7767  2.4632
 9018SOL    HW238688   1.027   2.625  15.751 -1.9833 -0.3746 -0.1981
 9019SOL     OW38689   2.461   4.107   1.953 -0.1461 -0.1642  0.1795
 9019SOL    HW138690   2.438   4.152   2.035  3.3781 -0.4457  1.3144
 9019SOL    HW238691   2.455   4.177   1.888  2.2054  0.2876  0.4395
 9020SOL     OW38692   4.446   1.119   2.210  0.2665 -0.7013  0.5486
 9020SOL    HW138693   4.530   1.159   2.190  0.3827 -1.2967 -0.1602
 9020SOL    HW238694   4.379   1.187   2.203  1.4203  0.0705 -2.8353
 9021SOL     OW38695   2.682   0.929  17.366 -0.1929 -0.0473 -0.1295
 9021SOL    HW138696   2.776   0.944  17.361 -0.4304  0.8578 -1.7318
 9021SOL    HW238697   2.659   1.014  17.328 -0.3310 -1.2152 -2.6009
 9022SOL     OW38698   1.040   1.193   4.610 -0.1603  0.1014  0.2920
 9022SOL    HW138699   0.968   1.213   4.550 -0.5643 -1.4945  0.2520
 9022SOL    HW238700   1.020   1.264   4.671 -1.2067 -1.3081  1.5560
 9023SOL     OW38701   1.068   2.507   8.718  0.4013 -0.1713  0.1693
 9023SOL    HW138702   1.130   2.574   8.746 -1.3768  1.9750 -0.9867
 9023SOL    HW238703   1.029   2.483   8.802  1.6446 -0.7145  0.5773
 9024SOL     OW38704   0.205   0.332   2.806 -0.1072 -0.0398 -0.1287
 9024SOL    HW138705   0.124   0.341   2.856 -0.7235  1.7249 -1.4783
 9024SOL    HW238706   0.202   0.410   2.751 -2.1658  0.4227  0.6269
 9025SOL     OW38707   3.822   4.158   7.962 -0.1984  0.7741 -0.7289
 9025SOL    HW138708   3.804   4.087   7.900  0.3026  0.3029 -0.3354
 9025SOL    HW238709   3.733   4.170   7.996 -0.1703  0.6630 -0.6148
 9026SOL     OW38710   4.713   2.894  16.997 -0.2875 -0.4805 -0.4397
 9026SOL    HW138711   4.665   2.819  16.962 -0.8237 -0.5686  0.4901
 9026SOL    HW238712   4.637   2.946  17.024 -0.7154 -1.0189 -0.5903
 9027SOL     OW38713   2.854   3.281   6.772  0.6500  0.4587 -0.8031
 9027SOL    HW138714   2.844   3.272   6.677  1.4072 -0.0705 -0.8317
 9027SOL    HW238715   2.794   3.210   6.797  1.8099 -0.1864  0.1289
 9028SOL     OW38716   0.636   3.464  15.119  0.5467  0.1310  0.5137
 9028SOL    HW138717   0.723   3.470  15.079 -0.1575  0.9109 -0.8948
 9028SOL    HW238718   0.616   3.371  15.108 -0.7512  0.6022 -1.0040
 9029SOL     OW38719   0.725   2.936   4.089  0.4184 -0.1233  0.2402
 9029SOL    HW138720   0.700   3.028   4.080 -0.9455 -0.3558  1.6476
 9029SOL    HW238721   0.650   2.892   4.050 -1.1140  2.4214  0.3481
 9030SOL     OW38722   2.812   3.828   3.660  0.6399  0.3704  0.2138
 9030SOL    HW138723   2.819   3.921   3.685 -0.8736  0.3427  0.7902
 9030SOL    HW238724   2.721   3.827   3.629  0.5715  0.5359  0.4072
 9031SOL     OW38725   1.006   2.327   5.536 -0.4591 -0.5643  0.1636
 9031SOL    HW138726   1.028   2.246   5.582  0.1269  0.5233  1.8081
 9031SOL    HW238727   0.913   2.316   5.522 -0.2642 -2.5128  0.4924
 9032SOL     OW38728   3.525   4.098   2.003  0.6645  0.5415  0.3694
 9032SOL    HW138729   3.455   4.143   1.956  1.3707  4.5442  3.0765
 9032SOL    HW238730   3.459   4.070   2.066  1.7400 -1.0973  0.7576
 9033SOL     OW38731   4.292   4.051  17.063 -0.4453  0.9163  0.7142
 9033SOL    HW138732   4.286   4.140  17.099  0.4874  0.9917  0.6998
 9033SOL    HW238733   4.376   4.023  17.099 -1.4757 -0.9124  1.6457
 9034SOL     OW38734   1.057   0.816   1.188 -0.1351  0.3068  0.0877
 9034SOL    HW138735   1.014   0.756   1.128  0.4115 -0.4433  0.4542
 9034SOL    HW238736   1.127   0.844   1.129 -1.3602  1.8688 -0.6309
 9035SOL     OW38737   2.768   3.330   1.967 -0.9580 -0.1196  0.1882
 9035SOL    HW138738   2.687   3.351   2.015  0.1684 -2.9339  3.3211
 9035SOL    HW238739   2.752   3.374   1.884 -0.4263  0.5545  0.4444
 9036SOL     OW38740   0.480   2.458   4.986  0.2668  0.4490  0.8226
 9036SOL    HW138741   0.463   2.547   4.953  0.1136 -0.3018 -1.1017
 9036SOL    HW238742   0.417   2.402   4.941  1.9044 -0.1847 -0.7076
 9037SOL     OW38743   0.555   4.725  10.211 -0.8718 -0.0710 -0.3459
 9037SOL    HW138744   0.474   4.692  10.250 -0.4619 -1.3359 -0.5709
 9037SOL    HW238745   0.557   0.071  10.255 -1.3739  0.8546 -2.1460
 9038SOL     OW38746   1.781   1.773  12.934  0.5902 -0.3008 -0.4508
 9038SOL    HW138747   1.758   1.784  12.842 -0.2614 -0.0919 -0.2083
 9038SOL    HW238748   1.707   1.719  12.962  0.3990  1.1424  1.8034
 9039SOL     OW38749   0.736   0.268   6.977 -0.0657  0.2652 -0.1139
 9039SOL    HW138750   0.793   0.308   6.911 -0.7292  0.0051 -0.8573
 9039SOL    HW238751   0.661   0.328   6.973 -0.7151 -0.4963  0.6967
 9040SOL     OW38752   2.731   0.959   4.544 -0.1453 -0.4417 -0.4958
 9040SOL    HW138753   2.730   0.894   4.474 -2.2990 -0.4900 -0.4256
 9040SOL    HW238754   2.660   1.017   4.514  0.6417  0.9268  0.2616
 9041SOL     OW38755   1.239   0.351  11.607  0.2258 -0.3747  0.1438
 9041SOL    HW138756   1.330   0.322  11.613 -0.2433 -1.5721  1.4889
 9041SOL    HW238757   1.204   0.299  11.534 -1.4857  1.3324 -0.2490
 9042SOL     OW38758   3.995   1.448   1.854 -0.4950 -0.7000 -0.0547
 9042SOL    HW138759   4.067   1.511   1.856  0.5040 -1.7659 -2.4977
 9042SOL    HW238760   4.017   1.391   1.928  1.9507  0.7886  0.3577
 9043SOL     OW38761   4.347   4.107  11.838 -0.4471 -0.0580  0.1565
 9043SOL    HW138762   4.333   4.066  11.923  2.8218  0.1818  0.8262
 9043SOL    HW238763   4.338   4.024  11.791 -0.2446 -0.6113  1.0778
 9044SOL     OW38764   0.392   2.727   7.386  0.9656  0.6178 -0.0609
 9044SOL    HW138765   0.356   2.791   7.325  1.0384  1.3875  0.7095
 9044SOL    HW238766   0.355   2.764   7.465 -0.1843  3.7311 -2.0674
 9045SOL     OW38767   3.575   2.116   7.705 -0.3306 -0.2124 -0.1239
 9045SOL    HW138768   3.492   2.074   7.727  0.1317 -0.8407  0.4159
 9045SOL    HW238769   3.546   2.206   7.720  0.5606  0.3587 -1.8263
 9046SOL     OW38770   1.569   1.929   1.909 -0.0288  0.6360  0.0485
 9046SOL    HW138771   1.531   2.002   1.958  0.0687  1.3775 -0.9677
 9046SOL    HW238772   1.490   1.877   1.898 -0.1795  1.2078 -1.5849
 9047SOL     OW38773   4.450   1.124   7.610 -0.0685 -0.0282  0.0805
 9047SOL    HW138774   4.466   1.204   7.661  0.1513  0.2401 -0.4022
 9047SOL    HW238775   4.526   1.115   7.553 -0.1057 -1.8714  0.3434
 9048SOL     OW38776   0.971   1.469   2.669 -0.0007  0.2860  0.3752
 9048SOL    HW138777   1.037   1.488   2.736  0.3031 -0.0605  0.1763
 9048SOL    HW238778   1.019   1.487   2.588 -0.3348 -2.4864 -0.4570
 9049SOL     OW38779   2.352   3.141   8.425 -0.0136  0.0678 -0.0076
 9049SOL    HW138780   2.403   3.163   8.347 -0.8288 -1.6064 -1.0255
 9049SOL    HW238781   2.397   3.183   8.498 -0.1739 -1.5305  1.0053
 9050SOL     OW38782   2.901   0.098  15.982  0.1894 -0.7286  0.2076
 9050SOL    HW138783   2.925   0.186  15.952 -0.7405 -0.9645 -1.2510
 9050SOL    HW238784   2.943   0.086  16.067 -0.8154  2.2071  1.1032
 9051SOL     OW38785   4.479   1.696  10.166 -0.2158 -0.1333 -0.6548
 9051SOL    HW138786   4.535   1.678  10.242 -1.5390 -0.3335  0.2683
 9051SOL    HW238787   4.398   1.671  10.211 -0.0286  0.4643  0.0167
 9052SOL     OW38788   2.920   4.035   8.369 -0.7446 -0.1179  0.2125
 9052SOL    HW138789   2.922   4.003   8.459 -1.4175 -0.9080 -0.0577
 9052SOL    HW238790   2.878   4.121   8.381  0.0964  0.5466 -1.5949
 9053SOL     OW38791   3.820   0.412   7.714 -0.0593 -0.1132 -0.5198
 9053SOL    HW138792   3.843   0.376   7.799 -0.1411  0.9369 -0.0517
 9053SOL    HW238793   3.831   0.503   7.744  0.7131 -0.0449 -1.0051
 9054SOL     OW38794   3.914   0.657   7.454 -0.2893  0.0118  0.2732
 9054SOL    HW138795   3.960   0.598   7.514 -1.0830 -1.9253 -1.0207
 9054SOL    HW238796   3.862   0.716   7.508  0.4522 -0.1381  1.1575
 9055SOL     OW38797   1.345   1.976   5.166  0.6763 -0.0905  0.5539
 9055SOL    HW138798   1.255   1.992   5.197  0.7952  0.2108  0.7451
 9055SOL    HW238799   1.332   1.907   5.101  1.5777  0.7467 -0.5085
 9056SOL     OW38800   3.746   0.880   3.837 -0.5025 -0.4698 -0.2885
 9056SOL    HW138801   3.697   0.879   3.755 -0.4424  1.6984 -0.3453
 9056SOL    HW238802   3.823   0.929   3.810 -0.4712  0.6972  1.9266
 9057SOL     OW38803   4.469   1.560  12.829 -0.0428 -0.0787  0.0584
 9057SOL    HW138804   4.494   1.513  12.750  0.8971 -1.6023  1.2623
 9057SOL    HW238805   4.549   1.608  12.855  0.2546  0.8337 -2.5667
 9058SOL     OW38806   2.030   2.290   8.625 -0.2680  0.4265 -0.1467
 9058SOL    HW138807   1.964   2.252   8.683  0.3924 -0.4930 -0.0054
 9058SOL    HW238808   2.046   2.380   8.653  3.0964 -0.2074 -0.0150
 9059SOL     OW38809   1.321   1.673  16.324 -0.2294  0.4077  0.0679
 9059SOL    HW138810   1.284   1.754  16.358  0.7492  0.2439  1.5332
 9059SOL    HW238811   1.382   1.651  16.394 -1.3107 -0.2354  0.7919
 9060SOL     OW38812   1.897   1.537  17.712  0.5702 -0.3963  0.6068
 9060SOL    HW138813   1.871   1.499   0.039 -0.4255  0.5137  0.7060
 9060SOL    HW238814   1.992   1.546  17.722  0.7949 -0.5865 -1.4181
 9061SOL     OW38815   4.598   1.725   7.923 -0.6549  0.2447  0.0466
 9061SOL    HW138816   4.693   1.713   7.925 -0.6069  1.3188  3.7153
 9061SOL    HW238817   4.585   1.770   7.839 -0.7855  0.7424  0.3345
 9062SOL     OW38818   0.057   2.644  16.597  0.6924  0.3305 -0.0471
 9062SOL    HW138819   0.068   2.737  16.578 -0.2874  0.5305  0.3814
 9062SOL    HW238820   0.130   2.598  16.556  1.2805  0.1854  1.1708
 9063SOL     OW38821   0.076   4.312  10.800  0.7076 -0.0648 -0.1339
 9063SOL    HW138822   0.080   4.220  10.825 -0.7001  0.1816  0.9624
 9063SOL    HW238823   0.144   4.318  10.733  0.3419  0.3446 -0.4667
 9064SOL     OW38824   1.601   0.428   3.810 -0.2056 -0.0013  0.1113
 9064SOL    HW138825   1.644   0.354   3.854  0.1743  1.2138  1.7670
 9064SOL    HW238826   1.674   0.486   3.787  0.0221 -1.0547 -1.8700
 9065SOL     OW38827   3.178   3.554   4.409 -0.3405  0.3379 -0.8422
 9065SOL    HW138828   3.092   3.595   4.394 -1.2335 -1.1203  0.3118
 9065SOL    HW238829   3.152   3.463   4.422 -0.5538  0.5140 -0.0004
 9066SOL     OW38830   3.342   0.451   2.804 -0.0011 -0.3585 -0.3581
 9066SOL    HW138831   3.408   0.487   2.862  0.8862 -0.7291 -1.1286
 9066SOL    HW238832   3.267   0.491   2.847  0.3962  1.2036 -1.1221
 9067SOL     OW38833   2.704   0.670  17.452 -0.2325  0.2731 -0.0128
 9067SOL    HW138834   2.695   0.765  17.445 -0.1529  0.3069  0.3145
 9067SOL    HW238835   2.786   0.661  17.405 -0.1274  0.6680  0.0896
 9068SOL     OW38836   2.154   0.586   8.472  0.0057 -0.3662 -0.0325
 9068SOL    HW138837   2.158   0.651   8.402  2.0924 -2.1367 -1.5647
 9068SOL    HW238838   2.090   0.627   8.530  0.1705 -0.2217  0.0470
 9069SOL     OW38839   1.199   1.217   8.496  0.2154  0.5110 -0.3802
 9069SOL    HW138840   1.237   1.240   8.411 -0.1911  1.0348 -0.4212
 9069SOL    HW238841   1.282   1.196   8.537  0.5459  1.9310 -0.3211
 9070SOL     OW38842   2.189   4.418   4.070 -0.2463 -0.1060  0.2133
 9070SOL    HW138843   2.223   4.506   4.062 -0.4307  0.1306  1.9644
 9070SOL    HW238844   2.118   4.424   4.135 -0.5189 -0.7029 -0.0184
 9071SOL     OW38845   4.571   3.335   8.085 -0.5921  0.0084 -0.1907
 9071SOL    HW138846   4.534   3.348   7.997  1.4080  1.7873 -0.7698
 9071SOL    HW238847   4.654   3.372   8.056 -0.3720 -1.9565 -2.0523
 9072SOL     OW38848   1.484   1.983   6.798  0.0065  0.4412 -0.0937
 9072SOL    HW138849   1.425   1.986   6.723 -0.0297  2.4450 -0.0004
 9072SOL    HW238850   1.559   1.932   6.766 -1.6161 -2.1153  0.2279
 9073SOL     OW38851   0.537   1.444  11.390 -0.2953  0.0894 -0.0086
 9073SOL    HW138852   0.479   1.374  11.419 -1.7990  1.0887 -0.5736
 9073SOL    HW238853   0.619   1.396  11.399 -0.4161  0.1537  1.5106
 9074SOL     OW38854   1.562   0.644   2.336  0.1745 -0.1862  0.6552
 9074SOL    HW138855   1.559   0.711   2.268  0.4841 -1.0146 -0.1820
 9074SOL    HW238856   1.483   0.591   2.324  0.9325 -1.2352  0.3054
 9075SOL     OW38857   4.370   3.492   7.531 -0.3918 -0.1222 -0.2242
 9075SOL    HW138858   4.400   3.420   7.476 -1.0741 -0.3878 -0.2478
 9075SOL    HW238859   4.334   3.445   7.606  3.1756  0.0739  1.5820
 9076SOL     OW38860   2.868   0.587  15.045  0.1360 -0.0774 -0.3747
 9076SOL    HW138861   2.889   0.530  14.971 -0.3265 -0.7480  0.0148
 9076SOL    HW238862   2.883   0.672  15.002 -1.4194  1.5551  2.2881
 9077SOL     OW38863   4.233   3.219   0.823  0.3432  0.9327  0.4205
 9077SOL    HW138864   4.252   3.218   0.917 -1.1621  0.0744  0.7157
 9077SOL    HW238865   4.139   3.205   0.833  0.0523  2.1187 -0.6105
 9078SOL     OW38866   3.287   3.452   4.813 -1.1624  0.1145  0.4887
 9078SOL    HW138867   3.257   3.362   4.798  1.6361 -0.8116  0.5207
 9078SOL    HW238868   3.218   3.503   4.855 -1.7214  1.1537 -1.7098
 9079SOL     OW38869   2.009   3.472   7.725 -0.1016  0.0082 -0.8146
 9079SOL    HW138870   1.968   3.390   7.752 -0.8561  0.9096  0.7518
 9079SOL    HW238871   2.083   3.448   7.669  3.4492 -0.1574  3.8972
 9080SOL     OW38872   1.704   3.770   4.140  0.1031  0.0564 -0.1638
 9080SOL    HW138873   1.763   3.846   4.140 -0.6254  0.6170 -1.4549
 9080SOL    HW238874   1.634   3.806   4.194  0.1305  0.2997 -0.2914
 9081SOL     OW38875   3.462   3.429   9.740 -0.0303 -0.1090  0.3388
 9081SOL    HW138876   3.465   3.520   9.768 -0.1429 -0.0242  0.0787
 9081SOL    HW238877   3.453   3.378   9.820  2.0782 -0.8243  0.1265
 9082SOL     OW38878   3.220   1.725   0.048  0.6514  0.2106 -0.1086
 9082SOL    HW138879   3.223   1.759  17.715 -0.2883  2.3555  0.6719
 9082SOL    HW238880   3.302   1.679   0.064  0.3439 -0.2620  0.1433
 9083SOL     OW38881   2.943   1.516   8.043  0.9432  0.1602  0.7080
 9083SOL    HW138882   2.883   1.558   8.105  0.9884  2.8341 -1.0959
 9083SOL    HW238883   2.887   1.501   7.968  1.0936 -0.5331  0.7301
 9084SOL     OW38884   4.022   4.162  17.001  0.0381  0.6285 -0.5402
 9084SOL    HW138885   4.073   4.223  17.054 -0.4140  2.1837 -1.9071
 9084SOL    HW238886   4.057   4.079  17.033  0.0127  0.8121 -0.0190
 9085SOL     OW38887   2.346   0.654   1.853 -0.1618  0.3085  0.1742
 9085SOL    HW138888   2.395   0.652   1.772 -0.9369  0.4435 -0.3016
 9085SOL    HW238889   2.372   0.572   1.895  0.5262  1.1209  1.3280
 9086SOL     OW38890   2.504   3.807   6.380 -0.0916 -0.4774 -0.5809
 9086SOL    HW138891   2.446   3.794   6.305 -1.8514 -1.2023  0.8895
 9086SOL    HW238892   2.489   3.900   6.397  2.6363  0.0851 -1.3571
 9087SOL     OW38893   0.909   0.055   2.086  0.0372 -0.6744  0.3285
 9087SOL    HW138894   0.906   0.092   2.174  0.9798  0.2861 -0.0509
 9087SOL    HW238895   0.823   0.015   2.073  0.4308 -1.7081  0.8301
 9088SOL     OW38896   2.731   0.138   2.104 -0.4722 -0.3856  0.7247
 9088SOL    HW138897   2.823   0.128   2.128 -0.2294  0.4489  0.1259
 9088SOL    HW238898   2.732   0.117   2.011  0.0746 -1.1039  0.8986
 9089SOL     OW38899   0.402   2.732   6.837  0.2151 -0.1847 -0.3240
 9089SOL    HW138900   0.368   2.667   6.899  2.1181 -0.9280 -0.0500
 9089SOL    HW238901   0.415   2.807   6.895 -2.7266  0.3727 -0.4064
 9090SOL     OW38902   0.732   4.242   4.663  0.3817  0.3575 -0.4581
 9090SOL    HW138903   0.716   4.160   4.710  0.0951  0.9132  0.4235
 9090SOL    HW238904   0.763   4.211   4.578  0.8886 -0.5795  0.0699
 9091SOL     OW38905   4.524   4.399  14.829 -0.1829  0.2055 -0.2904
 9091SOL    HW138906   4.576   4.333  14.784  0.4373  0.3343  0.2443
 9091SOL    HW238907   4.586   4.432  14.894 -0.9141  2.2102 -0.5858
 9092SOL     OW38908   3.172   0.018   3.419 -0.0345  0.8236  0.3521
 9092SOL    HW138909   3.126   4.684   3.379 -1.1834  1.2596  0.8805
 9092SOL    HW238910   3.258   0.019   3.376  1.1635 -0.2450  2.7313
 9093SOL     OW38911   1.982   3.228   0.343 -0.2692 -0.5297  0.3396
 9093SOL    HW138912   1.973   3.280   0.423  2.0859  1.8175 -0.9046
 9093SOL    HW238913   2.074   3.242   0.318 -0.1269 -1.3821  0.3805
 9094SOL     OW38914   0.040   0.080   6.694 -0.0475 -0.2181  0.3915
 9094SOL    HW138915   4.715   0.067   6.763 -0.7416  0.5883 -0.1157
 9094SOL    HW238916   4.719   0.070   6.621  1.7997  0.5946 -1.2784
 9095SOL     OW38917   0.614   2.042  10.039 -0.0318  0.3689 -0.3304
 9095SOL    HW138918   0.582   2.010  10.123 -0.2355  2.3328  0.3359
 9095SOL    HW238919   0.701   2.001  10.033 -0.0962  0.4290 -1.6796
 9096SOL     OW38920   2.391   4.354  10.413 -0.4510  0.1788 -0.2111
 9096SOL    HW138921   2.394   4.450  10.410 -2.4503  0.2539  0.3985
 9096SOL    HW238922   2.403   4.340  10.507 -1.5273 -0.1169 -0.1200
 9097SOL     OW38923   3.384   1.738  10.570  0.0638  0.1192 -0.0368
 9097SOL    HW138924   3.379   1.649  10.605 -0.7901 -0.9704 -2.9615
 9097SOL    HW238925   3.303   1.747  10.521  0.4844 -2.3802 -1.1659
 9098SOL     OW38926   1.961   2.262   3.637 -0.4929 -0.3201 -0.2526
 9098SOL    HW138927   1.925   2.186   3.684  0.6197 -0.6115  0.1394
 9098SOL    HW238928   1.876   2.299   3.613 -0.3874  1.7819  2.5977
 9099SOL     OW38929   1.273   0.258   3.809  0.2506 -0.2161  0.1394
 9099SOL    HW138930   1.310   0.346   3.802  2.1883 -1.1273 -0.9928
 9099SOL    HW238931   1.311   0.230   3.892 -0.1322  3.2682  1.4977
 9100SOL     OW38932   1.512   3.233   3.502  0.0625 -0.6281 -0.1567
 9100SOL    HW138933   1.448   3.235   3.431  0.4046  2.1736 -0.4110
 9100SOL    HW238934   1.481   3.311   3.548 -0.0622  0.1806 -1.6015
 9101SOL     OW38935   3.024   4.537   4.327 -0.1125 -0.0739 -0.3939
 9101SOL    HW138936   2.952   4.500   4.275 -0.0331 -0.0312 -0.5350
 9101SOL    HW238937   3.092   4.545   4.260 -1.2258  1.7628 -1.3137
 9102SOL     OW38938   0.792   0.146   5.506 -0.2603 -0.1633 -0.1115
 9102SOL    HW138939   0.866   0.142   5.445  1.6401  2.4283  2.0386
 9102SOL    HW238940   0.804   0.219   5.567  0.1659 -0.5345  0.2530
 9103SOL     OW38941   1.592   1.760   9.545  0.1111 -0.0723  0.5539
 9103SOL    HW138942   1.557   1.676   9.574 -2.1871  0.4512 -0.6543
 9103SOL    HW238943   1.671   1.761   9.599  0.5421  1.9116 -0.1243
 9104SOL     OW38944   2.756   2.517  12.063  0.3538 -0.0555 -0.0270
 9104SOL    HW138945   2.666   2.487  12.059  0.2015  0.2873  0.8899
 9104SOL    HW238946   2.753   2.613  12.066 -2.1857 -0.0091 -3.3454
 9105SOL     OW38947   4.425   3.688   1.893  0.0886  0.1735 -0.1827
 9105SOL    HW138948   4.370   3.706   1.969  0.5591 -2.4279  0.7714
 9105SOL    HW238949   4.382   3.723   1.815  0.1339  1.1599  0.2344
 9106SOL     OW38950   3.943   3.990   7.440  0.0719  0.5466 -0.2177
 9106SOL    HW138951   3.999   3.993   7.362  0.2294 -0.8465 -0.1722
 9106SOL    HW238952   3.980   3.909   7.476 -2.0136 -0.9112 -1.3897
 9107SOL     OW38953   2.403   3.994   1.395  0.5497  0.3766  0.2264
 9107SOL    HW138954   2.360   4.043   1.466  0.5515 -0.1521  0.5879
 9107SOL    HW238955   2.332   3.994   1.331 -2.7565 -0.1151  3.8843
 9108SOL     OW38956   2.797   2.764   2.920 -0.0783 -0.4554  0.7699
 9108SOL    HW138957   2.861   2.788   2.853 -0.7219 -1.7862 -0.3202
 9108SOL    HW238958   2.822   2.817   2.995 -0.5471 -0.8307  1.1905
 9109SOL     OW38959   0.505   2.938  13.840  0.0601 -0.3953 -0.4705
 9109SOL    HW138960   0.429   2.892  13.877  0.6746 -1.0170  0.0261
 9109SOL    HW238961   0.500   3.006  13.907  3.3251 -0.4042 -0.2340
 9110SOL     OW38962   0.550   3.320   7.556 -0.2481  0.3164 -0.4269
 9110SOL    HW138963   0.519   3.295   7.643 -0.9617  0.1693 -0.7218
 9110SOL    HW238964   0.577   3.411   7.563  0.2995  0.0706  0.5721
 9111SOL     OW38965   1.610   3.979   7.926  0.3146  0.5448 -0.6264
 9111SOL    HW138966   1.665   4.006   7.852  2.5731  0.4697  1.0379
 9111SOL    HW238967   1.529   4.016   7.890 -0.6278 -1.9312 -1.0098
 9112SOL     OW38968   2.739   3.730  13.753 -0.0215 -0.9372  0.2706
 9112SOL    HW138969   2.712   3.812  13.794 -0.7222 -1.2531  0.4427
 9112SOL    HW238970   2.774   3.755  13.667  3.8041 -0.0168  2.0665
 9113SOL     OW38971   0.021   2.595   5.876  0.5926  0.5325 -0.0781
 9113SOL    HW138972   4.702   2.647   5.931  0.7380  0.8103 -0.1850
 9113SOL    HW238973   0.088   2.661   5.858 -1.3436  2.2270 -1.1005
 9114SOL     OW38974   2.931   3.617  11.540 -0.7056  0.0273 -0.2434
 9114SOL    HW138975   2.895   3.680  11.601  0.2271 -0.9736  1.3346
 9114SOL    HW238976   2.887   3.536  11.566 -0.5491  0.0495  0.0905
 9115SOL     OW38977   2.794   0.683   6.936 -0.1700 -0.5009  0.8939
 9115SOL    HW138978   2.794   0.622   7.011 -0.8187 -2.1671 -0.4716
 9115SOL    HW238979   2.802   0.769   6.978 -2.4248  0.1132  0.0226
 9116SOL     OW38980   1.879   2.356   4.368  0.3644 -0.1982 -0.5398
 9116SOL    HW138981   1.786   2.343   4.388  0.4003  1.2863  0.6400
 9116SOL    HW238982   1.878   2.448   4.342 -2.0440  0.1548  0.7467
 9117SOL     OW38983   2.703   2.831  13.769  0.1053  0.0610  0.3579
 9117SOL    HW138984   2.652   2.750  13.769  0.5149 -0.1945  0.7764
 9117SOL    HW238985   2.788   2.799  13.738 -0.1592 -0.9877  0.7286
 9118SOL     OW38986   2.039   0.876   3.149  0.0653  0.3723  0.5811
 9118SOL    HW138987   2.115   0.840   3.196 -2.9648 -3.2833  2.6081
 9118SOL    HW238988   2.089   0.945   3.104  0.6729 -0.6800 -0.3726
 9119SOL     OW38989   3.384   1.385   7.897  0.2867 -0.5314  0.1921
 9119SOL    HW138990   3.330   1.436   7.838 -0.2590 -2.5612 -1.0883
 9119SOL    HW238991   3.324   1.375   7.971  1.7517 -1.5752  1.2522
 9120SOL     OW38992   2.165   0.881  14.736 -0.1839  0.0767  0.3035
 9120SOL    HW138993   2.237   0.832  14.776 -0.0496  0.6072  0.7105
 9120SOL    HW238994   2.212   0.940  14.677 -4.1126  1.9507 -0.9580
 9121SOL     OW38995   0.466   4.725   9.293  0.0028 -0.1717  0.0837
 9121SOL    HW138996   0.481   0.075   9.263 -0.3177 -0.0101  0.4105
 9121SOL    HW238997   0.438   0.007   9.382  1.2210  2.2581 -0.1338
 9122SOL     OW38998   1.689   2.742  10.115 -0.5534 -0.1479 -0.1284
 9122SOL    HW138999   1.777   2.761  10.148  0.2506 -1.0491 -1.7501
 9122SOL    HW239000   1.675   2.656  10.156 -0.9954  0.6663  1.4454
 9123SOL     OW39001   4.392   1.047   5.068  0.3893  0.0154 -1.0336
 9123SOL    HW139002   4.450   0.986   5.023 -0.3649 -0.4146 -1.4185
 9123SOL    HW239003   4.425   1.130   5.032 -1.8192  1.3279 -0.0283
 9124SOL     OW39004   0.017   2.577   9.437 -0.3891  0.0490  0.2066
 9124SOL    HW139005   4.665   2.559   9.456 -0.7458  0.8298 -0.7413
 9124SOL    HW239006   0.050   2.491   9.462  1.1581  0.7157  0.4759
 9125SOL     OW39007   2.935   3.185  11.579 -0.2384  0.0216  0.6354
 9125SOL    HW139008   3.010   3.211  11.633  1.0769  1.1702 -1.7577
 9125SOL    HW239009   2.861   3.221  11.629  0.0809  1.5607 -0.0020
 9126SOL     OW39010   4.684   3.821   5.752  0.1176  0.2990 -0.3521
 9126SOL    HW139011   4.631   3.758   5.704 -1.0967  0.7367  0.4119
 9126SOL    HW239012   0.030   3.817   5.710  0.1553  0.2034 -0.2660
 9127SOL     OW39013   2.552   1.428  13.985 -0.5043 -0.6913  0.1548
 9127SOL    HW139014   2.573   1.371  14.059 -1.3719  0.8145  1.5723
 9127SOL    HW239015   2.466   1.464  14.008  0.4552  1.6341  0.1463
 9128SOL     OW39016   1.335   0.111   8.903 -0.9343 -0.2181  0.2829
 9128SOL    HW139017   1.372   0.051   8.967 -0.1707  1.3483  1.3178
 9128SOL    HW239018   1.306   0.050   8.835  2.0913 -1.2903 -0.0185
 9129SOL     OW39019   0.596   1.049   8.402  0.1235 -0.5678 -0.2743
 9129SOL    HW139020   0.513   1.005   8.421 -0.4678  0.2992 -0.8143
 9129SOL    HW239021   0.609   1.105   8.478  3.9838 -1.6103 -0.1764
 9130SOL     OW39022   0.792   1.906   3.250 -0.0043  0.0054  0.1133
 9130SOL    HW139023   0.839   1.934   3.172 -0.8860 -2.3466 -1.2828
 9130SOL    HW239024   0.754   1.825   3.214 -1.4971  0.7664 -0.0113
 9131SOL     OW39025   3.344   1.674   8.130  0.0228  0.1171 -0.2457
 9131SOL    HW139026   3.288   1.654   8.055  0.8168 -0.0056 -0.8138
 9131SOL    HW239027   3.358   1.766   8.107  2.7319  0.1575  1.6389
 9132SOL     OW39028   4.343   0.828   3.779 -0.3135  0.0155 -0.1231
 9132SOL    HW139029   4.352   0.822   3.684 -1.8236 -1.9070 -0.1475
 9132SOL    HW239030   4.302   0.743   3.797 -0.1851 -0.0183  0.0072
 9133SOL     OW39031   0.772   0.145   6.144  1.0633 -0.6554 -0.4771
 9133SOL    HW139032   0.691   0.134   6.194  0.2441  2.2935 -1.1977
 9133SOL    HW239033   0.792   0.051   6.151  1.7308 -0.6227 -1.8586
 9134SOL     OW39034   4.170   0.275   6.329 -0.1549  0.2870 -0.0466
 9134SOL    HW139035   4.192   0.345   6.391 -0.4615  1.0490 -0.8017
 9134SOL    HW239036   4.082   0.257   6.364  0.3756 -1.7456  0.2053
 9135SOL     OW39037   4.715   3.079   8.767  0.3413 -0.1600  0.3137
 9135SOL    HW139038   4.670   3.123   8.694 -1.3488 -1.0908  0.7905
 9135SOL    HW239039   0.066   3.090   8.741 -0.5209 -2.0366 -3.5490
 9136SOL     OW39040   0.163   0.488  16.329  0.1057  0.3555  0.2184
 9136SOL    HW139041   0.228   0.456  16.266 -1.1916 -1.3626 -0.2572
 9136SOL    HW239042   0.147   0.581  16.312 -2.9562  0.0773  1.7052
 9137SOL     OW39043   4.321   0.280   6.089  0.5006 -0.1782 -0.0814
 9137SOL    HW139044   4.266   0.287   6.167  0.2193  1.0750 -0.3879
 9137SOL    HW239045   4.376   0.357   6.103 -1.6410  0.9276  2.2553
 9138SOL     OW39046   2.715   1.257   2.139  0.2010  0.6297 -0.8374
 9138SOL    HW139047   2.803   1.294   2.142  1.0185 -1.4228  1.1064
 9138SOL    HW239048   2.739   1.165   2.126  3.0481  1.1183  0.9142
 9139SOL     OW39049   0.308   1.825   7.245 -0.3049  0.2596 -0.1530
 9139SOL    HW139050   0.349   1.828   7.331  2.1103  0.5440 -1.3217
 9139SOL    HW239051   0.355   1.886   7.188  0.1439 -0.1592 -0.2298
 9140SOL     OW39052   0.434   1.462   6.273 -0.0662  0.2535 -0.7203
 9140SOL    HW139053   0.415   1.512   6.352 -1.3122  1.2412 -1.6364
 9140SOL    HW239054   0.356   1.410   6.255  0.8495 -1.7204  1.0632
 9141SOL     OW39055   2.148   3.110   7.429  0.2862  0.1788 -0.3454
 9141SOL    HW139056   2.100   3.098   7.347  0.8959 -1.2105 -0.5044
 9141SOL    HW239057   2.238   3.083   7.411  0.2517  0.1208 -0.4354
 9142SOL     OW39058   2.677   0.215  14.183 -0.1580 -0.1193 -0.1241
 9142SOL    HW139059   2.600   0.197  14.129 -1.1663  0.4910  1.1224
 9142SOL    HW239060   2.703   0.123  14.194  0.9271  0.1758 -0.2305
 9143SOL     OW39061   1.600   4.732   2.882  0.4496 -0.3172  0.3685
 9143SOL    HW139062   1.649   0.073   2.897  1.4120 -0.7255 -0.6234
 9143SOL    HW239063   1.562   0.014   2.798  1.5078 -0.9115 -0.2630
 9144SOL     OW39064   3.016   3.890  13.252  0.8877 -0.2924 -0.8380
 9144SOL    HW139065   2.974   3.954  13.309  0.5802 -0.2378 -1.1219
 9144SOL    HW239066   2.940   3.862  13.201  0.3420  0.6151 -0.5214
 9145SOL     OW39067   2.375   2.152   5.502 -0.3601 -0.0710 -0.6369
 9145SOL    HW139068   2.343   2.090   5.568 -1.7591  2.1965  0.8192
 9145SOL    HW239069   2.456   2.173   5.548  0.8924 -1.1820 -2.3703
 9146SOL     OW39070   2.581   3.364   4.567  0.5280 -0.6424 -0.0337
 9146SOL    HW139071   2.606   3.304   4.637 -1.0044 -0.0123  1.0416
 9146SOL    HW239072   2.489   3.343   4.553  0.3493 -0.2173  0.5155
 9147SOL     OW39073   0.420   0.438   3.957 -0.6425  1.0057 -0.6321
 9147SOL    HW139074   0.479   0.483   3.898  0.7826 -0.5307 -0.3813
 9147SOL    HW239075   0.334   0.441   3.915 -0.0854  1.7406 -1.7174
 9148SOL     OW39076   3.975   0.111  14.686 -0.0310 -0.4160  0.0130
 9148SOL    HW139077   4.006   0.099  14.776 -0.2619 -2.3224 -0.1607
 9148SOL    HW239078   4.057   0.098  14.639 -0.9732 -0.1069 -1.6929
 9149SOL     OW39079   3.011   0.727   6.728 -0.2970  0.2139  0.0957
 9149SOL    HW139080   2.960   0.726   6.810  2.1403  0.1437  1.6099
 9149SOL    HW239081   3.096   0.696   6.759  0.2600  1.0629 -0.5789
 9150SOL     OW39082   1.313   3.028   9.687  0.0182  0.9263  0.2674
 9150SOL    HW139083   1.333   3.113   9.647 -0.3638  1.2646  0.7910
 9150SOL    HW239084   1.234   3.059   9.732 -0.7878 -0.6352 -0.0659
 9151SOL     OW39085   2.591   3.944   1.576 -0.1404  0.2918  0.6913
 9151SOL    HW139086   2.516   3.966   1.520 -0.8460 -1.4215  0.9563
 9151SOL    HW239087   2.640   3.889   1.514 -1.6058 -0.4179  0.1527
 9152SOL     OW39088   3.347   0.783   3.999 -0.4770 -0.1274  0.3574
 9152SOL    HW139089   3.252   0.774   4.008 -0.6559  1.8294  0.3307
 9152SOL    HW239090   3.352   0.853   3.935 -0.9306 -0.0338  0.4304
 9153SOL     OW39091   2.012   3.395  11.563  0.1923 -0.4176  0.1948
 9153SOL    HW139092   1.951   3.433  11.627  0.8992  1.1694 -0.0714
 9153SOL    HW239093   2.025   3.307  11.599  1.6639  0.0411  0.8037
 9154SOL     OW39094   1.417   2.319   2.666  0.3234 -0.0534 -0.0986
 9154SOL    HW139095   1.380   2.248   2.719  0.6027  0.5261  0.8839
 9154SOL    HW239096   1.337   2.369   2.648  0.3227  0.2341  0.6895
 9155SOL     OW39097   2.547   3.390  14.325 -0.2788 -0.0352  0.7565
 9155SOL    HW139098   2.516   3.412  14.237 -0.0632  1.8462  1.1552
 9155SOL    HW239099   2.562   3.475  14.366  0.6446  1.4249 -2.5440
 9156SOL     OW39100   2.344   2.564   6.111  0.0898  0.2857 -0.6625
 9156SOL    HW139101   2.405   2.592   6.180  0.2370 -2.5042  0.3477
 9156SOL    HW239102   2.394   2.595   6.036  2.3621  0.8848  1.0664
 9157SOL     OW39103   1.717   2.853   7.484  0.0641  0.1072 -0.3878
 9157SOL    HW139104   1.783   2.910   7.445 -0.3953  1.1537  0.3822
 9157SOL    HW239105   1.764   2.769   7.491  0.3743  0.0838 -2.8332
 9158SOL     OW39106   4.537   0.697   5.663  0.4118 -0.2772 -0.4435
 9158SOL    HW139107   4.543   0.610   5.701  0.8001 -0.0336  0.0447
 9158SOL    HW239108   4.630   0.721   5.655  0.6154 -0.7219  0.6469
 9159SOL     OW39109   4.095   2.226   0.967 -0.2132  0.2384  0.4998
 9159SOL    HW139110   4.061   2.187   1.048 -1.7973  1.5808  0.4908
 9159SOL    HW239111   4.040   2.188   0.898  3.2911 -1.7051 -1.1673
 9160SOL     OW39112   2.194   2.467   6.842 -0.6276  0.3960  0.5959
 9160SOL    HW139113   2.177   2.389   6.790 -3.7409 -0.0988  2.3685
 9160SOL    HW239114   2.110   2.510   6.827 -0.4842  0.1164 -1.0474
 9161SOL     OW39115   3.391   2.934   5.423 -0.0673  0.5445 -0.4622
 9161SOL    HW139116   3.355   3.018   5.452 -2.3989 -0.2339 -1.1146
 9161SOL    HW239117   3.352   2.920   5.337 -0.9710  1.6579 -0.2278
 9162SOL     OW39118   0.653   0.640   7.919 -0.1446 -0.3899  0.3353
 9162SOL    HW139119   0.721   0.705   7.902 -1.1609  0.4692 -0.4013
 9162SOL    HW239120   0.696   0.594   7.992  2.1695  0.3230 -0.5743
 9163SOL     OW39121   0.829   0.047   1.767 -0.2019 -0.2315 -0.4967
 9163SOL    HW139122   0.849   0.115   1.702  0.6920 -0.8862 -0.9133
 9163SOL    HW239123   0.742   0.065   1.801 -0.6581 -0.9441 -1.2826
 9164SOL     OW39124   2.103   2.699  13.124 -0.0941 -0.3315  0.2547
 9164SOL    HW139125   2.178   2.747  13.089 -0.4662  0.5962  0.7461
 9164SOL    HW239126   2.132   2.615  13.088 -0.6674  0.1705 -1.3418
 9165SOL     OW39127   3.638   1.451   7.597  0.4582 -0.4464 -0.2470
 9165SOL    HW139128   3.719   1.407   7.572  0.3943  1.0345 -2.9919
 9165SOL    HW239129   3.603   1.480   7.513  1.2906 -1.6696 -1.0173
 9166SOL     OW39130   4.420   1.301   6.115 -0.2579  0.3957  1.0910
 9166SOL    HW139131   4.509   1.330   6.097  0.1700 -1.7005 -0.1589
 9166SOL    HW239132   4.435   1.214   6.152 -0.7044  0.4132  1.3235
 9167SOL     OW39133   1.950   1.399   5.379 -0.2077 -0.0101  0.3579
 9167SOL    HW139134   2.023   1.420   5.438  0.6480 -1.2147 -0.2532
 9167SOL    HW239135   1.898   1.359   5.449  0.0128 -1.2915 -0.2021
 9168SOL     OW39136   3.640   0.656   0.225  0.5004 -0.4802 -0.1567
 9168SOL    HW139137   3.548   0.640   0.249  0.1211 -1.1337 -2.0311
 9168SOL    HW239138   3.639   0.615   0.138  1.0326 -1.6322  0.3852
 9169SOL     OW39139   2.286   2.561   2.768  0.8128 -0.1407  0.2125
 9169SOL    HW139140   2.341   2.625   2.815  1.4822 -0.4530 -0.1442
 9169SOL    HW239141   2.289   2.498   2.839 -1.9506 -0.3769  0.1081
 9170SOL     OW39142   2.394   1.988  12.587  0.3089  0.3611 -0.0690
 9170SOL    HW139143   2.386   1.986  12.683 -2.1005 -1.4348 -0.2956
 9170SOL    HW239144   2.446   1.911  12.568 -1.9853 -1.3451  0.5678
 9171SOL     OW39145   4.238   3.504  11.554  0.2046 -0.4379  0.1214
 9171SOL    HW139146   4.253   3.479  11.463  1.2009  1.6809 -0.3032
 9171SOL    HW239147   4.169   3.438  11.568 -1.4297  1.4214  0.9102
 9172SOL     OW39148   2.888   1.854   0.633  0.1405  0.6890  0.3619
 9172SOL    HW139149   2.801   1.816   0.616  0.3997 -0.2582  1.1354
 9172SOL    HW239150   2.872   1.947   0.617  0.0117  0.7519  0.8517
 9173SOL     OW39151   1.615   3.251   4.268  0.1003 -0.1651  0.3249
 9173SOL    HW139152   1.649   3.283   4.185  0.4315 -1.9395 -0.2169
 9173SOL    HW239153   1.656   3.314   4.327  2.0329  0.0521 -1.2699
 9174SOL     OW39154   3.705   3.440   4.282 -0.1569 -0.8277  0.2988
 9174SOL    HW139155   3.737   3.487   4.359 -1.8585  0.6629  0.0865
 9174SOL    HW239156   3.611   3.451   4.292 -0.1829 -0.6419 -0.1228
 9175SOL     OW39157   0.894   1.652   1.841  0.7551 -0.7130  0.8309
 9175SOL    HW139158   0.963   1.586   1.846 -0.5198 -2.0931 -0.1404
 9175SOL    HW239159   0.922   1.705   1.766 -0.4947  0.3753  1.1295
 9176SOL     OW39160   0.224   3.177   4.867 -0.1502  0.5481 -0.5567
 9176SOL    HW139161   0.235   3.117   4.794 -1.4785 -2.1309  1.4043
 9176SOL    HW239162   0.188   3.119   4.935  1.1991  0.1297 -0.1967
 9177SOL     OW39163   0.825   2.600   7.839 -0.3875 -0.0792  0.0056
 9177SOL    HW139164   0.904   2.548   7.825 -1.6618 -1.6535 -1.3848
 9177SOL    HW239165   0.836   2.670   7.774  0.5714  0.4451  0.7392
 9178SOL     OW39166   1.040   4.454   2.015  0.4539 -0.2059 -0.1857
 9178SOL    HW139167   0.948   4.444   2.039 -0.4064  1.6792 -2.7474
 9178SOL    HW239168   1.077   4.406   2.089  1.4995 -1.2956 -1.4162
 9179SOL     OW39169   3.018   1.262  13.130  0.6211  0.2589 -0.6518
 9179SOL    HW139170   3.034   1.261  13.224  2.5855  0.7820 -0.9840
 9179SOL    HW239171   3.046   1.348  13.098 -1.0881  0.9080 -0.4278
 9180SOL     OW39172   3.247   4.021  15.753  0.2542 -0.1329 -0.1021
 9180SOL    HW139173   3.303   4.089  15.717 -1.2638  1.5197  0.6526
 9180SOL    HW239174   3.214   3.993  15.668 -0.5722 -0.9004  0.4633
 9181SOL     OW39175   4.636   1.735  12.447  0.0155  0.4408 -0.2777
 9181SOL    HW139176   4.633   1.766  12.538 -0.3878 -0.1091 -0.1043
 9181SOL    HW239177   4.543   1.721  12.430  0.0498 -0.7786  0.5598
 9182SOL     OW39178   0.136   4.295   8.924  0.5638 -0.3145  0.4617
 9182SOL    HW139179   0.147   4.259   9.012  1.3485  1.5031  1.1061
 9182SOL    HW239180   0.044   4.275   8.911  0.1788  0.8639  1.3084
 9183SOL     OW39181   1.385   1.581   4.882  0.1719  0.1038 -0.9120
 9183SOL    HW139182   1.475   1.555   4.861  1.0239  1.9430  0.4045
 9183SOL    HW239183   1.392   1.634   4.961  2.2073  2.2495 -2.5386
 9184SOL     OW39184   1.582   2.545   6.138  0.2574  0.1544 -0.4012
 9184SOL    HW139185   1.560   2.623   6.189 -1.8028 -0.8678  0.2526
 9184SOL    HW239186   1.634   2.489   6.197 -1.0954 -0.2682  0.3937
 9185SOL     OW39187   0.036   2.030   4.847 -0.4392  0.1023  0.5461
 9185SOL    HW139188   0.100   2.091   4.809 -0.8331  0.0236 -0.2344
 9185SOL    HW239189   4.738   1.981   4.774 -1.5594  1.3285  0.3209
 9186SOL     OW39190   2.974   0.489  14.597 -0.2364 -0.7929  0.0713
 9186SOL    HW139191   3.054   0.484  14.544 -0.3833 -2.6233  0.0382
 9186SOL    HW239192   3.013   0.485  14.685 -0.8897  0.8252  0.4432
 9187SOL     OW39193   0.620   1.458   3.869  0.0308  0.1887 -0.3244
 9187SOL    HW139194   0.713   1.452   3.846 -0.1265 -1.6651 -0.4678
 9187SOL    HW239195   0.572   1.504   3.800  1.2534  0.4941 -0.9712
 9188SOL     OW39196   2.299   0.046   9.248 -0.3864 -0.3761  0.7262
 9188SOL    HW139197   2.225   0.031   9.308  0.6083 -1.4893  1.6900
 9188SOL    HW239198   2.321   4.695   9.227 -0.5530 -0.1467 -0.4162
 9189SOL     OW39199   2.886   0.816   7.527 -0.4310  0.1045 -0.7605
 9189SOL    HW139200   2.856   0.748   7.587  0.7902  1.1944  1.0629
 9189SOL    HW239201   2.968   0.772   7.506  0.5537 -0.1761  3.7389
 9190SOL     OW39202   2.126   3.816   8.888 -0.3947 -0.4509  0.2127
 9190SOL    HW139203   2.063   3.886   8.904 -0.7074 -0.5903 -0.4333
 9190SOL    HW239204   2.155   3.826   8.979 -0.3516  3.2782 -0.1869
 9191SOL     OW39205   4.233   0.329  12.608  0.0777  0.2386 -0.3898
 9191SOL    HW139206   4.234   0.361  12.518 -0.7032  0.0269 -0.4785
 9191SOL    HW239207   4.285   0.249  12.605 -1.8417 -0.9507 -2.0955
 9192SOL     OW39208   2.740   2.407   9.219 -0.2414 -0.6718  0.3483
 9192SOL    HW139209   2.826   2.371   9.196 -0.3922  0.2547 -1.7347
 9192SOL    HW239210   2.695   2.390   9.136 -0.7422  1.4346  0.2084
 9193SOL     OW39211   2.979   2.967   8.578  0.1020 -0.4072 -0.2449
 9193SOL    HW139212   3.044   2.904   8.545  0.7109 -0.2438  0.6553
 9193SOL    HW239213   2.974   3.028   8.504 -1.0287  2.5303  2.2908
 9194SOL     OW39214   2.492   2.168  16.426  0.4521  0.6833  0.5070
 9194SOL    HW139215   2.553   2.177  16.352 -2.6573  0.5466 -2.0672
 9194SOL    HW239216   2.428   2.231  16.393 -0.0877  0.4601  1.1441
 9195SOL     OW39217   1.610   0.156   4.004 -0.3066 -0.1347  0.5021
 9195SOL    HW139218   1.526   0.145   3.959 -1.3899 -1.2891  2.8625
 9195SOL    HW239219   1.646   0.068   3.992 -1.6997 -0.5490 -0.6709
 9196SOL     OW39220   3.601   2.234   1.929  0.1587  0.0101 -0.0676
 9196SOL    HW139221   3.534   2.253   1.864  0.3932 -2.4463 -1.0126
 9196SOL    HW239222   3.554   2.207   2.008 -0.7671  0.6907 -0.3870
 9197SOL     OW39223   1.524   1.948  11.351 -0.1152 -0.3196  0.2941
 9197SOL    HW139224   1.530   1.894  11.430  0.4708 -0.8027 -0.0779
 9197SOL    HW239225   1.531   1.886  11.278  2.2497 -0.0135  0.2794
 9198SOL     OW39226   1.573   4.681  11.864  0.1255  0.0647  0.7822
 9198SOL    HW139227   1.630   4.657  11.938  2.6853  1.2138 -0.8001
 9198SOL    HW239228   1.619   0.021  11.835  0.0146  0.6210  2.1352
 9199SOL     OW39229   4.530   2.048   7.051 -0.4155  0.4469 -0.2556
 9199SOL    HW139230   4.532   1.979   7.117 -2.4740  0.8367  0.2044
 9199SOL    HW239231   4.443   2.085   7.065 -2.2800 -4.0847  0.3123
 9200SOL     OW39232   1.074   4.405  12.698  0.8860 -0.1726  0.3852
 9200SOL    HW139233   1.010   4.460  12.653  1.1119  0.3240  0.6685
 9200SOL    HW239234   1.032   4.385  12.781 -0.7043 -1.5087 -0.7465
 9201SOL     OW39235   2.111   3.480   9.629 -0.0863  0.9807  0.0459
 9201SOL    HW139236   2.053   3.416   9.670  1.3074 -0.2161  0.2013
 9201SOL    HW239237   2.066   3.497   9.547  1.7279 -0.1651 -1.1837
 9202SOL     OW39238   3.722   4.710   3.801 -0.3016 -0.3530  0.3459
 9202SOL    HW139239   3.674   4.674   3.875 -1.1446  0.1831  0.0683
 9202SOL    HW239240   3.812   4.683   3.817 -0.2071 -1.2325 -1.7137
 9203SOL     OW39241   0.456   1.564   6.694 -0.5686 -0.2829 -0.2046
 9203SOL    HW139242   0.532   1.617   6.717 -0.4963 -0.4550 -0.0494
 9203SOL    HW239243   0.395   1.635   6.675 -0.9588 -0.3232  0.8756
 9204SOL     OW39244   1.248   1.911   3.724  0.1923 -0.0083  0.1006
 9204SOL    HW139245   1.285   1.893   3.810 -4.8952  0.6866  2.4440
 9204SOL    HW239246   1.214   1.999   3.742  0.2269  0.2717 -1.2277
 9205SOL     OW39247   4.228   2.984  10.526 -0.0157  0.4841 -0.0861
 9205SOL    HW139248   4.304   3.025  10.567  0.5529 -0.5208 -0.1253
 9205SOL    HW239249   4.250   2.981  10.433 -0.3550  1.0102 -0.1838
 9206SOL     OW39250   2.341   0.695   4.102  0.1742  0.0328 -0.0405
 9206SOL    HW139251   2.305   0.737   4.025 -0.7709  1.9501  1.4459
 9206SOL    HW239252   2.288   0.720   4.178  1.4264 -0.4294  0.9936
 9207SOL     OW39253   2.559   2.231  12.880 -0.4476  0.1167  0.6077
 9207SOL    HW139254   2.599   2.159  12.831  0.3299  0.3553  0.9022
 9207SOL    HW239255   2.590   2.204  12.966  1.5394 -2.4010 -0.8890
 9208SOL     OW39256   0.174   0.712   4.043 -0.1520  0.3940  0.3400
 9208SOL    HW139257   0.137   0.644   4.100 -1.9782  1.2359  0.1581
 9208SOL    HW239258   0.239   0.744   4.105 -1.8327  1.3232  1.6361
 9209SOL     OW39259   2.200   3.898   6.392  0.1233 -0.4051  0.2007
 9209SOL    HW139260   2.174   3.859   6.308 -0.0232  3.3244 -1.5090
 9209SOL    HW239261   2.263   3.960   6.355  0.0573 -1.6809 -2.0625
 9210SOL     OW39262   0.216   3.644   4.579 -0.1339 -0.1330 -0.1126
 9210SOL    HW139263   0.265   3.637   4.497  0.5025 -0.3261  0.2816
 9210SOL    HW239264   0.287   3.685   4.630 -0.1429 -0.7753  0.4112
 9211SOL     OW39265   3.577   1.531   8.158 -0.2464 -0.5088 -0.7274
 9211SOL    HW139266   3.496   1.581   8.152  1.3849  2.2190  0.0307
 9211SOL    HW239267   3.622   1.564   8.080  1.6301 -0.2222  0.4712
 9212SOL     OW39268   3.258   0.446   4.083 -0.0796  0.1822  0.3532
 9212SOL    HW139269   3.238   0.361   4.044  0.4940 -2.3106  5.5926
 9212SOL    HW239270   3.319   0.480   4.017  1.4994  2.2005  2.8376
 9213SOL     OW39271   3.249   2.715  13.542  0.0921  0.0343 -0.2329
 9213SOL    HW139272   3.323   2.738  13.598  0.2336 -1.5556  0.2464
 9213SOL    HW239273   3.294   2.696  13.460  0.6275  0.2210  0.0229
 9214SOL     OW39274   1.456   1.450   5.489  0.2428  0.2388  0.2137
 9214SOL    HW139275   1.466   1.401   5.406  2.5944  3.8336 -1.6089
 9214SOL    HW239276   1.386   1.403   5.534 -0.3566 -1.7065 -2.6882
 9215SOL     OW39277   3.575   1.253   8.074  0.2180  0.4199 -0.0040
 9215SOL    HW139278   3.486   1.273   8.045  0.8179  2.0095 -0.7643
 9215SOL    HW239279   3.596   1.318   8.142 -1.1815  1.9306 -1.0079
 9216SOL     OW39280   2.262   4.431   4.407  0.4500  0.8040  0.3159
 9216SOL    HW139281   2.286   4.357   4.352  2.0579  1.8254 -0.3776
 9216SOL    HW239282   2.204   4.480   4.348  0.7922  1.5903  0.6210
 9217SOL     OW39283   2.827   4.469   4.592 -0.9473  0.8281 -0.4405
 9217SOL    HW139284   2.894   4.537   4.589 -0.7059  0.5333 -1.8773
 9217SOL    HW239285   2.795   4.474   4.682  1.0767 -0.6576  0.3576
 9218SOL     OW39286   2.680   3.010   2.280  0.3341 -0.1937 -0.0200
 9218SOL    HW139287   2.762   3.044   2.317  1.2235 -0.4833 -1.6953
 9218SOL    HW239288   2.706   2.975   2.194 -1.0892 -1.2991  0.0008
 9219SOL     OW39289   3.402   3.328  16.162  0.0197 -0.5903 -0.0109
 9219SOL    HW139290   3.385   3.406  16.109  1.7536  0.2055  0.6301
 9219SOL    HW239291   3.358   3.347  16.245 -1.3047 -1.8441 -0.4134
 9220SOL     OW39292   1.849   0.036   3.587  0.4134  0.4181  0.0521
 9220SOL    HW139293   1.839   4.681   3.597 -0.6576  0.8485  3.0998
 9220SOL    HW239294   1.785   0.067   3.522  1.5684  0.3965 -1.0890
 9221SOL     OW39295   1.159   2.161  15.882 -0.8308 -0.0008 -0.3503
 9221SOL    HW139296   1.132   2.160  15.791  0.2503 -1.5585 -0.6548
 9221SOL    HW239297   1.083   2.176  15.939 -0.0734 -0.0432  0.6839
 9222SOL     OW39298   2.612   2.200   4.998 -0.1566 -0.0304 -0.3436
 9222SOL    HW139299   2.594   2.179   5.090 -1.3151 -0.8782 -0.7615
 9222SOL    HW239300   2.701   2.167   4.986  0.3489  0.7446  1.3556
 9223SOL     OW39301   2.117   1.618   0.282  0.0862 -0.2664  0.5362
 9223SOL    HW139302   2.059   1.562   0.230 -2.1284  2.7739 -0.2422
 9223SOL    HW239303   2.163   1.674   0.219  0.1481 -2.4439 -1.3623
 9224SOL     OW39304   3.576   1.219   8.385  0.5414 -0.4409 -0.1901
 9224SOL    HW139305   3.522   1.241   8.309  1.7864 -1.4425 -1.3359
 9224SOL    HW239306   3.552   1.126   8.393 -4.2511  0.4642 -3.7525
 9225SOL     OW39307   0.899   0.466   6.772  0.1978 -0.8176  0.1732
 9225SOL    HW139308   0.983   0.439   6.809 -0.4692 -2.2378  0.6661
 9225SOL    HW239309   0.888   0.555   6.804  0.1774 -0.3991 -1.0021
 9226SOL     OW39310   0.062   1.983  17.540 -0.0911 -0.1351  0.0024
 9226SOL    HW139311   0.084   2.010  17.451 -0.9196  0.5731  0.0152
 9226SOL    HW239312   4.706   1.989  17.543 -0.2939 -3.3639  1.0334
 9227SOL     OW39313   4.282   0.897   5.475  0.0456  0.7804 -0.0274
 9227SOL    HW139314   4.238   0.834   5.418 -0.2258 -1.0156  2.1809
 9227SOL    HW239315   4.345   0.933   5.412  0.0798 -1.8176 -1.4895
 9228SOL     OW39316   0.295   1.878   2.332  0.3953 -0.2665  0.4854
 9228SOL    HW139317   0.245   1.828   2.268 -1.9112  1.1368  1.1912
 9228SOL    HW239318   0.242   1.956   2.347 -0.0944 -0.6686  0.8781
 9229SOL     OW39319   3.361   0.258   5.295  0.1207 -0.2633  0.1927
 9229SOL    HW139320   3.313   0.176   5.309 -0.7592  0.3277  0.7055
 9229SOL    HW239321   3.333   0.274   5.205  2.4834 -0.6184 -0.6069
 9230SOL     OW39322   0.429   1.264  15.362 -0.1108 -0.1504 -0.1339
 9230SOL    HW139323   0.491   1.197  15.390  2.1278  2.0891  0.3726
 9230SOL    HW239324   0.374   1.212  15.304  0.7648  0.0714 -1.1646
 9231SOL     OW39325   3.178   4.047   7.060 -0.4347 -0.3939 -0.1815
 9231SOL    HW139326   3.168   3.963   7.105  2.2610 -0.9718 -0.6753
 9231SOL    HW239327   3.157   4.022   6.970 -0.1876 -2.1873  0.2522
 9232SOL     OW39328   1.209   2.372   8.344 -0.4443  0.4667 -0.1454
 9232SOL    HW139329   1.209   2.433   8.270  1.4946 -1.1159 -1.4470
 9232SOL    HW239330   1.300   2.373   8.373 -0.3764  1.8815 -0.4468
 9233SOL     OW39331   3.320   0.354   5.031  0.2705 -0.3471  0.4516
 9233SOL    HW139332   3.308   0.293   4.959  0.7050 -2.6439  2.3208
 9233SOL    HW239333   3.394   0.408   5.004  1.2860 -2.1480 -0.3288
 9234SOL     OW39334   0.022   1.562   8.842  0.5700  0.0133 -0.0793
 9234SOL    HW139335   0.065   1.634   8.890  1.4573  0.8120 -2.0815
 9234SOL    HW239336   0.044   1.485   8.894 -0.2970 -0.1740  0.0093
 9235SOL     OW39337   1.950   3.667   6.011 -0.2223 -0.5981 -0.4907
 9235SOL    HW139338   1.999   3.653   5.930 -0.7906 -0.6576 -0.8253
 9235SOL    HW239339   1.917   3.579   6.028 -1.8572  0.3897  1.5277
 9236SOL     OW39340   4.071   3.905   8.776  0.0151 -0.3043  0.7658
 9236SOL    HW139341   4.016   3.968   8.822 -0.8799 -0.9535  0.5924
 9236SOL    HW239342   4.084   3.954   8.695 -0.1364  0.6181  1.3068
 9237SOL     OW39343   0.379   1.770   4.786  0.1898  0.1783 -0.0660
 9237SOL    HW139344   0.293   1.756   4.825 -0.3290  2.3489 -0.4487
 9237SOL    HW239345   0.428   1.728   4.857 -0.1910  1.0040  0.6858
 9238SOL     OW39346   0.153   0.664   8.503 -0.5430 -1.3520 -0.0157
 9238SOL    HW139347   0.248   0.655   8.509 -0.3110  0.5131 -0.9604
 9238SOL    HW239348   0.128   0.666   8.595  0.0686 -0.6551  0.1372
 9239SOL     OW39349   2.546   2.027   0.439 -0.5237 -0.1997 -0.9404
 9239SOL    HW139350   2.594   2.110   0.431  1.2060 -1.2004 -0.8755
 9239SOL    HW239351   2.506   2.015   0.353 -1.1592  1.0676 -0.8267
 9240SOL     OW39352   2.564   0.172   3.683  0.2624 -0.0780 -0.4226
 9240SOL    HW139353   2.483   0.147   3.639  0.2092  0.7991 -0.8261
 9240SOL    HW239354   2.559   0.094   3.739  1.8648 -0.3532 -0.6671
 9241SOL     OW39355   1.255   4.273   5.157 -0.5085  0.5960 -0.3024
 9241SOL    HW139356   1.329   4.275   5.097 -1.0476 -0.0971 -0.9833
 9241SOL    HW239357   1.207   4.352   5.133  0.4341  0.7527 -1.6728
 9242SOL     OW39358   0.602   0.529   3.756 -0.0804  0.3289  0.3865
 9242SOL    HW139359   0.697   0.528   3.745 -0.1907 -1.9694 -0.2746
 9242SOL    HW239360   0.576   0.617   3.726  0.6353  0.4536  0.1245
 9243SOL     OW39361   3.109   2.886   2.139 -0.1607  0.1154  0.0413
 9243SOL    HW139362   3.058   2.808   2.118  2.2943 -1.3621 -0.4997
 9243SOL    HW239363   3.124   2.865   2.231  0.4309 -1.2378 -0.3626
 9244SOL     OW39364   2.411   0.079  15.397 -0.0227 -0.3964  0.3121
 9244SOL    HW139365   2.377   0.003  15.443  0.8240 -0.7180  0.4061
 9244SOL    HW239366   2.503   0.067  15.419 -0.3217 -3.0535  0.0872
 9245SOL     OW39367   1.922   3.918   1.335 -0.1486  0.3701  0.1054
 9245SOL    HW139368   1.968   3.987   1.384  0.7970 -0.2890  0.1520
 9245SOL    HW239369   1.974   3.843   1.363 -0.7769 -0.2045 -0.2845
 9246SOL     OW39370   2.336   2.721   8.160 -0.3200  0.0105 -0.1837
 9246SOL    HW139371   2.349   2.748   8.251 -0.7686 -1.1591  0.2204
 9246SOL    HW239372   2.244   2.745   8.153 -0.7213 -1.6934 -0.6483
 9247SOL     OW39373   0.490   4.097   1.985  0.4032 -0.1542  0.0002
 9247SOL    HW139374   0.534   4.163   1.932  0.1260  0.6433  0.7552
 9247SOL    HW239375   0.517   4.113   2.076  0.2714  0.8787 -0.1396
 9248SOL     OW39376   4.380   2.579  16.281  0.1037 -0.0030  0.0583
 9248SOL    HW139377   4.429   2.527  16.218 -0.1704  2.3055 -2.0799
 9248SOL    HW239378   4.367   2.658  16.228 -2.8757 -1.0786 -0.8095
 9249SOL     OW39379   1.997   2.987  13.111  0.7145  1.0179  0.0322
 9249SOL    HW139380   2.059   2.945  13.171 -2.3976  0.1436  2.7037
 9249SOL    HW239381   1.922   3.007  13.168  0.2814 -0.8209  0.1173
 9250SOL     OW39382   3.083   3.855   5.959 -0.1435  0.3519  0.1445
 9250SOL    HW139383   3.161   3.818   6.002 -0.1675  2.0474  1.6696
 9250SOL    HW239384   3.109   3.853   5.867  0.3941  0.7275  0.2894
 9251SOL     OW39385   4.001   3.150   8.992 -0.2000  0.1930 -0.0269
 9251SOL    HW139386   4.079   3.198   9.022 -0.0221 -0.7203  0.9748
 9251SOL    HW239387   4.047   3.073   8.959  0.6137  1.0022 -0.7942
 9252SOL     OW39388   0.612   0.097   7.912 -0.3397 -0.3098  0.6356
 9252SOL    HW139389   0.671   0.099   7.837  3.0083 -0.9030  3.2435
 9252SOL    HW239390   0.528   0.079   7.870  0.6012 -0.4948 -1.1481
 9253SOL     OW39391   0.542   0.815   2.271 -0.3271  0.0874  0.3084
 9253SOL    HW139392   0.592   0.735   2.257  0.4158  0.6229 -0.1061
 9253SOL    HW239393   0.461   0.812   2.221 -1.1624 -0.6315  1.6886
 9254SOL     OW39394   2.867   0.303  10.927 -0.5401 -0.2075 -0.4274
 9254SOL    HW139395   2.845   0.233  10.989  0.7510  2.0512  2.6159
 9254SOL    HW239396   2.939   0.257  10.884 -1.7618 -1.0878 -1.5044
 9255SOL     OW39397   2.288   1.537  10.382 -0.1805  0.1873  0.2048
 9255SOL    HW139398   2.206   1.545  10.432 -0.5529 -2.1167 -0.0577
 9255SOL    HW239399   2.338   1.476  10.436 -0.1578 -0.9170 -1.0660
 9256SOL     OW39400   3.272   0.035   2.145 -0.4767 -0.4006  0.0546
 9256SOL    HW139401   3.246   4.707   2.207 -1.3965  0.7168  0.9061
 9256SOL    HW239402   3.364   0.056   2.159 -0.8746  3.0832 -2.5022
 9257SOL     OW39403   0.082   4.039   4.330 -0.1133 -0.8472 -0.5485
 9257SOL    HW139404   0.163   4.012   4.372  1.1856  2.4168 -0.9780
 9257SOL    HW239405   0.105   4.102   4.262 -1.3638  0.6043  0.3565
 9258SOL     OW39406   1.899   1.398  17.458  0.0092 -0.3321  0.1995
 9258SOL    HW139407   1.822   1.347  17.431 -0.2793  0.5554 -0.6685
 9258SOL    HW239408   1.869   1.444  17.537  0.2921  0.4426 -0.1441
 9259SOL     OW39409   0.221   3.229   8.309  0.1412  0.2829 -0.6892
 9259SOL    HW139410   0.306   3.197   8.337 -0.6525 -1.3377 -0.1377
 9259SOL    HW239411   0.225   3.322   8.332 -2.7240 -0.3597  2.3947
 9260SOL     OW39412   2.901   2.124   7.421 -0.2368 -0.1264 -0.6577
 9260SOL    HW139413   2.947   2.122   7.337  0.6721 -0.0051 -0.1590
 9260SOL    HW239414   2.900   2.219   7.431 -1.4498 -0.1953 -0.1586
 9261SOL     OW39415   0.588   1.312  17.502  0.2041  0.0572  0.4307
 9261SOL    HW139416   0.680   1.320  17.525  0.1094  1.1052  0.4441
 9261SOL    HW239417   0.542   1.363  17.569  0.3896  1.3276 -0.4079
 9262SOL     OW39418   4.381   3.894  13.597  0.1906  0.0620 -0.5497
 9262SOL    HW139419   4.388   3.976  13.548 -0.4869  0.7045  0.4206
 9262SOL    HW239420   4.330   3.926  13.672 -0.5144  0.8495 -1.3650
 9263SOL     OW39421   2.963   4.011   6.431 -0.1447 -0.0990  0.0210
 9263SOL    HW139422   3.052   3.980   6.417 -0.1034  0.1028 -0.1558
 9263SOL    HW239423   2.910   3.981   6.357  1.9783  1.1104 -1.9759
 9264SOL     OW39424   0.787   3.315   0.509  0.2449  0.0764  0.0343
 9264SOL    HW139425   0.876   3.344   0.491  1.3584 -1.9407  2.3567
 9264SOL    HW239426   0.740   3.361   0.439 -0.7292 -0.3959  0.3682
 9265SOL     OW39427   1.424   1.665   5.208 -0.9719  0.0687  0.1822
 9265SOL    HW139428   1.502   1.609   5.213 -1.4487 -0.4434  2.1843
 9265SOL    HW239429   1.428   1.707   5.294  1.5435 -0.4046  0.3046
 9266SOL     OW39430   1.473   1.550   0.445 -0.5184  0.4656  0.1221
 9266SOL    HW139431   1.462   1.551   0.540  3.7326  1.0190  0.5953
 9266SOL    HW239432   1.464   1.455   0.436 -0.5398  0.4537  0.2753
 9267SOL     OW39433   1.461   1.253  13.860 -0.5695  0.5901 -0.0321
 9267SOL    HW139434   1.540   1.236  13.911 -1.9930 -1.7141  1.4174
 9267SOL    HW239435   1.482   1.346  13.848 -0.0723  0.4366 -0.3442
 9268SOL     OW39436   4.035   1.229  17.451  0.3883 -0.0896 -0.0184
 9268SOL    HW139437   4.018   1.323  17.457 -0.3640 -0.2127 -0.2191
 9268SOL    HW239438   3.975   1.203  17.382 -0.2553 -0.0876  0.5339
 9269SOL     OW39439   3.016   1.067   9.184  0.4293 -0.7779 -0.0664
 9269SOL    HW139440   3.042   1.048   9.094  0.6489 -0.4429 -0.0737
 9269SOL    HW239441   3.041   0.993   9.240  1.2017  0.2450  0.9292
 9270SOL     OW39442   3.275   4.333   8.016  0.4343  0.6495  0.0133
 9270SOL    HW139443   3.285   4.368   7.927 -2.0624 -0.3043 -0.6416
 9270SOL    HW239444   3.237   4.407   8.063 -2.2724 -0.1765 -0.8730
 9271SOL     OW39445   1.139   0.313   7.527  0.2131  0.5913 -0.2341
 9271SOL    HW139446   1.228   0.301   7.561  0.6228 -0.7453 -1.7573
 9271SOL    HW239447   1.092   0.234   7.552 -2.1655  1.8843 -0.6413
 9272SOL     OW39448   1.988   2.933   2.834 -0.5208 -0.1531  0.0057
 9272SOL    HW139449   2.081   2.929   2.810  0.0803  1.2105  2.1359
 9272SOL    HW239450   1.953   2.910   2.748 -0.2080 -1.4864  0.2294
 9273SOL     OW39451   0.768   1.869   2.471  0.2825  0.0854  0.2195
 9273SOL    HW139452   0.798   1.792   2.423 -0.1063 -0.3311  0.6420
 9273SOL    HW239453   0.682   1.846   2.507  0.7076  1.5129  2.1026
 9274SOL     OW39454   3.651   1.363   2.887  0.1721  0.2161  0.0018
 9274SOL    HW139455   3.743   1.342   2.874  0.3242  0.8172  0.1210
 9274SOL    HW239456   3.631   1.348   2.979  1.7427 -0.1933  0.2703
 9275SOL     OW39457   3.791   0.060  17.519  0.2000 -0.1318 -0.1887
 9275SOL    HW139458   3.767   4.715  17.480 -2.6023 -1.0112  3.5195
 9275SOL    HW239459   3.869   0.068  17.464 -0.2306 -0.3862 -0.8399
 9276SOL     OW39460   0.759   0.643   8.546 -0.6648 -0.2668  0.3272
 9276SOL    HW139461   0.851   0.643   8.521 -0.3201  1.5809  1.6621
 9276SOL    HW239462   0.756   0.657   8.640 -2.9191 -1.3616  0.4380
 9277SOL     OW39463   0.719   3.251   3.865 -0.4742 -0.4832  0.1488
 9277SOL    HW139464   0.718   3.202   3.783  0.6218  0.1218 -0.2118
 9277SOL    HW239465   0.810   3.235   3.887 -0.5681 -2.5311 -0.9795
 9278SOL     OW39466   1.516   0.493   6.860  0.3183  1.0022  0.0229
 9278SOL    HW139467   1.612   0.502   6.854  0.3947 -1.0691 -1.9770
 9278SOL    HW239468   1.489   0.554   6.792 -0.5754 -0.5495 -1.0257
 9279SOL     OW39469   0.011   1.393   0.341  0.0563 -0.0213 -0.0620
 9279SOL    HW139470   0.068   1.368   0.413 -1.2252 -1.2193  0.5241
 9279SOL    HW239471   0.038   1.484   0.326 -1.9681  0.5190 -0.4901
 9280SOL     OW39472   1.834   2.521  17.379  0.1110 -0.2016 -0.0657
 9280SOL    HW139473   1.847   2.426  17.382 -0.8560 -0.3099  1.0674
 9280SOL    HW239474   1.916   2.567  17.392 -0.0017  0.2146 -0.8584
 9281SOL     OW39475   2.467   1.468  15.775  0.1354 -0.6705  0.4396
 9281SOL    HW139476   2.501   1.443  15.689  1.1120 -3.4763  1.6534
 9281SOL    HW239477   2.535   1.447  15.838  1.3831 -0.5047 -0.8440
 9282SOL     OW39478   4.492   3.050   3.058 -0.0334 -0.1286  0.0269
 9282SOL    HW139479   4.523   2.999   2.983  0.5159  1.3733 -0.7549
 9282SOL    HW239480   4.570   3.101   3.076  2.3334 -4.3971  1.9002
 9283SOL     OW39481   4.571   4.380   8.150 -1.0433  0.0598  0.2959
 9283SOL    HW139482   4.497   4.320   8.140 -0.7055 -0.2106 -0.6144
 9283SOL    HW239483   4.643   4.318   8.144 -0.5650  0.7088 -0.7289
 9284SOL     OW39484   3.374   4.438   6.973 -0.0093  0.5368  0.3010
 9284SOL    HW139485   3.292   4.393   6.950 -0.4943  1.8394 -0.5191
 9284SOL    HW239486   3.382   4.386   7.053  0.8546 -2.6615 -1.8275
 9285SOL     OW39487   0.021   2.784  12.742  0.0737  0.0561  0.2999
 9285SOL    HW139488   4.685   2.761  12.796 -1.0381  0.6137 -1.0203
 9285SOL    HW239489   4.728   2.770  12.653 -0.5381  1.0150  0.3783
 9286SOL     OW39490   2.769   0.817   1.667 -0.0720 -0.3691 -0.1835
 9286SOL    HW139491   2.775   0.791   1.575 -0.9755 -3.0731  0.5221
 9286SOL    HW239492   2.850   0.777   1.697  1.0471  0.6615 -1.7785
 9287SOL     OW39493   4.431   3.071   6.936  0.0117 -0.0464 -0.1218
 9287SOL    HW139494   4.418   3.065   7.030  2.2679  1.3949  0.2893
 9287SOL    HW239495   4.503   3.010   6.920 -0.9174 -1.2550  0.4041
 9288SOL     OW39496   1.265   0.718   4.795  0.2822 -0.1923  0.0067
 9288SOL    HW139497   1.336   0.754   4.741 -0.2473 -0.1546 -0.6556
 9288SOL    HW239498   1.196   0.778   4.769 -0.3463 -0.5523  0.8406
 9289SOL     OW39499   3.568   4.283   6.686  0.2354  0.1969  0.0808
 9289SOL    HW139500   3.573   4.379   6.685 -2.3932  0.3258 -1.1021
 9289SOL    HW239501   3.611   4.265   6.770  0.5766 -0.8524 -0.3267
 9290SOL     OW39502   4.333   4.612   1.021  0.2373 -0.3919 -0.6137
 9290SOL    HW139503   4.361   4.699   0.990 -0.4817  0.2233  0.4512
 9290SOL    HW239504   4.410   4.581   1.069 -0.4741  0.2764  0.9830
 9291SOL     OW39505   3.041   3.796  10.194 -0.3439 -0.2809  0.4889
 9291SOL    HW139506   3.132   3.768  10.207 -0.1417 -0.0192 -0.3915
 9291SOL    HW239507   3.014   3.758  10.111 -1.7997  1.4784  0.1606
 9292SOL     OW39508   2.270   1.973   7.458 -0.1495 -0.4126  0.4517
 9292SOL    HW139509   2.312   1.935   7.381 -0.4041  1.0216 -0.3837
 9292SOL    HW239510   2.350   1.993   7.506  0.8738 -2.2438 -0.4908
 9293SOL     OW39511   3.110   3.951  15.510 -0.5519 -0.4599 -0.1228
 9293SOL    HW139512   3.014   3.954  15.510 -0.5244  0.3394  0.3142
 9293SOL    HW239513   3.111   3.896  15.431 -3.5710 -0.9435  0.1549
 9294SOL     OW39514   1.883   4.391   9.123  0.3297  0.5350  0.2137
 9294SOL    HW139515   1.866   4.308   9.077  0.6137  0.9055 -0.5585
 9294SOL    HW239516   1.877   4.452   9.050  2.5331  0.4571 -0.0335
 9295SOL     OW39517   4.149   1.913  11.260 -0.0833 -0.1758 -0.3211
 9295SOL    HW139518   4.114   1.824  11.259 -0.8524  0.1188  0.2746
 9295SOL    HW239519   4.180   1.925  11.350 -1.9407  2.3504 -0.0294
 9296SOL     OW39520   4.079   2.044   4.444 -0.1338 -0.3072 -0.2290
 9296SOL    HW139521   4.007   2.004   4.395  1.2918 -0.8023 -1.9225
 9296SOL    HW239522   4.023   2.103   4.494  0.6605 -1.5106  2.0625
 9297SOL     OW39523   0.484   4.178  14.949 -0.6472 -0.0812 -0.1999
 9297SOL    HW139524   0.422   4.165  15.020 -1.5915  0.7102 -0.8916
 9297SOL    HW239525   0.525   4.263  14.963  2.8088 -1.2344 -3.2076
 9298SOL     OW39526   1.626   2.983   3.667  0.2833  0.0125 -0.1656
 9298SOL    HW139527   1.579   2.907   3.633  0.9020 -0.6262  0.4241
 9298SOL    HW239528   1.582   3.043   3.607 -0.1830 -0.7569 -0.5878
 9299SOL     OW39529   2.375   2.105   2.017 -0.2116 -0.5783  0.2168
 9299SOL    HW139530   2.459   2.108   1.971  1.2579  0.6679  3.0001
 9299SOL    HW239531   2.324   2.065   1.947 -0.2856  0.2134 -0.1794
 9300SOL     OW39532   3.213   3.173   5.522  0.1546  0.0772 -0.2779
 9300SOL    HW139533   3.212   3.240   5.591  1.3007  1.2590 -1.4089
 9300SOL    HW239534   3.230   3.224   5.443  0.7053 -1.0078 -0.8605
 9301SOL     OW39535   1.369   0.222   4.771 -0.1841 -0.5299  0.2199
 9301SOL    HW139536   1.336   0.159   4.707 -0.7428 -2.9562  2.9125
 9301SOL    HW239537   1.325   0.197   4.852 -0.7513  0.6442  0.2857
 9302SOL     OW39538   2.329   0.152   6.708  0.5024 -0.4947  0.1607
 9302SOL    HW139539   2.243   0.159   6.667 -0.5779 -0.0101  2.5578
 9302SOL    HW239540   2.388   0.182   6.639 -1.0935  0.4293 -0.7829
 9303SOL     OW39541   4.096   4.138  11.527  0.4812 -0.0597  0.7165
 9303SOL    HW139542   4.091   4.108  11.436  3.4602  1.8267 -0.0598
 9303SOL    HW239543   4.174   4.193  11.531  0.6148 -0.1841 -0.1527
 9304SOL     OW39544   0.498   4.411   3.140 -0.1671 -0.2810 -0.2251
 9304SOL    HW139545   0.469   4.391   3.229  1.8319  1.7008  0.8703
 9304SOL    HW239546   0.579   4.461   3.148 -1.0772  1.3841 -1.5033
 9305SOL     OW39547   1.687   3.649   9.002  0.1118  0.3689  0.4095
 9305SOL    HW139548   1.639   3.577   9.044 -1.2314  1.7502  1.2477
 9305SOL    HW239549   1.614   3.680   8.949  0.8796 -0.3362 -1.0388
 9306SOL     OW39550   2.039   2.908  14.628 -0.5488 -0.3112  0.1978
 9306SOL    HW139551   1.949   2.896  14.657 -1.2860 -1.8221 -2.6310
 9306SOL    HW239552   2.032   2.872  14.539 -3.1951  1.8264 -0.4559
 9307SOL     OW39553   2.818   4.620   1.222 -0.7471  0.2867  0.3173
 9307SOL    HW139554   2.877   4.680   1.176 -3.7837  3.2016  0.2244
 9307SOL    HW239555   2.780   4.683   1.283 -1.9237 -0.6432  0.5428
 9308SOL     OW39556   2.432   2.668  13.581 -0.0441  0.1234 -0.4745
 9308SOL    HW139557   2.465   2.666  13.491  2.6235 -1.4177  0.5597
 9308SOL    HW239558   2.490   2.606  13.625 -1.2690 -1.0496 -0.5313
 9309SOL     OW39559   3.452   4.109  11.863  0.6663 -0.4886  0.1897
 9309SOL    HW139560   3.494   4.024  11.850  2.2235  0.0748  1.4352
 9309SOL    HW239561   3.524   4.173  11.856  0.0274  0.3122  0.8897
 9310SOL     OW39562   4.437   3.439   4.077 -0.1319  0.4930 -0.1589
 9310SOL    HW139563   4.468   3.349   4.075  0.6961  0.7531  0.9517
 9310SOL    HW239564   4.367   3.439   4.142  0.0775 -0.4787  0.0690
 9311SOL     OW39565   2.674   0.363   6.200 -0.2161 -0.5695  0.1013
 9311SOL    HW139566   2.596   0.411   6.172  0.3147 -0.4339 -1.1501
 9311SOL    HW239567   2.685   0.410   6.283 -2.1435  1.4959 -0.8045
 9312SOL     OW39568   2.249   1.182   9.236  0.1047 -0.4072 -0.4414
 9312SOL    HW139569   2.225   1.126   9.309  0.0323 -1.6105 -1.3918
 9312SOL    HW239570   2.277   1.260   9.283  0.1889  0.2358 -1.5440
 9313SOL     OW39571   1.329   1.384   2.554 -0.1809  0.4550 -0.0045
 9313SOL    HW139572   1.285   1.444   2.613 -1.6365  0.2530 -0.8983
 9313SOL    HW239573   1.395   1.440   2.513  1.3170 -1.7085 -0.6126
 9314SOL     OW39574   4.375   3.735   4.490 -0.1172 -0.2668  0.1816
 9314SOL    HW139575   4.343   3.775   4.409  1.9199  1.2079  0.1244
 9314SOL    HW239576   4.466   3.722   4.463 -0.2361 -1.3295  0.2933
 9315SOL     OW39577   4.372   4.070   9.098 -0.2429  0.0186  0.2153
 9315SOL    HW139578   4.322   3.993   9.126 -0.9935  1.1469  1.9739
 9315SOL    HW239579   4.334   4.091   9.013 -0.2565  2.4576  0.8259
 9316SOL     OW39580   3.217   0.067   8.449 -0.2087 -0.6073 -0.4175
 9316SOL    HW139581   3.183   0.100   8.366  3.3110  3.0913 -0.4217
 9316SOL    HW239582   3.192   0.139   8.507  0.1699 -0.9570  0.1732
 9317SOL     OW39583   3.130   0.894   7.283 -0.1380 -0.0711 -0.2194
 9317SOL    HW139584   3.109   0.831   7.352  2.1922 -1.1576 -0.4948
 9317SOL    HW239585   3.048   0.885   7.235 -0.0949  1.8211 -0.6521
 9318SOL     OW39586   1.894   1.736  16.353  0.2602  0.3192 -0.0181
 9318SOL    HW139587   1.940   1.655  16.332 -1.5961 -0.2036 -2.0808
 9318SOL    HW239588   1.880   1.724  16.447  1.4197  0.7728  0.2100
 9319SOL     OW39589   1.884   4.178  11.235  0.4040  0.4535  0.2469
 9319SOL    HW139590   1.802   4.144  11.272 -0.0018 -1.1089 -2.1309
 9319SOL    HW239591   1.866   4.271  11.218  1.5167  0.4058 -1.1752
 9320SOL     OW39592   0.245   1.723   2.628  0.1973  0.2634  0.1259
 9320SOL    HW139593   0.240   1.653   2.693 -2.6103  0.7144  0.3646
 9320SOL    HW239594   0.163   1.722   2.578  0.1058  0.1592  0.2785
 9321SOL     OW39595   3.363   2.426   5.410  0.4897  0.5313  0.6087
 9321SOL    HW139596   3.444   2.400   5.366 -1.0748 -1.5661 -1.0671
 9321SOL    HW239597   3.400   2.491   5.469  2.3071  0.8654 -0.9028
 9322SOL     OW39598   0.386   1.995   9.619 -0.2750  0.4359 -0.8291
 9322SOL    HW139599   0.391   1.977   9.713 -0.7584  1.7632 -0.5542
 9322SOL    HW239600   0.357   2.086   9.625  1.0142  0.7404  1.0167
 9323SOL     OW39601   2.746   2.857  10.430  0.3067  0.0830 -0.7573
 9323SOL    HW139602   2.695   2.918  10.483  0.8361  1.1089 -1.4189
 9323SOL    HW239603   2.689   2.850  10.353 -1.3333  2.2691  0.2719
 9324SOL     OW39604   0.564   3.865   9.182 -0.9560 -0.4851 -0.0956
 9324SOL    HW139605   0.566   3.961   9.188 -1.8132 -0.5193  0.6736
 9324SOL    HW239606   0.625   3.833   9.249  0.2105 -3.0323 -2.3735
 9325SOL     OW39607   3.198   1.380   8.101 -0.3771  0.2168  0.5427
 9325SOL    HW139608   3.111   1.412   8.081 -0.2293 -1.4873 -2.7069
 9325SOL    HW239609   3.203   1.413   8.191  1.1303 -0.8658  0.8582
 9326SOL     OW39610   2.364   0.139   8.335 -0.2925 -0.1121 -0.7053
 9326SOL    HW139611   2.424   0.075   8.373 -0.1200  0.1108 -0.5944
 9326SOL    HW239612   2.292   0.124   8.396  0.9855  0.8860  1.0507
 9327SOL     OW39613   0.041   1.867   4.199 -0.2535  0.0606 -0.1941
 9327SOL    HW139614   0.027   1.795   4.261 -0.5703 -1.6054 -2.2098
 9327SOL    HW239615   0.121   1.835   4.156 -0.0272  0.9317 -0.4358
 9328SOL     OW39616   2.588   0.580   0.685 -0.2159 -0.5409 -0.4202
 9328SOL    HW139617   2.542   0.663   0.674  0.2117  0.0064  1.8798
 9328SOL    HW239618   2.629   0.567   0.600 -2.4055  2.9881 -1.9904
 9329SOL     OW39619   2.636   3.550   1.352 -0.1464 -0.0681  0.3829
 9329SOL    HW139620   2.566   3.614   1.360  0.2498  0.4951 -0.6724
 9329SOL    HW239621   2.696   3.576   1.423  0.9569  1.6651 -1.1845
 9330SOL     OW39622   4.452   4.382   0.523 -1.3209 -0.0427  0.0859
 9330SOL    HW139623   4.409   4.462   0.493 -0.5805 -0.2252 -1.4863
 9330SOL    HW239624   4.491   4.338   0.447  0.4968 -3.0646  2.7968
 9331SOL     OW39625   2.411   2.879   6.813  0.7843  0.0259 -0.0973
 9331SOL    HW139626   2.419   2.786   6.789 -0.3138  0.1250 -0.8399
 9331SOL    HW239627   2.450   2.869   6.900  0.1236  2.8780  0.4987
 9332SOL     OW39628   1.861   1.315  14.206 -0.3808 -0.0420  0.1698
 9332SOL    HW139629   1.832   1.406  14.218 -1.5197 -0.4459  0.5022
 9332SOL    HW239630   1.882   1.287  14.295 -0.8435 -0.4866  0.1429
 9333SOL     OW39631   0.310   2.493  13.849 -0.4565  0.7292  0.0207
 9333SOL    HW139632   0.248   2.461  13.914 -1.3590  1.2554 -0.5775
 9333SOL    HW239633   0.274   2.581  13.837  1.0099  1.5263  1.4108
 9334SOL     OW39634   1.386   2.559  14.257 -0.1667  0.4093  0.0245
 9334SOL    HW139635   1.304   2.510  14.258  0.1304 -0.1199 -1.4184
 9334SOL    HW239636   1.349   2.642  14.226 -2.1234 -0.1949  0.7562
 9335SOL     OW39637   3.704   3.594   6.437 -0.4212 -0.1901  0.8968
 9335SOL    HW139638   3.609   3.603   6.430 -0.4050  0.7944  1.9537
 9335SOL    HW239639   3.730   3.685   6.426  0.3685 -0.3961  1.0315
 9336SOL     OW39640   2.660   2.718   5.720 -0.2790 -0.5417  0.1111
 9336SOL    HW139641   2.755   2.713   5.711 -0.2789 -0.7909  0.2674
 9336SOL    HW239642   2.620   2.720   5.633  1.2311  1.6599 -0.5278
 9337SOL     OW39643   3.682   0.039   6.139 -0.0132  0.1728  0.4281
 9337SOL    HW139644   3.589   0.016   6.141  0.7429 -2.7891  1.2617
 9337SOL    HW239645   3.699   0.043   6.045  0.4495  1.6863  0.5692
 9338SOL     OW39646   2.033   2.512  16.762  0.5715  0.5162  0.3821
 9338SOL    HW139647   2.039   2.484  16.854 -0.6570  3.3975  1.3442
 9338SOL    HW239648   2.074   2.435  16.723 -1.3076 -0.7197  0.8575
 9339SOL     OW39649   2.399   3.568   5.123 -0.1939  0.2248 -0.0872
 9339SOL    HW139650   2.407   3.531   5.212  0.8804 -1.4900 -0.8971
 9339SOL    HW239651   2.473   3.520   5.087  0.0798  1.6914 -1.4846
 9340SOL     OW39652   0.695   1.769   6.692  0.4004  0.2133  0.2077
 9340SOL    HW139653   0.734   1.768   6.779  2.6438  0.5724 -0.7914
 9340SOL    HW239654   0.740   1.848   6.662 -2.3957  1.2306 -1.2921
 9341SOL     OW39655   1.590   2.830   9.324  0.3418 -0.0539 -0.6703
 9341SOL    HW139656   1.528   2.892   9.285  0.8456  1.4606  0.9197
 9341SOL    HW239657   1.660   2.834   9.259  1.0801  2.9355  0.3202
 9342SOL     OW39658   1.720   3.086   7.173  0.4110  0.5759  0.7893
 9342SOL    HW139659   1.647   3.145   7.190 -0.5491 -0.0447 -1.1987
 9342SOL    HW239660   1.679   3.021   7.115  1.4372  0.3029  0.3814
 9343SOL     OW39661   1.823   3.548   5.623  0.4076  0.5418 -0.1208
 9343SOL    HW139662   1.778   3.617   5.673 -1.1152 -0.8976  0.5056
 9343SOL    HW239663   1.910   3.535   5.661  0.9028  4.1872 -0.0242
 9344SOL     OW39664   2.386   2.873   9.570 -0.0490  0.0006 -0.8710
 9344SOL    HW139665   2.411   2.856   9.479  0.5956  1.8306 -1.0331
 9344SOL    HW239666   2.351   2.790   9.603 -0.5763  0.2671 -0.7766
 9345SOL     OW39667   0.022   3.405   2.219 -0.2831  0.1626 -0.1684
 9345SOL    HW139668   4.723   3.336   2.273 -1.1139  0.8722  0.1478
 9345SOL    HW239669   4.674   3.438   2.197 -0.6539  0.3794  1.6338
 9346SOL     OW39670   0.123   1.714   4.596  0.5662  0.1760 -0.0462
 9346SOL    HW139671   0.171   1.754   4.524  2.9493 -0.9331  0.9087
 9346SOL    HW239672   0.063   1.785   4.617  2.2406  2.6343 -3.6368
 9347SOL     OW39673   2.292   0.387   2.688 -0.6918  0.0869  0.4962
 9347SOL    HW139674   2.215   0.332   2.702 -0.4050 -1.0124 -2.3250
 9347SOL    HW239675   2.254   0.472   2.666  0.2071  0.6908  1.2853
 9348SOL     OW39676   0.740   0.246   2.775  0.3602  0.4437  0.9474
 9348SOL    HW139677   0.698   0.164   2.801  1.5096 -0.4761 -0.1319
 9348SOL    HW239678   0.719   0.249   2.682 -0.4118  0.0120  1.1076
 9349SOL     OW39679   2.126   3.491   6.313 -0.2155 -1.3325  0.0504
 9349SOL    HW139680   2.072   3.563   6.279 -0.7878 -1.0085  1.6492
 9349SOL    HW239681   2.103   3.432   6.242 -2.1174 -0.4370 -0.0722
 9350SOL     OW39682   2.429   3.364   2.100 -0.5060 -0.1392  0.3646
 9350SOL    HW139683   2.386   3.442   2.065  1.5034  0.6380 -0.3687
 9350SOL    HW239684   2.360   3.299   2.086 -0.5175 -0.2608  1.0038
 9351SOL     OW39685   2.774   4.502   3.524 -0.0910 -0.3057  0.4139
 9351SOL    HW139686   2.859   4.528   3.488 -1.1904  0.6317 -1.5121
 9351SOL    HW239687   2.801   4.441   3.593  1.7191  1.5352  1.3482
 9352SOL     OW39688   0.885   0.206  14.747 -0.5590  0.6939  0.2912
 9352SOL    HW139689   0.856   0.223  14.657  1.0337  0.3070 -0.3058
 9352SOL    HW239690   0.802   0.183  14.788  0.2271  0.0357  1.4812
 9353SOL     OW39691   0.852   1.071  13.753 -0.4598 -0.3490  0.0082
 9353SOL    HW139692   0.930   1.018  13.736  0.3088  1.2102 -1.2959
 9353SOL    HW239693   0.864   1.139  13.687  1.7264 -1.9069 -1.2038
 9354SOL     OW39694   0.559   4.557  16.033  0.1633  0.5345  0.3750
 9354SOL    HW139695   0.584   4.471  16.001  1.2136  0.6269  0.9294
 9354SOL    HW239696   0.464   4.548  16.042  0.3322 -1.2952  0.1957
 9355SOL     OW39697   4.528   0.293  16.009 -0.2963 -0.4869 -0.3302
 9355SOL    HW139698   4.604   0.271  16.063 -1.2323 -1.8213  0.4464
 9355SOL    HW239699   4.472   0.352  16.061 -0.0857 -2.4365  2.1038
 9356SOL     OW39700   2.449   1.782   4.527 -0.0368 -0.2359 -0.2048
 9356SOL    HW139701   2.519   1.719   4.543 -1.8867 -2.3156 -0.2112
 9356SOL    HW239702   2.486   1.861   4.565  0.2042  0.0386 -1.0301
 9357SOL     OW39703   0.888   2.876   7.772 -0.0134 -0.2147 -0.1138
 9357SOL    HW139704   0.839   2.874   7.854  0.6092 -2.7958  0.1904
 9357SOL    HW239705   0.825   2.903   7.704  0.1298  2.6736  0.8970
 9358SOL     OW39706   2.359   4.056   4.013  0.2190  0.3565  0.3453
 9358SOL    HW139707   2.288   3.991   4.021 -0.3887  1.1785  1.7709
 9358SOL    HW239708   2.328   4.106   3.938 -1.1381 -1.7530 -0.5078
 9359SOL     OW39709   1.503   3.402   0.128  0.5538  0.7584 -0.6092
 9359SOL    HW139710   1.477   3.442   0.210  0.6817 -0.0592 -0.1735
 9359SOL    HW239711   1.496   3.308   0.145  1.0412  0.8841  0.2733
 9360SOL     OW39712   4.541   1.104   4.200  0.1566 -0.5145 -0.1903
 9360SOL    HW139713   4.453   1.127   4.230  0.2663 -0.8526  0.4023
 9360SOL    HW239714   4.532   1.009   4.186  0.5683 -0.5532 -0.1889
 9361SOL     OW39715   1.425   2.711   6.313  0.2585  0.6038 -0.1646
 9361SOL    HW139716   1.417   2.701   6.407 -2.1919  1.5786 -0.2734
 9361SOL    HW239717   1.454   2.802   6.302 -0.5512  0.5360 -3.0321
 9362SOL     OW39718   4.176   2.765   7.902 -0.5987 -0.0533  0.0526
 9362SOL    HW139719   4.123   2.792   7.977  1.2177  0.6331  1.1176
 9362SOL    HW239720   4.190   2.672   7.917 -0.6288 -0.0390  0.1647
 9363SOL     OW39721   4.131   1.282   5.647 -0.0847 -0.2337  0.1970
 9363SOL    HW139722   4.068   1.209   5.650 -0.5117  0.1291  0.0374
 9363SOL    HW239723   4.068   1.353   5.661 -0.5180 -0.5364 -0.2291
 9364SOL     OW39724   0.824   0.924   3.324 -0.0792 -0.4615 -0.0563
 9364SOL    HW139725   0.823   0.887   3.236 -1.1047 -1.4419  0.3568
 9364SOL    HW239726   0.731   0.930   3.345  0.2293  3.1195  0.1472
 9365SOL     OW39727   3.888   3.657  15.880  0.6602 -0.4009 -0.3324
 9365SOL    HW139728   3.866   3.718  15.951  0.9413  0.1938 -0.7565
 9365SOL    HW239729   3.981   3.648  15.901  0.3852 -1.1364  0.5893
 9366SOL     OW39730   2.010   1.385   5.837  0.3980 -0.2070  0.3349
 9366SOL    HW139731   1.952   1.439   5.890  0.0861 -1.3228  1.1446
 9366SOL    HW239732   1.981   1.296   5.859 -0.2791 -0.1803 -0.4876
 9367SOL     OW39733   0.765   1.444   2.016 -0.4432  0.1325  0.7457
 9367SOL    HW139734   0.714   1.452   1.936  0.6553  2.4515  0.2824
 9367SOL    HW239735   0.799   1.533   2.004 -1.3400  0.4791  0.7586
 9368SOL     OW39736   4.132   2.546   5.050  0.0392 -0.0785  0.2943
 9368SOL    HW139737   4.171   2.459   5.053  0.2101  0.0974  3.0150
 9368SOL    HW239738   4.215   2.594   5.055  0.2372  0.2254 -5.1573
 9369SOL     OW39739   0.838   0.758   2.571 -0.2449 -0.0521 -0.4701
 9369SOL    HW139740   0.897   0.825   2.605 -2.0359  0.8611  0.8251
 9369SOL    HW239741   0.751   0.799   2.569 -0.3321 -0.1964  0.2222
 9370SOL     OW39742   1.782   2.536   5.050 -0.0310 -0.1559 -0.3569
 9370SOL    HW139743   1.732   2.455   5.051 -1.9031  0.9981 -0.5962
 9370SOL    HW239744   1.854   2.510   4.992 -0.7344  0.1859 -1.3799
 9371SOL     OW39745   0.508   0.383   8.790 -0.0141  0.1520  0.2264
 9371SOL    HW139746   0.523   0.348   8.703 -0.7453  0.6959 -0.1185
 9371SOL    HW239747   0.546   0.471   8.792 -0.8524  0.5171  0.2588
 9372SOL     OW39748   2.614   4.294  14.714  0.6397  0.1585  0.1925
 9372SOL    HW139749   2.674   4.309  14.641 -1.3253  0.3998 -1.3959
 9372SOL    HW239750   2.532   4.343  14.703  0.8404  0.4057 -0.2223
 9373SOL     OW39751   3.611   4.012   3.378  0.1802  0.1000 -0.4877
 9373SOL    HW139752   3.702   3.987   3.361  0.9240  1.4351  1.5259
 9373SOL    HW239753   3.621   4.106   3.393  4.0604  0.1325 -3.2714
 9374SOL     OW39754   0.657   0.994   7.472  0.4980 -0.0991 -0.0771
 9374SOL    HW139755   0.678   1.087   7.480 -0.1198  0.0733 -0.5454
 9374SOL    HW239756   0.621   0.994   7.384  0.5448  0.0341 -0.0954
 9375SOL     OW39757   1.418   0.494   4.082 -0.2018  0.0639 -0.1968
 9375SOL    HW139758   1.401   0.529   3.994  0.1743 -0.9998 -0.6907
 9375SOL    HW239759   1.445   0.574   4.127  0.0098  0.5544 -1.1789
 9376SOL     OW39760   0.558   0.699   9.880 -0.7059  0.3809  0.2522
 9376SOL    HW139761   0.631   0.755   9.906  0.6995 -1.1649 -0.4067
 9376SOL    HW239762   0.494   0.768   9.897 -1.3860 -0.3505  0.6804
 9377SOL     OW39763   1.892   3.321   4.749  0.2746 -0.0747  0.2585
 9377SOL    HW139764   1.802   3.299   4.773  0.6839 -1.8483  0.1756
 9377SOL    HW239765   1.917   3.237   4.711  2.1448 -0.3420  2.1612
 9378SOL     OW39766   1.977   1.928   3.027 -0.3484  0.2110 -0.1963
 9378SOL    HW139767   2.021   1.907   3.110 -1.1163 -0.1863  0.1105
 9378SOL    HW239768   2.040   1.884   2.971 -0.9675 -2.5871  1.3141
 9379SOL     OW39769   0.567   1.157   9.381  0.1567  0.5596 -0.3757
 9379SOL    HW139770   0.607   1.077   9.416 -1.8987 -1.1442 -1.9809
 9379SOL    HW239771   0.608   1.171   9.296  0.4934 -1.8105 -0.6035
 9380SOL     OW39772   0.901   0.261   6.566 -0.2305  0.0922  0.2210
 9380SOL    HW139773   0.823   0.274   6.511 -0.5350  0.0460  0.6378
 9380SOL    HW239774   0.914   0.343   6.613  1.1600 -0.6560  1.1233
 9381SOL     OW39775   4.737   1.934   8.078 -0.2224  0.5271  0.1185
 9381SOL    HW139776   0.030   1.900   7.995 -0.7449 -0.5524  0.3617
 9381SOL    HW239777   0.062   1.908   8.143  0.1121 -2.3155 -1.3557
 9382SOL     OW39778   3.560   3.518   0.908 -0.2170 -0.1104  0.0693
 9382SOL    HW139779   3.478   3.555   0.942 -0.4593 -0.9238  0.3764
 9382SOL    HW239780   3.599   3.488   0.990  1.0396  1.2800 -0.0314
 9383SOL     OW39781   1.645   0.131  16.556  0.3043  0.0074 -0.4697
 9383SOL    HW139782   1.570   0.188  16.539  0.1338  0.1097  0.6284
 9383SOL    HW239783   1.699   0.204  16.588  0.8739 -0.1122 -1.1727
 9384SOL     OW39784   2.014   1.931   5.078  0.7349 -0.0148 -0.3043
 9384SOL    HW139785   1.933   1.951   5.124  2.1114  1.4770  1.4457
 9384SOL    HW239786   2.039   1.849   5.122 -4.0325 -0.9669  0.5769
 9385SOL     OW39787   4.706   1.641   7.569  0.0381 -0.4844 -0.0508
 9385SOL    HW139788   4.700   1.671   7.479 -0.2833 -0.0634  0.1133
 9385SOL    HW239789   4.661   1.710   7.617  0.8411 -0.1021  0.1400
 9386SOL     OW39790   3.380   3.132   2.297  0.6204  0.6921 -0.2217
 9386SOL    HW139791   3.431   3.191   2.352  0.6241 -0.7600  1.3753
 9386SOL    HW239792   3.344   3.183   2.225  0.4550 -0.0242 -0.6531
 9387SOL     OW39793   0.212   3.346   0.310 -0.0622 -0.3266 -0.0041
 9387SOL    HW139794   0.276   3.317   0.245  1.8377  2.0250  0.8263
 9387SOL    HW239795   0.239   3.303   0.391  0.2966 -0.6622 -0.3040
 9388SOL     OW39796   3.744   0.828  11.980  0.4101 -0.3826  0.1986
 9388SOL    HW139797   3.719   0.840  11.889  0.9270 -1.1659 -0.0429
 9388SOL    HW239798   3.820   0.771  11.975  1.5090  1.0300  0.8999
 9389SOL     OW39799   0.867   3.280   1.574  0.5100  0.0681  0.7264
 9389SOL    HW139800   0.947   3.228   1.564 -0.2369 -1.4756  2.5955
 9389SOL    HW239801   0.819   3.264   1.492 -0.8529 -0.5117  1.6338
 9390SOL     OW39802   2.498   0.382  17.621  0.2981  0.0076  0.1502
 9390SOL    HW139803   2.572   0.323  17.633  0.6744  0.9232  2.2438
 9390SOL    HW239804   2.536   0.425  17.544  0.0651 -0.3578 -0.1679
 9391SOL     OW39805   3.759   3.029   6.383  0.3084 -0.1664 -0.3838
 9391SOL    HW139806   3.663   3.034   6.381  0.1870 -2.5121 -0.1427
 9391SOL    HW239807   3.773   2.935   6.378 -2.8028 -0.5301 -1.9174
 9392SOL     OW39808   4.433   2.377  16.754  0.1516 -0.0312 -0.1532
 9392SOL    HW139809   4.414   2.447  16.691 -1.7004  1.1957  1.7517
 9392SOL    HW239810   4.496   2.334  16.697 -1.1577  0.0876 -1.6866
 9393SOL     OW39811   2.960   1.519  14.204 -0.1890 -0.0791 -0.1199
 9393SOL    HW139812   2.897   1.587  14.231  1.2141  1.3590 -0.4435
 9393SOL    HW239813   3.025   1.564  14.150  0.4112 -1.1865 -0.3156
 9394SOL     OW39814   1.889   1.410   2.886  0.5783  0.2633 -0.0159
 9394SOL    HW139815   1.894   1.469   2.811  0.4477 -0.8074 -0.8665
 9394SOL    HW239816   1.898   1.471   2.960 -0.2640 -0.3258  0.5676
 9395SOL     OW39817   4.113   1.651  12.561 -0.7397 -0.4918  0.3727
 9395SOL    HW139818   4.066   1.691  12.488 -0.3275 -0.4412  0.1372
 9395SOL    HW239819   4.056   1.664  12.637  1.1423  3.8149  1.0757
 9396SOL     OW39820   2.867   2.496   3.490 -0.1932  0.1106  0.2738
 9396SOL    HW139821   2.894   2.408   3.515 -2.1093 -0.1010  1.6289
 9396SOL    HW239822   2.779   2.503   3.527 -1.3392 -2.1027 -2.0140
 9397SOL     OW39823   1.875   2.247   6.839 -0.0715  0.1391 -0.0185
 9397SOL    HW139824   1.949   2.246   6.900 -0.5667 -0.2123  0.5762
 9397SOL    HW239825   1.926   2.265   6.760 -0.1459  1.9464  0.3416
 9398SOL     OW39826   0.247   0.292   0.770  0.4109  0.5954 -0.3565
 9398SOL    HW139827   0.207   0.335   0.695  0.8289  0.8184 -0.4531
 9398SOL    HW239828   0.336   0.322   0.752  0.3527  0.4678 -0.8461
 9399SOL     OW39829   2.716   2.966   9.459  0.1239  0.1760  0.2346
 9399SOL    HW139830   2.792   2.970   9.401 -0.8467  1.4895 -0.9520
 9399SOL    HW239831   2.651   2.924   9.404  0.8696  0.9822 -1.2580
 9400SOL     OW39832   1.878   1.665   8.677 -0.3066 -0.0118  0.0353
 9400SOL    HW139833   1.895   1.585   8.727  2.2896 -0.4994 -1.6348
 9400SOL    HW239834   1.807   1.641   8.617  1.0604 -1.0738 -1.1500
 9401SOL     OW39835   4.643   0.329   7.616  0.3984  0.2554  0.2125
 9401SOL    HW139836   4.737   0.339   7.601  0.3184 -1.3450 -1.3264
 9401SOL    HW239837   4.622   0.295   7.529 -1.5624  0.3800  0.6351
 9402SOL     OW39838   4.463   3.369   4.412 -0.5394 -0.4690  0.0554
 9402SOL    HW139839   4.413   3.294   4.445  0.7779 -1.3378  0.0392
 9402SOL    HW239840   4.388   3.423   4.386  1.0745  0.8095 -1.9866
 9403SOL     OW39841   4.316   1.912  16.824 -0.0677  0.2543 -0.2356
 9403SOL    HW139842   4.412   1.907  16.826 -0.1374  0.1608  2.5667
 9403SOL    HW239843   4.305   2.003  16.851 -2.5420 -0.3207  0.6217
 9404SOL     OW39844   0.184   1.059   6.373 -0.0142 -0.2610  0.4953
 9404SOL    HW139845   0.203   1.104   6.290  1.5562  0.7175  1.3949
 9404SOL    HW239846   0.096   1.086   6.396 -0.8370 -1.6472 -0.9825
 9405SOL     OW39847   2.549   1.916  15.539  0.4306 -0.3728 -0.2353
 9405SOL    HW139848   2.495   1.938  15.463  0.7680  1.6851  0.1174
 9405SOL    HW239849   2.635   1.927  15.498 -0.4006  2.0760 -1.3294
 9406SOL     OW39850   3.750   3.952   5.136  0.3949  0.0957 -0.4465
 9406SOL    HW139851   3.772   3.871   5.090 -1.3456 -1.5843  1.6802
 9406SOL    HW239852   3.765   4.012   5.063 -0.6231  1.1393  0.1969
 9407SOL     OW39853   3.716   1.767   6.940 -0.3791  0.2938  0.3252
 9407SOL    HW139854   3.786   1.815   6.983  1.2806  0.1506 -2.1802
 9407SOL    HW239855   3.742   1.781   6.849  0.1001 -1.1268  0.2368
 9408SOL     OW39856   1.342   3.133   8.552 -0.0081 -0.1040  0.1415
 9408SOL    HW139857   1.292   3.137   8.471 -0.9280 -2.9933  0.5886
 9408SOL    HW239858   1.272   3.140   8.617  0.0337  2.8297 -0.1024
 9409SOL     OW39859   0.803   1.889  10.762 -0.1755  0.6029  0.4337
 9409SOL    HW139860   0.772   1.948  10.832 -0.1901 -0.3331  1.2135
 9409SOL    HW239861   0.773   1.926  10.678  1.7915  3.3998  0.9562
 9410SOL     OW39862   4.231   2.071   6.087 -0.2206  0.4410 -0.2757
 9410SOL    HW139863   4.187   2.006   6.142 -0.1940  1.2597  0.6947
 9410SOL    HW239864   4.294   2.015   6.041  1.2131  0.1178  2.1181
 9411SOL     OW39865   4.372   0.202  13.606 -0.4191  0.7062  0.0940
 9411SOL    HW139866   4.304   0.136  13.600  0.2685  0.1500 -1.5526
 9411SOL    HW239867   4.313   0.272  13.633 -0.4510  0.7404 -0.0625
 9412SOL     OW39868   3.842   4.661  14.531  0.7331  0.1997 -0.4392
 9412SOL    HW139869   3.864   0.007  14.569  0.1882 -0.0368  0.4274
 9412SOL    HW239870   3.859   4.603  14.605 -0.6190  1.4957  0.8998
 9413SOL     OW39871   4.474   0.368  15.536 -0.3892 -0.5961  0.2325
 9413SOL    HW139872   4.561   0.334  15.513 -0.8828 -0.9484 -1.1502
 9413SOL    HW239873   4.449   0.313  15.610 -1.3554 -0.2534  0.1613
 9414SOL     OW39874   3.365   2.685   1.651 -0.5307 -0.3842  0.0158
 9414SOL    HW139875   3.373   2.644   1.737 -1.0422  0.8202  0.6468
 9414SOL    HW239876   3.290   2.743   1.670 -0.3975  0.1388 -1.0573
 9415SOL     OW39877   2.819   2.690   8.649  0.2234 -0.5115 -0.5171
 9415SOL    HW139878   2.887   2.754   8.631 -2.4172  2.2844 -0.6410
 9415SOL    HW239879   2.737   2.739   8.648 -0.1231 -1.1187 -2.2153
 9416SOL     OW39880   0.462   0.407   2.096  0.0344  0.8760 -0.0782
 9416SOL    HW139881   0.531   0.436   2.156 -0.0129  1.4268 -0.2893
 9416SOL    HW239882   0.383   0.432   2.145 -0.9576  0.9440 -1.7185
 9417SOL     OW39883   1.354   4.320   5.449 -0.1981 -0.1200 -0.1819
 9417SOL    HW139884   1.297   4.254   5.410 -2.5100  2.2494 -0.8429
 9417SOL    HW239885   1.287   4.387   5.466  0.3443  0.5989 -0.8497
 9418SOL     OW39886   3.626   1.941  16.242 -0.0673 -0.1142 -0.2041
 9418SOL    HW139887   3.634   1.943  16.147  1.3578  0.4588 -0.0655
 9418SOL    HW239888   3.717   1.962  16.262 -0.7457  3.0206 -0.4510
 9419SOL     OW39889   0.571   2.626   5.752  0.6257 -0.3668  0.2171
 9419SOL    HW139890   0.530   2.713   5.749 -0.2149 -0.7253  1.7130
 9419SOL    HW239891   0.586   2.611   5.845 -0.9096 -0.7059  0.4118
 9420SOL     OW39892   1.056   0.561   8.046 -0.1122 -0.0932  0.7627
 9420SOL    HW139893   1.069   0.475   8.007 -1.3899 -0.2031  0.5646
 9420SOL    HW239894   1.131   0.578   8.103  1.6279  0.1791 -1.6089
 9421SOL     OW39895   0.590   1.758  14.333 -0.8143  0.0752  0.3634
 9421SOL    HW139896   0.522   1.694  14.309 -0.2493  1.3788 -4.8737
 9421SOL    HW239897   0.617   1.730  14.420  0.4349  0.2094  0.0087
 9422SOL     OW39898   4.691   3.930   7.486 -0.0256  0.5366  0.3852
 9422SOL    HW139899   4.691   3.994   7.415 -0.2486  0.7142  0.5451
 9422SOL    HW239900   4.695   3.846   7.440 -0.2905  0.4735  0.4734
 9423SOL     OW39901   3.597   2.520  13.420  0.3013 -0.6662 -0.7528
 9423SOL    HW139902   3.530   2.493  13.483  0.2500  1.9711  0.3204
 9423SOL    HW239903   3.642   2.438  13.403  3.5191  0.9204  0.1848
 9424SOL     OW39904   2.340   2.343   2.122 -0.2602  0.3050  0.5978
 9424SOL    HW139905   2.362   2.255   2.088  0.3173  0.6846 -0.0203
 9424SOL    HW239906   2.251   2.326   2.151 -1.3830  2.8317 -1.3534
 9425SOL     OW39907   0.243   0.852  11.480  0.6822  0.0283 -0.5447
 9425SOL    HW139908   0.190   0.782  11.442  0.5414 -0.9065  1.4027
 9425SOL    HW239909   0.324   0.805  11.496 -1.1171 -3.0966 -0.6811
 9426SOL     OW39910   1.489   2.069  16.332  1.1873 -0.5946 -0.2678
 9426SOL    HW139911   1.532   1.995  16.375 -0.9879 -2.0004 -0.5241
 9426SOL    HW239912   1.441   2.037  16.256  2.2128  0.1702 -1.2415
 9427SOL     OW39913   3.971   1.595   5.681  0.2111  0.1806  0.1717
 9427SOL    HW139914   3.993   1.597   5.775  1.3735 -0.9014 -0.0802
 9427SOL    HW239915   3.890   1.545   5.690 -0.8109  1.9256  0.7969
 9428SOL     OW39916   2.748   4.173   2.992  0.5097 -0.0669  0.3029
 9428SOL    HW139917   2.804   4.230   2.939 -1.6833  0.6512 -1.2711
 9428SOL    HW239918   2.773   4.206   3.078 -0.0557  3.3189 -0.8389
 9429SOL     OW39919   2.091   1.266   1.623  0.0603 -0.0874  0.0758
 9429SOL    HW139920   2.069   1.173   1.625 -1.1918  0.2197  0.6167
 9429SOL    HW239921   2.175   1.255   1.579 -0.1818 -1.0278 -0.1657
 9430SOL     OW39922   1.488   0.375   2.559 -0.0237  0.2908  0.2925
 9430SOL    HW139923   1.432   0.409   2.628  0.1017 -0.2738  0.6732
 9430SOL    HW239924   1.545   0.447   2.529  0.9160 -0.1683  0.9691
 9431SOL     OW39925   2.179   0.126  12.583  0.2807  0.1123  0.2769
 9431SOL    HW139926   2.266   0.091  12.563  0.0834 -0.7254  0.9342
 9431SOL    HW239927   2.141   0.166  12.505 -0.1354  1.4104  1.1484
 9432SOL     OW39928   4.137   3.965   1.344 -0.5881  0.8005  0.1310
 9432SOL    HW139929   4.179   3.964   1.430  0.0118 -1.0067 -0.1833
 9432SOL    HW239930   4.203   4.027   1.313  0.8279 -1.0089 -0.5167
 9433SOL     OW39931   0.612   3.572   7.641 -0.3868  0.1214  0.3725
 9433SOL    HW139932   0.689   3.561   7.697 -1.1603  1.8093  1.7829
 9433SOL    HW239933   0.583   3.657   7.675 -1.3238 -0.4719  1.0479
 9434SOL     OW39934   2.327   1.523   8.852 -0.0991 -0.0543  0.4975
 9434SOL    HW139935   2.287   1.600   8.812 -1.2548 -1.7315 -1.5916
 9434SOL    HW239936   2.245   1.475   8.862  0.7286 -1.4682  0.4827
 9435SOL     OW39937   2.716   0.465   2.034 -0.6887 -0.3339  0.0663
 9435SOL    HW139938   2.804   0.430   2.050 -0.1760 -0.1504 -2.3581
 9435SOL    HW239939   2.727   0.554   2.069 -2.2982 -0.2934  0.4641
 9436SOL     OW39940   1.695   0.880   4.571 -0.2985  0.1155  0.5061
 9436SOL    HW139941   1.748   0.839   4.503 -0.6068  1.3649 -0.4930
 9436SOL    HW239942   1.724   0.833   4.649  0.5788  0.7163  0.5443
 9437SOL     OW39943   2.613   4.067   7.184  0.6230 -0.2223  0.4716
 9437SOL    HW139944   2.556   3.994   7.160  0.9738 -0.2957 -0.1342
 9437SOL    HW239945   2.674   4.079   7.111  0.8543  1.3903  0.9191
 9438SOL     OW39946   0.954   3.108   9.189 -0.3690  0.5498 -0.3597
 9438SOL    HW139947   0.905   3.114   9.271 -1.4178 -0.8317 -0.8900
 9438SOL    HW239948   0.930   3.190   9.144  0.4626  1.2259  0.4370
 9439SOL     OW39949   4.623   0.941  12.656 -0.5239  0.6513 -0.7688
 9439SOL    HW139950   4.614   0.921  12.563 -1.7640  0.5753 -0.6303
 9439SOL    HW239951   4.576   1.023  12.669  0.5846  0.9796  1.1737
 9440SOL     OW39952   2.840   0.827   8.021 -0.3874  0.2570 -0.6087
 9440SOL    HW139953   2.912   0.770   7.994 -0.3810  0.1293 -0.3293
 9440SOL    HW239954   2.833   0.800   8.113  1.6016  0.4634 -0.3870
 9441SOL     OW39955   1.901   2.992  15.959 -0.1022  0.6887 -0.1625
 9441SOL    HW139956   1.861   3.072  15.925 -1.7012  0.0438  0.1691
 9441SOL    HW239957   1.920   3.030  16.044  0.4056 -1.2794  0.6021
 9442SOL     OW39958   4.700   4.477   8.588  0.2159  0.1885  0.2288
 9442SOL    HW139959   0.000   4.563   8.578  1.3472 -0.3362  0.2910
 9442SOL    HW239960   0.037   4.424   8.609 -0.3347 -0.7584 -0.1408
 9443SOL     OW39961   0.062   0.083   2.430  0.1276  0.4690 -0.1387
 9443SOL    HW139962   0.078   4.732   2.455 -0.9187 -0.3243 -2.3977
 9443SOL    HW239963   0.043   0.075   2.337  0.1593 -2.2678  0.0913
 9444SOL     OW39964   4.672   2.349  16.277  0.3990 -0.6531 -0.0418
 9444SOL    HW139965   4.633   2.296  16.346 -0.9547  0.1097 -0.2399
 9444SOL    HW239966   4.610   2.349  16.205  0.1250  0.5146  0.1932
 9445SOL     OW39967   4.122   3.010  13.110  0.3587  0.7371  0.1750
 9445SOL    HW139968   4.109   3.034  13.019  0.1540 -0.3213 -0.0715
 9445SOL    HW239969   4.213   3.039  13.119 -0.1179  2.9409 -2.3972
 9446SOL     OW39970   0.042   1.435  13.803 -0.2269 -0.0501 -0.0259
 9446SOL    HW139971   0.116   1.495  13.796 -0.9113  0.6255 -1.4207
 9446SOL    HW239972   4.717   1.486  13.755  0.6096 -0.1877 -1.2850
 9447SOL     OW39973   3.046   1.082   4.035 -0.1603 -0.3264 -0.2275
 9447SOL    HW139974   2.995   1.005   4.009  1.8482 -2.3296  1.6930
 9447SOL    HW239975   2.987   1.157   4.028  0.0119 -0.0853  0.8668
 9448SOL     OW39976   1.598   1.279   7.248  0.0938 -0.4276  0.3691
 9448SOL    HW139977   1.594   1.305   7.340  2.6480 -0.9935  0.6440
 9448SOL    HW239978   1.506   1.272   7.223  0.1334 -0.3979  0.2130
 9449SOL     OW39979   3.752   0.308  17.615  0.0043 -0.2388 -0.6111
 9449SOL    HW139980   3.769   0.222  17.576 -0.3979 -1.2176  1.3836
 9449SOL    HW239981   3.697   0.295  17.692  0.7392 -0.6503 -0.1508
 9450SOL     OW39982   1.222   0.918   6.565 -0.3914 -0.5104  0.7263
 9450SOL    HW139983   1.151   0.948   6.508  0.3373  1.3334  0.7845
 9450SOL    HW239984   1.207   0.824   6.554  0.8078 -0.7008  0.8007
 9451SOL     OW39985   0.151   3.714   5.267 -0.0539  0.3279  1.0519
 9451SOL    HW139986   0.221   3.658   5.300  0.0238 -0.9386 -1.2663
 9451SOL    HW239987   0.115   3.653   5.203  0.7009 -1.4276  2.3283
 9452SOL     OW39988   2.394   3.387   7.993  0.2998 -0.3292 -0.2945
 9452SOL    HW139989   2.355   3.365   7.908  1.2263  0.7836 -1.0220
 9452SOL    HW239990   2.486   3.402   7.969  0.1624  1.5234  0.3746
 9453SOL     OW39991   2.471   1.173   9.054  1.0231 -0.1179  1.0852
 9453SOL    HW139992   2.398   1.171   9.116 -0.0169  1.3335 -0.1097
 9453SOL    HW239993   2.483   1.079   9.040  2.4268  0.2958 -0.5168
 9454SOL     OW39994   0.191   2.147   2.326 -0.0997  0.2325  0.1578
 9454SOL    HW139995   0.121   2.103   2.278 -0.8683  2.3215 -0.6519
 9454SOL    HW239996   0.140   2.200   2.387 -1.8846 -1.2016 -0.1128
 9455SOL     OW39997   1.007   3.304  13.046 -0.6573 -0.5371 -0.0350
 9455SOL    HW139998   1.087   3.255  13.065 -0.3232  0.0266  0.0049
 9455SOL    HW239999   0.986   3.338  13.133 -1.6142 -0.3651 -0.3260
 9456SOL     OW40000   3.765   3.239   4.879 -0.0044  0.0951 -0.0317
 9456SOL    HW140001   3.777   3.147   4.855 -2.2308 -0.1391 -0.2224
 9456SOL    HW240002   3.836   3.282   4.831  0.0645 -1.1186 -1.0386
 9457SOL     OW40003   0.825   0.178  14.492  0.1325 -0.5501  0.1090
 9457SOL    HW140004   0.771   0.231  14.434  1.6078 -0.0771 -0.8341
 9457SOL    HW240005   0.899   0.165  14.433  1.9240 -0.5214  2.3293
 9458SOL     OW40006   2.141   3.817   2.954  0.0961  0.4254  0.2523
 9458SOL    HW140007   2.178   3.852   2.873  0.2522 -1.2238 -0.3826
 9458SOL    HW240008   2.218   3.771   2.987 -0.7957 -2.7295 -2.0198
 9459SOL     OW40009   3.104   2.933   3.967 -0.1086  0.1168  0.4002
 9459SOL    HW140010   3.095   2.842   3.996 -1.4171  1.4123  4.0796
 9459SOL    HW240011   3.089   2.918   3.873 -2.9528  1.6393  0.6002
 9460SOL     OW40012   4.517   0.994  11.727 -0.2374  0.5971 -0.6131
 9460SOL    HW140013   4.605   1.006  11.693 -0.5542  0.0984 -1.6198
 9460SOL    HW240014   4.480   1.075  11.690  0.0862  1.7439  1.5945
 9461SOL     OW40015   1.114   1.927   8.095 -0.4404 -0.3234  0.6685
 9461SOL    HW140016   1.177   1.995   8.120 -1.6209  0.4101  1.6479
 9461SOL    HW240017   1.059   1.976   8.034 -2.2239 -1.4309  1.3821
 9462SOL     OW40018   2.214   0.103   1.103  0.0389  0.2612  0.4972
 9462SOL    HW140019   2.175   0.164   1.041 -1.6399  0.3704  1.6631
 9462SOL    HW240020   2.270   0.157   1.157 -0.4852 -0.3060  1.6049
 9463SOL     OW40021   3.874   4.320   5.921  0.4379 -0.3972  0.6385
 9463SOL    HW140022   3.866   4.226   5.904 -0.1423 -0.1668 -0.3659
 9463SOL    HW240023   3.786   4.353   5.940  0.5219 -0.7411  1.6089
 9464SOL     OW40024   0.965   4.325   1.694 -0.0332  0.4240 -0.1553
 9464SOL    HW140025   0.905   4.391   1.728  0.1034 -0.3509  1.5448
 9464SOL    HW240026   0.951   4.332   1.599  0.9985  0.6653 -0.2923
 9465SOL     OW40027   0.364   1.881  13.731  0.2077  0.5589 -0.3704
 9465SOL    HW140028   0.377   1.963  13.778  3.2450  0.3016 -0.7908
 9465SOL    HW240029   0.311   1.907  13.656 -1.6076 -1.6783  0.1119
 9466SOL     OW40030   4.512   0.857   4.122  0.5798 -0.3430  0.3751
 9466SOL    HW140031   4.531   0.896   4.036 -2.3517  0.6041  0.1728
 9466SOL    HW240032   4.487   0.767   4.101 -0.3128 -0.4662  1.9382
 9467SOL     OW40033   0.593   3.600   4.481 -0.2537  0.3147 -0.1364
 9467SOL    HW140034   0.574   3.693   4.478 -1.3127  0.0951 -0.1741
 9467SOL    HW240035   0.603   3.588   4.575 -1.9574 -1.3737 -0.1638
 9468SOL     OW40036   2.908   3.384   6.231 -0.4004 -0.4221 -0.0166
 9468SOL    HW140037   2.855   3.354   6.157  0.4242 -2.0147  0.0566
 9468SOL    HW240038   2.981   3.428   6.189  0.6196 -0.3294  1.8596
 9469SOL     OW40039   2.619   3.811   3.323 -0.2762  0.2418 -0.3125
 9469SOL    HW140040   2.691   3.748   3.325 -0.4934  0.0567  1.5715
 9469SOL    HW240041   2.601   3.805   3.229  0.7175 -0.0924 -0.4867
 9470SOL     OW40042   0.280   4.562   8.135 -0.3115 -0.1559  0.7766
 9470SOL    HW140043   0.197   4.589   8.174  0.1738  2.0003  0.3061
 9470SOL    HW240044   0.280   4.604   8.048  1.4541  0.8000  1.2420
 9471SOL     OW40045   4.580   3.424   6.764 -0.0235  0.7701 -0.8675
 9471SOL    HW140046   4.588   3.371   6.844  0.9752  2.2265  0.0045
 9471SOL    HW240047   4.663   3.397   6.723  0.1930  3.5494 -2.2550
 9472SOL     OW40048   0.829   2.405   2.290 -0.2500 -0.7037  0.2761
 9472SOL    HW140049   0.738   2.433   2.302  0.4269  2.0404 -1.1821
 9472SOL    HW240050   0.840   2.410   2.195  2.5270  2.3385  0.7629
 9473SOL     OW40051   3.986   4.352  10.458  0.5511  0.3152  0.3297
 9473SOL    HW140052   3.895   4.381  10.458  0.6209  0.5332 -2.8624
 9473SOL    HW240053   4.027   4.437  10.442  2.0127 -0.4057  0.2780
 9474SOL     OW40054   2.370   0.104   3.463 -0.1215  0.2902 -0.3460
 9474SOL    HW140055   2.277   0.110   3.487 -0.4174  1.1828 -1.7625
 9474SOL    HW240056   2.370   0.009   3.452  0.5135  0.2677 -0.1693
 9475SOL     OW40057   1.886   3.630   1.809 -0.4328  0.2516 -0.2418
 9475SOL    HW140058   1.920   3.672   1.888 -0.9169 -1.1845  0.7330
 9475SOL    HW240059   1.801   3.594   1.833 -0.8454  0.0467 -2.0379
 9476SOL     OW40060   4.582   1.337  17.274  0.6842  0.1139 -0.0463
 9476SOL    HW140061   4.606   1.407  17.336  2.7091  0.5997 -1.4058
 9476SOL    HW240062   4.659   1.334  17.218  1.4466 -1.3734  1.0854
 9477SOL     OW40063   2.593   4.580   0.775  0.5000  0.1251 -0.6412
 9477SOL    HW140064   2.668   4.586   0.717  2.4605 -1.2040  1.7545
 9477SOL    HW240065   2.637   4.573   0.860  0.1564  3.4423 -0.1760
 9478SOL     OW40066   3.517   1.814   4.092  0.1079 -0.0650 -0.4507
 9478SOL    HW140067   3.552   1.761   4.021  1.0724 -1.6611  1.2445
 9478SOL    HW240068   3.583   1.790   4.157 -0.2616 -2.2698 -0.8868
 9479SOL     OW40069   4.705   1.947   9.050  0.1442  0.3003  0.2682
 9479SOL    HW140070   4.656   1.881   9.100  0.7224 -0.7241 -0.5224
 9479SOL    HW240071   4.663   1.944   8.964  1.8391  0.9152 -0.5894
 9480SOL     OW40072   3.126   1.002   3.333 -0.2445  0.1242 -0.6558
 9480SOL    HW140073   3.175   1.075   3.295  0.4500  0.4263  0.8215
 9480SOL    HW240074   3.051   0.994   3.275  0.5189 -0.9158 -1.5007
 9481SOL     OW40075   3.243   2.116   2.517 -0.2134 -0.2937 -0.1949
 9481SOL    HW140076   3.301   2.180   2.476 -1.9769  1.0016 -0.6625
 9481SOL    HW240077   3.187   2.176   2.567 -0.4413 -0.9236  0.3047
 9482SOL     OW40078   3.406   4.436  15.475 -0.0213 -0.5462  0.0545
 9482SOL    HW140079   3.368   4.436  15.387 -2.3272 -0.1182  1.0728
 9482SOL    HW240080   3.323   4.435  15.522  0.1467 -1.7160  0.3421
 9483SOL     OW40081   3.620   2.701   2.778 -0.2810 -0.1638 -0.0633
 9483SOL    HW140082   3.697   2.753   2.803 -0.7613  0.8664 -0.7482
 9483SOL    HW240083   3.618   2.707   2.682 -1.9566 -2.0575 -0.1624
 9484SOL     OW40084   1.802   0.820   8.431 -0.3080 -0.0617 -0.1045
 9484SOL    HW140085   1.842   0.758   8.370  1.2631  0.9709 -0.1397
 9484SOL    HW240086   1.880   0.827   8.487 -1.4864 -1.8645  1.7715
 9485SOL     OW40087   2.905   4.666   5.012  0.0842 -0.1527 -0.2165
 9485SOL    HW140088   2.945   0.006   4.977 -3.0353  2.1357  1.4462
 9485SOL    HW240089   2.949   4.595   4.965  3.7595  2.0211 -0.0890
 9486SOL     OW40090   2.407   0.550   5.392 -0.1960 -0.5691  0.3724
 9486SOL    HW140091   2.438   0.634   5.424  0.2551 -0.3872 -0.5624
 9486SOL    HW240092   2.487   0.503   5.369  0.8578  2.3193 -1.7869
 9487SOL     OW40093   4.534   1.643   5.595  0.1206  0.3274 -0.2495
 9487SOL    HW140094   4.464   1.608   5.540 -0.5126 -2.4759  2.3412
 9487SOL    HW240095   4.518   1.736   5.580  4.4886  1.4180  1.7114
 9488SOL     OW40096   1.040   2.962   7.188 -0.0454 -0.2497  0.1829
 9488SOL    HW140097   1.132   2.945   7.203  0.2772 -0.8185 -2.4542
 9488SOL    HW240098   1.027   2.924   7.101  2.2533  2.3309 -1.2992
 9489SOL     OW40099   1.893   4.162  13.331  0.5768 -0.2692  0.5437
 9489SOL    HW140100   1.912   4.170  13.424  0.3134  0.2418  0.5517
 9489SOL    HW240101   1.907   4.070  13.311 -0.5840 -0.4435  0.5494
 9490SOL     OW40102   0.627   3.060   5.131  0.5112 -0.1191  0.5643
 9490SOL    HW140103   0.609   3.125   5.198 -0.7141  0.7050 -0.5717
 9490SOL    HW240104   0.545   3.015   5.153  0.4073  0.0693  0.5600
 9491SOL     OW40105   4.372   0.099   7.417 -0.3963  0.4353  0.5021
 9491SOL    HW140106   4.325   0.117   7.498  1.1696 -0.7072  1.6729
 9491SOL    HW240107   4.298   0.076   7.361 -0.7320 -0.7149  1.4213
 9492SOL     OW40108   2.240   0.446  13.986  0.1534 -0.4293 -0.4289
 9492SOL    HW140109   2.211   0.404  14.067  0.8059  0.7576  0.4179
 9492SOL    HW240110   2.225   0.375  13.924  2.8358  1.6602 -3.4771
 9493SOL     OW40111   2.261   2.683  13.368  0.0997  0.1318  0.0239
 9493SOL    HW140112   2.259   2.616  13.436  0.4839 -1.4263 -1.4926
 9493SOL    HW240113   2.197   2.642  13.309 -0.0301 -1.1023  1.0145
 9494SOL     OW40114   1.286   2.145   2.838 -0.6083  0.0232  0.0552
 9494SOL    HW140115   1.295   2.049   2.842  3.5381  0.4543  0.9383
 9494SOL    HW240116   1.255   2.184   2.920 -0.8307  1.3803 -0.6783
 9495SOL     OW40117   3.850   1.273   7.480 -0.4784  0.3565 -0.3752
 9495SOL    HW140118   3.924   1.240   7.531 -1.5157 -1.2477  0.1141
 9495SOL    HW240119   3.831   1.206   7.415  0.6902 -0.2900 -0.0560
 9496SOL     OW40120   1.370   2.880   7.606 -0.2543 -0.7375  0.2135
 9496SOL    HW140121   1.286   2.853   7.568 -1.0377 -1.1925  2.2624
 9496SOL    HW240122   1.419   2.909   7.529 -0.3186  0.8863  0.7810
 9497SOL     OW40123   1.017   2.206   5.084 -0.3062  0.2913 -0.1964
 9497SOL    HW140124   0.955   2.232   5.017 -0.4393 -2.7029 -1.2528
 9497SOL    HW240125   1.000   2.268   5.155  0.6986  0.6680 -0.2808
 9498SOL     OW40126   2.348   0.259   1.287  0.3499  0.0228  0.6335
 9498SOL    HW140127   2.325   0.293   1.373  1.7014  0.6340  0.7642
 9498SOL    HW240128   2.444   0.248   1.286  0.3605  0.1036  0.8178
 9499SOL     OW40129   0.737   3.004   3.302  0.0685  0.2533 -0.5014
 9499SOL    HW140130   0.802   3.072   3.319  1.4924 -1.1372 -0.3751
 9499SOL    HW240131   0.668   3.037   3.360 -0.4665 -0.0825 -0.9582
 9500SOL     OW40132   1.721   2.311   2.129  0.2833  0.8381 -0.3463
 9500SOL    HW140133   1.695   2.225   2.162  2.8628  0.2564  0.0986
 9500SOL    HW240134   1.744   2.357   2.210  0.5175  1.8409 -0.9859
 9501SOL     OW40135   2.327   2.156   3.047  0.0218  0.1877  0.3557
 9501SOL    HW140136   2.290   2.151   3.135  0.9048  0.7775  0.7510
 9501SOL    HW240137   2.353   2.065   3.034 -1.5867 -0.3196  0.6565
 9502SOL     OW40138   0.174   1.929   5.630  0.6246 -0.8182  0.3396
 9502SOL    HW140139   0.256   1.952   5.674 -0.1323  2.1410  0.1654
 9502SOL    HW240140   0.107   1.970   5.684  0.2140  1.6750 -2.0228
 9503SOL     OW40141   0.969   1.703  14.652 -0.3417  0.4269 -0.8146
 9503SOL    HW140142   0.967   1.766  14.724  0.6230 -0.8606  0.3560
 9503SOL    HW240143   0.953   1.762  14.579  0.6398  1.1645 -0.4296
 9504SOL     OW40144   1.610   1.959  10.335  0.1593 -0.7335  0.6500
 9504SOL    HW140145   1.704   1.966  10.346 -0.0415  0.1680  1.7297
 9504SOL    HW240146   1.576   2.015  10.405  0.6412 -0.4948  0.6943
 9505SOL     OW40147   0.102   0.006   6.237 -0.3906 -0.5654 -0.3163
 9505SOL    HW140148   0.009   0.028   6.227 -0.8321 -2.5802 -0.6179
 9505SOL    HW240149   0.127   4.739   6.145  1.1796 -2.4006  0.2544
 9506SOL     OW40150   3.690   3.554  17.747  0.4660 -0.1220 -0.1952
 9506SOL    HW140151   3.641   3.575   0.069 -1.9054 -0.8916 -1.4698
 9506SOL    HW240152   3.641   3.475  17.725  0.6337  0.7123 -3.5868
 9507SOL     OW40153   1.893   0.135   1.439 -0.1437 -0.2246  0.1685
 9507SOL    HW140154   1.975   0.183   1.446  0.0168 -0.7375  1.8108
 9507SOL    HW240155   1.855   0.193   1.372  0.8592 -0.0793 -0.2703
 9508SOL     OW40156   2.368   1.399  16.579 -0.0175 -0.4675  0.1001
 9508SOL    HW140157   2.454   1.425  16.545  1.3755 -1.5997  2.7613
 9508SOL    HW240158   2.373   1.303  16.583 -1.7516 -0.4331  3.0658
 9509SOL     OW40159   0.835   2.295   3.231 -0.3569 -0.1585  0.0751
 9509SOL    HW140160   0.917   2.345   3.236  0.3859 -1.4005  0.3212
 9509SOL    HW240161   0.861   2.207   3.259  1.2126  1.4182  3.5934
 9510SOL     OW40162   1.006   1.794   4.488 -0.8341  0.1554 -0.2732
 9510SOL    HW140163   1.074   1.838   4.539 -0.4777 -1.3514  0.5521
 9510SOL    HW240164   0.956   1.868   4.454 -0.6797  0.6900  0.6754
 9511SOL     OW40165   3.194   1.107   7.854 -0.6538 -0.2643 -0.1568
 9511SOL    HW140166   3.287   1.089   7.870 -1.3401 -2.1892  1.6732
 9511SOL    HW240167   3.154   1.077   7.936  1.4850 -1.1410  0.5667
 9512SOL     OW40168   0.487   3.056   8.639 -0.0677 -0.4011 -0.1668
 9512SOL    HW140169   0.577   3.022   8.645 -0.2332 -1.1020 -1.6341
 9512SOL    HW240170   0.457   3.008   8.716  0.7727 -1.6685 -0.6170
 9513SOL     OW40171   4.687   0.675   9.251  0.0567 -0.2177 -0.4205
 9513SOL    HW140172   4.602   0.636   9.232 -0.3517  0.0352  0.9237
 9513SOL    HW240173   4.677   0.757   9.203 -2.0666 -0.5932 -0.5948
 9514SOL     OW40174   3.080   0.595   3.839 -0.0236  0.4766  0.6510
 9514SOL    HW140175   3.012   0.533   3.868  1.4558 -1.2827  0.3367
 9514SOL    HW240176   3.149   0.529   3.835  0.4975  1.0048  0.9581
 9515SOL     OW40177   1.577   4.461   4.071  0.1722  0.1924 -0.0060
 9515SOL    HW140178   1.578   4.471   4.166 -1.5720 -1.7138  0.2138
 9515SOL    HW240179   1.554   4.369   4.060 -0.5759  0.2505  1.0032
 9516SOL     OW40180   2.602   4.655  14.026 -0.2165 -0.0387 -0.0228
 9516SOL    HW140181   2.626   4.708  13.949 -1.0358  0.3311 -0.0257
 9516SOL    HW240182   2.509   4.678  14.018 -0.6846 -1.8705  0.3921
 9517SOL     OW40183   1.868   3.329   8.522 -0.2651 -0.1226 -0.0243
 9517SOL    HW140184   1.928   3.403   8.516  1.2941 -1.3308  0.3380
 9517SOL    HW240185   1.934   3.260   8.533 -1.7692 -1.2857  1.5529
 9518SOL     OW40186   2.903   1.524  11.556 -0.0190  0.0504  0.2906
 9518SOL    HW140187   2.858   1.542  11.639 -0.5141 -0.6679  0.1743
 9518SOL    HW240188   2.934   1.433  11.558 -0.1017 -0.0059 -1.2133
 9519SOL     OW40189   3.830   1.933   4.354  0.0565 -0.5227  0.5140
 9519SOL    HW140190   3.763   1.993   4.321  0.7400  0.1954  0.4237
 9519SOL    HW240191   3.788   1.853   4.323 -1.8856 -0.6007  3.3947
 9520SOL     OW40192   3.581   1.147  14.220  0.0947  0.5235  0.3471
 9520SOL    HW140193   3.582   1.056  14.250 -2.0494 -0.4425 -2.4708
 9520SOL    HW240194   3.489   1.156  14.192  0.2626 -1.4757 -0.8822
 9521SOL     OW40195   1.138   1.559   5.913  0.0497 -0.0846  0.3762
 9521SOL    HW140196   1.089   1.479   5.894  0.9067 -0.7720  1.0016
 9521SOL    HW240197   1.203   1.527   5.976 -1.4474 -1.8769  0.9990
 9522SOL     OW40198   3.982   3.460   5.889 -0.0385 -0.3820  0.0165
 9522SOL    HW140199   3.937   3.450   5.973 -0.1238  0.9101  0.1284
 9522SOL    HW240200   3.998   3.554   5.895  1.9495 -0.7732  0.7142
 9523SOL     OW40201   1.179   3.751   7.450  0.1412 -0.2730 -0.0841
 9523SOL    HW140202   1.178   3.795   7.535 -1.7755  0.4679 -0.5002
 9523SOL    HW240203   1.222   3.673   7.484 -2.3855 -1.4038  0.5295
 9524SOL     OW40204   2.020   2.215   0.697 -0.2034  0.3470  0.1144
 9524SOL    HW140205   2.081   2.191   0.766 -3.3154  2.6811  3.7149
 9524SOL    HW240206   2.058   2.173   0.621  0.7839 -0.0759  0.8426
 9525SOL     OW40207   2.001   2.537  15.391 -0.3032 -0.2977  0.0215
 9525SOL    HW140208   1.933   2.605  15.384 -0.6773 -0.8997 -2.3336
 9525SOL    HW240209   1.982   2.510  15.481 -0.4782  0.8889  0.3471
 9526SOL     OW40210   2.603   3.376  10.761 -0.6761  0.1519  0.1253
 9526SOL    HW140211   2.623   3.465  10.733 -0.8233  0.7996  2.0992
 9526SOL    HW240212   2.660   3.321  10.705  0.0417 -0.7627  1.7582
 9527SOL     OW40213   3.490   1.409   5.864 -0.2630 -0.3004 -0.2510
 9527SOL    HW140214   3.539   1.411   5.946 -1.7847  0.3941  0.6450
 9527SOL    HW240215   3.402   1.391   5.897 -1.0529  1.8513 -1.1519
 9528SOL     OW40216   0.894   2.025   2.750 -0.6692 -0.6074 -0.7825
 9528SOL    HW140217   0.974   1.978   2.725  0.5756  0.9820  0.2354
 9528SOL    HW240218   0.858   2.052   2.666 -2.0075  0.7473  0.2465
 9529SOL     OW40219   1.725   2.918   5.991  0.0111  0.3355 -0.0024
 9529SOL    HW140220   1.788   2.882   5.928  0.3927  1.0072 -0.0017
 9529SOL    HW240221   1.641   2.906   5.947 -0.7915 -0.8964  1.8615
 9530SOL     OW40222   1.073   0.246   5.031 -0.4674 -0.4165 -0.3668
 9530SOL    HW140223   1.125   0.181   5.079  2.4265  1.5110 -0.8705
 9530SOL    HW240224   1.125   0.327   5.035 -2.1461  0.5358  2.3481
 9531SOL     OW40225   2.128   2.001   7.077 -0.1231  0.0109  0.0580
 9531SOL    HW140226   2.049   1.949   7.060  0.4016 -1.6452  2.7747
 9531SOL    HW240227   2.093   2.091   7.079 -1.0774 -0.3853  1.2055
 9532SOL     OW40228   1.505   1.463  12.423  0.0522  0.0812 -0.2132
 9532SOL    HW140229   1.522   1.444  12.331  0.9423  0.3108 -0.0913
 9532SOL    HW240230   1.545   1.549  12.435 -1.7287  1.3022 -2.9494
 9533SOL     OW40231   2.847   3.826   4.075 -0.5217 -0.0154  0.2248
 9533SOL    HW140232   2.762   3.826   4.031  1.0526 -1.2301 -2.8357
 9533SOL    HW240233   2.816   3.784   4.155  0.7196  0.2689  0.8691
 9534SOL     OW40234   0.765   3.465   8.302 -0.0005  0.2084  0.4337
 9534SOL    HW140235   0.819   3.390   8.280 -0.0074  0.0995  0.7847
 9534SOL    HW240236   0.682   3.418   8.303  1.7321 -2.7488  3.7174
 9535SOL     OW40237   0.664   3.828   2.097  0.2343 -0.0664  0.4840
 9535SOL    HW140238   0.616   3.904   2.064  0.0368 -0.1693  0.5316
 9535SOL    HW240239   0.600   3.758   2.081  0.4564 -0.5922  1.8941
 9536SOL     OW40240   1.689   1.203  13.981 -0.1738 -0.0781  0.3438
 9536SOL    HW140241   1.765   1.228  13.928 -0.0119 -3.7923 -1.2006
 9536SOL    HW240242   1.740   1.189  14.061  1.8442  0.4704 -0.8484
 9537SOL     OW40243   4.240   2.687  10.509  0.0312  0.0661 -0.6990
 9537SOL    HW140244   4.240   2.698  10.414 -0.7569  0.2436 -0.6796
 9537SOL    HW240245   4.244   2.591  10.509  0.6387  0.0913 -0.4277
 9538SOL     OW40246   2.757   0.543  14.306  0.1458  0.2778  0.5043
 9538SOL    HW140247   2.670   0.528  14.268  0.2923  3.2413 -1.0042
 9538SOL    HW240248   2.780   0.452  14.324 -1.9558 -0.4574 -0.4919
 9539SOL     OW40249   0.218   1.770   9.576 -0.4973  0.6133  0.1401
 9539SOL    HW140250   0.215   1.795   9.669 -1.5314 -2.5531  0.9560
 9539SOL    HW240251   0.291   1.824   9.544 -0.5522  0.6903  0.1458
 9540SOL     OW40252   3.245   1.442  13.078 -0.1238 -0.1549 -0.3354
 9540SOL    HW140253   3.231   1.465  13.170 -1.5071 -0.5988 -0.4468
 9540SOL    HW240254   3.340   1.428  13.073 -0.4121 -2.1716 -0.1030
 9541SOL     OW40255   4.371   2.335  15.697  0.4601  0.1331 -0.3808
 9541SOL    HW140256   4.419   2.269  15.747 -0.4916  0.0914  0.4957
 9541SOL    HW240257   4.362   2.397  15.769 -0.2906  0.4590 -0.7566
 9542SOL     OW40258   4.271   3.179   4.485  0.1008  0.1219  0.2533
 9542SOL    HW140259   4.194   3.195   4.430  1.5831  2.4177 -1.1668
 9542SOL    HW240260   4.253   3.088   4.508 -2.3470  0.5040 -0.1832
 9543SOL     OW40261   0.973   0.320   4.126 -0.4672  0.1455  0.5684
 9543SOL    HW140262   1.015   0.389   4.075 -0.8021 -0.4222 -0.4711
 9543SOL    HW240263   0.903   0.370   4.167  1.6099  2.9336  0.7029
 9544SOL     OW40264   4.455   1.204  11.205  0.0537  0.3214 -0.0275
 9544SOL    HW140265   4.388   1.139  11.188  0.9978 -0.9903  1.2571
 9544SOL    HW240266   4.409   1.288  11.208 -0.2741  0.0713  2.1328
 9545SOL     OW40267   0.759   3.799   6.888 -0.2699  0.1062 -0.4924
 9545SOL    HW140268   0.780   3.730   6.950  1.5800  0.5185 -0.6608
 9545SOL    HW240269   0.829   3.859   6.913  2.1012 -2.9266  0.0537
 9546SOL     OW40270   2.012   0.207  10.071  0.6830  0.3511  0.2342
 9546SOL    HW140271   1.987   0.220  10.163  0.0285 -1.2043  0.2723
 9546SOL    HW240272   2.015   0.113  10.059 -1.3008  0.3254 -0.1025
 9547SOL     OW40273   0.117   3.420   4.691 -0.1652 -0.4361 -0.5447
 9547SOL    HW140274   0.158   3.491   4.642 -2.1051 -1.3005 -3.3632
 9547SOL    HW240275   0.194   3.383   4.735 -0.4600 -0.3812  0.0256
 9548SOL     OW40276   0.876   0.052  10.074 -0.1642 -0.3398  0.1982
 9548SOL    HW140277   0.840   0.137  10.102  2.1127 -0.4356  3.4804
 9548SOL    HW240278   0.809   0.027  10.011  0.9926  1.2824 -1.6749
 9549SOL     OW40279   0.932   0.574  12.072  0.1575  0.3168  0.0316
 9549SOL    HW140280   0.978   0.500  12.035  0.5263 -0.5045  2.1483
 9549SOL    HW240281   0.988   0.647  12.045 -0.4508  0.2896 -1.3218
 9550SOL     OW40282   3.383   0.839  14.931  0.2202 -0.2993  0.5943
 9550SOL    HW140283   3.325   0.778  14.977 -0.6129  1.6281  2.1310
 9550SOL    HW240284   3.354   0.925  14.961  1.0100  0.0197  0.4342
 9551SOL     OW40285   0.897   1.297   4.360  0.8489 -0.6486 -0.3253
 9551SOL    HW140286   0.944   1.377   4.341 -0.7114  0.4294  0.3599
 9551SOL    HW240287   0.949   1.235   4.309  1.3237 -0.0488 -0.5659
 9552SOL     OW40288   1.337   4.562   8.429  0.3329  0.1277  0.4244
 9552SOL    HW140289   1.265   4.514   8.387  0.6520 -1.5318  1.8117
 9552SOL    HW240290   1.288   4.600   8.501 -2.0639  0.5574 -1.4010
 9553SOL     OW40291   0.660   4.171   3.769  0.1408 -0.1065  0.1393
 9553SOL    HW140292   0.722   4.186   3.698  0.6742  1.0417  0.8618
 9553SOL    HW240293   0.667   4.252   3.819  0.5901  0.3422 -0.6559
 9554SOL     OW40294   2.622   2.964   9.700 -0.2822 -0.2283 -0.1368
 9554SOL    HW140295   2.535   2.939   9.669 -0.5285 -0.2485  0.5751
 9554SOL    HW240296   2.661   2.976   9.613  0.0463 -0.3067 -0.0017
 9555SOL     OW40297   0.439   3.585   8.629  0.2576 -0.5252 -0.2259
 9555SOL    HW140298   0.380   3.660   8.624 -0.0306 -0.7829 -0.6884
 9555SOL    HW240299   0.523   3.630   8.640  1.2375 -1.9802 -1.6433
 9556SOL     OW40300   1.203   2.775  14.230  0.2444 -0.8549  0.3957
 9556SOL    HW140301   1.168   2.809  14.312 -0.3346 -2.1592  0.6873
 9556SOL    HW240302   1.121   2.764  14.182  1.0154  0.5162 -1.2463
 9557SOL     OW40303   0.639   1.652  15.409  0.0982  0.0414 -0.1766
 9557SOL    HW140304   0.652   1.747  15.408  0.6515 -0.0210  1.3234
 9557SOL    HW240305   0.704   1.619  15.348  0.3254  3.8057 -2.0012
 9558SOL     OW40306   4.092   0.960  15.759  0.5573  0.4147 -0.3045
 9558SOL    HW140307   4.074   0.991  15.670 -1.1764 -0.4482 -0.2389
 9558SOL    HW240308   4.004   0.937  15.787  1.1716 -0.4824  0.9333
 9559SOL     OW40309   4.270   2.807   7.157 -0.0633  0.4026 -0.3518
 9559SOL    HW140310   4.213   2.817   7.233  0.2092  1.2853 -0.2534
 9559SOL    HW240311   4.268   2.901   7.136 -1.2094  0.5464  0.4300
 9560SOL     OW40312   0.630   0.004   5.812 -0.3931  0.0998 -0.0961
 9560SOL    HW140313   0.623   0.091   5.852  0.3248  0.1060  0.0096
 9560SOL    HW240314   0.556   4.724   5.755 -0.1482  1.2651 -0.8288
 9561SOL     OW40315   1.523   4.091   5.603 -0.0675  0.0755  0.2861
 9561SOL    HW140316   1.491   4.081   5.692  0.5780  1.2471  0.6523
 9561SOL    HW240317   1.440   4.097   5.556 -0.6538 -0.9777  1.2023
 9562SOL     OW40318   3.884   1.678  10.529  0.3161 -0.3344 -0.0293
 9562SOL    HW140319   3.812   1.652  10.586 -1.0048  1.0075 -1.0707
 9562SOL    HW240320   3.893   1.595  10.481 -2.0553 -0.7202  0.2043
 9563SOL     OW40321   4.699   4.175  15.980 -0.1587 -0.2279 -0.0061
 9563SOL    HW140322   4.669   4.248  15.925 -1.4674 -1.1525 -0.5259
 9563SOL    HW240323   4.716   4.211  16.067 -3.6468 -0.2363  0.6867
 9564SOL     OW40324   2.578   3.371   8.409  0.5255  0.5324  0.1060
 9564SOL    HW140325   2.569   3.340   8.499  2.5592 -0.9241 -0.1907
 9564SOL    HW240326   2.651   3.319   8.376 -0.8782 -0.6605 -1.0737
 9565SOL     OW40327   1.829   1.249   4.371 -0.4284  0.0251  0.0957
 9565SOL    HW140328   1.912   1.273   4.330  0.0429 -1.8059 -0.0204
 9565SOL    HW240329   1.780   1.209   4.299 -0.9885  2.1504 -0.6975
 9566SOL     OW40330   3.119   0.962   6.159 -0.4127  0.0717 -0.0300
 9566SOL    HW140331   3.070   1.042   6.179 -2.1917 -0.7283 -1.1172
 9566SOL    HW240332   3.058   0.888   6.161 -0.9229  0.4492 -1.2286
 9567SOL     OW40333   3.496   0.532   0.433 -0.1021  0.1237 -0.3264
 9567SOL    HW140334   3.533   0.451   0.468  1.0734  1.3130  1.2271
 9567SOL    HW240335   3.404   0.531   0.460  0.2155  0.4665  0.7838
 9568SOL     OW40336   0.359   4.057   9.976  0.1691 -0.1172 -0.1798
 9568SOL    HW140337   0.322   4.034   9.891 -0.1560 -2.4595  0.5835
 9568SOL    HW240338   0.451   4.079   9.961  0.0654 -0.5234 -1.4171
 9569SOL     OW40339   1.646   0.886   8.014  0.4247  0.1308  0.2815
 9569SOL    HW140340   1.630   0.938   8.092 -0.9443  0.5869 -0.3031
 9569SOL    HW240341   1.696   0.812   8.049 -2.2823 -2.0456 -0.5074
 9570SOL     OW40342   2.857   1.072   1.781  0.1030  0.3592  0.4119
 9570SOL    HW140343   2.902   1.055   1.863 -0.6465  2.6219  1.2894
 9570SOL    HW240344   2.843   0.987   1.739 -1.5896 -0.0146  1.7572
 9571SOL     OW40345   0.406   0.905   1.636 -0.2154  0.2426  0.1017
 9571SOL    HW140346   0.410   0.921   1.542  2.5598  0.6474  0.3002
 9571SOL    HW240347   0.496   0.894   1.669  0.0019 -1.6139 -1.1199
   4.73975   4.73975  17.75669
