Membrane in water
40347
    1TMC1    C1    1   2.060   0.733  11.294 -0.0351  0.0174  0.0971
    1TMC1    C2    2   2.178   0.799  11.326 -0.0602  0.1574  0.1468
    1TMC1    C3    3   2.226   0.862  11.221  0.1101 -0.0862  0.3346
    1TMC1    C4    4   1.988   0.749  11.178 -0.2915  0.7388 -0.2130
    1TMC1    C5    5   2.039   0.826  11.075  0.4730  0.3671  0.3108
    1TMC1    C6    6   2.164   0.875  11.097 -0.4303 -0.6478 -0.1620
    1TMC1     C    7   2.005   0.638  11.394 -0.7866  0.9320 -0.0883
    1TMC1     O    8   1.879   0.625  11.397  0.2462  0.2222  0.7467
    1TMC1     H    9   2.224   0.798  11.425 -0.7971 -1.1700  0.4701
    1TMC1    H1   10   1.899   0.688  11.165  0.9155 -1.4614  1.8466
    1TMC1    H2   11   2.217   0.932  11.022 -0.5592 -0.2245  0.0671
    1TMC1    C7   12   1.979   0.829  10.944  0.5202  0.5493 -0.6554
    1TMC1    C8   13   2.354   0.924  11.227  0.5291 -0.1422  0.4264
    1TMC1    O1   14   1.897   0.746  10.901  0.0521  1.2030 -0.0886
    1TMC1    O2   15   2.393   1.012  11.150  0.0224 -0.0276  0.2058
    1TMC1    O3   16   2.029   0.922  10.864 -0.6499 -0.0316 -0.3536
    1TMC1    H3   17   2.073   0.994  10.914  0.8937 -0.8423 -0.5456
    1TMC1    O5   18   2.433   0.831  11.282  0.2361  0.3827  0.1051
    1TMC1    H5   19   2.375   0.761  11.317 -0.1574  0.1452 -1.0225
    2MPD2     C   20   2.055   0.307  11.782 -1.2302  0.5692  0.2453
    2MPD2    C1   21   1.941   0.363  11.724 -0.4556  0.5284 -0.5327
    2MPD2    C2   22   1.953   0.456  11.622  0.0096  0.4168 -0.1132
    2MPD2    C3   23   2.072   0.477  11.563  0.5247  0.4254 -0.3297
    2MPD2    C4   24   2.184   0.401  11.607  0.7791  0.3664  0.0436
    2MPD2    C5   25   2.172   0.324  11.718  0.8570  0.9133 -0.0044
    2MPD2     H   26   1.864   0.508  11.590  1.2367  1.9482 -1.0959
    2MPD2    H1   27   2.277   0.400  11.552  1.3973 -0.3237  1.0843
    2MPD2    H2   28   2.057   0.251  11.874  0.6826 -0.0403 -0.1709
    2MPD2    H3   29   2.252   0.256  11.747  0.0954 -0.2313 -0.5695
    2MPD2     N   30   2.095   0.567  11.460  0.1639  0.5868  0.1080
    2MPD2    H5   31   2.192   0.574  11.430  0.2315 -0.8698 -0.0472
    2MPD2    N1   32   1.808   0.336  11.763  0.2449  0.2661  0.4910
    2MPD2    H7   33   1.730   0.390  11.729 -0.6437  0.1438  2.3342
    3TMC1    C1   34   1.002   1.940  10.310  0.4157  0.2545  0.1068
    3TMC1    C2   35   1.017   1.945  10.167 -0.3470 -0.2970 -0.3023
    3TMC1    C3   36   1.141   1.979  10.118  0.0104  0.2984 -0.4901
    3TMC1    C4   37   1.106   1.975  10.394  0.2951  0.3925 -0.3914
    3TMC1    C5   38   1.231   1.991  10.337 -0.0129 -0.2581  0.1030
    3TMC1    C6   39   1.257   1.987  10.200 -0.0025  0.1155 -0.3911
    3TMC1     C   40   0.908   1.837  10.356 -0.3892 -0.7081  0.5608
    3TMC1     O   41   0.854   1.759  10.279  0.2313  0.1555  0.0920
    3TMC1     H   42   0.947   1.889  10.107 -2.0141  1.8095 -0.3125
    3TMC1    H1   43   1.095   1.969  10.501 -1.3495  0.4814 -0.5590
    3TMC1    H2   44   1.352   2.016  10.154 -0.9012  2.1372 -0.9869
    3TMC1    C7   45   1.341   2.021  10.424  0.0931  0.0058  0.0597
    3TMC1    C8   46   1.143   1.991   9.975 -0.4221  0.0629 -0.2331
    3TMC1    O1   47   1.349   2.121  10.492 -0.3409  0.6541 -0.4859
    3TMC1    O2   48   1.052   1.939   9.906 -0.3329 -0.2679 -0.3688
    3TMC1    O3   49   1.439   1.935  10.392  0.0347  0.2662 -0.3165
    3TMC1    H3   50   1.410   1.854  10.345  0.4714  0.8084 -1.5229
    3TMC1    O5   51   1.234   2.080   9.933 -0.6473  0.0136 -0.1675
    3TMC1    H5   52   1.250   2.153   9.996  1.1145 -0.3943 -0.1113
    4MPD2     C   53   0.548   1.716  10.696  0.2064 -0.1183 -0.0056
    4MPD2    C1   54   0.630   1.805  10.752 -0.0310 -0.2175 -0.0627
    4MPD2    C2   55   0.741   1.845  10.682  0.4354  0.3061  0.3088
    4MPD2    C3   56   0.771   1.792  10.556 -0.2462  0.1942 -0.6606
    4MPD2    C4   57   0.696   1.690  10.507  0.3830 -1.1184 -0.2413
    4MPD2    C5   58   0.582   1.649  10.579  1.0332  0.4769  0.0441
    4MPD2     H   59   0.791   1.934  10.718  0.2715 -0.0334  1.3718
    4MPD2    H1   60   0.712   1.629  10.419  0.4173  0.7296 -1.5069
    4MPD2    H2   61   0.461   1.674  10.744 -0.3451 -0.7270 -1.5317
    4MPD2    H3   62   0.534   1.561  10.538  0.4509  0.6145  0.4281
    4MPD2     N   63   0.867   1.859  10.481 -0.0880 -0.3685  0.1653
    4MPD2    H5   64   0.909   1.941  10.524 -0.4633 -1.1004  1.9179
    4MPD2    N1   65   0.612   1.855  10.888 -0.7370  0.0458  0.0555
    4MPD2    H7   66   0.698   1.891  10.927 -1.2662  1.1868  0.1908
    5TCq1    O1   67   0.669   2.736  11.789 -0.4661 -0.1012  0.3014
    5TCq1    C1   68   0.770   2.809  11.740  0.2458 -0.2509  0.1156
    5TCq1    O2   69   0.770   2.870  11.632 -0.1211  0.9011 -0.7822
    5TCq1    C2   70   0.885   2.795  11.827  0.0173 -0.2560  0.2815
    5TCq1    C3   71   0.871   2.796  11.962  0.0270 -0.3084 -0.4150
    5TCq1    C4   72   0.985   2.801  12.040  0.1046 -0.6889  0.1431
    5TCq1    C5   73   1.111   2.812  11.976 -0.6402 -0.8734  0.2310
    5TCq1    C6   74   1.114   2.828  11.838 -0.2310 -0.3504  0.4729
    5TCq1    C7   75   0.998   2.823  11.763 -0.2229  0.1204  0.9757
    5TCq1    C8   76   1.229   2.849  11.751  0.9929  0.5256 -0.1675
    5TCq1    O4   77   1.201   2.898  11.641 -0.2171  0.0553 -0.2474
    5TCq1    C9   78   0.969   2.806  12.186  0.4849 -0.0303  0.6146
    5TCq1    O5   79   1.064   2.850  12.258  0.1250  0.6082 -0.3750
    5TCq1    O6   80   0.850   2.791  12.230 -0.4109 -0.5784  0.3234
    5TCq1    H1   81   0.703   2.667  11.851  0.1296  1.7056  1.9708
    5TCq1    H2   82   0.774   2.787  12.009 -0.1748 -1.4679 -1.0443
    5TCq1    H3   83   1.206   2.815  12.027  0.5029  4.0192 -2.2179
    5TCq1    H4   84   0.997   2.808  11.656  0.2364 -1.2850  1.1623
    6MPD2     C   85   1.587   2.914  11.840 -0.4394 -0.1755  0.3570
    6MPD2    C1   86   1.471   2.894  11.762  0.1086  0.2023  0.6863
    6MPD2    C2   87   1.481   2.919  11.627  0.5432  0.4860 -0.4678
    6MPD2    C3   88   1.593   2.970  11.574 -0.6769  0.2876  0.0033
    6MPD2    C4   89   1.702   2.995  11.652 -0.0518  0.2568 -0.1412
    6MPD2    C5   90   1.700   2.970  11.784  0.1810 -0.3464 -0.4419
    6MPD2     H   91   1.401   2.911  11.555 -1.9151 -1.7745  2.5591
    6MPD2    H1   92   1.798   3.019  11.608  0.7765 -1.5343  0.6866
    6MPD2    H2   93   1.585   2.880  11.943 -0.1297 -0.2760  0.3286
    6MPD2    H3   94   1.798   2.979  11.830 -0.8648  3.2238  1.0843
    6MPD2     N   95   1.593   2.973  11.433 -0.1708 -0.2107  0.4375
    6MPD2    H5   96   1.517   2.937  11.377  2.0722 -2.6896 -1.0187
    6MPD2    N1   97   1.344   2.841  11.816 -0.4387 -0.5383 -0.7198
    6MPD2    H7   98   1.348   2.805  11.911  1.5992  1.8722  0.1105
    7TCq1    O1   99   3.331   2.356  12.173 -0.1893 -0.0812 -0.3529
    7TCq1    C1  100   3.466   2.368  12.175 -0.6311 -0.1328 -0.2985
    7TCq1    O2  101   3.520   2.476  12.161  0.1740  0.3252 -0.2226
    7TCq1    C2  102   3.505   2.280  12.283  0.4434 -0.5141  0.7458
    7TCq1    C3  103   3.450   2.150  12.281 -0.0994  0.7081  0.0524
    7TCq1    C4  104   3.453   2.079  12.398 -0.1627  0.0266 -0.0339
    7TCq1    C5  105   3.524   2.132  12.505  0.3946 -0.5033 -0.1647
    7TCq1    C6  106   3.585   2.252  12.500 -0.3155 -0.2235 -0.6485
    7TCq1    C7  107   3.571   2.334  12.388  0.1121  0.0159 -1.1174
    7TCq1    C8  108   3.632   2.314  12.623  0.4118  0.1441  0.1666
    7TCq1    O4  109   3.669   2.429  12.624 -0.0272 -0.1142 -0.2064
    7TCq1    C9  110   3.391   1.950  12.397 -0.5333 -0.4190 -0.4056
    7TCq1    O5  111   3.294   1.943  12.320  0.3389 -0.0735  0.1858
    7TCq1    O6  112   3.411   1.863  12.488 -0.9402  0.6344  0.4284
    7TCq1    H1  113   3.294   2.271  12.205 -0.2123  0.9559  2.4430
    7TCq1    H2  114   3.405   2.108  12.191  1.2473 -0.4462 -0.0821
    7TCq1    H3  115   3.514   2.079  12.599  0.7806 -1.8559 -0.8802
    7TCq1    H4  116   3.599   2.438  12.391  0.7314 -0.1276 -2.1203
    8MPD2     C  117   3.837   2.281  13.087 -0.0929 -0.1516 -0.1498
    8MPD2    C1  118   3.824   2.151  13.043  0.0681 -0.3479  0.1573
    8MPD2    C2  119   3.775   2.135  12.914 -0.3154 -0.0017  0.0239
    8MPD2    C3  120   3.723   2.238  12.844 -0.2465  0.2165 -0.5642
    8MPD2    C4  121   3.736   2.367  12.893  0.3311  0.2091  0.3113
    8MPD2    C5  122   3.789   2.385  13.016  1.0543 -0.5921  0.2018
    8MPD2     H  123   3.779   2.038  12.866 -3.5565 -0.3808  0.4993
    8MPD2    H1  124   3.697   2.455  12.843 -0.0708  1.7881  3.3924
    8MPD2    H2  125   3.885   2.314  13.179 -0.8207 -2.7559  1.1536
    8MPD2    H3  126   3.797   2.487  13.051 -2.7918 -0.0182 -0.6254
    8MPD2     N  127   3.665   2.219  12.718  0.7170  0.5125 -0.5298
    8MPD2    H5  128   3.655   2.122  12.690 -2.3857 -0.0006  2.3545
    8MPD2    N1  129   3.857   2.044  13.136 -0.0411 -0.3319 -0.1102
    8MPD2    H7  130   3.892   2.079  13.225  0.8871  0.1078 -0.6563
    9TMC1    C1  131   0.113   1.608  12.444  0.5683  0.2238  0.6183
    9TMC1    C2  132   0.020   1.533  12.375  0.0684  0.2425 -0.1951
    9TMC1    C3  133   4.725   1.589  12.253  0.0045 -0.0297  0.7510
    9TMC1    C4  134   0.171   1.718  12.394  0.0973 -0.8613 -0.1301
    9TMC1    C5  135   0.128   1.774  12.272 -0.9629  0.4175 -0.1778
    9TMC1    C6  136   0.033   1.711  12.205  0.4737 -0.1803 -0.6919
    9TMC1     C  137   0.184   1.531  12.541  0.1235 -0.0396  0.0484
    9TMC1     O  138   0.135   1.511  12.647 -0.9046  0.3952  0.5380
    9TMC1     H  139   4.718   1.438  12.409 -2.2016  1.2143 -0.2319
    9TMC1    H1  140   0.259   1.749  12.448 -2.5922  0.2484  3.5642
    9TMC1    H2  141   4.736   1.765  12.118 -0.0571 -1.3303 -1.1901
    9TMC1    C7  142   0.151   1.913  12.233  0.1712  0.2151  0.3651
    9TMC1    C8  143   4.621   1.534  12.166  0.3054  0.5197  0.2612
    9TMC1    O1  144   0.055   1.986  12.202 -0.2862  0.5185  0.6089
    9TMC1    O2  145   4.604   1.587  12.055  0.5572  0.1805  0.6932
    9TMC1    O3  146   0.265   1.956  12.290 -0.5866 -0.1156 -0.1717
    9TMC1    H3  147   0.329   1.882  12.283 -0.7223  0.0183 -2.8235
    9TMC1    O5  148   4.513   1.498  12.235 -0.2428 -0.0188 -1.4068
    9TMC1    H5  149   4.523   1.491  12.332 -1.4305 -2.5094 -1.4701
   10MPD2     C  150   0.372   1.323  12.652 -0.3746 -0.2682 -0.0925
   10MPD2    C1  151   0.375   1.369  12.525 -0.2647 -0.4626 -0.1730
   10MPD2    C2  152   0.469   1.306  12.441  1.3435 -0.4842  0.1506
   10MPD2    C3  153   0.550   1.203  12.496 -0.7403 -0.1348 -0.2162
   10MPD2    C4  154   0.540   1.167  12.630  0.4600  0.4585 -0.4862
   10MPD2    C5  155   0.437   1.223  12.702 -0.3559 -1.1327  0.5677
   10MPD2     H  156   0.466   1.333  12.336 -1.7221 -1.2549  0.0456
   10MPD2    H1  157   0.602   1.083  12.660 -1.4176 -1.0565 -0.8693
   10MPD2    H2  158   0.296   1.355  12.723  1.4489  2.3617  0.6547
   10MPD2    H3  159   0.418   1.192  12.804 -0.3609 -1.8569  0.3439
   10MPD2     N  160   0.654   1.131  12.431  0.0194 -0.3287  0.5289
   10MPD2    H5  161   0.695   1.056  12.485  0.1443  0.4694  1.5527
   10MPD2    N1  162   0.288   1.467  12.472  0.5047 -0.0695  0.3251
   10MPD2    H7  163   0.306   1.485  12.373 -1.8609  2.7695  0.4207
   11TCq1    O1  164   2.962   0.464  13.769 -0.1987  0.1261 -0.2812
   11TCq1    C1  165   2.839   0.420  13.802 -0.0042 -1.3712  0.3154
   11TCq1    O2  166   2.800   0.305  13.819  0.1153 -0.0615 -0.4948
   11TCq1    C2  167   2.740   0.530  13.791  0.2700 -0.3675  0.8889
   11TCq1    C3  168   2.755   0.655  13.738  0.1659  0.0934  0.4530
   11TCq1    C4  169   2.643   0.742  13.721  0.3505 -0.1291  0.3908
   11TCq1    C5  170   2.515   0.694  13.755  0.4936 -0.8154  0.3690
   11TCq1    C6  171   2.501   0.558  13.787 -0.7040  0.1866  0.0153
   11TCq1    C7  172   2.614   0.483  13.807 -0.6080 -0.1403  0.2669
   11TCq1    C8  173   2.375   0.508  13.837 -0.0193  0.2369  0.3985
   11TCq1    O4  174   2.293   0.593  13.867  0.3073  0.0085 -0.4340
   11TCq1    C9  175   2.652   0.879  13.681  0.6516  0.0976 -0.3339
   11TCq1    O5  176   2.767   0.918  13.657  0.2727 -0.4717  0.2626
   11TCq1    O6  177   2.546   0.947  13.664  0.3195  0.4600  0.2792
   11TCq1    H1  178   2.959   0.561  13.757  0.8909 -0.0321 -1.8113
   11TCq1    H2  179   2.860   0.683  13.733  1.1007 -3.0890  2.7921
   11TCq1    H3  180   2.432   0.763  13.744 -0.2144 -1.8362 -0.6873
   11TCq1    H4  181   2.599   0.389  13.858  1.1121 -0.1791  0.6906
   12MPD2     C  182   2.105   0.360  13.829  0.0437  0.6186 -0.1766
   12MPD2    C1  183   2.225   0.309  13.791  0.9986 -0.0804 -0.2097
   12MPD2    C2  184   2.228   0.185  13.725 -0.3522  0.0398 -0.2571
   12MPD2    C3  185   2.110   0.115  13.704 -0.0092 -0.1178  0.8424
   12MPD2    C4  186   1.986   0.173  13.733  0.7332 -0.0486  0.4365
   12MPD2    C5  187   1.985   0.295  13.801 -0.3416 -0.1679  0.7663
   12MPD2     H  188   2.325   0.148  13.695 -1.9323 -1.8559 -3.0241
   12MPD2    H1  189   1.897   0.120  13.700  1.0483  0.2340 -0.8517
   12MPD2    H2  190   2.106   0.444  13.898 -0.0149  0.4502  0.0299
   12MPD2    H3  191   1.889   0.335  13.829 -0.8648 -2.9746  3.0378
   12MPD2     N  192   2.101   4.724  13.649 -0.5809 -0.2882 -0.4530
   12MPD2    H5  193   2.010   4.688  13.621 -0.3332 -2.1274  1.0838
   12MPD2    N1  194   2.354   0.377  13.795 -0.4160  0.0711 -0.5572
   12MPD2    H7  195   2.428   0.331  13.744 -0.9621 -0.6549 -0.6912
   13TCq1    O1  196   0.930   1.579   9.872 -0.2600 -0.1305  0.3758
   13TCq1    C1  197   1.053   1.519   9.861 -0.6524 -0.6777 -0.5002
   13TCq1    O2  198   1.125   1.530   9.763  0.2429 -0.1413 -0.4098
   13TCq1    C2  199   1.099   1.526   9.998 -0.4302  0.2446  0.2631
   13TCq1    C3  200   1.205   1.599  10.023 -0.0406 -0.6278 -0.2381
   13TCq1    C4  201   1.244   1.605  10.149  1.2232  0.2620 -0.1023
   13TCq1    C5  202   1.172   1.552  10.255 -1.1583  0.2314  0.0027
   13TCq1    C6  203   1.057   1.489  10.225  0.2623  0.5321  0.2691
   13TCq1    C7  204   1.025   1.467  10.094 -0.5349 -0.3875  0.3237
   13TCq1    C8  205   0.970   1.453  10.331  0.3817  0.5173 -1.1688
   13TCq1    O4  206   1.019   1.464  10.443  0.4938  0.4275 -0.4099
   13TCq1    C9  207   1.366   1.667  10.176  0.0858 -0.4016  0.1373
   13TCq1    O5  208   1.449   1.670  10.081  0.6626 -0.6058  0.1236
   13TCq1    O6  209   1.387   1.706  10.293 -0.0053  0.2248 -0.0909
   13TCq1    H1  210   0.898   1.588   9.964 -1.0060  0.8285  0.0163
   13TCq1    H2  211   1.255   1.657   9.946  1.1353 -1.4275 -0.0777
   13TCq1    H3  212   1.204   1.549  10.359 -0.4633 -0.0819 -0.2225
   13TCq1    H4  213   0.950   1.398  10.058 -0.3551 -0.1008 -0.5914
   14MPD2     C  214   0.620   1.325  10.313  0.9499  0.1148  0.5926
   14MPD2    C1  215   0.738   1.362  10.370 -0.7627  0.3991 -0.4817
   14MPD2    C2  216   0.749   1.348  10.506 -0.0787  0.0130 -0.7096
   14MPD2    C3  217   0.649   1.292  10.580 -0.3768  0.9537  0.4798
   14MPD2    C4  218   0.525   1.263  10.521  0.1395  0.1912 -0.3761
   14MPD2    C5  219   0.513   1.274  10.382 -0.2156  0.1347 -0.1446
   14MPD2     H  220   0.847   1.361  10.549 -0.6825  0.2057  0.6155
   14MPD2    H1  221   0.444   1.219  10.577 -1.1431 -0.5343 -2.7835
   14MPD2    H2  222   0.613   1.340  10.206  0.1382 -0.6641  0.5397
   14MPD2    H3  223   0.420   1.248  10.332 -0.9569 -1.0176  1.8296
   14MPD2     N  224   0.670   1.272  10.722 -0.7291  0.0230 -0.4471
   14MPD2    H5  225   0.751   1.321  10.760 -1.3882 -0.9422  2.2278
   14MPD2    N1  226   0.846   1.411  10.291  0.0622  0.5029 -0.9138
   14MPD2    H7  227   0.841   1.408  10.190 -1.5799  1.7022 -0.8778
   15TCq1    O1  228   2.871   0.328   1.118 -0.3602 -0.6036  0.1367
   15TCq1    C1  229   2.920   0.407   1.218 -0.5099 -0.6135 -0.0177
   15TCq1    O2  230   2.851   0.462   1.306  0.1034 -0.0313  0.6689
   15TCq1    C2  231   3.058   0.443   1.188  0.4270 -0.6804  0.5387
   15TCq1    C3  232   3.109   0.551   1.255  0.0364 -0.8063 -1.0302
   15TCq1    C4  233   3.242   0.574   1.238 -0.2054  0.2447 -0.0926
   15TCq1    C5  234   3.326   0.490   1.174  0.0218 -0.2774 -0.0625
   15TCq1    C6  235   3.275   0.377   1.133 -0.5491  0.2402  0.6592
   15TCq1    C7  236   3.142   0.352   1.133 -0.4396 -0.3161 -0.8088
   15TCq1    C8  237   3.362   0.280   1.080 -0.2377  0.2919 -0.5152
   15TCq1    O4  238   3.476   0.271   1.122  1.1770  0.5437  0.3750
   15TCq1    C9  239   3.302   0.690   1.294 -0.1539  0.4947  0.1341
   15TCq1    O5  240   3.246   0.739   1.392 -0.6423  0.4137 -0.0985
   15TCq1    O6  241   3.418   0.718   1.250 -0.7049  0.2062  0.0634
   15TCq1    H1  242   2.936   0.309   1.047 -0.9197 -0.3075 -0.4555
   15TCq1    H2  243   3.051   0.624   1.310 -0.4615 -0.9741 -1.3307
   15TCq1    H3  244   3.432   0.510   1.174 -0.0389  0.0365 -0.1921
   15TCq1    H4  245   3.109   0.252   1.107  1.5252 -1.0820 -0.3776
   16MPD2     C  246   3.286   0.079   0.768 -0.0937  0.1384  0.7130
   16MPD2    C1  247   3.362   0.123   0.878  0.2716  0.5986 -0.1977
   16MPD2    C2  248   3.473   0.053   0.907 -1.1265  0.0864 -0.0357
   16MPD2    C3  249   3.510   4.681   0.837  0.7129 -0.1004  0.2415
   16MPD2    C4  250   3.435   4.642   0.729  0.1783  0.4943  0.2491
   16MPD2    C5  251   3.328   4.715   0.695 -0.7225  0.6046  0.3821
   16MPD2     H  252   3.532   0.077   0.995  0.3033  1.7016 -1.4162
   16MPD2    H1  253   3.461   4.557   0.668  0.2100  1.7143 -1.4526
   16MPD2    H2  254   3.192   0.131   0.753  0.8441  2.4848  2.8379
   16MPD2    H3  255   3.275   4.670   0.612 -0.9519  1.1701  0.2221
   16MPD2     N  256   3.629   4.609   0.866  0.4082  0.2258 -1.0819
   16MPD2    H5  257   3.695   4.653   0.929 -1.0201 -0.1333  0.6604
   16MPD2    N1  258   3.311   0.223   0.964  0.0789 -0.1138  0.2399
   16MPD2    H7  259   3.222   0.262   0.936 -0.7851 -1.2634  1.4268
   17TMC1    C1  260   0.997   0.870  11.525 -0.4997 -0.0863 -0.2504
   17TMC1    C2  261   1.042   0.929  11.411  0.3994  0.6652  0.7673
   17TMC1    C3  262   1.020   1.064  11.382 -1.1183 -0.4862 -0.5856
   17TMC1    C4  263   0.909   0.943  11.602 -0.3626  0.2325  0.4266
   17TMC1    C5  264   0.866   1.066  11.561  0.0466 -0.5824 -0.0284
   17TMC1    C6  265   0.921   1.131  11.447  0.1872 -0.6475  0.0791
   17TMC1     C  266   1.006   0.726  11.542 -0.8638  1.1017  0.3213
   17TMC1     O  267   0.911   0.675  11.603 -0.5906  0.0010 -0.3149
   17TMC1     H  268   1.099   0.861  11.349 -1.4568 -0.0197 -0.1727
   17TMC1    H1  269   0.858   0.886  11.680  1.0556 -1.4488  0.1150
   17TMC1    H2  270   0.901   1.235  11.421 -1.1430 -1.8323 -3.5588
   17TMC1    C7  271   0.751   1.138  11.623 -0.5706 -0.5516  0.0038
   17TMC1    C8  272   1.044   1.114  11.250 -0.6100 -0.1386  0.3610
   17TMC1    O1  273   0.682   1.214  11.558 -0.3422 -0.5444 -0.4816
   17TMC1    O2  274   0.952   1.147  11.178  0.1624  0.0517 -0.8495
   17TMC1    O3  275   0.731   1.119  11.753 -0.3257  0.6551 -0.4153
   17TMC1    H3  276   0.791   1.061  11.804 -1.6449  0.9167  1.4356
   17TMC1    O5  277   1.176   1.103  11.221 -0.0921 -0.1027  0.3212
   17TMC1    H5  278   1.232   1.101  11.301 -0.8484 -0.2194  0.8424
   18MPD2     C  279   1.105   0.445  11.588  0.4377 -0.0077 -0.3732
   18MPD2    C1  280   1.174   0.544  11.524 -0.5317  0.2557  0.1997
   18MPD2    C2  281   1.303   0.512  11.470 -1.0430 -0.0952  0.2897
   18MPD2    C3  282   1.350   0.381  11.465 -0.0920  0.6468  0.2881
   18MPD2    C4  283   1.267   0.283  11.513 -0.1106  0.2271  0.9615
   18MPD2    C5  284   1.151   0.317  11.576  0.0354  0.2084  0.3939
   18MPD2     H  285   1.364   0.591  11.428 -0.2622 -0.5220  0.6176
   18MPD2    H1  286   1.293   0.178  11.508 -0.5517  0.3070 -2.5841
   18MPD2    H2  287   1.015   0.463  11.646 -0.5513  0.4504 -2.0677
   18MPD2    H3  288   1.103   0.238  11.632  0.9319 -0.2329  0.5504
   18MPD2     N  289   1.474   0.335  11.405  0.3702 -0.1168 -0.0693
   18MPD2    H5  290   1.493   0.236  11.417  0.3739 -0.1080 -0.0037
   18MPD2    N1  291   1.127   0.678  11.504  0.2673  0.7250 -0.4484
   18MPD2    H7  292   1.186   0.741  11.451  1.4353 -0.9645 -1.1460
   19TMC2    C1  293   3.145   0.287  13.528  1.0596  0.0632  0.4282
   19TMC2    C2  294   3.042   0.352  13.462 -0.2029 -0.1142  0.6981
   19TMC2    C3  295   2.919   0.286  13.472  0.0587  0.1580 -0.3680
   19TMC2    C4  296   3.136   0.159  13.596  0.1923  0.3274 -0.1822
   19TMC2    C5  297   3.011   0.121  13.618  0.7429  0.1878 -0.4353
   19TMC2    C6  298   2.907   0.173  13.548  0.5744  0.0106  0.8054
   19TMC2     C  299   3.256   0.367  13.565 -0.5476 -0.5617 -0.3712
   19TMC2     O  300   3.274   0.469  13.495  0.6594 -0.4433  0.2425
   19TMC2     H  301   3.057   0.450  13.418  1.9064  0.0418  1.7686
   19TMC2    H1  302   3.221   0.100  13.628 -1.6802 -1.8520  0.7985
   19TMC2    H2  303   2.804   0.138  13.557  0.2871  0.0602 -2.2569
   19TMC2    C7  304   2.988   0.017  13.717 -0.0361 -0.1336  0.1209
   19TMC2    C8  305   2.792   0.351  13.438  0.5325  0.1199 -0.0754
   19TMC2    O1  306   3.084   4.686  13.747  0.0322  0.0984  0.1513
   19TMC2    O2  307   2.685   0.295  13.425  0.1146  0.4251 -0.1749
   19TMC2    O5  308   2.813   0.481  13.413 -0.5481 -0.0178  0.1245
   19TMC2    H5  309   2.904   0.509  13.437 -0.7533  0.0218  0.8496
   20MPD2     C  310   3.531   0.459  13.662  0.5375  0.2608 -0.1034
   20MPD2    C1  311   3.447   0.370  13.726 -0.0704 -0.3321  0.8033
   20MPD2    C2  312   3.503   0.319  13.846 -0.4624  0.3713  0.0126
   20MPD2    C3  313   3.624   0.359  13.896  0.4500 -0.0148  0.7804
   20MPD2    C4  314   3.694   0.471  13.845  0.1238  0.0878  0.0875
   20MPD2    C5  315   3.642   0.517  13.723  0.4935  0.8795  1.0884
   20MPD2     H  316   3.445   0.233  13.877 -1.6322  0.6446 -1.4146
   20MPD2    H1  317   3.791   0.496  13.885 -1.5677  2.9225  2.4081
   20MPD2    H2  318   3.520   0.495  13.561 -1.7236  0.8144  0.3457
   20MPD2    H3  319   3.709   0.582  13.668 -0.6260  2.1561  1.2176
   20MPD2     N  320   3.685   0.299  14.007  0.5671  0.2095 -0.3699
   20MPD2    H5  321   3.774   0.331  14.044  1.6702 -2.8566 -0.3361
   20MPD2    N1  322   3.325   0.318  13.674  0.4959  0.5078  0.3846
   20MPD2    H7  323   3.269   0.264  13.739  0.7102  0.7219  0.7493
   21TMC2    C1  324   0.607   0.706  14.016 -0.2221 -0.4041  0.1120
   21TMC2    C2  325   0.727   0.655  13.975  0.8296  0.1251 -0.0311
   21TMC2    C3  326   0.790   0.587  14.075  0.4805 -0.4563 -0.1255
   21TMC2    C4  327   0.543   0.698  14.137 -0.7204 -1.0296  0.2286
   21TMC2    C5  328   0.615   0.641  14.237 -0.4300 -0.1364 -0.9689
   21TMC2    C6  329   0.741   0.590  14.200 -0.7815 -0.5052 -0.4270
   21TMC2     C  330   0.569   0.821  13.933  0.1341  0.9384  0.8581
   21TMC2     O  331   0.537   0.793  13.819  0.3644  0.5256 -0.2924
   21TMC2     H  332   0.764   0.665  13.874  0.4604 -0.4474 -0.2215
   21TMC2    H1  333   0.448   0.750  14.136  0.1950  0.6821  2.8855
   21TMC2    H2  334   0.810   0.548  14.272 -1.1339  1.1323  0.8689
   21TMC2    C7  335   0.586   0.679  14.374  0.0722  0.0326  0.4591
   21TMC2    C8  336   0.936   0.599  14.078 -0.0846  0.3753 -1.4326
   21TMC2    O1  337   0.672   0.645  14.453  0.2476  0.2367  0.1397
   21TMC2    O2  338   0.983   0.671  14.162 -0.6291  0.0524 -0.1168
   21TMC2    O5  339   0.981   0.583  13.952  0.0255 -0.2975  0.5412
   21TMC2    H5  340   0.927   0.529  13.890 -1.0139  1.0352  0.3015
   22MPD2     C  341   0.761   1.089  14.339 -0.7011 -0.0961 -0.1658
   22MPD2    C1  342   0.815   0.989  14.269 -0.2336  0.1871  0.0486
   22MPD2    C2  343   0.747   0.948  14.154  0.5441  0.6683 -0.3218
   22MPD2    C3  344   0.618   0.990  14.112 -0.1857  0.1321  0.1058
   22MPD2    C4  345   0.579   1.108  14.176 -0.1277 -0.0230 -0.2872
   22MPD2    C5  346   0.654   1.162  14.287  0.4005  0.7304 -0.4515
   22MPD2     H  347   0.791   0.862  14.104 -0.1716 -0.6346  1.2977
   22MPD2    H1  348   0.489   1.156  14.139  0.8710  2.2791  0.2664
   22MPD2    H2  349   0.806   1.122  14.432 -1.4765  0.2301  0.0920
   22MPD2    H3  350   0.612   1.250  14.335 -0.9111 -0.0876 -0.0855
   22MPD2     N  351   0.539   0.939  14.001 -0.6041  0.0066  0.4567
   22MPD2    H5  352   0.482   1.004  13.948  0.5465 -1.7155 -2.9274
   22MPD2    N1  353   0.920   0.911  14.323 -0.0060 -0.4997  0.0123
   22MPD2    H7  354   0.948   0.830  14.268  2.3250 -0.0642  0.5736
   23TMC2    C1  355   1.774   1.781  14.511 -0.3897 -1.1918 -0.1186
   23TMC2    C2  356   1.748   1.914  14.490 -0.5275  0.7039  0.2651
   23TMC2    C3  357   1.622   1.961  14.456  1.1714  0.5002 -0.5137
   23TMC2    C4  358   1.671   1.695  14.494  0.6619 -0.1805  0.2066
   23TMC2    C5  359   1.552   1.737  14.447 -0.0026 -0.3012 -0.3669
   23TMC2    C6  360   1.528   1.874  14.428 -0.3431  0.6557 -0.0099
   23TMC2     C  361   1.911   1.730  14.514  0.1666  0.6746 -0.4949
   23TMC2     O  362   1.926   1.624  14.572  0.1013  0.1065 -0.0531
   23TMC2     H  363   1.833   1.980  14.502  0.7941 -1.2548  1.6944
   23TMC2    H1  364   1.689   1.588  14.499 -2.3554 -0.7327 -0.8036
   23TMC2    H2  365   1.432   1.918  14.402 -0.9993 -0.2753  0.8101
   23TMC2    C7  366   1.453   1.632  14.414  0.3730  0.0189 -0.1296
   23TMC2    C8  367   1.594   2.102  14.432 -0.6782  0.0044 -0.0088
   23TMC2    O1  368   1.480   1.522  14.451  0.1761 -0.1806 -0.0578
   23TMC2    O2  369   1.476   2.144  14.411  0.2338 -0.5211  0.6632
   23TMC2    O5  370   1.709   2.179  14.430  0.3699 -0.0702 -0.5644
   23TMC2    H5  371   1.794   2.131  14.443  0.3896  0.0121 -0.3850
   24MPD2     C  372   2.408   1.885  14.491 -0.4000 -0.3497 -0.3031
   24MPD2    C1  373   2.352   1.789  14.573  0.1259 -0.2246 -0.5299
   24MPD2    C2  374   2.213   1.770  14.571 -0.3631 -0.2155  0.0947
   24MPD2    C3  375   2.139   1.838  14.472 -0.2355  0.0237 -0.0741
   24MPD2    C4  376   2.197   1.927  14.380  0.0627  0.1070 -0.0854
   24MPD2    C5  377   2.329   1.953  14.395 -0.7006  0.2317 -0.0904
   24MPD2     H  378   2.158   1.707  14.640  0.9711 -1.3243  0.1256
   24MPD2    H1  379   2.143   1.966  14.295  2.9966  2.9669 -0.6223
   24MPD2    H2  380   2.504   1.935  14.502 -1.1720  0.7057  1.6431
   24MPD2    H3  381   2.368   2.033  14.333 -0.7288  1.0356  0.9193
   24MPD2     N  382   2.000   1.824  14.458  0.2511  0.5505  0.5377
   24MPD2    H5  383   1.960   1.900  14.404  1.1141  1.1763  0.7870
   24MPD2    N1  384   2.435   1.730  14.667 -0.5166  0.6159 -0.3465
   24MPD2    H7  385   2.526   1.773  14.675  0.4994 -1.1192 -2.8011
   25TMC2    C1  386   0.549   0.118  11.608 -0.3218 -0.2776  0.1556
   25TMC2    C2  387   0.574   0.247  11.643 -0.2964 -0.1583  0.2179
   25TMC2    C3  388   0.675   0.271  11.733 -0.6065 -0.1995  0.6732
   25TMC2    C4  389   0.619   0.012  11.661 -0.7691  0.3697 -0.2143
   25TMC2    C5  390   0.720   0.041  11.751  0.2771  0.4201  0.5680
   25TMC2    C6  391   0.759   0.171  11.784 -0.1605 -0.2287 -0.6791
   25TMC2     C  392   0.449   0.093  11.499  0.3322  0.3758  0.7465
   25TMC2     O  393   0.391   0.195  11.459 -0.7070 -0.6329 -0.7427
   25TMC2     H  394   0.535   0.332  11.589  0.5945 -0.2821 -0.6147
   25TMC2    H1  395   0.589   4.649  11.644  0.6695 -0.7099  3.6959
   25TMC2    H2  396   0.833   0.198  11.858 -0.4189 -1.6963  0.1325
   25TMC2    C7  397   0.774   4.668  11.829 -0.5380  0.1539 -0.5512
   25TMC2    C8  398   0.704   0.408  11.767  0.8215 -0.0085  0.3982
   25TMC2    O1  399   0.707   4.564  11.819  0.5007 -0.2868 -0.3349
   25TMC2    O2  400   0.802   0.432  11.832 -0.4040 -0.1091  0.0267
   25TMC2    O5  401   0.587   0.471  11.777 -0.4539 -0.6612 -0.3775
   25TMC2    H5  402   0.514   0.421  11.735 -0.8770 -0.5392  0.2168
   26MPD2     C  403   0.217   4.541  11.138  0.4082 -0.3270  0.1005
   26MPD2    C1  404   0.282   4.459  11.231  0.1506  0.3039 -0.0756
   26MPD2    C2  405   0.348   4.512  11.342 -0.7321  0.3689  0.9620
   26MPD2    C3  406   0.355   4.652  11.354 -0.4390 -0.1370  0.0406
   26MPD2    C4  407   0.292   4.730  11.264  0.0788  0.4338 -0.2264
   26MPD2    C5  408   0.228   4.680  11.160  0.0383  0.4111 -0.0086
   26MPD2     H  409   0.407   4.454  11.412 -1.0396  0.9969  1.7421
   26MPD2    H1  410   0.291   0.099  11.264 -2.8032  0.4038 -1.0501
   26MPD2    H2  411   0.166   4.507  11.048  2.3868 -2.7087 -0.1057
   26MPD2    H3  412   0.177   0.012  11.096 -0.4908  0.1585  0.1392
   26MPD2     N  413   0.436   4.698  11.464  0.2265  0.0002 -0.4110
   26MPD2    H5  414   0.466   4.623  11.525 -0.0967  1.4290  1.5330
   26MPD2    N1  415   0.284   4.324  11.194 -0.3131  0.2046 -0.1524
   26MPD2    H7  416   0.234   4.298  11.110  0.0716  2.2513 -0.9872
   27TMC2    C1  417   4.289   1.747  12.068  0.4037  0.5422 -0.1852
   27TMC2    C2  418   4.377   1.771  11.962  0.0210  0.4911  0.5873
   27TMC2    C3  419   4.467   1.864  11.998 -0.2057 -1.0097 -0.0969
   27TMC2    C4  420   4.298   1.800  12.196 -1.0661 -0.2231  0.1289
   27TMC2    C5  421   4.401   1.885  12.222 -0.7260 -0.1726 -0.2390
   27TMC2    C6  422   4.484   1.916  12.122 -0.0517 -0.6669 -0.3382
   27TMC2     C  423   4.206   1.635  12.043 -0.1764 -0.4194 -0.4877
   27TMC2     O  424   4.170   1.624  11.928 -0.0782  0.6467  0.3756
   27TMC2     H  425   4.383   1.723  11.865 -2.6839  1.8845 -0.2746
   27TMC2    H1  426   4.235   1.764  12.276 -1.2475 -0.6667 -0.2132
   27TMC2    H2  427   4.560   1.993  12.133 -1.4472  0.6778 -0.1159
   27TMC2    C7  428   4.451   1.878  12.357 -0.3666 -0.1805  0.2138
   27TMC2    C8  429   4.573   1.903  11.907  0.4758  0.3665  0.1669
   27TMC2    O1  430   4.384   1.826  12.446 -0.0388 -0.4343  0.2676
   27TMC2    O2  431   4.616   2.018  11.904 -0.1338 -0.5745  0.5281
   27TMC2    O5  432   4.645   1.789  11.892  0.1883 -0.1258 -0.3250
   27TMC2    H5  433   4.617   1.713  11.948  0.6345 -0.2301 -0.2410
   28MPD2     C  434   3.972   1.217  12.228 -0.2021  1.2770  0.4218
   28MPD2    C1  435   4.025   1.279  12.336 -0.8457  0.1548  0.5879
   28MPD2    C2  436   4.095   1.398  12.312  0.4661 -0.2241 -0.3931
   28MPD2    C3  437   4.112   1.443  12.180  0.2661 -0.2748 -0.2455
   28MPD2    C4  438   4.048   1.382  12.079  0.1477 -0.6642  0.1576
   28MPD2    C5  439   3.987   1.257  12.101 -0.1001 -0.5618  0.0349
   28MPD2     H  440   4.147   1.447  12.393  2.8080 -1.3769 -1.1903
   28MPD2    H1  441   4.050   1.424  11.979 -1.5009 -1.2798 -0.1334
   28MPD2    H2  442   3.914   1.125  12.223  1.0557  0.3948  2.1937
   28MPD2    H3  443   3.941   1.196  12.025  0.8190 -0.3078 -0.7326
   28MPD2     N  444   4.188   1.560  12.156 -0.9586 -0.4394  0.4856
   28MPD2    H5  445   4.225   1.601  12.241 -2.4515 -2.1439  1.9652
   28MPD2    N1  446   3.991   1.232  12.466  0.4294 -0.1156  0.0815
   28MPD2    H7  447   3.925   1.157  12.481 -0.3224  0.9047  1.8074
   29TMC2    C1  448   4.592   3.647  14.023  0.0981  0.2908 -0.2024
   29TMC2    C2  449   4.704   3.696  13.958  0.5328  0.3484  0.0093
   29TMC2    C3  450   4.736   3.824  13.978 -0.7977  0.6631 -0.1250
   29TMC2    C4  451   4.509   3.738  14.086  0.1212 -0.5918  0.2474
   29TMC2    C5  452   4.545   3.865  14.106  0.0448 -0.3743  0.3060
   29TMC2    C6  453   4.658   3.915  14.051  0.0718  0.5743 -0.1359
   29TMC2     C  454   4.568   3.512  14.030  0.1787  0.1837 -0.1324
   29TMC2     O  455   4.525   3.482  14.137  0.0214 -0.2415  0.6553
   29TMC2     H  456   0.036   3.623  13.920  0.3551  0.1218  0.1114
   29TMC2    H1  457   4.419   3.707  14.138 -0.4732 -1.3742 -1.2635
   29TMC2    H2  458   4.694   4.017  14.049  1.7607 -0.0311 -0.7190
   29TMC2    C7  459   4.480   3.947  14.212 -0.8291 -0.1123  0.8605
   29TMC2    C8  460   0.090   3.885  13.883  0.1553  0.5935 -0.4058
   29TMC2    O1  461   4.404   3.886  14.284 -0.1306 -0.0022  0.0984
   29TMC2    O2  462   0.082   4.001  13.862  0.0652  0.2256  0.5250
   29TMC2    O5  463   0.205   3.816  13.899 -0.4094  0.2002 -0.8059
   29TMC2    H5  464   0.191   3.743  13.962  0.6945 -0.4288 -1.2880
   30MPD2     C  465   4.424   3.062  13.837 -0.9383 -0.2443  0.2474
   30MPD2    C1  466   4.439   3.103  13.967  0.1522 -0.2843  0.6976
   30MPD2    C2  467   4.489   3.228  13.991  0.4011  0.1555 -0.3011
   30MPD2    C3  468   4.520   3.316  13.888  0.7288  0.2938 -0.6476
   30MPD2    C4  469   4.495   3.274  13.758  0.2470  0.4237 -0.3124
   30MPD2    C5  470   4.452   3.142  13.738 -0.1524  0.1207  0.0462
   30MPD2     H  471   4.487   3.258  14.095  0.6167 -0.3351 -0.1571
   30MPD2    H1  472   4.522   3.343  13.679 -0.0944  1.7380  0.7180
   30MPD2    H2  473   4.377   2.969  13.810 -0.6162  0.2457 -1.9811
   30MPD2    H3  474   4.431   3.106  13.638 -1.3313  0.5481  0.1463
   30MPD2     N  475   4.573   3.446  13.910  0.2987 -0.1411 -0.6133
   30MPD2    H5  476   4.605   3.490  13.825 -0.4715  0.5140 -0.5626
   30MPD2    N1  477   4.410   3.019  14.074  0.2166  0.1034 -0.1481
   30MPD2    H7  478   4.440   3.058  14.163  0.5967  0.9093 -0.6245
   31TMC2    C1  479   2.057   2.324  14.964 -0.4450  0.4144 -0.0078
   31TMC2    C2  480   1.945   2.396  14.928  0.1216 -0.3339 -0.9164
   31TMC2    C3  481   1.830   2.335  14.962  0.9960  0.6456 -0.5018
   31TMC2    C4  482   2.052   2.212  15.046 -0.8947  0.0760  0.1836
   31TMC2    C5  483   1.934   2.175  15.094  0.0370 -0.3275  0.4205
   31TMC2    C6  484   1.819   2.225  15.052  0.4594 -0.5587  0.3252
   31TMC2     C  485   2.174   2.409  14.955  0.3256  0.8467 -0.5262
   31TMC2     O  486   2.174   2.483  14.856 -0.2180  0.2458 -0.3734
   31TMC2     H  487   1.945   2.486  14.868  2.4502  1.2236  1.4253
   31TMC2    H1  488   2.143   2.170  15.086 -0.0856 -0.4372 -2.1873
   31TMC2    H2  489   1.723   2.177  15.068  1.2010 -1.9877  0.4649
   31TMC2    C7  490   1.934   2.091  15.213  1.3423 -0.1017  0.0080
   31TMC2    C8  491   1.712   2.365  14.886 -0.0690 -0.3203 -0.5073
   31TMC2    O1  492   2.031   2.020  15.228  0.2076  0.1473 -1.0991
   31TMC2    O2  493   1.600   2.343  14.925  0.2886 -0.0271 -0.2841
   31TMC2    O5  494   1.745   2.355  14.753  0.0585  0.0865  0.2493
   31TMC2    H5  495   1.834   2.319  14.735 -0.5077 -1.0808 -0.1596
   32MPD2     C  496   2.581   2.667  15.153 -0.3355  0.1327  1.1896
   32MPD2    C1  497   2.506   2.688  15.043  0.2749 -0.2140 -0.5915
   32MPD2    C2  498   2.404   2.601  15.007  0.4625 -0.4264 -0.3618
   32MPD2    C3  499   2.370   2.488  15.086  0.4577 -0.1797 -0.4019
   32MPD2    C4  500   2.446   2.466  15.202 -0.3929  0.5938 -0.6921
   32MPD2    C5  501   2.546   2.557  15.226 -0.0741  0.0578 -0.2150
   32MPD2     H  502   2.343   2.617  14.919 -2.9661  0.8099  2.1929
   32MPD2    H1  503   2.431   2.388  15.276 -0.1821 -0.6842 -1.9931
   32MPD2    H2  504   2.670   2.727  15.167  0.0805 -0.3849  0.7523
   32MPD2    H3  505   2.592   2.538  15.322 -0.7355  0.3251  0.1525
   32MPD2     N  506   2.251   2.416  15.058  0.6830 -0.0844 -0.0767
   32MPD2    H5  507   2.230   2.343  15.125  0.3494  1.1359  1.1505
   32MPD2    N1  508   2.538   2.800  14.965  0.1890 -0.4818 -0.1500
   32MPD2    H7  509   2.609   2.859  15.007 -0.6082 -0.6244  1.3960
   33TMC2    C1  510   2.390   0.845  10.834  0.5807 -0.1231 -0.2006
   33TMC2    C2  511   2.508   0.887  10.898 -0.4007  0.9568  0.8806
   33TMC2    C3  512   2.557   1.000  10.852 -0.1391 -0.1177 -0.2192
   33TMC2    C4  513   2.325   0.924  10.738  0.0130  0.5679  0.6264
   33TMC2    C5  514   2.382   1.042  10.706  0.1116  0.2241 -0.0512
   33TMC2    C6  515   2.504   1.074  10.752 -0.4534  0.2960 -0.3753
   33TMC2     C  516   2.324   0.718  10.876  0.4910  0.6046  0.2336
   33TMC2     O  517   2.220   0.676  10.825  0.3415 -0.4368  0.2271
   33TMC2     H  518   2.568   0.834  10.971  0.6846  0.4217 -0.4091
   33TMC2    H1  519   2.231   0.880  10.705 -1.1992  2.4229  1.6073
   33TMC2    H2  520   2.562   1.163  10.729  0.6962 -0.9146 -2.1795
   33TMC2    C7  521   2.336   1.124  10.601  0.2425 -0.4396 -0.2825
   33TMC2    C8  522   2.666   1.057  10.926 -0.3772  0.1227  0.6580
   33TMC2    O1  523   2.412   1.209  10.565 -0.4706  0.4167  0.4101
   33TMC2    O2  524   2.759   1.112  10.864 -0.8859 -0.5655 -0.0568
   33TMC2    O5  525   2.595   1.112  11.027  0.2398 -0.3069 -0.2234
   33TMC2    H5  526   2.514   1.062  11.051  1.5493 -1.5628  1.6723
   34MPD2     C  527   2.334   0.334  11.215  0.1211  0.1791 -0.1464
   34MPD2    C1  528   2.230   0.387  11.154 -0.8544  0.4793  0.6050
   34MPD2    C2  529   2.252   0.489  11.055 -0.3738 -0.2097 -0.1076
   34MPD2    C3  530   2.379   0.531  11.031 -0.0438 -0.3968  0.0567
   34MPD2    C4  531   2.486   0.473  11.101 -0.4335 -0.4386  0.2646
   34MPD2    C5  532   2.466   0.368  11.188 -0.3927  0.2620  0.6686
   34MPD2     H  533   2.174   0.549  11.009 -0.4252 -0.3837 -0.2521
   34MPD2    H1  534   2.589   0.507  11.098 -0.1825 -0.9883  2.3612
   34MPD2    H2  535   2.315   0.266  11.297 -0.3948  1.7640  1.0584
   34MPD2    H3  536   2.543   0.317  11.245 -0.4167 -0.2644  0.2335
   34MPD2     N  537   2.408   0.646  10.957  0.5203 -0.3469  0.0584
   34MPD2    H5  538   2.505   0.676  10.962  0.3449  0.2039  0.2547
   34MPD2    N1  539   2.101   0.345  11.191  0.6380 -0.1431  0.2747
   34MPD2    H7  540   2.095   0.268  11.256 -0.3524 -0.0998  0.2394
   35TMC2    C1  541   2.840   1.699  11.490 -0.1524 -0.6721 -0.0459
   35TMC2    C2  542   2.761   1.799  11.425 -0.5417  0.1291  0.7249
   35TMC2    C3  543   2.634   1.807  11.467 -0.0510  0.2511 -0.1766
   35TMC2    C4  544   2.789   1.611  11.583 -0.0481  0.3083  0.2062
   35TMC2    C5  545   2.657   1.622  11.608 -0.2636  0.0992 -0.0992
   35TMC2    C6  546   2.578   1.726  11.565  0.3266  0.1014  0.3961
   35TMC2     C  547   2.978   1.691  11.455  0.0601 -0.2790 -0.3008
   35TMC2     O  548   3.015   1.760  11.361 -0.6925  0.1248  0.2383
   35TMC2     H  549   2.807   1.875  11.364 -1.5898  0.3942  0.2589
   35TMC2    H1  550   2.832   1.514  11.610  0.2541  0.9674  2.1434
   35TMC2    H2  551   2.475   1.743  11.594 -0.0542 -3.8677  1.4197
   35TMC2    C7  552   2.610   1.537  11.706  0.0085  0.3146  0.0893
   35TMC2    C8  553   2.545   1.909  11.409 -0.1713  0.2960 -0.4321
   35TMC2    O1  554   2.696   1.488  11.779 -0.9080  0.3470  0.1127
   35TMC2    O2  555   2.432   1.923  11.453  0.2557  0.3117  0.3779
   35TMC2    O5  556   2.573   1.930  11.281 -0.4386  0.0349  0.4407
   35TMC2    H5  557   2.661   1.901  11.246 -1.8727 -2.8256 -0.7752
   36MPD2     C  558   3.474   1.617  11.558 -0.2798  0.4006 -0.3009
   36MPD2    C1  559   3.396   1.553  11.656  0.2760 -0.1082 -0.1823
   36MPD2    C2  560   3.259   1.556  11.645  0.2428 -0.5379 -0.2094
   36MPD2    C3  561   3.194   1.618  11.542 -0.3042  0.0334  0.1378
   36MPD2    C4  562   3.272   1.668  11.442  0.0124 -0.0122  0.3932
   36MPD2    C5  563   3.412   1.668  11.445 -0.0334  0.3892 -0.0957
   36MPD2     H  564   3.200   1.495  11.713  1.2673 -1.9300 -0.5827
   36MPD2    H1  565   3.233   1.720  11.355 -1.7431 -0.4456  0.9196
   36MPD2    H2  566   3.580   1.625  11.579 -0.3314 -1.8188  0.7970
   36MPD2    H3  567   3.466   1.722  11.368  2.0732  2.2548  2.6884
   36MPD2     N  568   3.053   1.628  11.549  0.0615  0.1771 -0.9179
   36MPD2    H5  569   2.998   1.592  11.626  0.7142 -0.6725 -0.8521
   36MPD2    N1  570   3.460   1.511  11.771 -0.0875  0.2510  0.6855
   36MPD2    H7  571   3.561   1.522  11.768 -0.3426  2.9827  1.7458
   37TMC2    C1  572   1.305   2.129  11.723  0.4489 -0.3275  0.0684
   37TMC2    C2  573   1.278   2.112  11.590 -0.2992 -0.4214 -0.2528
   37TMC2    C3  574   1.387   2.116  11.502  0.6041  0.4309 -0.2083
   37TMC2    C4  575   1.432   2.163  11.765 -0.0644  0.3839  0.4005
   37TMC2    C5  576   1.536   2.172  11.675 -0.2207  0.3516  0.1371
   37TMC2    C6  577   1.508   2.160  11.540  0.2662  0.0974  0.6169
   37TMC2     C  578   1.202   2.094  11.818  0.6473  0.0606 -0.3763
   37TMC2     O  579   1.086   2.101  11.781  0.3671  0.9551 -0.5079
   37TMC2     H  580   1.178   2.101  11.551 -1.7261  1.7206  2.7709
   37TMC2    H1  581   1.440   2.181  11.871  0.6447 -1.0295  0.5831
   37TMC2    H2  582   1.593   2.158  11.473 -0.5007  1.0059 -0.3907
   37TMC2    C7  583   1.666   2.166  11.727 -0.3798 -0.5250 -0.4567
   37TMC2    C8  584   1.364   2.093  11.357 -0.4596  0.1232 -0.3042
   37TMC2    O1  585   1.682   2.089  11.822  0.1578  0.0450  1.0627
   37TMC2    O2  586   1.424   2.152  11.271  0.7151 -0.1710 -0.4379
   37TMC2    O5  587   1.278   1.990  11.340 -0.0033 -0.0750  0.0848
   37TMC2    H5  588   1.253   1.943  11.422  0.9635  0.8781  0.9240
   38MPD2     C  589   1.052   2.077  12.313 -0.9277  0.0431  0.9409
   38MPD2    C1  590   1.186   2.041  12.310 -0.1805 -0.7270  0.5432
   38MPD2    C2  591   1.247   2.031  12.185  0.5684 -0.1734  0.2606
   38MPD2    C3  592   1.184   2.073  12.066  0.2714 -0.3936  0.4648
   38MPD2    C4  593   1.053   2.116  12.079  0.0602  0.4304 -0.5691
   38MPD2    C5  594   0.990   2.115  12.200  0.6730 -0.6250  0.2656
   38MPD2     H  595   1.345   1.986  12.181 -0.4007 -2.2126 -0.7381
   38MPD2    H1  596   1.004   2.166  11.995  0.6323  0.4278 -0.9028
   38MPD2    H2  597   0.990   2.084  12.402 -1.2760 -0.5921  0.7525
   38MPD2    H3  598   0.884   2.137  12.199  1.0857  1.4041  1.0461
   38MPD2     N  599   1.254   2.074  11.945 -0.3379  0.3499 -0.3450
   38MPD2    H5  600   1.355   2.059  11.952 -0.3295  0.4761 -0.2152
   38MPD2    N1  601   1.260   1.987  12.419  0.5616 -0.2123  0.3103
   38MPD2    H7  602   1.350   1.948  12.391 -0.2945 -2.8121  1.1892
   39TMC2    C1  603   4.467   3.532   1.717 -0.1183  0.3760  0.1880
   39TMC2    C2  604   4.498   3.423   1.790 -0.3627  0.0260 -0.2178
   39TMC2    C3  605   4.568   3.443   1.908  0.2698 -0.2508  0.4678
   39TMC2    C4  606   4.517   3.661   1.739 -0.2160  0.2045 -0.2429
   39TMC2    C5  607   4.597   3.680   1.851 -0.2036  0.6127  0.1234
   39TMC2    C6  608   4.622   3.566   1.933 -0.0667 -0.1440  0.2562
   39TMC2     C  609   4.343   3.532   1.637  0.3130  0.0086  0.4242
   39TMC2     O  610   4.308   3.646   1.603 -0.4334  0.1713 -0.4925
   39TMC2     H  611   4.454   3.324   1.781  0.0716 -0.4356  2.7136
   39TMC2    H1  612   4.493   3.745   1.676 -3.1010 -1.6079 -1.5844
   39TMC2    H2  613   4.692   3.566   2.015  0.3963  0.5708 -0.1396
   39TMC2    C7  614   4.666   3.801   1.878  0.4889  0.5920  0.5376
   39TMC2    C8  615   4.641   3.323   1.950  0.4364  0.5026 -0.1647
   39TMC2    O1  616   0.035   3.792   1.934  0.2308  0.5802 -0.1445
   39TMC2    O2  617   4.656   3.282   2.062 -0.1613 -0.3103 -0.4058
   39TMC2    O5  618   4.721   3.293   1.841 -0.3693  0.6357  0.5142
   39TMC2    H5  619   4.718   3.369   1.780 -1.6028  0.4845  0.3841
   40MPD2     C  620   4.141   3.247   1.522  0.2453 -0.0772  0.2479
   40MPD2    C1  621   4.184   3.377   1.531 -0.0267  0.5721 -0.4332
   40MPD2    C2  622   4.111   3.472   1.471 -0.4099  0.2884  0.6404
   40MPD2    C3  623   3.993   3.451   1.406 -0.2514  0.5012 -0.4441
   40MPD2    C4  624   3.942   3.326   1.409  0.5784 -0.2003 -0.0612
   40MPD2    C5  625   4.026   3.223   1.452 -0.5340  0.4860 -0.5006
   40MPD2     H  626   4.145   3.575   1.473  2.8548 -0.7735 -0.9713
   40MPD2    H1  627   3.846   3.302   1.365  1.1765 -2.1290 -0.2988
   40MPD2    H2  628   4.204   3.165   1.557  0.8358  0.1960 -0.1715
   40MPD2    H3  629   3.987   3.122   1.455  0.9715 -0.0338  1.2372
   40MPD2     N  630   3.918   3.550   1.340 -0.2164  0.0394 -0.1967
   40MPD2    H5  631   3.828   3.515   1.309 -0.4625 -0.9944  1.6878
   40MPD2    N1  632   4.304   3.405   1.602 -0.0109  0.7388 -0.0134
   40MPD2    H7  633   4.361   3.325   1.627 -1.4883 -0.4472 -0.4491
   41TMC2    C1  634   2.956   2.266  13.711 -1.3827 -0.2099  0.0995
   41TMC2    C2  635   2.837   2.317  13.663 -1.2454 -0.3066 -0.1638
   41TMC2    C3  636   2.830   2.350  13.531  0.8578  0.4498  0.3346
   41TMC2    C4  637   3.062   2.256  13.632  0.0592  0.0534  0.5002
   41TMC2    C5  638   3.056   2.298  13.500  0.5415  0.2987 -0.2126
   41TMC2    C6  639   2.940   2.343  13.445 -0.0286 -0.3652 -0.1513
   41TMC2     C  640   2.955   2.175  13.829 -0.0197  0.4251 -0.3061
   41TMC2     O  641   3.036   2.086  13.824  0.2700 -0.2974 -0.1463
   41TMC2     H  642   2.756   2.353  13.725 -0.3999 -0.2257  0.8953
   41TMC2    H1  643   3.150   2.203  13.666  0.5806  1.2143  0.9601
   41TMC2    H2  644   2.932   2.366  13.339  1.1296 -0.7612 -0.3200
   41TMC2    C7  645   3.173   2.279  13.427  0.2080 -0.2801 -0.4388
   41TMC2    C8  646   2.716   2.402  13.484 -0.0562  0.7239 -0.1078
   41TMC2    O1  647   3.280   2.297  13.484  0.1229  0.3791 -0.3044
   41TMC2    O2  648   2.718   2.470  13.380  0.3515 -0.0629 -0.3534
   41TMC2    O5  649   2.622   2.302  13.500 -0.1174 -0.2076 -0.0879
   41TMC2    H5  650   2.612   2.256  13.586  0.9513  0.8038  0.5839
   42MPD2     C  651   2.877   2.026  14.065  0.4736  0.8618  1.3019
   42MPD2    C1  652   2.827   2.149  14.045  0.0434 -0.0214 -0.3567
   42MPD2    C2  653   2.751   2.210  14.149  0.1414 -0.0519  0.2373
   42MPD2    C3  654   2.716   2.137  14.266  0.5124 -0.0810  0.1587
   42MPD2    C4  655   2.773   2.013  14.284  0.9387 -0.2089  0.6455
   42MPD2    C5  656   2.857   1.958  14.185  0.3056  0.1951  0.2279
   42MPD2     H  657   2.721   2.314  14.138 -0.0943  0.2034  3.1846
   42MPD2    H1  658   2.757   1.960  14.377  0.8217 -1.1782  0.0807
   42MPD2    H2  659   2.929   1.968  13.989  0.6291  0.9264  1.3586
   42MPD2    H3  660   2.903   1.863  14.210  0.8161 -0.0629 -1.6743
   42MPD2     N  661   2.636   2.194  14.375  0.2849  0.1457  0.3132
   42MPD2    H5  662   2.642   2.152  14.468  1.5207  0.6430  0.4631
   42MPD2    N1  663   2.857   2.214  13.920  0.2372 -0.8263  0.1197
   42MPD2    H7  664   2.801   2.297  13.902  3.3845  1.4044  0.6390
   43TMC2    C1  665   4.224   0.121   0.537  0.7242 -0.7319  0.6439
   43TMC2    C2  666   4.125   0.206   0.498  0.2899 -0.0691  0.0676
   43TMC2    C3  667   4.099   0.314   0.574 -0.0714 -0.3113 -0.3321
   43TMC2    C4  668   4.297   0.156   0.641 -1.0741  0.5198 -0.3555
   43TMC2    C5  669   4.277   0.264   0.716 -0.3213 -0.2690  0.2577
   43TMC2    C6  670   4.163   0.337   0.692 -0.1319 -0.3173 -0.5003
   43TMC2     C  671   4.242   4.729   0.481  0.7597 -0.0836  0.2678
   43TMC2     O  672   4.285   4.646   0.560 -0.3343 -0.8199 -0.0324
   43TMC2     H  673   4.055   0.183   0.419  0.6385 -0.6491 -0.0745
   43TMC2    H1  674   4.376   0.087   0.669  0.9493  2.7064 -0.7492
   43TMC2    H2  675   4.130   0.417   0.757  1.8582  0.7772 -0.8532
   43TMC2    C7  676   4.364   0.298   0.825  0.3337  0.5185 -0.3567
   43TMC2    C8  677   4.007   0.417   0.529 -0.4297  0.1297  0.6086
   43TMC2    O1  678   4.452   0.218   0.860 -0.3376 -0.3613  0.0690
   43TMC2    O2  679   3.952   0.489   0.614  0.3364  0.1294 -0.3589
   43TMC2    O5  680   4.071   0.462   0.421 -0.1082 -0.3539 -0.0374
   43TMC2    H5  681   4.133   0.391   0.392 -2.2861 -1.5196 -1.7812
   44MPD2     C  682   4.355   4.463   0.057  0.8258  0.2596 -0.3734
   44MPD2    C1  683   4.426   4.473   0.180  0.4358 -0.4766 -0.2849
   44MPD2    C2  684   4.373   4.555   0.283  0.1634  0.1096  0.0331
   44MPD2    C3  685   4.257   4.631   0.261 -0.3708 -0.2179  0.6535
   44MPD2    C4  686   4.198   4.619   0.137  0.0226 -0.4183  0.2367
   44MPD2    C5  687   4.238   4.532   0.039 -0.5225 -1.2715  0.7891
   44MPD2     H  688   4.418   4.563   0.381  1.9916  1.7727 -0.9192
   44MPD2    H1  689   4.115   4.684   0.114  2.4298  1.1219 -4.0345
   44MPD2    H2  690   4.399   4.409  17.728 -0.7825 -1.4424 -0.1247
   44MPD2    H3  691   4.198   4.527  17.692  1.4223  1.8862 -0.1284
   44MPD2     N  692   4.202   4.718   0.352  1.0104 -0.6483  0.6218
   44MPD2    H5  693   4.135   0.045   0.314 -0.0752 -2.1175  0.0012
   44MPD2    N1  694   4.547   4.404   0.207  0.1954 -0.4107  0.1621
   44MPD2    H7  695   4.597   4.423   0.293 -0.8098 -2.2649  1.1459
   45TMC2    C1  696   0.904   2.483   9.598 -0.3193  0.2246  0.5698
   45TMC2    C2  697   1.031   2.490   9.538 -0.1576  0.7042  0.3170
   45TMC2    C3  698   1.121   2.576   9.585  0.3669 -0.8190  0.3371
   45TMC2    C4  699   0.874   2.570   9.697  0.3248  0.1953 -0.6842
   45TMC2    C5  700   0.969   2.662   9.734 -0.1670  0.2238 -0.8510
   45TMC2    C6  701   1.089   2.667   9.677 -0.8762  0.3775  0.2445
   45TMC2     C  702   0.825   2.367   9.581  1.2593  1.1481  0.6818
   45TMC2     O  703   0.870   2.281   9.507  0.2985 -0.1241  0.0709
   45TMC2     H  704   1.045   2.436   9.445  1.2943  0.2972  0.7743
   45TMC2    H1  705   0.776   2.570   9.742  1.8440  1.6140  2.6324
   45TMC2    H2  706   1.185   2.709   9.707 -0.6823  0.0866  0.0238
   45TMC2    C7  707   0.933   2.762   9.832  1.2088  0.8062 -0.1173
   45TMC2    C8  708   1.257   2.578   9.528 -0.2170 -0.7741  0.4747
   45TMC2    O1  709   0.826   2.753   9.888 -0.3936 -0.0951 -0.6872
   45TMC2    O2  710   1.335   2.673   9.523 -0.0502 -0.2763 -0.1802
   45TMC2    O5  711   1.294   2.446   9.515 -0.0721  0.6795 -0.6896
   45TMC2    H5  712   1.224   2.384   9.544  3.0446 -1.8693  1.4782
   46MPD2     C  713   0.636   2.138   9.590  0.0996 -0.4867  0.1137
   46MPD2    C1  714   0.607   2.269   9.620  0.4458  0.5298  1.0039
   46MPD2    C2  715   0.471   2.290   9.653  0.2257 -0.2790  0.5748
   46MPD2    C3  716   0.378   2.198   9.649  0.4769 -0.5505 -0.0713
   46MPD2    C4  717   0.413   2.073   9.616 -0.0960 -0.0628 -0.2824
   46MPD2    C5  718   0.541   2.046   9.594  0.3594  0.6430 -0.1435
   46MPD2     H  719   0.447   2.390   9.687  2.0473  0.1767  0.4847
   46MPD2    H1  720   0.349   1.985   9.622 -0.6164  0.3504  0.2872
   46MPD2    H2  721   0.738   2.104   9.578 -0.1819 -1.6509  1.0370
   46MPD2    H3  722   0.569   1.945   9.567 -0.0907  0.9373 -1.7162
   46MPD2     N  723   0.244   2.227   9.677 -0.0439  0.0563  0.7784
   46MPD2    H5  724   0.218   2.322   9.704 -0.4231  0.1599  0.0374
   46MPD2    N1  725   0.703   2.369   9.639  0.2311  0.2431 -0.0339
   46MPD2    H7  726   0.659   2.449   9.683  2.0729  0.3580  1.5976
   47TMC2    C1  727   2.923   3.111   9.012  0.3988 -0.1378  0.6275
   47TMC2    C2  728   2.849   3.007   8.962  0.0169  0.4395  0.2801
   47TMC2    C3  729   2.750   3.040   8.867  0.1386 -0.0823  0.6205
   47TMC2    C4  730   2.898   3.241   8.980 -0.0126 -0.1834 -0.0686
   47TMC2    C5  731   2.789   3.265   8.896  0.4973 -0.1572  0.3338
   47TMC2    C6  732   2.710   3.165   8.841 -0.6069 -0.5274  0.2602
   47TMC2     C  733   3.008   3.090   9.129  0.2036  0.9295  0.4706
   47TMC2     O  734   3.070   3.182   9.174 -0.4947  0.0145 -0.0713
   47TMC2     H  735   2.864   2.904   8.992  3.6358  1.3547  1.4842
   47TMC2    H1  736   2.962   3.316   9.025  0.4817 -1.7589  1.8582
   47TMC2    H2  737   2.641   3.175   8.759 -0.9034 -2.3072  0.2995
   47TMC2    C7  738   2.737   3.400   8.905 -0.7421  0.3677  0.1665
   47TMC2    C8  739   2.706   2.944   8.772 -0.0496  0.3402 -0.2471
   47TMC2    O1  740   2.798   3.478   8.976 -0.6696  0.4867 -0.0409
   47TMC2    O2  741   2.720   2.971   8.655 -0.3453 -0.0353  0.1361
   47TMC2    O5  742   2.651   2.843   8.832  0.0049  0.7292  0.0512
   47TMC2    H5  743   2.648   2.848   8.930  0.7127  1.7039  0.0162
   48MPD2     C  744   3.182   2.973   9.338  0.2895  0.0242  0.5581
   48MPD2    C1  745   3.080   2.907   9.276 -0.7696 -0.1186  0.9025
   48MPD2    C2  746   3.043   2.786   9.329 -0.3039 -0.4709  0.1776
   48MPD2    C3  747   3.094   2.727   9.445 -0.6748  0.9424 -1.1659
   48MPD2    C4  748   3.205   2.796   9.500 -0.2168  0.1844  0.8400
   48MPD2    C5  749   3.251   2.903   9.432 -0.1035  0.2072  0.0296
   48MPD2     H  750   2.961   2.731   9.285  0.7777 -1.1029 -1.0376
   48MPD2    H1  751   3.265   2.749   9.577 -1.1690  1.5793  2.4252
   48MPD2    H2  752   3.218   3.071   9.307  2.5739 -0.8243  0.4914
   48MPD2    H3  753   3.338   2.944   9.482  0.8335 -0.0417 -1.3966
   48MPD2     N  754   3.042   2.613   9.509  0.6193 -0.0076  0.1393
   48MPD2    H5  755   2.971   2.566   9.454  0.3465 -1.1938  1.5112
   48MPD2    N1  756   2.996   2.959   9.172  0.5021 -0.3570  0.2085
   48MPD2    H7  757   2.926   2.900   9.126  2.3110 -2.2165 -0.1377
   49TMC2    C1  758   0.581   0.293  10.563  0.8615  0.2979 -0.5231
   49TMC2    C2  759   0.523   0.201  10.486  0.5006 -0.0085  0.8947
   49TMC2    C3  760   0.522   0.215  10.350 -0.2094 -0.1812  0.1970
   49TMC2    C4  761   0.634   0.414  10.516  0.2322  0.9053  0.1037
   49TMC2    C5  762   0.633   0.427  10.383 -0.0391 -0.1431  0.3072
   49TMC2    C6  763   0.578   0.331  10.299 -0.2042  0.2722 -0.1270
   49TMC2     C  764   0.608   0.244  10.695  0.1205 -0.0909  0.0187
   49TMC2     O  765   0.616   0.121  10.707  0.2367  0.3531 -0.4674
   49TMC2     H  766   0.482   0.111  10.529  2.3192 -1.6869 -0.9198
   49TMC2    H1  767   0.697   0.471  10.583  1.9534 -0.8466 -0.0159
   49TMC2    H2  768   0.574   0.344  10.192 -1.2439  1.2906  0.0408
   49TMC2    C7  769   0.686   0.542  10.309 -0.0806  0.0824  0.1148
   49TMC2    C8  770   0.409   0.154  10.288  0.6333  0.2191 -0.5583
   49TMC2    O1  771   0.691   0.540  10.184  0.3015 -0.0399  0.2133
   49TMC2    O2  772   0.324   0.212  10.222 -0.3206 -0.4089 -0.3471
   49TMC2    O5  773   0.413   0.020  10.303  0.3942  0.1078  0.5131
   49TMC2    H5  774   0.493   4.713  10.338  1.6125  1.2788 -0.7039
   50MPD2     C  775   0.667   0.205  10.989  0.1272  0.3376  0.4692
   50MPD2    C1  776   0.597   0.312  10.929  0.5995  0.7821 -0.2610
   50MPD2    C2  777   0.547   0.409  11.013  0.0933  0.4578 -0.1168
   50MPD2    C3  778   0.560   0.408  11.155  0.8961  0.1114 -0.2530
   50MPD2    C4  779   0.634   0.303  11.206  0.2987  0.6866  0.1524
   50MPD2    C5  780   0.686   0.202  11.130  0.4501 -0.5848 -0.4272
   50MPD2     H  781   0.501   0.496  10.968 -0.8399 -0.1620 -0.3604
   50MPD2    H1  782   0.652   0.285  11.311 -0.7743 -0.0382  0.2166
   50MPD2    H2  783   0.708   0.133  10.920  0.4510 -0.5617  1.6060
   50MPD2    H3  784   0.744   0.120  11.170 -1.8807 -1.9116  0.1798
   50MPD2     N  785   0.491   0.502  11.235 -0.3844  0.1117  0.0043
   50MPD2    H5  786   0.500   0.499  11.336  0.4434  0.1550 -0.0735
   50MPD2    N1  787   0.587   0.337  10.789  0.2795 -0.1636 -0.4505
   50MPD2    H7  788   0.550   0.429  10.768  2.1508  0.3713 -1.3666
   51TMC2    C1  789   1.218   4.425   1.868 -0.0518 -0.1089  0.3828
   51TMC2    C2  790   1.148   4.513   1.943  0.0088  0.2229  0.5562
   51TMC2    C3  791   1.177   4.647   1.934 -0.2484 -0.1477  0.6593
   51TMC2    C4  792   1.315   4.465   1.781  0.3111  0.2254  0.1026
   51TMC2    C5  793   1.351   4.592   1.778  0.1258 -0.1192 -0.6603
   51TMC2    C6  794   1.285   4.691   1.857  0.1928  0.3308  0.0952
   51TMC2     C  795   1.204   4.285   1.888  0.3289 -0.5033  0.5622
   51TMC2     O  796   1.264   4.211   1.812  0.0399 -0.1526  0.3297
   51TMC2     H  797   1.061   4.479   1.998  1.0863  0.3692  2.3572
   51TMC2    H1  798   1.375   4.394   1.726 -0.1660  0.3954 -0.6388
   51TMC2    H2  799   1.314   0.056   1.843 -1.0598  0.8285  1.1273
   51TMC2    C7  800   1.484   4.622   1.743  0.0309 -0.0067  0.3202
   51TMC2    C8  801   1.081   0.010   1.984  0.8447  0.4251  0.4804
   51TMC2    O1  802   1.567   4.536   1.776  0.2574 -0.1785  0.0632
   51TMC2    O2  803   1.067   0.119   1.928  0.2516  0.1538  0.4561
   51TMC2    O5  804   1.025   4.712   2.102  0.4458  0.1630  0.1931
   51TMC2    H5  805   1.071   4.633   2.138 -0.6202 -0.1987  0.7557
   52MPD2     C  806   1.093   3.896   2.222  0.3014 -0.0103 -0.0798
   52MPD2    C1  807   1.126   3.894   2.090  0.3676  0.5745  0.1813
   52MPD2    C2  808   1.145   4.009   2.020  0.9095  0.7136  0.2504
   52MPD2    C3  809   1.132   4.138   2.083 -0.0879  0.0516  0.4050
   52MPD2    C4  810   1.102   4.134   2.224  0.1339 -0.3999 -0.5164
   52MPD2    C5  811   1.078   4.016   2.290  0.6603 -0.4654  0.1729
   52MPD2     H  812   1.177   4.005   1.917 -0.5646  1.3383 -0.2242
   52MPD2    H1  813   1.098   4.229   2.275 -1.6396 -0.3022 -0.8277
   52MPD2    H2  814   1.092   3.803   2.278 -0.7866  0.1338  0.1423
   52MPD2    H3  815   1.060   4.018   2.397 -0.3200  0.2302 -0.0050
   52MPD2     N  816   1.143   4.259   2.010  0.6157 -0.2916  0.5327
   52MPD2    H5  817   1.115   4.342   2.061  3.2150  1.1961 -0.4536
   52MPD2    N1  818   1.148   3.774   2.012 -0.5491  0.1342  0.3754
   52MPD2    H7  819   1.169   3.775   1.913  0.2729  0.7256  0.5509
   53TMC2    C1  820   2.254   2.204  12.119  0.2812 -0.0470  0.1596
   53TMC2    C2  821   2.369   2.179  12.185 -0.2565  0.5767  0.7518
   53TMC2    C3  822   2.367   2.186  12.318 -0.2858 -0.2985 -1.0633
   53TMC2    C4  823   2.139   2.245  12.184 -0.7107  0.0927  0.1056
   53TMC2    C5  824   2.144   2.244  12.321 -0.4460  0.2049  0.0394
   53TMC2    C6  825   2.260   2.218  12.390  0.1644  0.0754 -0.4358
   53TMC2     C  826   2.262   2.186  11.977  0.2132  0.1485  0.1700
   53TMC2     O  827   2.371   2.179  11.922  0.0314  0.1614 -0.4515
   53TMC2     H  828   2.461   2.155  12.133 -0.9136 -1.6660  0.6248
   53TMC2    H1  829   2.055   2.292  12.133  0.0075 -1.5928 -2.6217
   53TMC2    H2  830   2.266   2.217  12.498  1.8479  1.6061 -0.5238
   53TMC2    C7  831   2.016   2.269  12.387 -0.3665 -0.2437 -0.2936
   53TMC2    C8  832   2.494   2.193  12.394  0.4244  0.4419  0.6308
   53TMC2    O1  833   1.918   2.292  12.317  0.7432 -0.0393 -0.4324
   53TMC2    O2  834   2.495   2.193  12.514  0.1649 -0.3287 -0.7042
   53TMC2    O5  835   2.579   2.269  12.326 -0.0278 -0.6666 -0.3742
   53TMC2    H5  836   2.564   2.285  12.231 -1.8730 -1.0215 -0.1455
   54MPD2     C  837   2.167   2.234  11.693 -0.4755  0.2315 -0.0822
   54MPD2    C1  838   2.086   2.192  11.796  0.1613 -0.1777  0.0100
   54MPD2    C2  839   1.950   2.184  11.778  0.4029  0.0658  0.1020
   54MPD2    C3  840   1.895   2.225  11.662 -0.6633 -0.5753 -0.7562
   54MPD2    C4  841   1.973   2.290  11.571  0.9527  0.0911  0.2203
   54MPD2    C5  842   2.109   2.286  11.580  0.7266 -0.6622  0.2965
   54MPD2     H  843   1.885   2.144  11.855 -0.2799 -1.6333 -1.3594
   54MPD2    H1  844   1.925   2.332  11.484 -1.5294  0.7892  1.9037
   54MPD2    H2  845   2.275   2.235  11.697 -0.4629  1.9610 -0.7669
   54MPD2    H3  846   2.173   2.315  11.498  1.4766 -1.2317  0.6887
   54MPD2     N  847   1.756   2.233  11.648  0.3246  0.0603 -0.3728
   54MPD2    H5  848   1.721   2.291  11.572 -1.7834 -2.2215 -1.1340
   54MPD2    N1  849   2.138   2.159  11.922 -0.0443 -0.0096  0.9248
   54MPD2    H7  850   2.077   2.113  11.989  0.2275 -1.7407 -0.0021
   55TMC2    C1  851   2.705   4.114  17.698  0.1316 -0.4597 -0.9065
   55TMC2    C2  852   2.699   3.989  17.631  0.6101 -0.9478  0.8736
   55TMC2    C3  853   2.745   3.878  17.701  0.1782 -0.2614  0.2379
   55TMC2    C4  854   2.755   4.124   0.071 -0.1694  0.4441  0.2669
   55TMC2    C5  855   2.787   4.007   0.133 -0.1079  0.6022  0.0853
   55TMC2    C6  856   2.791   3.886   0.075 -0.2839  0.0749  0.3149
   55TMC2     C  857   2.641   4.236  17.649  0.1666  0.0126 -0.2992
   55TMC2     O  858   2.674   4.343  17.700 -0.4002 -0.1071  0.0413
   55TMC2     H  859   2.644   3.990  17.538 -0.2765 -0.6002  1.4080
   55TMC2    H1  860   2.767   4.221   0.117 -0.0861  0.0077  1.1539
   55TMC2    H2  861   2.807   3.800   0.139  1.6313 -0.7184 -1.2040
   55TMC2    C7  862   2.822   4.011   0.272  0.4252  0.7107  0.1240
   55TMC2    C8  863   2.700   3.750  17.666  0.0988 -0.2932 -0.3485
   55TMC2    O1  864   2.889   3.922   0.322 -0.0877  0.1582 -0.0820
   55TMC2    O2  865   2.592   3.724  17.622  0.3583 -0.2843 -0.1145
   55TMC2    O5  866   2.805   3.665  17.674 -0.3233  0.3871 -0.1827
   55TMC2    H5  867   2.885   3.715  17.703 -0.7769 -0.7559  3.1082
   56MPD2     C  868   2.396   4.234  17.377 -0.2756 -0.3961  0.5193
   56MPD2    C1  869   2.468   4.284  17.481 -0.0052  0.0764 -0.1246
   56MPD2    C2  870   2.449   4.419  17.518 -0.0033 -0.6247  0.1907
   56MPD2    C3  871   2.355   4.494  17.452  0.2197 -0.0281  0.0759
   56MPD2    C4  872   2.295   4.444  17.342 -0.4925 -0.0653 -0.3014
   56MPD2    C5  873   2.313   4.311  17.305  0.4085 -0.0121 -0.1477
   56MPD2     H  874   2.504   4.464  17.599 -1.2857 -0.9818  1.2547
   56MPD2    H1  875   2.216   4.493  17.287 -0.0623  1.7334  0.6831
   56MPD2    H2  876   2.405   4.127  17.359  0.4802 -0.1938 -0.3635
   56MPD2    H3  877   2.256   4.278  17.219 -1.7257  1.3427  0.7186
   56MPD2     N  878   2.314   4.615  17.511 -0.7613 -0.4209 -0.2373
   56MPD2    H5  879   2.330   4.627  17.611  3.3936  1.3122 -1.1509
   56MPD2    N1  880   2.544   4.201  17.560 -0.3880 -0.0266 -0.8157
   56MPD2    H7  881   2.530   4.103  17.536 -0.3785  0.1755 -1.6337
   57TMC2    C1  882   1.621   0.895  13.867 -0.3893 -0.6360 -0.6538
   57TMC2    C2  883   1.649   0.817  13.981 -0.5402  0.7504  0.1019
   57TMC2    C3  884   1.734   0.711  13.968 -0.3252  0.1241  0.0016
   57TMC2    C4  885   1.673   0.858  13.749  0.2165  0.9622 -0.3665
   57TMC2    C5  886   1.758   0.746  13.741 -0.0196  0.0746  0.1317
   57TMC2    C6  887   1.793   0.679  13.849  0.0439  0.7126  0.7692
   57TMC2     C  888   1.503   0.980  13.872  0.6828 -1.0520 -0.1538
   57TMC2     O  889   1.453   1.007  13.762 -0.4673 -0.1393 -0.5988
   57TMC2     H  890   1.580   0.816  14.065  0.6594  0.3889  1.0670
   57TMC2    H1  891   1.637   0.909  13.661  1.0913  0.9113 -0.7608
   57TMC2    H2  892   1.849   0.587  13.843  0.4765  1.1852 -2.2791
   57TMC2    C7  893   1.795   0.691  13.607 -0.1645 -0.2677  0.3950
   57TMC2    C8  894   1.717   0.591  14.053 -0.2027 -0.6707 -0.1991
   57TMC2    O1  895   1.815   0.569  13.614 -0.0205  0.4889  0.2398
   57TMC2    O2  896   1.604   0.570  14.100  0.0442  0.3209  0.0371
   57TMC2    O5  897   1.833   0.521  14.071  0.1400 -0.0040 -0.5708
   57TMC2    H5  898   1.902   0.573  14.024 -0.4124  0.7324 -0.5817
   58MPD2     C  899   1.078   1.167  14.110  0.4626 -0.9368 -0.7614
   58MPD2    C1  900   1.103   1.131  13.980  0.9210 -0.0182  0.1631
   58MPD2    C2  901   1.231   1.092  13.931 -0.9354  0.0638  0.0128
   58MPD2    C3  902   1.342   1.080  14.021 -0.3618  0.1155  0.9375
   58MPD2    C4  903   1.314   1.101  14.154 -0.2840 -0.0446 -0.1346
   58MPD2    C5  904   1.189   1.153  14.189 -0.6714  0.0174  0.1410
   58MPD2     H  905   1.240   1.056  13.829 -0.4156 -0.5104  0.2597
   58MPD2    H1  906   1.393   1.083  14.226 -0.6583 -0.4545  0.1725
   58MPD2    H2  907   0.985   1.208  14.148  2.6295  1.8294  1.5292
   58MPD2    H3  908   1.186   1.186  14.293 -1.3886  1.1816 -0.2411
   58MPD2     N  909   1.462   1.017  14.001 -0.5906 -0.0222 -0.2438
   58MPD2    H5  910   1.528   1.017  14.079 -0.4934 -1.2714 -0.3278
   58MPD2    N1  911   1.001   1.123  13.882 -0.0701  0.0359 -0.0207
   58MPD2    H7  912   1.030   1.092  13.789  2.3407  1.7959  0.1434
   59TMC2    C1  913   4.112   0.607  12.748 -0.2412  0.8157  0.2004
   59TMC2    C2  914   4.035   0.669  12.845  0.1906  0.7796 -0.2777
   59TMC2    C3  915   3.912   0.716  12.807 -0.6821 -0.1516 -0.6381
   59TMC2    C4  916   4.058   0.592  12.615  0.7506  0.6422 -0.0272
   59TMC2    C5  917   3.934   0.644  12.588  0.2982 -0.7959 -0.0329
   59TMC2    C6  918   3.860   0.700  12.686  0.4745  0.2608  0.0738
   59TMC2     C  919   4.255   0.587  12.770 -0.2668  0.3470 -0.2274
   59TMC2     O  920   4.306   0.509  12.688  0.3732  0.0377  0.7418
   59TMC2     H  921   4.067   0.675  12.948  0.2712  1.7273 -0.3588
   59TMC2    H1  922   4.120   0.536  12.546  0.5610 -0.0546  0.3713
   59TMC2    H2  923   3.760   0.732  12.660 -0.3820 -2.0635  0.5192
   59TMC2    C7  924   3.904   0.662  12.446  0.0392  0.4562  0.1528
   59TMC2    C8  925   3.827   0.766  12.909 -0.1444 -0.5674  0.4180
   59TMC2    O1  926   3.973   0.598  12.367  0.0237 -0.4531 -0.0180
   59TMC2    O2  927   3.707   0.741  12.919  0.0061 -0.3922  0.4116
   59TMC2    O5  928   3.898   0.862  12.975 -0.3290  0.3359  0.0461
   59TMC2    H5  929   3.985   0.888  12.939  0.0991 -1.6102 -0.3089
   60MPD2     C  930   4.543   0.574  12.867 -1.2952  0.1873 -0.0627
   60MPD2    C1  931   4.448   0.669  12.902  0.3171  0.3447 -0.4531
   60MPD2    C2  932   4.476   0.764  13.001  0.6263 -0.0253 -0.4340
   60MPD2    C3  933   4.609   0.769  13.050  0.1461 -1.1511 -0.5802
   60MPD2    C4  934   4.703   0.685  13.001  0.5634  0.1428 -0.6618
   60MPD2    C5  935   4.671   0.589  12.913 -0.1818  0.5339 -0.1482
   60MPD2     H  936   4.404   0.844  13.015 -0.8606 -1.5207  0.3382
   60MPD2    H1  937   0.065   0.688  13.039  1.2825  1.4005 -2.6851
   60MPD2    H2  938   4.521   0.493  12.798  0.7705 -0.0893 -0.3994
   60MPD2    H3  939   0.013   0.528  12.876 -1.9728 -1.7532 -0.2909
   60MPD2     N  940   4.653   0.865  13.146  0.1365  0.3831 -0.0289
   60MPD2    H5  941   0.014   0.872  13.162  0.7045 -2.1420 -2.2851
   60MPD2    N1  942   4.312   0.669  12.862 -0.9154 -0.0362 -0.2309
   60MPD2    H7  943   4.256   0.744  12.901  0.4378 -0.9599  3.4870
   61TMC2    C1  944   3.457   2.094  15.044  0.0622  0.4724  0.3669
   61TMC2    C2  945   3.416   1.989  15.124  0.7570 -0.0500  0.0818
   61TMC2    C3  946   3.356   2.024  15.238 -0.4973 -0.6249 -0.0692
   61TMC2    C4  947   3.434   2.223  15.080  0.4161  0.3246 -0.5800
   61TMC2    C5  948   3.389   2.242  15.209 -0.8354  0.4649  0.0715
   61TMC2    C6  949   3.343   2.147  15.294  0.3472 -0.1980  0.9389
   61TMC2     C  950   3.450   2.065  14.904  0.3782 -0.3040 -0.2156
   61TMC2     O  951   3.456   1.950  14.872  0.1914 -0.5902  0.1706
   61TMC2     H  952   3.421   1.883  15.102 -0.6403 -0.1145  0.0662
   61TMC2    H1  953   3.457   2.311  15.021 -0.3091  0.1550 -1.1155
   61TMC2    H2  954   3.298   2.164  15.391  0.7886  1.2777  0.8834
   61TMC2    C7  955   3.358   2.380  15.244  0.4866  0.0197 -0.2754
   61TMC2    C8  956   3.290   1.917  15.307  0.8574 -0.4702 -0.0460
   61TMC2    O1  957   3.430   2.457  15.186 -0.1920  0.0143 -0.3516
   61TMC2    O2  958   3.307   1.889  15.426 -0.1534 -0.0186  0.1836
   61TMC2    O5  959   3.205   1.857  15.222  0.4473  0.1730 -0.1221
   61TMC2    H5  960   3.202   1.906  15.136 -1.9658  0.4966  0.1573
   62MPD2     C  961   3.428   2.088  14.606 -0.5160  0.7017 -0.1137
   62MPD2    C1  962   3.437   2.193  14.691  1.1375 -0.7172 -0.5448
   62MPD2    C2  963   3.447   2.322  14.634 -0.6321 -0.6778  0.7321
   62MPD2    C3  964   3.448   2.347  14.497  0.4718  0.7868  0.8813
   62MPD2    C4  965   3.441   2.242  14.413 -0.0366 -0.4195  0.7187
   62MPD2    C5  966   3.436   2.119  14.469 -0.5490  0.0969  0.0118
   62MPD2     H  967   3.449   2.407  14.700 -0.4723  1.2806 -1.7763
   62MPD2    H1  968   3.436   2.254  14.305  1.3018 -0.0758  0.6953
   62MPD2    H2  969   3.431   1.985  14.638 -0.6371 -0.0046 -2.4101
   62MPD2    H3  970   3.418   2.040  14.396 -2.1645  1.0374 -0.6026
   62MPD2     N  971   3.443   2.483  14.460  0.5254 -0.3927 -0.0942
   62MPD2    H5  972   3.424   2.544  14.539  2.9124 -1.2670  1.1383
   62MPD2    N1  973   3.453   2.179  14.828 -0.5468 -0.2125 -0.0578
   62MPD2    H7  974   3.480   2.263  14.877  1.7935 -1.7168  1.2818
   63TMC2    C1  975   2.797   2.663  10.228  0.4576 -0.7132 -0.3290
   63TMC2    C2  976   2.915   2.625  10.286  0.5554  0.2242 -0.4827
   63TMC2    C3  977   3.026   2.655  10.210  0.5594 -0.3429  0.0191
   63TMC2    C4  978   2.790   2.739  10.108 -0.3076  0.0445 -0.2155
   63TMC2    C5  979   2.909   2.769  10.038 -0.3755 -0.2041  0.5785
   63TMC2    C6  980   3.032   2.731  10.095 -0.0138 -0.6781  0.7524
   63TMC2     C  981   2.667   2.659  10.296 -0.3445  0.0433  0.5911
   63TMC2     O  982   2.577   2.734  10.257  0.1612 -0.1976 -0.0054
   63TMC2     H  983   2.923   2.585  10.386 -0.3820 -1.7719 -1.2021
   63TMC2    H1  984   2.693   2.759  10.062 -1.4099 -0.0710  2.0745
   63TMC2    H2  985   3.128   2.772  10.064 -0.2340  0.3545  1.4385
   63TMC2    C7  986   2.913   2.892   9.957  1.2325  0.5146  0.5687
   63TMC2    C8  987   3.157   2.629  10.279  0.2342 -0.6813  0.7910
   63TMC2    O1  988   3.015   2.944   9.927  0.3344 -0.0532 -0.2226
   63TMC2    O2  989   3.162   2.608  10.399 -0.2261  0.2601 -0.4566
   63TMC2    O5  990   3.250   2.587  10.189 -0.2774  0.6050  0.1802
   63TMC2    H5  991   3.219   2.595  10.096 -0.8340 -1.9680  0.1447
   64MPD2     C  992   2.325   2.435  10.609  0.2751  0.3132 -0.4652
   64MPD2    C1  993   2.449   2.376  10.620  0.0891  0.3671  0.6264
   64MPD2    C2  994   2.559   2.429  10.559  0.0835  0.4005  0.0209
   64MPD2    C3  995   2.544   2.534  10.468 -0.6234  0.7842 -0.0770
   64MPD2    C4  996   2.416   2.584  10.437 -0.1964 -0.8465 -0.3533
   64MPD2    C5  997   2.313   2.536  10.518  0.8207  0.2773  0.2602
   64MPD2     H  998   2.652   2.384  10.591  0.4734  1.0402 -0.2271
   64MPD2    H1  999   2.393   2.672  10.378  0.5433 -0.2189  0.3001
   64MPD2    H2 1000   2.236   2.407  10.664  1.1652 -0.2852  0.6679
   64MPD2    H3 1001   2.218   2.587  10.503  0.3237 -0.5230  0.6978
   64MPD2     N 1002   2.664   2.577  10.406 -0.3419 -0.0496 -0.0183
   64MPD2    H5 1003   2.753   2.548  10.445  0.2907  0.5410 -1.0324
   64MPD2    N1 1004   2.467   2.267  10.701 -0.3941  0.1181  0.1651
   64MPD2    H7 1005   2.562   2.235  10.718 -0.5200  0.7802  2.1418
   65TMC2    C1 1006   3.980   1.667  15.307 -0.6530  0.1423  0.1438
   65TMC2    C2 1007   3.978   1.585  15.196  0.5072  0.0164 -0.3946
   65TMC2    C3 1008   3.916   1.635  15.089  0.9053  0.5792 -0.0587
   65TMC2    C4 1009   3.907   1.779  15.318  0.5839  0.2559  0.0813
   65TMC2    C5 1010   3.831   1.816  15.212 -0.4596 -0.3176 -0.6871
   65TMC2    C6 1011   3.830   1.742  15.097 -0.0728  0.2850  0.1248
   65TMC2     C 1012   3.980   1.601  15.432 -0.2268  0.7445  0.8956
   65TMC2     O 1013   4.016   1.662  15.532  0.5303  0.2866  0.4381
   65TMC2     H 1014   4.053   1.508  15.181 -0.1139 -0.8424  0.9296
   65TMC2    H1 1015   3.906   1.823  15.417  0.0111 -1.8128  0.9917
   65TMC2    H2 1016   3.766   1.778  15.017 -0.1155  2.1757  1.0160
   65TMC2    C7 1017   3.762   1.936  15.218  0.3339  0.5854 -0.9493
   65TMC2    C8 1018   3.907   1.548  14.969 -0.5474 -0.3206 -0.2472
   65TMC2    O1 1019   3.744   1.998  15.117  0.0713 -0.5636  0.0860
   65TMC2    O2 1020   3.919   1.428  14.983  0.0248  0.2421 -0.0851
   65TMC2    O5 1021   3.900   1.617  14.858 -0.4368  0.4612  0.0067
   65TMC2    H5 1022   3.911   1.714  14.863  2.3532  0.1415  0.3819
   66MPD2     C 1023   3.953   1.381  15.644 -0.1469 -0.5186  0.3882
   66MPD2    C1 1024   3.905   1.377  15.514 -0.2160 -0.3073  0.1763
   66MPD2    C2 1025   3.822   1.271  15.477 -0.0156  0.2302  0.6716
   66MPD2    C3 1026   3.782   1.172  15.562  1.1240 -0.0987  0.1920
   66MPD2    C4 1027   3.829   1.180  15.694 -0.0852 -0.1348 -0.3304
   66MPD2    C5 1028   3.914   1.282  15.734  0.1698 -0.2731 -0.1507
   66MPD2     H 1029   3.771   1.274  15.382  1.3938 -3.0931 -0.1932
   66MPD2    H1 1030   3.798   1.113  15.773 -0.2711 -0.4735 -0.6878
   66MPD2    H2 1031   4.023   1.460  15.669  0.2452 -1.3778  2.0516
   66MPD2    H3 1032   3.941   1.288  15.838  1.2118  0.3107 -0.4567
   66MPD2     N 1033   3.700   1.062  15.524  0.2013  0.2730  0.3216
   66MPD2    H5 1034   3.689   0.990  15.595 -0.4323  0.9222  0.8781
   66MPD2    N1 1035   3.921   1.475  15.419  0.0574  0.5913  0.7645
   66MPD2    H7 1036   3.871   1.456  15.333  4.4688 -0.8060 -1.5234
   67TMC2    C1 1037   4.105   1.084  14.243 -0.3384  0.2162  0.2536
   67TMC2    C2 1038   4.047   1.204  14.279 -0.3773 -0.2289  0.0319
   67TMC2    C3 1039   4.124   1.284  14.354  0.5256 -0.3604 -0.1842
   67TMC2    C4 1040   4.233   1.043  14.286  0.1575  0.1821  0.4955
   67TMC2    C5 1041   4.302   1.132  14.366 -0.5513  0.4934  0.1419
   67TMC2    C6 1042   4.243   1.248  14.410 -0.0401  0.3611 -0.3281
   67TMC2     C 1043   4.045   0.995  14.143  0.0980 -0.1470 -1.0073
   67TMC2     O 1044   4.096   0.882  14.135  0.0646  0.0952  0.6542
   67TMC2     H 1045   3.946   1.232  14.250 -0.7629 -0.5866  1.0191
   67TMC2    H1 1046   4.275   0.948  14.256 -1.7892 -0.0963 -1.3132
   67TMC2    H2 1047   4.296   1.321  14.470 -1.2030 -1.7798  3.2573
   67TMC2    C7 1048   4.415   1.077  14.441 -0.7976 -0.0469  0.9997
   67TMC2    C8 1049   4.068   1.398  14.416  0.6779 -0.0512  0.0843
   67TMC2    O1 1050   4.514   1.026  14.390 -0.4733 -0.4315  0.6870
   67TMC2    O2 1051   4.122   1.455  14.512  0.0860  0.0755  0.3242
   67TMC2    O5 1052   3.976   1.451  14.338 -0.3828 -0.0617  0.0837
   67TMC2    H5 1053   3.953   1.405  14.255 -1.1544  1.7100 -0.6785
   68MPD2     C 1054   3.888   0.863  13.915  0.1376  0.1173 -0.1006
   68MPD2    C1 1055   3.845   0.970  13.993  0.1527  0.4052  0.4137
   68MPD2    C2 1056   3.732   1.031  13.958 -0.1400 -0.5214  0.6454
   68MPD2    C3 1057   3.648   0.984  13.855 -0.4732  0.1230  0.3236
   68MPD2    C4 1058   3.687   0.867  13.785  0.5698  0.7127 -0.2139
   68MPD2    C5 1059   3.813   0.819  13.812  0.4139  0.1338  0.2550
   68MPD2     H 1060   3.709   1.122  14.013 -0.8387  1.1391 -2.4241
   68MPD2    H1 1061   3.621   0.830  13.708 -1.1112  3.3175 -0.0519
   68MPD2    H2 1062   3.980   0.814  13.944  0.2447 -0.6534 -1.7737
   68MPD2    H3 1063   3.840   0.728  13.759  0.4648 -0.0467  0.5867
   68MPD2     N 1064   3.527   1.052  13.823  0.3650  0.2058  0.2506
   68MPD2    H5 1065   3.478   1.020  13.740  0.4238 -0.0197  0.3028
   68MPD2    N1 1066   3.922   1.035  14.098  0.5329 -0.7722  0.5136
   68MPD2    H7 1067   3.880   1.118  14.137  2.1032  1.6382 -2.9586
   69TMC2    C1 1068   1.608   2.629  12.481 -0.2882  0.3172  0.0478
   69TMC2    C2 1069   1.500   2.688  12.418  0.2231 -0.1792  0.1179
   69TMC2    C3 1070   1.512   2.714  12.289  0.2835 -0.5993 -0.2731
   69TMC2    C4 1071   1.724   2.603  12.419  0.4336 -1.0561  0.1067
   69TMC2    C5 1072   1.732   2.632  12.287  0.1967  0.4806  0.1945
   69TMC2    C6 1073   1.624   2.689  12.213  0.0982 -0.1031  0.4939
   69TMC2     C 1074   1.590   2.586  12.619 -0.0705  0.1276  0.2940
   69TMC2     O 1075   1.475   2.561  12.652  0.6002  0.3108 -1.0560
   69TMC2     H 1076   1.410   2.698  12.477 -0.5319  3.2350 -1.5585
   69TMC2    H1 1077   1.803   2.565  12.483 -0.0214 -0.3351  1.0883
   69TMC2    H2 1078   1.637   2.735  12.116 -0.7164 -1.5327 -0.2976
   69TMC2    C7 1079   1.864   2.628  12.224 -0.1119 -0.6189 -0.6630
   69TMC2    C8 1080   1.400   2.744  12.211  0.2074 -0.4683  0.1480
   69TMC2    O1 1081   1.864   2.632  12.100  0.4240  0.2139  0.0481
   69TMC2    O2 1082   1.405   2.779  12.097  0.4517 -0.2438 -0.1470
   69TMC2    O5 1083   1.310   2.781  12.300  0.2521 -0.2068  0.2847
   69TMC2    H5 1084   1.222   2.811  12.269  0.0221 -2.0737 -0.8840
   70MPD2     C 1085   1.813   2.528  12.892 -0.0497  0.2659  0.0880
   70MPD2    C1 1086   1.690   2.540  12.837 -0.0851 -0.2748  0.0701
   70MPD2    C2 1087   1.575   2.502  12.908  0.6155  0.0772 -0.0389
   70MPD2    C3 1088   1.586   2.457  13.037  0.2637  0.3663 -0.2121
   70MPD2    C4 1089   1.717   2.440  13.094  0.4238 -0.1967 -0.1306
   70MPD2    C5 1090   1.825   2.481  13.019  0.0966 -0.7718  0.1732
   70MPD2     H 1091   1.474   2.516  12.874 -0.0887 -0.5712  1.7810
   70MPD2    H1 1092   1.732   2.415  13.198 -1.0967  0.6026  0.2794
   70MPD2    H2 1093   1.901   2.567  12.842 -0.0879  0.8642  0.4860
   70MPD2    H3 1094   1.918   2.496  13.073 -0.0476  0.5344  0.0588
   70MPD2     N 1095   1.473   2.405  13.108  0.2363  0.6406 -0.8293
   70MPD2    H5 1096   1.482   2.358  13.197 -2.8018  1.7618  0.1094
   70MPD2    N1 1097   1.696   2.580  12.706 -0.3474 -0.3316  0.5166
   70MPD2    H7 1098   1.785   2.613  12.668 -1.5270  0.8257 -1.2448
   71TMC2    C1 1099   3.490   3.483   1.510  0.4345  0.1131 -0.6049
   71TMC2    C2 1100   3.564   3.590   1.562 -0.4197  0.7424  0.1649
   71TMC2    C3 1101   3.535   3.631   1.696  0.4865  0.8371  0.1627
   71TMC2    C4 1102   3.365   3.448   1.564 -0.5531  0.5946  0.2688
   71TMC2    C5 1103   3.335   3.497   1.696  0.3335  0.1071  0.3392
   71TMC2    C6 1104   3.420   3.580   1.762 -0.5789 -0.2360  0.3442
   71TMC2     C 1105   3.556   3.413   1.401  0.2168 -0.0860 -0.2329
   71TMC2     O 1106   3.632   3.477   1.331  0.3280 -0.1773 -0.1192
   71TMC2     H 1107   3.655   3.622   1.513  0.3792  0.1072  1.2284
   71TMC2    H1 1108   3.310   3.372   1.508  0.5263 -0.4732  0.6483
   71TMC2    H2 1109   3.397   3.608   1.864  1.5044 -0.0503  0.7658
   71TMC2    C7 1110   3.202   3.502   1.743  0.6508  0.9477  0.0734
   71TMC2    C8 1111   3.632   3.710   1.762  0.0501  0.3998 -0.2117
   71TMC2    O1 1112   3.178   3.588   1.825  0.0887  0.3084  0.0035
   71TMC2    O2 1113   3.752   3.706   1.737  0.4090 -0.2157 -0.2672
   71TMC2    O5 1114   3.571   3.794   1.853 -0.1957 -0.1014 -0.0047
   71TMC2    H5 1115   3.474   3.782   1.845  0.1219 -3.2914  1.1171
   72MPD2     C 1116   3.614   3.042   1.078  0.3173  0.4620  0.3784
   72MPD2    C1 1117   3.626   3.175   1.057 -0.5343  0.1436 -0.2687
   72MPD2    C2 1118   3.584   3.259   1.161 -0.7612 -0.1880  0.7701
   72MPD2    C3 1119   3.540   3.208   1.281  0.4723  0.7372 -0.0735
   72MPD2    C4 1120   3.531   3.072   1.300 -0.1055  0.0566 -0.7560
   72MPD2    C5 1121   3.569   2.992   1.196 -0.0337 -0.3642 -0.2163
   72MPD2     H 1122   3.576   3.365   1.143  2.1591 -0.0965  0.1647
   72MPD2    H1 1123   3.493   3.024   1.389  0.1209  0.6716 -0.3304
   72MPD2    H2 1124   3.637   2.965   1.005 -1.6634  0.7648 -0.5633
   72MPD2    H3 1125   3.548   2.886   1.208  1.8004 -0.5933  0.9962
   72MPD2     N 1126   3.514   3.284   1.392  0.8220 -0.0840 -0.1264
   72MPD2    H5 1127   3.457   3.251   1.469  1.1373 -2.4294 -0.9102
   72MPD2    N1 1128   3.681   3.229   0.931 -0.4503 -0.0077  0.0637
   72MPD2    H7 1129   3.686   3.330   0.930 -1.3340  0.0395  0.1934
   73TMC2    C1 1130   3.370   4.494  13.615 -0.9433  0.8922 -1.3551
   73TMC2    C2 1131   3.295   4.501  13.733 -0.2626  0.4894 -0.3346
   73TMC2    C3 1132   3.356   4.537  13.845 -0.1887  0.2560  0.3004
   73TMC2    C4 1133   3.505   4.530  13.614 -0.0440  0.1200  0.7809
   73TMC2    C5 1134   3.560   4.574  13.730  0.8341  0.0929  0.3408
   73TMC2    C6 1135   3.491   4.577  13.846 -0.0962 -0.2470  0.3879
   73TMC2     C 1136   3.311   4.570  13.503  0.9960  0.1524 -0.0833
   73TMC2     O 1137   3.362   4.681  13.496 -0.1227  0.2250 -0.0555
   73TMC2     H 1138   3.200   4.450  13.742 -0.7796  1.2390 -1.6417
   73TMC2    H1 1139   3.558   4.497  13.525  0.8625 -1.8754  2.0451
   73TMC2    H2 1140   3.546   4.613  13.933 -0.5907 -0.4255  0.7709
   73TMC2    C7 1141   3.661   4.678  13.718 -0.2499 -0.1230 -0.1256
   73TMC2    C8 1142   3.289   4.513  13.974  0.4029  0.0788  0.4579
   73TMC2    O1 1143   3.771   4.667  13.767  0.4015  0.5258 -0.4228
   73TMC2    O2 1144   3.347   4.493  14.081  0.7283 -0.5143  0.0812
   73TMC2    O5 1145   3.183   4.590  13.962 -0.4236  0.6053  0.4617
   73TMC2    H5 1146   3.157   4.614  13.870  0.1073  1.4979  0.5395
   74MPD2     C 1147   3.101   4.616  13.056 -0.1165 -0.3578  0.5151
   74MPD2    C1 1148   3.173   4.705  13.131  0.5566 -0.3986 -1.0907
   74MPD2    C2 1149   3.192   4.666  13.259 -0.1728  0.2720 -0.1230
   74MPD2    C3 1150   3.158   4.541  13.306 -0.0384  0.3226  0.4114
   74MPD2    C4 1151   3.091   4.451  13.228  0.2866  0.7486  0.1179
   74MPD2    C5 1152   3.070   4.491  13.097 -0.0058  0.3079 -0.0666
   74MPD2     H 1153   3.230   0.004  13.325  3.1320 -1.5304  0.0764
   74MPD2    H1 1154   3.055   4.354  13.261  0.8280  0.2826 -0.6433
   74MPD2    H2 1155   3.064   4.635  12.956  0.0971 -3.0890 -0.0806
   74MPD2    H3 1156   3.016   4.425  13.031  0.2670 -0.3075  0.3252
   74MPD2     N 1157   3.217   4.500  13.428  0.3249 -0.5205 -0.0054
   74MPD2    H5 1158   3.199   4.403  13.452  2.1471 -1.2018 -1.3853
   74MPD2    N1 1159   3.207   0.090  13.078 -0.1116 -0.2059 -0.3390
   74MPD2    H7 1160   3.177   0.114  12.984 -2.8195  0.4574  0.7028
   75TMC2    C1 1161   3.352   1.215  13.850  0.4574  0.3050  0.1985
   75TMC2    C2 1162   3.266   1.275  13.937  0.8093  0.0500 -0.5959
   75TMC2    C3 1163   3.149   1.332  13.886  0.2726  0.2868 -0.1289
   75TMC2    C4 1164   3.338   1.216  13.713 -0.5907 -0.4216 -0.0138
   75TMC2    C5 1165   3.225   1.287  13.670 -0.2391 -0.0119  0.2219
   75TMC2    C6 1166   3.132   1.349  13.758 -0.7015  0.1572 -0.4028
   75TMC2     C 1167   3.460   1.133  13.914  0.0907  0.2420 -0.7649
   75TMC2     O 1168   3.474   1.133  14.037  0.1088 -0.0071  0.0079
   75TMC2     H 1169   3.273   1.242  14.040 -0.2488  2.3407  0.2084
   75TMC2    H1 1170   3.408   1.170  13.644  0.8486  0.6723  0.6978
   75TMC2    H2 1171   3.031   1.370  13.723 -0.8943  1.8177  1.1655
   75TMC2    C7 1172   3.207   1.315  13.530  1.0021  0.5241  0.5654
   75TMC2    C8 1173   3.067   1.405  13.982 -0.0319  0.2323 -0.0504
   75TMC2    O1 1174   3.237   1.229  13.449 -0.0406 -0.2132  0.0583
   75TMC2    O2 1175   3.044   1.366  14.094 -0.0619  0.1874  0.2530
   75TMC2    O5 1176   3.064   1.528  13.936 -0.5369  0.6552 -0.0011
   75TMC2    H5 1177   3.113   1.545  13.853  0.3497  0.5333  0.5007
   76TMC2    C1 1178   2.476   1.639  12.078  0.1154 -0.2539 -0.4243
   76TMC2    C2 1179   2.341   1.619  12.116  0.4127  0.0308 -0.3864
   76TMC2    C3 1180   2.308   1.498  12.169 -0.0933  0.0322 -0.7738
   76TMC2    C4 1181   2.574   1.550  12.103 -0.2616 -0.1878  0.5072
   76TMC2    C5 1182   2.531   1.429  12.149 -0.2603  0.5933  0.1709
   76TMC2    C6 1183   2.400   1.398  12.184  0.1719 -0.6768  0.3756
   76TMC2     C 1184   2.497   1.761  12.011  0.4893  0.8706  0.4481
   76TMC2     O 1185   2.401   1.831  11.988 -0.5009  0.1413 -0.0695
   76TMC2     H 1186   2.274   1.704  12.116  0.7795  0.3225 -0.0834
   76TMC2    H1 1187   2.673   1.565  12.061 -0.5126  0.7410  0.2466
   76TMC2    H2 1188   2.373   1.303  12.229 -1.5560 -0.0476  0.6379
   76TMC2    C7 1189   2.631   1.343  12.198 -0.1407  0.2339  0.6587
   76TMC2    C8 1190   2.167   1.486  12.191 -0.1878  0.0049 -0.0438
   76TMC2    O1 1191   2.606   1.223  12.191  0.3604  0.1993  0.4219
   76TMC2    O2 1192   2.081   1.567  12.164 -0.3837  0.2905  0.5355
   76TMC2    O5 1193   2.133   1.359  12.204  0.0784  0.5102  0.6131
   76TMC2    H5 1194   2.212   1.301  12.205 -0.4165 -0.2130 -1.6688
   77MPD2     C 1195   2.770   2.061  11.689  0.3933 -0.6305  0.0830
   77MPD2    C1 1196   2.649   2.077  11.743  1.2168  0.7712 -0.7881
   77MPD2    C2 1197   2.602   1.992  11.841 -0.3937  0.2608 -1.2622
   77MPD2    C3 1198   2.669   1.876  11.877  0.1332 -0.3423  0.8257
   77MPD2    C4 1199   2.802   1.879  11.838 -0.4747  0.2806 -0.2034
   77MPD2    C5 1200   2.853   1.961  11.739  0.2306 -0.3053 -0.1118
   77MPD2     H 1201   2.501   2.009  11.877  0.2127  2.0985 -0.4671
   77MPD2    H1 1202   2.860   1.797  11.878 -1.0546  0.1858  0.4425
   77MPD2    H2 1203   2.814   2.123  11.612 -2.2959  0.6204 -0.4639
   77MPD2    H3 1204   2.950   1.938  11.698 -1.1073 -2.2266 -2.1503
   77MPD2     N 1205   2.627   1.775  11.958  0.5107 -0.1203 -0.1632
   77MPD2    H5 1206   2.698   1.706  11.980  1.0380  0.1524 -1.0486
   77MPD2    N1 1207   2.563   2.185  11.718 -0.1333 -0.4391  0.3644
   77MPD2    H7 1208   2.493   2.201  11.790 -0.5428 -1.9626  0.3056
   78TMC2    C1 1209   4.108   3.313   1.943 -0.2952 -0.0168  0.4455
   78TMC2    C2 1210   3.981   3.355   1.926 -0.1141  0.2649  0.2755
   78TMC2    C3 1211   3.891   3.270   1.857 -0.6440 -0.0369  0.0298
   78TMC2    C4 1212   4.152   3.187   1.919  0.1847  0.9144  0.3098
   78TMC2    C5 1213   4.063   3.108   1.857 -0.1759  0.0222 -0.4273
   78TMC2    C6 1214   3.938   3.147   1.817  0.2520 -0.1782 -0.2353
   78TMC2     C 1215   4.204   3.400   2.005  0.8029  0.2653  0.3336
   78TMC2     O 1216   4.309   3.347   2.043 -0.2906 -0.4290  0.0349
   78TMC2     H 1217   3.956   3.458   1.945 -0.9504  0.5628 -2.4717
   78TMC2    H1 1218   4.247   3.150   1.957 -0.5108 -0.7246  0.4241
   78TMC2    H2 1219   3.889   3.088   1.740 -0.6064 -0.5406  0.5816
   78TMC2    C7 1220   4.121   2.993   1.798 -0.5992 -0.8227  0.0310
   78TMC2    C8 1221   3.791   3.327   1.772  0.2545  0.5425  0.0734
   78TMC2    O1 1222   4.246   2.991   1.797 -0.2956  0.0853  0.1040
   78TMC2    O2 1223   3.754   3.279   1.666  0.3606 -0.3230  0.6274
   78TMC2    O5 1224   3.707   3.394   1.850 -0.5862  0.6148  0.2304
   78TMC2    H5 1225   3.739   3.431   1.936  0.5848 -0.6630  0.3388
   79MPD1     C 1226   4.411   3.868   2.085  0.3605  0.3839 -0.1022
   79MPD1    C1 1227   4.436   3.746   2.139 -0.7964 -0.2373  0.8202
   79MPD1    C2 1228   4.362   3.637   2.101  0.2779 -0.0421  0.0899
   79MPD1    C3 1229   4.265   3.637   2.004 -0.1183 -0.9902  0.3326
   79MPD1    C4 1230   4.245   3.765   1.952  0.4260  0.0698 -0.1445
   79MPD1    C5 1231   4.302   3.876   1.999 -0.1797  0.2987 -0.5744
   79MPD1     H 1232   4.396   3.545   2.146 -1.2648 -0.5971  0.1225
   79MPD1    H1 1233   4.171   3.783   1.875  1.3284 -1.1180 -1.2841
   79MPD1    H2 1234   4.461   3.960   2.115  2.0083  0.4596 -3.0959
   79MPD1    H3 1235   4.265   3.975   1.976 -1.6229  0.4453  2.3984
   79MPD1     N 1236   4.188   3.532   1.960 -0.1196 -0.1287 -0.5839
   79MPD1    H5 1237   4.117   3.554   1.890  0.9768  1.7775 -1.1078
   79MPD1    N1 1238   4.546   3.731   2.224  0.5173 -0.1109 -0.2100
   79MPD1    H6 1239   4.540   3.648   2.282  0.6340 -0.6002 -0.8961
   79MPD1    H7 1240   4.544   3.800   2.299 -1.7121  0.3040 -0.6599
   80TMC2    C1 1241   1.389   1.229  12.088 -1.0503 -0.0452 -0.5856
   80TMC2    C2 1242   1.396   1.214  11.952 -0.4456  0.1652  0.6327
   80TMC2    C3 1243   1.283   1.249  11.886 -0.2491  0.3886  0.6050
   80TMC2    C4 1244   1.281   1.245  12.163 -0.4185 -0.4965 -0.3858
   80TMC2    C5 1245   1.165   1.279  12.086 -0.0332  0.3041  0.9952
   80TMC2    C6 1246   1.162   1.284  11.950 -0.7084 -0.4925 -0.5167
   80TMC2     C 1247   1.522   1.243  12.145  0.1864  0.5333 -0.6663
   80TMC2     O 1248   1.613   1.179  12.101  0.3188  0.8322  0.3635
   80TMC2     H 1249   1.476   1.169  11.895 -0.6908  2.5610 -1.6260
   80TMC2    H1 1250   1.285   1.239  12.271  3.5001 -0.7658 -0.5515
   80TMC2    H2 1251   1.071   1.308  11.895 -0.6176  0.8094 -0.1090
   80TMC2    C7 1252   1.045   1.320  12.162  0.1822  0.0342  0.5762
   80TMC2    C8 1253   1.268   1.240  11.740 -0.2325 -0.3411  0.0529
   80TMC2    O1 1254   0.943   1.349  12.098  0.3641  0.1161  0.0324
   80TMC2    O2 1255   1.160   1.244  11.674 -0.3424 -0.3582 -0.2068
   80TMC2    O5 1256   1.389   1.265  11.681 -0.6177  0.2075  0.3577
   80TMC2    H5 1257   1.467   1.286  11.736 -0.0433 -1.0493  0.0407
   81MPD2     C 1258   1.761   1.348  12.291 -0.6115 -0.3163  0.3507
   81MPD2    C1 1259   1.639   1.409  12.289 -0.0847  0.5938 -0.0125
   81MPD2    C2 1260   1.624   1.528  12.355  0.5329  0.1787  0.6699
   81MPD2    C3 1261   1.722   1.575  12.437  0.4641  0.0512 -0.6763
   81MPD2    C4 1262   1.838   1.501  12.445 -0.8636 -0.3619  0.3507
   81MPD2    C5 1263   1.864   1.399  12.368  0.5458  0.4947 -0.5613
   81MPD2     H 1264   1.529   1.575  12.336  0.0614 -1.0211  0.0402
   81MPD2    H1 1265   1.911   1.525  12.522  1.5827 -1.5763 -1.6034
   81MPD2    H2 1266   1.780   1.250  12.250  0.6518  0.0767 -0.0014
   81MPD2    H3 1267   1.960   1.348  12.371 -0.1128 -0.8124 -1.5490
   81MPD2     N 1268   1.708   1.694  12.511 -0.9416 -0.0458  0.2894
   81MPD2    H5 1269   1.781   1.726  12.575  0.0062 -1.4875 -0.0730
   81MPD2    N1 1270   1.523   1.353  12.227  0.2912  0.9535 -0.7869
   81MPD2    H7 1271   1.440   1.411  12.224  1.4878  2.7769  1.2284
   82TMC2    C1 1272   4.387   0.726  10.913 -0.3393 -0.2226 -0.2216
   82TMC2    C2 1273   4.510   0.748  10.965  0.1752  0.0320  0.5532
   82TMC2    C3 1274   4.532   0.699  11.091  0.7800 -0.0351  0.7928
   82TMC2    C4 1275   4.289   0.657  10.982  0.1850 -0.1492 -0.1201
   82TMC2    C5 1276   4.318   0.608  11.108  1.0655 -0.4388  0.0905
   82TMC2    C6 1277   4.438   0.631  11.161 -0.1020  0.4655 -0.0701
   82TMC2     C 1278   4.333   0.820  10.818  0.1491  0.3148  0.3131
   82TMC2     O 1279   4.256   0.778  10.733 -0.0344 -0.2882 -0.4449
   82TMC2     H 1280   4.585   0.795  10.903 -0.4359  0.9791  0.5199
   82TMC2    H1 1281   4.186   0.672  10.952  0.6726  1.1737 -1.1424
   82TMC2    H2 1282   4.454   0.594  11.262  0.2167  0.5476 -0.0900
   82TMC2    C7 1283   4.242   0.496  11.162  0.1585 -0.2474  0.3798
   82TMC2    C8 1284   4.670   0.700  11.133  0.4664 -0.0997 -0.0198
   82TMC2    O1 1285   4.278   0.440  11.269  0.0114 -0.6258 -0.0835
   82TMC2    O2 1286   0.015   0.786  11.109 -0.2074  0.0007  0.0254
   82TMC2    O5 1287   4.695   0.578  11.185 -0.3095  0.6207  0.4028
   82TMC2    H5 1288   4.620   0.517  11.169 -0.1639  0.0581  1.8409
   83MPD2     C 1289   4.329   1.301  10.637 -0.7263 -0.9900 -0.0749
   83MPD2    C1 1290   4.245   1.199  10.619  0.7402 -0.3850  0.0383
   83MPD2    C2 1291   4.273   1.076  10.672  0.1188  0.1897  0.3090
   83MPD2    C3 1292   4.380   1.054  10.748 -0.0166 -0.2317 -0.1963
   83MPD2    C4 1293   4.466   1.158  10.768 -0.0613  0.1345  0.1412
   83MPD2    C5 1294   4.445   1.274  10.703 -0.1456  0.3221  0.2342
   83MPD2     H 1295   4.200   0.995  10.665  2.2783 -1.6995 -0.3336
   83MPD2    H1 1296   4.558   1.156  10.825  0.2132 -0.5964 -0.3222
   83MPD2    H2 1297   4.315   1.402  10.600 -1.3662 -0.8989  0.4189
   83MPD2    H3 1298   4.512   1.358  10.718 -0.0164  0.3561 -0.5289
   83MPD2     N 1299   4.401   0.938  10.825  0.4029 -0.1418 -0.2711
   83MPD2    H5 1300   4.478   0.944  10.891  1.7777  1.8142 -2.0346
   83MPD2    N1 1301   4.119   1.231  10.562 -0.4065  0.1967 -0.0807
   83MPD2    H7 1302   4.107   1.324  10.522 -0.9642 -0.0815 -0.5686
   84TMC2    C1 1303   0.202   0.810  11.420 -0.3743  0.0129  0.5586
   84TMC2    C2 1304   0.203   0.734  11.540  0.0641  0.3608 -0.5462
   84TMC2    C3 1305   0.247   0.607  11.527 -0.0773  0.0232  0.1359
   84TMC2    C4 1306   0.255   0.760  11.300 -0.3366 -0.9933  0.0226
   84TMC2    C5 1307   0.316   0.639  11.302 -0.9359 -0.3309 -1.1640
   84TMC2    C6 1308   0.311   0.557  11.417 -0.2834 -0.5613 -1.0345
   84TMC2     C 1309   0.143   0.942  11.425  0.0098  0.3183 -0.7268
   84TMC2     O 1310   0.120   0.980  11.539  0.1892 -0.5359  0.6540
   84TMC2     H 1311   0.154   0.772  11.629 -2.2131 -1.0754 -1.1784
   84TMC2    H1 1312   0.280   0.821  11.214 -0.2480 -0.1865  0.6217
   84TMC2    H2 1313   0.339   0.452  11.414  0.1915 -0.4200 -1.4624
   84TMC2    C7 1314   0.403   0.605  11.196 -0.5254 -0.0600 -0.2696
   84TMC2    C8 1315   0.251   0.534  11.652  0.4166  0.1404 -0.0254
   84TMC2    O1 1316   0.372   0.656  11.087 -0.3823 -0.2987  0.3486
   84TMC2    O2 1317   0.348   0.459  11.681  0.3161 -0.1752 -0.4247
   84TMC2    O5 1318   0.132   0.551  11.705  0.2175  0.1805 -0.8604
   84TMC2    H5 1319   0.067   0.614  11.667  0.9323  1.2156 -0.3667
   85TMC2    C1 1320   1.705   2.792  15.912  0.0649 -0.1457  0.2969
   85TMC2    C2 1321   1.799   2.720  15.971 -0.1635  0.3749 -0.4819
   85TMC2    C3 1322   1.908   2.780  16.025 -0.0571 -0.1748 -0.1476
   85TMC2    C4 1323   1.708   2.930  15.904 -0.4182 -0.5487  0.7068
   85TMC2    C5 1324   1.822   2.987  15.945 -0.2448 -0.1596  0.1246
   85TMC2    C6 1325   1.919   2.916  16.011  0.4226  0.1321  0.1184
   85TMC2     C 1326   1.602   2.730  15.823  0.0102 -1.0948 -0.3038
   85TMC2     O 1327   1.538   2.806  15.749  0.0614  0.2469  0.1733
   85TMC2     H 1328   1.799   2.612  15.976  1.7472  0.4709  1.8780
   85TMC2    H1 1329   1.633   2.985  15.848 -0.6345 -0.9325  0.6181
   85TMC2    H2 1330   2.001   2.970  16.057  0.5372  0.9453 -1.0547
   85TMC2    C7 1331   1.854   3.119  15.891 -0.3610 -0.2382  0.3001
   85TMC2    C8 1332   1.994   2.702  16.114  0.6957  0.0494  0.5042
   85TMC2    O1 1333   1.969   3.137  15.855  0.0815 -0.1917  0.6748
   85TMC2    O2 1334   1.961   2.590  16.157 -0.0225 -0.1929 -0.6925
   85TMC2    O5 1335   2.110   2.769  16.126 -1.1622 -0.9733 -0.1837
   85TMC2    H5 1336   2.125   2.840  16.060  0.9708 -1.5279 -0.3255
   86MPD2     C 1337   1.209   2.393  15.750 -0.1931 -0.3148 -0.4545
   86MPD2    C1 1338   1.295   2.347  15.837  0.4415  0.2624  0.1252
   86MPD2    C2 1339   1.411   2.407  15.873 -0.6720  0.0571  0.3628
   86MPD2    C3 1340   1.450   2.529  15.807 -1.2040  0.4859 -0.5135
   86MPD2    C4 1341   1.355   2.579  15.716 -0.0048 -0.5201 -0.7687
   86MPD2    C5 1342   1.239   2.512  15.687 -0.1633 -0.3577 -0.1686
   86MPD2     H 1343   1.483   2.370  15.946 -0.3400  2.0157  1.0400
   86MPD2    H1 1344   1.367   2.672  15.661 -0.7266  0.0317  0.0147
   86MPD2    H2 1345   1.115   2.345  15.726  0.2140 -1.4396  0.1826
   86MPD2    H3 1346   1.172   2.547  15.610 -0.9971 -0.9109  0.3115
   86MPD2     N 1347   1.567   2.599  15.853  0.4634 -0.6808 -0.0417
   86MPD2    H5 1348   1.621   2.558  15.928  0.8927 -0.0734 -0.0240
   86MPD2    N1 1349   1.272   2.220  15.898 -0.5828 -0.6387 -0.1100
   86MPD2    H7 1350   1.358   2.181  15.935  0.4852 -0.6671 -2.5632
   87TMC2    C1 1351   3.553   0.894  17.705 -0.5290 -0.6091 -0.3468
   87TMC2    C2 1352   3.610   0.978  17.610 -0.2664 -0.2669 -0.3081
   87TMC2    C3 1353   3.539   1.092  17.578  0.6450 -0.2747 -1.2279
   87TMC2    C4 1354   3.434   0.925   0.010 -0.5172 -0.8100 -0.4669
   87TMC2    C5 1355   3.367   1.036  17.725  0.2136 -0.7326  0.2300
   87TMC2    C6 1356   3.413   1.121  17.630  0.7391 -0.1484  0.5172
   87TMC2     C 1357   3.622   0.769  17.729 -0.0737 -0.1739 -0.2710
   87TMC2     O 1358   3.704   0.736  17.644 -0.0977  0.0745  0.2611
   87TMC2     H 1359   3.698   0.948  17.555  0.6876  1.1757  0.4385
   87TMC2    H1 1360   3.380   0.867   0.084  2.4662  0.2829  2.5706
   87TMC2    H2 1361   3.364   1.215  17.608  1.2132 -0.2725 -1.0535
   87TMC2    C7 1362   3.248   1.079   0.045  0.7166  0.1735  0.1772
   87TMC2    C8 1363   3.603   1.182  17.489 -0.2154  0.2056 -0.3636
   87TMC2    O1 1364   3.218   1.200   0.040  0.0242 -0.6352 -0.0291
   87TMC2    O2 1365   3.719   1.180  17.451 -0.2002  0.0061  0.8747
   87TMC2    O5 1366   3.498   1.228  17.410 -0.5024 -0.1178  1.1144
   87TMC2    H5 1367   3.403   1.215  17.432 -0.7076 -1.4445 -0.5049
   88MPD2     C 1368   2.973   0.900   0.201  0.5752 -0.5127  0.6482
   88MPD2    C1 1369   3.061   1.002   0.191 -0.0403  0.7273  0.1863
   88MPD2    C2 1370   3.032   1.127   0.240 -0.3943  0.7106 -0.1426
   88MPD2    C3 1371   2.911   1.151   0.308  0.6839  0.2881  0.1094
   88MPD2    C4 1372   2.839   1.037   0.342  0.1140 -0.5662  0.3517
   88MPD2    C5 1373   2.867   0.918   0.278  0.2311 -0.1860 -0.3514
   88MPD2     H 1374   3.107   1.205   0.235  0.9298 -0.7785 -3.3283
   88MPD2    H1 1375   2.754   1.048   0.407 -1.2814 -1.4217 -1.3238
   88MPD2    H2 1376   3.000   0.810   0.147  1.4932  0.2237 -0.1212
   88MPD2    H3 1377   2.811   0.831   0.309  0.8069 -0.3957  0.1220
   88MPD2     N 1378   2.863   1.273   0.353  0.3294 -0.8892 -0.3041
   88MPD2    H5 1379   2.779   1.273   0.409  0.8637  0.4162  0.5047
   88MPD2    N1 1380   3.177   0.982   0.109 -0.0479  0.3391 -0.4214
   88MPD2    H7 1381   3.204   0.890   0.076 -0.2169 -0.3562  1.3542
   89TMC2    C1 1382   0.478   4.153   1.658 -0.1240 -0.0297  0.0938
   89TMC2    C2 1383   0.482   4.020   1.696  0.5816  0.0782  0.6658
   89TMC2    C3 1384   0.603   3.958   1.675  0.1766  0.0817  0.8747
   89TMC2    C4 1385   0.584   4.224   1.609 -0.9878 -0.1880  0.6129
   89TMC2    C5 1386   0.697   4.153   1.576 -0.0123  0.0967  0.0318
   89TMC2    C6 1387   0.711   4.017   1.612  0.3441  0.1247  0.0973
   89TMC2     C 1388   0.355   4.228   1.676 -0.4187 -0.4839  0.0924
   89TMC2     O 1389   0.347   4.348   1.655  0.1524 -0.6141 -0.1750
   89TMC2     H 1390   0.401   3.957   1.732  0.0461 -0.4917 -1.5587
   89TMC2    H1 1391   0.570   4.324   1.571 -2.6948 -1.7749 -2.9846
   89TMC2    H2 1392   0.797   3.958   1.582  1.2380  1.0038  0.9488
   89TMC2    C7 1393   0.784   4.196   1.465  0.4415  0.0618 -0.1449
   89TMC2    C8 1394   0.610   3.820   1.715  0.5268 -0.1178  0.0796
   89TMC2    O1 1395   0.839   4.111   1.400 -0.3364  0.1857 -0.6431
   89TMC2    O2 1396   0.685   3.744   1.661 -0.0439 -0.3021 -0.4519
   89TMC2    O5 1397   0.580   3.810   1.846  0.3094  0.3019  0.9167
   89TMC2    H5 1398   0.527   3.887   1.875 -1.5656 -0.5940 -0.1516
   90MPD2     C 1399   4.600   4.143   1.751  0.3377 -0.0784 -0.2566
   90MPD2    C1 1400   4.668   4.036   1.805  0.2563  0.4839 -0.5146
   90MPD2    C2 1401   0.069   4.055   1.806 -0.1238 -0.6273  0.6153
   90MPD2    C3 1402   0.129   4.171   1.762 -0.0086  0.4156  0.3705
   90MPD2    C4 1403   0.054   4.276   1.713  0.6658  0.4115 -0.0372
   90MPD2    C5 1404   4.655   4.264   1.711  1.0090  0.1588  0.6026
   90MPD2     H 1405   0.136   3.973   1.831 -0.5764 -1.1769  0.0240
   90MPD2    H1 1406   0.106   4.360   1.669  3.3125 -1.1562  0.1609
   90MPD2    H2 1407   4.494   4.129   1.732  0.2413  1.3125 -0.7002
   90MPD2    H3 1408   4.589   4.338   1.667 -2.5928 -3.3603  0.1431
   90MPD2     N 1409   0.270   4.155   1.756 -0.2632 -0.4853  0.2529
   90MPD2    H5 1410   0.312   4.081   1.813 -0.7843 -1.0345 -0.0795
   90MPD2    N1 1411   4.604   3.912   1.839 -0.2860  0.6167 -0.1427
   90MPD2    H7 1412   4.503   3.907   1.836 -0.3052  0.4339  0.7690
   91TMC2    C1 1413   1.352   3.886  15.823 -0.1689 -0.9250  0.1235
   91TMC2    C2 1414   1.428   3.903  15.935 -0.1081  0.7436 -0.4508
   91TMC2    C3 1415   1.365   3.883  16.055  0.2833 -0.3254 -0.0833
   91TMC2    C4 1416   1.221   3.849  15.821 -0.0688 -0.2838 -0.2941
   91TMC2    C5 1417   1.160   3.845  15.943  0.0336  0.2186  0.8168
   91TMC2    C6 1418   1.228   3.857  16.056  0.0940  0.4753  0.1263
   91TMC2     C 1419   1.419   3.899  15.694 -0.6584  0.7147 -0.7159
   91TMC2     O 1420   1.350   3.939  15.599 -0.1063  0.2751  0.1241
   91TMC2     H 1421   1.532   3.930  15.943 -0.1435  0.2557  1.5908
   91TMC2    H1 1422   1.165   3.842  15.729  1.9431  1.6737 -1.6619
   91TMC2    H2 1423   1.171   3.864  16.148 -0.5025 -0.9925 -0.1356
   91TMC2    C7 1424   1.043   3.756  15.965  0.0857 -0.1555 -0.3355
   91TMC2    C8 1425   1.432   3.895  16.186  0.1625 -0.7312 -0.7767
   91TMC2    O1 1426   1.020   3.708  16.077 -0.3110  0.0119 -0.2291
   91TMC2    O2 1427   1.381   3.909  16.297  0.4628  0.2241  0.5326
   91TMC2    O5 1428   1.555   3.837  16.171 -0.3703  0.2481 -0.1928
   91TMC2    H5 1429   1.578   3.827  16.076 -1.4121 -0.2134 -0.4037
   92MPD2     C 1430   1.631   3.945  15.482  0.2343 -0.2267 -0.0314
   92MPD2    C1 1431   1.655   3.880  15.602  0.1406  0.0389  0.1784
   92MPD2    C2 1432   1.773   3.816  15.621 -0.1043  0.3473 -0.1115
   92MPD2    C3 1433   1.876   3.811  15.527 -0.7386 -0.4186 -0.4013
   92MPD2    C4 1434   1.854   3.891  15.415  0.4679 -0.2860  0.2142
   92MPD2    C5 1435   1.739   3.958  15.401 -0.1799  0.3226 -0.6911
   92MPD2     H 1436   1.793   3.761  15.712 -0.4844 -0.7440 -0.6885
   92MPD2    H1 1437   1.920   3.897  15.329 -0.4857 -2.3212 -0.6743
   92MPD2    H2 1438   1.533   3.984  15.455 -0.3428 -0.5565  1.6131
   92MPD2    H3 1439   1.734   4.011  15.307  0.3020 -0.5492 -1.1985
   92MPD2     N 1440   1.991   3.738  15.565 -1.1415  0.1473 -0.5270
   92MPD2    H5 1441   1.990   3.677  15.646 -1.5623  1.4027  0.4183
   92MPD2    N1 1442   1.551   3.867  15.704  0.8785  0.4017  0.3918
   92MPD2    H7 1443   1.572   3.823  15.793  1.6483 -0.9363 -0.4439
   93TMC2    C1 1444   3.650   3.706  13.925 -0.0669 -0.3567  0.3142
   93TMC2    C2 1445   3.590   3.729  14.055 -0.1398 -0.4859 -0.2973
   93TMC2    C3 1446   3.676   3.752  14.161 -0.1304  0.0491 -0.2149
   93TMC2    C4 1447   3.789   3.720  13.918 -0.2140 -0.2311  0.2711
   93TMC2    C5 1448   3.862   3.770  14.024  0.0463  0.5241  0.2709
   93TMC2    C6 1449   3.814   3.778  14.151 -0.0912 -0.2443  0.3721
   93TMC2     C 1450   3.583   3.767  13.810 -0.5420  0.1921 -0.2129
   93TMC2     O 1451   3.647   3.812  13.714 -0.3504  0.9279 -0.7100
   93TMC2     H 1452   3.486   3.718  14.080  0.3625  0.8388  2.4176
   93TMC2    H1 1453   3.840   3.717  13.823 -0.4764 -1.7256  0.1744
   93TMC2    H2 1454   3.883   3.786  14.234  0.2514 -0.0617  0.0754
   93TMC2    C7 1455   3.993   3.834  13.996  0.4618 -0.4712  0.0253
   93TMC2    C8 1456   3.624   3.772  14.295 -0.1046 -0.5589 -0.1717
   93TMC2    O1 1457   4.068   3.777  13.915 -0.7049  0.3237  0.1731
   93TMC2    O2 1458   3.529   3.719  14.354  0.5140 -0.0742  0.0379
   93TMC2    O5 1459   3.654   3.902  14.310  0.4302 -0.1028  0.1241
   93TMC2    H5 1460   3.719   3.939  14.246 -0.9426  1.5760 -0.2966
   94MPD2     C 1461   3.398   3.918  13.624  0.0040  0.2942  0.6227
   94MPD2    C1 1462   3.359   3.818  13.716  0.1122 -0.5553 -0.6072
   94MPD2    C2 1463   3.228   3.775  13.713 -0.2246  0.1582  0.0664
   94MPD2    C3 1464   3.147   3.810  13.605 -0.6090 -0.2610 -0.0157
   94MPD2    C4 1465   3.192   3.890  13.502  0.3293 -0.2366  0.2642
   94MPD2    C5 1466   3.313   3.949  13.515  0.1655 -0.3452  0.0107
   94MPD2     H 1467   3.190   3.722  13.799  2.3038  0.2143  1.2236
   94MPD2    H1 1468   3.125   3.911  13.420  0.8225  0.1838 -0.0290
   94MPD2    H2 1469   3.498   3.960  13.631  0.8712 -1.9757  1.9680
   94MPD2    H3 1470   3.343   4.018  13.437 -1.6354 -1.4048 -1.6278
   94MPD2     N 1471   3.013   3.754  13.589  0.4847  0.2201 -0.3769
   94MPD2    H5 1472   2.971   3.783  13.502 -1.1176  0.7454  0.5755
   94MPD2    N1 1473   3.443   3.764  13.816 -0.3035 -0.2170 -0.6194
   94MPD2    H7 1474   3.400   3.706  13.887  0.3128 -1.2191 -1.0726
   95TMC2    C1 1475   3.212   0.524  16.288  0.1920  0.4336  0.3076
   95TMC2    C2 1476   3.301   0.568  16.377  0.3864  0.0854 -1.2190
   95TMC2    C3 1477   3.314   0.504  16.499  0.1552  0.3667  0.3002
   95TMC2    C4 1478   3.130   0.410  16.313  0.3319  0.1383 -0.0394
   95TMC2    C5 1479   3.146   0.352  16.440 -0.0495 -0.2278 -0.2890
   95TMC2    C6 1480   3.241   0.393  16.532  0.0795 -0.3901 -0.0534
   95TMC2     C 1481   3.217   0.577  16.152  0.3376 -0.2564  0.8865
   95TMC2     O 1482   3.307   0.648  16.116  0.1117 -0.6392  0.2935
   95TMC2     H 1483   3.368   0.652  16.363 -0.7862  1.6180  2.3494
   95TMC2    H1 1484   3.069   0.355  16.242  0.0530  1.6009 -0.9435
   95TMC2    H2 1485   3.271   0.327  16.613  0.7990  0.2783  0.2244
   95TMC2    C7 1486   3.070   0.230  16.465  0.1324  0.1852  0.8164
   95TMC2    C8 1487   3.402   0.557  16.604  0.1726  0.5729 -0.9559
   95TMC2    O1 1488   2.992   0.204  16.373 -0.4312  0.0847  0.1902
   95TMC2    O2 1489   3.495   0.634  16.587 -0.4503 -0.2637  1.0682
   95TMC2    O5 1490   3.312   0.570  16.702 -0.4545 -0.2833  0.0547
   95TMC2    H5 1491   3.233   0.512  16.711 -1.9533  1.6237 -0.6667
   96MPD2     C 1492   3.008   0.603  15.680 -0.4097 -0.4522 -1.0367
   96MPD2    C1 1493   3.127   0.645  15.722  0.9801 -0.0918  0.4695
   96MPD2    C2 1494   3.163   0.634  15.855  0.5036 -1.1513  1.0589
   96MPD2    C3 1495   3.070   0.586  15.950 -0.8713  1.0835  0.5478
   96MPD2    C4 1496   2.938   0.552  15.909 -0.6783  0.1127 -0.0444
   96MPD2    C5 1497   2.914   0.565  15.777 -0.0600 -0.4191 -0.0322
   96MPD2     H 1498   3.259   0.659  15.899  2.0942 -0.9182 -2.5061
   96MPD2    H1 1499   2.871   0.519  15.988 -0.2594  1.9735  1.0903
   96MPD2    H2 1500   2.974   0.608  15.577 -0.4707  1.5983 -0.9163
   96MPD2    H3 1501   2.816   0.541  15.737  0.2560  0.6752 -1.4741
   96MPD2     N 1502   3.099   0.547  16.079 -0.0052  0.2301  0.2609
   96MPD2    H5 1503   3.037   0.491  16.136 -1.9854  1.5753 -0.5884
   96MPD2    N1 1504   3.214   0.696  15.623 -0.3478 -0.6331 -0.2155
   96MPD2    H7 1505   3.172   0.714  15.533 -0.5852 -2.9062 -0.5499
   97TMC2    C1 1506   0.848   3.134   0.498  0.2360 -0.0996 -0.6196
   97TMC2    C2 1507   0.814   3.015   0.442  0.0745 -0.1847  0.4187
   97TMC2    C3 1508   0.802   3.019   0.310 -0.4998  0.5584 -0.4381
   97TMC2    C4 1509   0.876   3.246   0.423 -1.0258  0.2575 -0.8617
   97TMC2    C5 1510   0.879   3.235   0.291 -0.2857 -0.7186 -0.5534
   97TMC2    C6 1511   0.837   3.121   0.230 -0.1007 -0.0375 -0.2931
   97TMC2     C 1512   0.860   3.145   0.637 -0.4913 -0.5672 -0.5728
   97TMC2     O 1513   0.841   3.259   0.679  0.2198 -0.7323  0.7416
   97TMC2     H 1514   0.785   2.928   0.500  0.7115  0.6195  1.9219
   97TMC2    H1 1515   0.920   3.333   0.471 -0.1289 -1.5612  1.6128
   97TMC2    H2 1516   0.832   3.122   0.122 -2.5569 -1.1070 -0.1731
   97TMC2    C7 1517   0.908   3.349   0.206  0.2756  0.9234  0.0229
   97TMC2    C8 1518   0.746   2.899   0.254  0.5573 -0.0846 -0.2417
   97TMC2    O1 1519   0.866   3.337   0.094 -0.0038 -0.1481 -0.0620
   97TMC2    O2 1520   0.669   2.827   0.316  0.1090  0.0154 -0.5421
   97TMC2    O5 1521   0.837   2.854   0.161  0.1950  0.1823 -0.2661
   97TMC2    H5 1522   0.912   2.914   0.143  1.1495 -0.5457  1.2437
   98MPD2     C 1523   0.834   2.957   1.113  0.2202  0.3897 -0.4893
   98MPD2    C1 1524   0.822   3.090   1.063  0.3042 -0.7862  0.1175
   98MPD2    C2 1525   0.844   3.113   0.931  0.1678  0.0747  0.5161
   98MPD2    C3 1526   0.868   3.009   0.843  0.0801  0.4571  0.5637
   98MPD2    C4 1527   0.892   2.882   0.885 -0.1054 -0.1991 -0.0513
   98MPD2    C5 1528   0.875   2.859   1.026 -1.3515  0.2054 -0.2749
   98MPD2     H 1529   0.841   3.217   0.898 -1.2817  0.9095  3.2929
   98MPD2    H1 1530   0.922   2.798   0.824 -0.6077  0.8945 -1.8163
   98MPD2    H2 1531   0.813   2.929   1.215  0.9319 -3.8359 -1.4996
   98MPD2    H3 1532   0.885   2.755   1.057  1.0454  0.4305 -0.2644
   98MPD2     N 1533   0.882   3.023   0.701 -0.6115  0.3031  0.1952
   98MPD2    H5 1534   0.901   2.939   0.648  1.5285  1.2087 -0.4970
   98MPD2    N1 1535   0.798   3.193   1.159 -0.3098 -0.0142  0.2996
   98MPD2    H7 1536   0.774   3.156   1.251  0.8469 -0.1975  0.5242
   99TMC2    C1 1537   4.341   0.976   1.326  0.0679  0.1880  0.2978
   99TMC2    C2 1538   4.396   1.059   1.416 -0.1462  0.2674  0.3372
   99TMC2    C3 1539   4.373   1.193   1.408 -0.7477  0.5351 -0.3225
   99TMC2    C4 1540   4.258   1.022   1.227  0.3000 -0.0293  0.0130
   99TMC2    C5 1541   4.223   1.154   1.235 -0.3770  0.7694  0.5575
   99TMC2    C6 1542   4.279   1.242   1.320 -0.1731 -0.8304  0.0060
   99TMC2     C 1543   4.385   0.837   1.328  0.3685  0.0317  0.5082
   99TMC2     O 1544   4.442   0.801   1.425  0.4817 -0.6400 -0.5754
   99TMC2     H 1545   4.458   1.011   1.492  2.7615  2.4065 -0.6941
   99TMC2    H1 1546   4.194   0.949   1.178  2.6766 -1.6956 -0.5835
   99TMC2    H2 1547   4.260   1.349   1.313  1.1052 -0.6525 -0.7249
   99TMC2    C7 1548   4.104   1.193   1.169  0.3479  0.4831  0.0626
   99TMC2    C8 1549   4.443   1.298   1.493  1.0021 -0.1318  0.5638
   99TMC2    O1 1550   4.081   1.316   1.175 -0.0549 -0.6072  0.3293
   99TMC2    O2 1551   4.446   1.415   1.462  0.1950 -0.1580 -0.1888
   99TMC2    O5 1552   4.480   1.235   1.607 -0.1715 -0.7747 -0.1757
   99TMC2    H5 1553   4.422   1.162   1.637 -1.7089 -0.6677 -2.9623
  100MPD2     C 1554   4.486   0.572   1.239 -0.4888  0.4172 -0.9374
  100MPD2    C1 1555   4.396   0.641   1.166 -0.6986 -0.3893 -0.1006
  100MPD2    C2 1556   4.348   0.585   1.048  0.2141  0.3689  0.3416
  100MPD2    C3 1557   4.381   0.464   1.004 -0.1241 -0.7531  0.0159
  100MPD2    C4 1558   4.465   0.394   1.086 -0.0749 -0.2252 -0.5270
  100MPD2    C5 1559   4.522   0.445   1.196 -0.5238  0.5809  0.4890
  100MPD2     H 1560   4.269   0.628   0.988  0.2349 -0.4040 -0.2422
  100MPD2    H1 1561   4.488   0.288   1.074 -0.6966 -0.0906 -2.8680
  100MPD2    H2 1562   4.526   0.609   1.332 -0.7491  0.7704 -0.9649
  100MPD2    H3 1563   4.600   0.385   1.242 -1.5573 -0.6879  0.5904
  100MPD2     N 1564   4.330   0.419   0.882 -0.7337  0.3349  0.4908
  100MPD2    H5 1565   4.253   0.473   0.843  0.7822  2.4302  0.3815
  100MPD2    N1 1566   4.356   0.769   1.212  0.8136 -0.0603  0.2159
  100MPD2    H7 1567   4.308   0.822   1.140  0.3811 -0.2867  0.3354
  101TMC2    C1 1568   0.542   2.008  13.242 -0.1491 -0.0064 -0.1526
  101TMC2    C2 1569   0.621   2.036  13.350 -0.4064  0.4698  0.0056
  101TMC2    C3 1570   0.691   2.155  13.338 -0.1797 -0.8988  0.4882
  101TMC2    C4 1571   0.530   2.089  13.136 -0.0952 -0.1886  0.5270
  101TMC2    C5 1572   0.596   2.208  13.134  0.7067 -0.3862  0.0696
  101TMC2    C6 1573   0.680   2.244  13.236 -0.4481  0.4431 -0.0504
  101TMC2     C 1574   0.474   1.879  13.240  0.4702  0.1940 -0.7360
  101TMC2     O 1575   0.423   1.846  13.348 -0.2670  0.2827 -0.1097
  101TMC2     H 1576   0.643   1.970  13.434 -0.5595  1.3267  0.7186
  101TMC2    H1 1577   0.452   2.060  13.066 -0.1128  0.2229  0.3761
  101TMC2    H2 1578   0.741   2.333  13.239  0.5247 -0.2060 -0.3726
  101TMC2    C7 1579   0.606   2.276  13.011  0.1386  0.3671  0.0371
  101TMC2    C8 1580   0.772   2.207  13.451  0.2517 -0.5051  0.3599
  101TMC2    O1 1581   0.700   2.351  13.003  0.4817  0.0191 -0.7130
  101TMC2    O2 1582   0.838   2.306  13.432  0.0537 -0.2142 -0.9849
  101TMC2    O5 1583   0.704   2.193  13.570 -0.1005 -0.4274  0.6343
  101TMC2    H5 1584   0.617   2.151  13.561 -1.2947  1.8944  1.3459
  102MPD2     C 1585   0.416   1.667  12.943  0.3175  0.2337 -0.2251
  102MPD2    C1 1586   0.409   1.707  13.076  0.7199  1.0697 -0.1145
  102MPD2    C2 1587   0.349   1.614  13.162  0.0490  0.7657 -0.0533
  102MPD2    C3 1588   0.283   1.498  13.119 -0.0875  0.2352  0.3089
  102MPD2    C4 1589   0.275   1.473  12.982  0.4442 -0.3898 -0.0096
  102MPD2    C5 1590   0.351   1.554  12.896 -0.4447 -0.2474 -0.7321
  102MPD2     H 1591   0.352   1.631  13.269  1.5858  0.0921  0.0186
  102MPD2    H1 1592   0.222   1.392  12.933 -1.3498  0.4967  0.4719
  102MPD2    H2 1593   0.478   1.714  12.868 -0.0325  0.8031 -0.1579
  102MPD2    H3 1594   0.356   1.537  12.789 -0.1783 -0.4612 -0.6849
  102MPD2     N 1595   0.232   1.404  13.206  0.0656  0.8653 -0.3156
  102MPD2    H5 1596   0.213   1.443  13.298 -1.6488 -3.3555  1.1596
  102MPD2    N1 1597   0.471   1.829  13.116  0.0341 -0.3946  0.2300
  102MPD2    H7 1598   0.514   1.874  13.036  1.3045  0.2473  1.2628
  103TMC2    C1 1599   3.201   1.639  12.649 -0.1797  0.3226 -0.0055
  103TMC2    C2 1600   3.250   1.543  12.725 -0.2581 -0.1806  0.5923
  103TMC2    C3 1601   3.280   1.564  12.854 -0.5392 -0.3746 -0.1140
  103TMC2    C4 1602   3.166   1.758  12.698  0.1433  0.9376 -0.6029
  103TMC2    C5 1603   3.208   1.788  12.826  0.1880  0.4197  0.4712
  103TMC2    C6 1604   3.265   1.689  12.905 -0.5359 -0.1540 -0.0125
  103TMC2     C 1605   3.117   1.605  12.536 -0.5531 -0.1529 -0.1956
  103TMC2     O 1606   3.039   1.685  12.482  0.0078  0.3793  0.5806
  103TMC2     H 1607   3.279   1.443  12.697 -2.8605 -0.6398 -0.4540
  103TMC2    H1 1608   3.123   1.833  12.632 -0.1961  1.2208 -0.0602
  103TMC2    H2 1609   3.290   1.714  13.007  0.5618  0.3505 -0.4018
  103TMC2    C7 1610   3.194   1.914  12.882 -0.0603  0.9288  0.4755
  103TMC2    C8 1611   3.303   1.450  12.936 -0.4178  0.6669  0.5097
  103TMC2    O1 1612   3.085   1.967  12.869  0.0521  0.3429 -0.5181
  103TMC2    O2 1613   3.246   1.342  12.912  0.2050 -0.0391  0.0412
  103TMC2    O5 1614   3.359   1.490  13.046 -0.2652  0.0210 -0.2643
  103TMC2    H5 1615   3.407   1.569  13.013 -2.1338  0.4747 -1.8347
  104MPD2     C 1616   3.084   1.266  12.402 -0.0996 -0.1145 -0.6118
  104MPD2    C1 1617   3.051   1.400  12.421  0.0093 -0.6927  0.1266
  104MPD2    C2 1618   2.943   1.454  12.353 -0.5543 -0.0112  0.2781
  104MPD2    C3 1619   2.855   1.361  12.290  0.1452 -0.1590 -0.3616
  104MPD2    C4 1620   2.891   1.228  12.274  0.2754  0.1561 -0.0895
  104MPD2    C5 1621   3.011   1.187  12.325  0.3617  0.8907  0.0304
  104MPD2     H 1622   2.927   1.560  12.337  2.4564  0.2844 -0.8282
  104MPD2    H1 1623   2.833   1.154  12.220  0.5179  0.7344 -1.1277
  104MPD2    H2 1624   3.176   1.223  12.440  0.3665  1.0071 -0.4426
  104MPD2    H3 1625   3.053   1.088  12.315 -0.0783  0.8828 -1.8087
  104MPD2     N 1626   2.735   1.419  12.247 -0.1551 -0.1334 -0.4384
  104MPD2    H5 1627   2.717   1.519  12.254 -1.3575 -0.3831 -0.0167
  104MPD2    N1 1628   3.137   1.478  12.501  0.3101 -0.5474 -0.8945
  104MPD2    H7 1629   3.214   1.428  12.545  0.3099  0.3164  0.0654
  105TMC2    C1 1630   4.279   0.169  17.643  0.5286  0.1095  0.8634
  105TMC2    C2 1631   4.230   0.177  17.516 -0.0097  0.3083  0.1215
  105TMC2    C3 1632   4.097   0.182  17.498  0.4426  0.3256  0.4812
  105TMC2    C4 1633   4.203   0.158  17.750 -0.5731  0.9651 -0.1803
  105TMC2    C5 1634   4.068   0.181  17.735 -0.0317 -0.2330 -0.1636
  105TMC2    C6 1635   4.012   0.192  17.609 -0.0932  0.7970 -0.0315
  105TMC2     C 1636   4.419   0.197  17.670 -0.5140 -0.1286 -0.7316
  105TMC2     O 1637   4.466   0.161   0.022  0.6715 -0.5292 -0.5696
  105TMC2     H 1638   4.294   0.189  17.430 -2.2617 -0.2585 -1.6209
  105TMC2    H1 1639   4.244   0.157   0.096  1.2905  1.0189 -0.9496
  105TMC2    H2 1640   3.904   0.193  17.598 -0.3426  0.8113  2.3459
  105TMC2    C7 1641   3.996   0.247   0.090 -0.4145  0.3685  0.3089
  105TMC2    C8 1642   4.038   0.201  17.364  0.5478  0.1236 -0.5987
  105TMC2    O1 1643   4.042   0.231   0.204 -0.3154  0.2550 -0.0205
  105TMC2    O2 1644   3.921   0.170  17.344 -0.1914  0.1878 -0.2534
  105TMC2    O5 1645   4.101   0.309  17.316  0.5604 -0.2929 -0.4451
  105TMC2    H5 1646   4.176   0.343  17.371  0.3213 -0.7002  0.1339
  106MPD2     C 1647   0.140   0.418  17.556 -0.0288  1.1132 -0.5137
  106MPD2    C1 1648   0.036   0.474  17.479 -0.4288 -0.0150  0.1153
  106MPD2    C2 1649   4.642   0.443  17.511 -0.0540  0.4885 -0.0825
  106MPD2    C3 1650   4.613   0.335  17.594  0.8861 -0.3005 -0.0945
  106MPD2    C4 1651   4.717   0.268  17.662  0.4718 -1.0310  0.0840
  106MPD2    C5 1652   0.105   0.317  17.647 -0.4590 -0.2665  0.1633
  106MPD2     H 1653   4.559   0.494  17.463 -1.0099 -2.3529 -1.4748
  106MPD2    H1 1654   4.701   0.189  17.735 -0.9551  0.2575  1.1838
  106MPD2    H2 1655   0.243   0.438  17.531  0.6294 -1.0931  0.4826
  106MPD2    H3 1656   0.187   0.271  17.702 -1.9405 -0.0797  2.5388
  106MPD2     N 1657   4.479   0.288  17.593 -0.1325 -0.4092 -0.4072
  106MPD2    H5 1658   4.434   0.326  17.510 -1.6103  0.0730  0.6213
  106MPD2    N1 1659   0.063   0.584  17.393 -0.3162  0.5530  0.7554
  106MPD2    H7 1660   4.724   0.639  17.360  0.0666  2.3015  2.7986
  107TMC2    C1 1661   4.433   1.377  11.757 -0.3112 -0.2623 -0.5505
  107TMC2    C2 1662   4.296   1.387  11.776 -0.2257 -0.7865  0.4734
  107TMC2    C3 1663   4.225   1.446  11.679  1.1673 -0.4982 -0.1311
  107TMC2    C4 1664   4.496   1.441  11.649 -0.1783  0.2678  0.1054
  107TMC2    C5 1665   4.418   1.489  11.550 -0.2601 -0.4300 -0.1572
  107TMC2    C6 1666   4.283   1.487  11.558 -0.2479 -0.5819  0.0869
  107TMC2     C 1667   4.516   1.288  11.844 -0.0683  0.7300 -0.2211
  107TMC2     O 1668   4.628   1.255  11.810  0.3087  0.2961  0.2731
  107TMC2     H 1669   4.241   1.338  11.856 -1.0011 -0.6283  0.0476
  107TMC2    H1 1670   4.604   1.443  11.649 -0.1872  0.2439 -1.8128
  107TMC2    H2 1671   4.230   1.518  11.468 -0.9542  0.5283  0.8843
  107TMC2    C7 1672   4.465   1.454  11.415 -0.6836  0.5129 -0.3462
  107TMC2    C8 1673   4.080   1.415  11.678 -0.4622  0.8787 -0.2329
  107TMC2    O1 1674   4.417   1.514  11.323 -0.1598 -0.6058 -0.0691
  107TMC2    O2 1675   4.017   1.338  11.751  0.0298 -0.3616 -0.0068
  107TMC2    O5 1676   4.030   1.488  11.578  0.2175 -0.2431  0.0944
  107TMC2    H5 1677   4.076   1.575  11.571  1.7333 -1.1161 -0.8596
  108MPD2     C 1678   4.454   1.192  12.192  0.5680  0.2195  0.5590
  108MPD2    C1 1679   4.511   1.180  12.071 -0.2680 -0.0752  0.5593
  108MPD2    C2 1680   4.605   1.075  12.055  0.3484 -0.2888 -0.1339
  108MPD2    C3 1681   4.637   0.990  12.157  0.5829  0.5779  0.3887
  108MPD2    C4 1682   4.585   1.008  12.285 -0.4856  0.1512 -0.5413
  108MPD2    C5 1683   4.495   1.114  12.300  0.1719 -0.4812 -0.4719
  108MPD2     H 1684   4.640   1.045  11.957 -0.8711  2.2631 -1.3631
  108MPD2    H1 1685   4.601   0.936  12.364 -0.5556 -1.9875 -2.4442
  108MPD2    H2 1686   4.372   1.262  12.202  1.9873  1.8716  0.6733
  108MPD2    H3 1687   4.448   1.136  12.395  0.8378  0.4479 -0.3661
  108MPD2     N 1688   4.697   0.864  12.130 -0.0617 -0.3429 -0.7795
  108MPD2    H5 1689   4.701   0.803  12.212  0.1940 -0.1417 -0.6438
  108MPD2    N1 1690   4.459   1.266  11.972 -0.0504  0.5608 -0.2476
  108MPD2    H7 1691   4.374   1.316  11.994  0.1797 -1.1193  4.4956
  109TMC2    C1 1692   0.729   2.686   2.150  0.0105  0.0530  0.6064
  109TMC2    C2 1693   0.809   2.690   2.258  0.2326 -0.3201  0.0205
  109TMC2    C3 1694   0.864   2.806   2.305 -0.4613  0.3182 -0.4811
  109TMC2    C4 1695   0.724   2.793   2.061 -0.9582  0.1012  0.1848
  109TMC2    C5 1696   0.773   2.910   2.116 -0.0603  0.2916  0.3477
  109TMC2    C6 1697   0.830   2.922   2.238 -0.1200  0.0097  0.2240
  109TMC2     C 1698   0.690   2.548   2.104 -0.0436  0.0389  0.4812
  109TMC2     O 1699   0.747   2.451   2.155 -0.2474  0.4292 -0.6179
  109TMC2     H 1700   0.827   2.597   2.311  1.6220  0.8320  1.5413
  109TMC2    H1 1701   0.693   2.785   1.957 -1.0395  1.5872  0.1065
  109TMC2    H2 1702   0.893   3.009   2.255  1.2717 -0.8856 -0.2623
  109TMC2    C7 1703   0.745   3.032   2.035  0.1696 -0.6786  0.1492
  109TMC2    C8 1704   0.929   2.811   2.435  0.3523  0.6007 -0.3407
  109TMC2    O1 1705   0.688   3.011   1.926  0.5219 -0.3258 -0.0706
  109TMC2    O2 1706   0.988   2.713   2.480 -0.4013  0.0953  0.3973
  109TMC2    O5 1707   0.876   2.907   2.510 -0.5182 -0.1496 -0.0587
  109TMC2    H5 1708   0.817   2.971   2.464 -2.9840 -0.4070  2.7959
  110MPD2     C 1709   0.408   2.279   1.777  0.7727  0.6293 -0.1281
  110MPD2    C1 1710   0.369   2.408   1.764  0.0072 -0.0749  0.4620
  110MPD2    C2 1711   0.430   2.502   1.852  0.6767 -0.1655 -0.4992
  110MPD2    C3 1712   0.520   2.466   1.944  0.0566 -0.6333  0.2971
  110MPD2    C4 1713   0.566   2.331   1.951 -0.3535 -0.0937 -0.3000
  110MPD2    C5 1714   0.516   2.250   1.856 -0.4124 -0.2374  0.1242
  110MPD2     H 1715   0.409   2.608   1.845  0.0328 -0.3717 -1.5792
  110MPD2    H1 1716   0.651   2.293   2.007  1.8377  1.7369 -2.3915
  110MPD2    H2 1717   0.375   2.209   1.701  2.4140 -1.0457  0.6985
  110MPD2    H3 1718   0.538   2.144   1.862  1.4893  0.0128 -2.3675
  110MPD2     N 1719   0.587   2.565   2.015 -0.0886  0.4373 -0.1501
  110MPD2    H5 1720   0.543   2.656   2.016 -2.4101 -0.6997 -2.0513
  110MPD2    N1 1721   0.276   2.440   1.659 -0.3253 -0.3036  0.4177
  110MPD2    H7 1722   0.247   2.365   1.597  0.8794 -0.9123  0.5822
  111TMC2    C1 1723   0.987   2.603  11.444 -0.5355  0.2521 -0.5300
  111TMC2    C2 1724   1.066   2.679  11.361 -0.0174  0.4358 -0.5407
  111TMC2    C3 1725   1.197   2.687  11.389 -0.0331  0.4060  0.4230
  111TMC2    C4 1726   1.040   2.542  11.558 -0.1738  0.6991  0.2605
  111TMC2    C5 1727   1.173   2.564  11.588  1.0596  0.4197  0.3714
  111TMC2    C6 1728   1.253   2.632  11.503 -0.5392  0.5092 -0.0562
  111TMC2     C 1729   0.841   2.591  11.403  0.2947  0.7422  0.2465
  111TMC2     O 1730   0.815   2.640  11.294 -0.0936 -0.1685  0.4274
  111TMC2     H 1731   1.020   2.722  11.274 -2.4480 -0.3231  0.3856
  111TMC2    H1 1732   0.980   2.473  11.616 -0.6839  1.1307  0.2515
  111TMC2    H2 1733   1.354   2.667  11.525 -1.2158  2.1800  0.4057
  111TMC2    C7 1734   1.217   2.516  11.713 -0.0617  0.2449 -0.3198
  111TMC2    C8 1735   1.279   2.787  11.321 -0.0140 -1.0016 -0.1744
  111TMC2    O1 1736   1.129   2.486  11.795  0.2699 -0.2675 -0.1559
  111TMC2    O2 1737   1.403   2.785  11.310 -0.2054 -0.0535  0.2379
  111TMC2    O5 1738   1.209   2.903  11.319 -0.1855 -0.0476 -0.1078
  111TMC2    H5 1739   1.120   2.905  11.359  0.3157 -1.4946  1.0935
  112MPD2     C 1740   0.356   2.424  11.488  0.0050  0.7136 -0.5076
  112MPD2    C1 1741   0.411   2.481  11.376  0.4610 -0.9988  0.7415
  112MPD2    C2 1742   0.540   2.515  11.377  0.3147 -0.2140 -0.1241
  112MPD2    C3 1743   0.626   2.491  11.489 -0.3170  0.5529  0.3111
  112MPD2    C4 1744   0.567   2.425  11.596  0.5398 -0.3227  0.7174
  112MPD2    C5 1745   0.435   2.408  11.596 -0.0672 -1.0170  0.6945
  112MPD2     H 1746   0.580   2.570  11.292  0.8074  1.6731  1.3033
  112MPD2    H1 1747   0.619   2.413  11.691 -0.4182 -0.2657  1.2534
  112MPD2    H2 1748   0.250   2.400  11.495 -0.2610  1.5545 -1.5233
  112MPD2    H3 1749   0.390   2.367  11.686 -1.4027  2.1233  1.4375
  112MPD2     N 1750   0.764   2.526  11.496 -0.0361 -0.1335 -0.2583
  112MPD2    H5 1751   0.811   2.502  11.582  1.0821 -1.1886 -1.1641
  112MPD2    N1 1752   0.326   2.515  11.266 -0.0606  0.3674  0.5370
  112MPD2    H7 1753   0.372   2.533  11.177 -0.7912 -1.8393 -0.2987
  113TMC2    C1 1754   2.821   0.073   0.207  0.4086  0.0918  0.0777
  113TMC2    C2 1755   2.695   0.066   0.153  0.7895  0.0174 -0.1638
  113TMC2    C3 1756   2.638   4.675   0.162  0.0750 -0.5141  0.5096
  113TMC2    C4 1757   2.893   4.708   0.262  0.2668  0.2829  0.2245
  113TMC2    C5 1758   2.834   4.586   0.261  0.2516  0.1976  0.5362
  113TMC2    C6 1759   2.711   4.566   0.201 -0.1957 -0.1212  0.4986
  113TMC2     C 1760   2.883   0.203   0.211 -0.9050  0.9186 -0.6778
  113TMC2     O 1761   2.819   0.298   0.253 -0.4792  0.4050 -0.2879
  113TMC2     H 1762   2.642   0.151   0.111 -2.2004 -1.9363 -0.4026
  113TMC2    H1 1763   2.993   4.728   0.300  1.5981  1.4543 -3.9151
  113TMC2    H2 1764   2.681   4.461   0.198 -1.5852  0.2926  0.0742
  113TMC2    C7 1765   2.902   4.473   0.322 -0.4240 -0.2391  0.3555
  113TMC2    C8 1766   2.542   4.656   0.062 -0.4515 -0.2553  0.5986
  113TMC2    O1 1767   2.908   4.373   0.249 -1.0836 -0.2440 -0.5366
  113TMC2    O2 1768   2.507   0.002  17.739 -0.3341  0.4886 -0.7794
  113TMC2    O5 1769   2.453   4.578   0.120  0.5123 -0.0856 -0.7174
  113TMC2    H5 1770   2.501   4.537   0.195 -0.9780  0.8145  0.7293
  114MPD2     C 1771   3.293   0.505   0.143  0.0074  0.2106  0.3558
  114MPD2    C1 1772   3.194   0.517   0.244 -0.5626 -0.4577  0.0740
  114MPD2    C2 1773   3.097   0.419   0.248  0.0698  0.2929  0.1058
  114MPD2    C3 1774   3.099   0.311   0.148 -0.1381  0.0161 -0.8703
  114MPD2    C4 1775   3.205   0.302   0.060  0.2550 -0.4896  0.8182
  114MPD2    C5 1776   3.300   0.399   0.052  0.3410 -0.3464  0.2933
  114MPD2     H 1777   3.021   0.424   0.325 -1.3724  1.6937 -1.4168
  114MPD2    H1 1778   3.213   0.230  17.733  1.3188 -0.7828  1.1798
  114MPD2    H2 1779   3.369   0.580   0.125 -0.0692  0.6085  1.6696
  114MPD2    H3 1780   3.371   0.396  17.725 -0.1796 -1.3571 -0.1274
  114MPD2     N 1781   3.006   0.204   0.149 -0.0541 -0.2054 -0.1023
  114MPD2    H5 1782   3.025   0.118   0.098 -1.2719  0.0564 -1.0048
  114MPD2    N1 1783   3.199   0.620   0.339 -0.5205  0.4950  0.4962
  114MPD2    H7 1784   3.123   0.618   0.407 -1.9080 -3.3295 -1.1653
  115TMC2    C1 1785   4.092   2.586  17.711 -0.4376 -1.0165 -0.9426
  115TMC2    C2 1786   4.222   2.565  17.667 -0.7076 -0.1292 -0.9042
  115TMC2    C3 1787   4.307   2.669  17.691 -0.9724  0.2097 -0.1052
  115TMC2    C4 1788   4.055   2.711   0.015 -0.1744  0.2177 -0.2248
  115TMC2    C5 1789   4.147   2.811   0.023 -0.3743  0.4405 -0.9149
  115TMC2    C6 1790   4.279   2.790  17.740  0.9448 -0.4755  0.9096
  115TMC2     C 1791   3.996   2.488  17.673 -0.9719  0.4128  0.3062
  115TMC2     O 1792   4.024   2.408  17.582 -0.1312  0.2158  0.0687
  115TMC2     H 1793   4.260   2.479  17.612  1.2882  0.7428 -0.8825
  115TMC2    H1 1794   3.955   2.745   0.038 -0.3683  1.4590 -2.8554
  115TMC2    H2 1795   4.351   2.870  17.749 -0.5730  0.8255  1.5012
  115TMC2    C7 1796   4.093   2.949   0.009 -0.4514  0.0580  0.3931
  115TMC2    C8 1797   4.435   2.651  17.626 -0.0550 -0.6557 -0.8209
  115TMC2    O1 1798   3.995   2.987   0.068  0.9005  0.7866  0.1117
  115TMC2    O2 1799   4.546   2.663  17.674 -0.0211  0.0397  0.0055
  115TMC2    O5 1800   4.418   2.715  17.513 -0.4533  0.5291 -0.1961
  115TMC2    H5 1801   4.324   2.721  17.484 -0.7733  1.4847  1.0255
  116MPD2     C 1802   3.514   2.323  17.702  0.8780  0.2658  0.4624
  116MPD2    C1 1803   3.618   2.274  17.620  0.4066 -0.0752 -0.5105
  116MPD2    C2 1804   3.742   2.337  17.637 -0.9556 -0.1259  0.2353
  116MPD2    C3 1805   3.761   2.436  17.727  0.1815 -0.3287 -0.1270
  116MPD2    C4 1806   3.660   2.481   0.060 -0.5714  0.0116 -0.7702
  116MPD2    C5 1807   3.535   2.432   0.034  0.2507 -0.3387 -0.7085
  116MPD2     H 1808   3.820   2.326  17.561  0.0125  3.0270  0.7828
  116MPD2    H1 1809   3.671   2.558   0.136  0.0185 -0.8739  0.0361
  116MPD2    H2 1810   3.412   2.287  17.697  0.5219  0.8731  3.4867
  116MPD2    H3 1811   3.451   2.469   0.092  1.7079  1.0221  0.5211
  116MPD2     N 1812   3.874   2.512  17.730 -0.2869  1.1442 -0.3497
  116MPD2    H5 1813   3.882   2.576   0.054 -0.6393  0.0718  0.5596
  116MPD2    N1 1814   3.592   2.167  17.529 -0.1329  0.7599  1.4212
  116MPD2    H7 1815   3.497   2.131  17.542 -0.0702 -0.4444 -1.4208
  117TMC2    C1 1816   2.907   3.904  13.946  0.2877  0.1029 -0.2902
  117TMC2    C2 1817   3.002   3.851  14.037  0.4482 -0.1449  0.2419
  117TMC2    C3 1818   3.105   3.932  14.071  0.4762  0.1393 -0.4072
  117TMC2    C4 1819   2.903   4.039  13.922 -0.6529 -0.2353 -0.4605
  117TMC2    C5 1820   3.005   4.119  13.964 -0.2012  0.5129  0.2827
  117TMC2    C6 1821   3.112   4.065  14.037 -0.3965 -0.1097  0.0301
  117TMC2     C 1822   2.779   3.829  13.938  0.9186  0.0778  0.6208
  117TMC2     O 1823   2.767   3.728  14.005 -0.4833  0.9505 -0.4359
  117TMC2     H 1824   3.002   3.743  14.046 -0.0354 -0.3827 -2.6315
  117TMC2    H1 1825   2.819   4.089  13.875 -0.6132  1.4974  1.2917
  117TMC2    H2 1826   3.186   4.135  14.073 -0.0864  0.3296 -1.4634
  117TMC2    C7 1827   2.995   4.260  13.941 -0.1056  0.4139 -1.0120
  117TMC2    C8 1828   3.220   3.881  14.137  0.3586  0.1618  0.1020
  117TMC2    O1 1829   3.092   4.321  13.895 -0.1729  0.0065  0.1337
  117TMC2    O2 1830   3.320   3.948  14.136  0.1417  0.3307 -0.7166
  117TMC2    O5 1831   3.218   3.747  14.118  0.9757 -0.7345 -0.2630
  117TMC2    H5 1832   3.128   3.719  14.145  1.7296 -1.8069  1.1366
  118MPD2     C 1833   2.710   4.474  14.033  0.9066  0.1238  0.9278
  118MPD2    C1 1834   2.821   4.437  13.959  0.4273  0.2884 -0.8008
  118MPD2    C2 1835   2.877   4.535  13.876 -0.0364 -0.3497 -0.0747
  118MPD2    C3 1836   2.826   4.663  13.869 -0.3599  0.1742 -0.0563
  118MPD2    C4 1837   2.710   4.694  13.929  0.0562 -1.1777  0.4514
  118MPD2    C5 1838   2.653   4.600  14.011  0.4833  0.1413 -0.0398
  118MPD2     H 1839   2.965   4.516  13.815 -0.1396  0.5811 -0.5039
  118MPD2    H1 1840   2.664   0.052  13.920  1.6773 -0.7240 -2.9627
  118MPD2    H2 1841   2.658   4.414  14.107 -1.5889  1.2110  0.0706
  118MPD2    H3 1842   2.576   4.630  14.081  0.5650 -0.1728  0.1830
  118MPD2     N 1843   2.872   0.026  13.786  0.0625 -0.3785  0.1963
  118MPD2    H5 1844   2.822   0.112  13.765 -1.8378 -0.6560  3.7501
  118MPD2    N1 1845   2.866   4.306  13.970  0.2066 -0.5390  0.3326
  118MPD2    H7 1846   2.825   4.240  14.036  0.5975 -0.6953  0.4209
  119TMC2    C1 1847   0.686   0.287  13.314  0.0775 -0.2778  0.1685
  119TMC2    C2 1848   0.715   0.244  13.191 -0.2448  0.8314 -0.5339
  119TMC2    C3 1849   0.616   0.228  13.100  0.6114 -0.0911  0.1802
  119TMC2    C4 1850   0.552   0.308  13.347 -0.0953  0.1973 -0.0592
  119TMC2    C5 1851   0.457   0.291  13.249 -0.7053 -0.5750  0.1908
  119TMC2    C6 1852   0.487   0.253  13.123 -0.6252  0.0041  0.3830
  119TMC2     C 1853   0.780   0.349  13.404  0.2675  1.0770 -0.5838
  119TMC2     O 1854   0.737   0.390  13.512 -0.1211 -0.2499  0.1049
  119TMC2     H 1855   0.818   0.230  13.160 -0.1751 -0.4752  0.3005
  119TMC2    H1 1856   0.522   0.358  13.438 -0.6232  0.4781 -0.3900
  119TMC2    H2 1857   0.406   0.234  13.054  1.9588  0.6592 -2.8266
  119TMC2    C7 1858   0.326   0.345  13.269 -0.0178 -0.1190  0.1550
  119TMC2    C8 1859   0.645   0.164  12.976  0.1655  0.2360 -0.5851
  119TMC2    O1 1860   0.274   0.395  13.168  0.5410 -0.1709  0.0186
  119TMC2    O2 1861   0.573   0.084  12.919  0.2841 -0.1657 -0.0033
  119TMC2    O5 1862   0.709   0.263  12.916 -0.0952  0.5562 -0.1410
  119TMC2    H5 1863   0.752   0.335  12.966 -0.6602 -0.1648  1.3794
  120MPD2     C 1864   1.111   0.739  13.436  0.3251  0.3016 -0.0613
  120MPD2    C1 1865   0.978   0.729  13.458 -0.3747  0.0526 -0.4985
  120MPD2    C2 1866   0.909   0.612  13.438 -0.2282 -0.1076 -0.4973
  120MPD2    C3 1867   0.971   0.501  13.375 -0.3869 -0.4609 -0.1627
  120MPD2    C4 1868   1.101   0.522  13.342 -0.3191  0.8874 -0.5249
  120MPD2    C5 1869   1.169   0.633  13.378  0.3612  0.0482  0.9837
  120MPD2     H 1870   0.808   0.615  13.479 -0.3034 -1.9656 -0.5306
  120MPD2    H1 1871   1.142   0.456  13.266 -1.6731 -3.3390  2.4081
  120MPD2    H2 1872   1.177   0.824  13.450  0.7313  0.0636 -0.5320
  120MPD2    H3 1873   1.269   0.653  13.343  0.5033 -3.6820 -0.6794
  120MPD2     N 1874   0.893   0.389  13.332 -0.1634  0.4813  0.0770
  120MPD2    H5 1875   0.935   0.331  13.260  0.1538  1.1411 -0.2633
  120MPD2    N1 1876   0.914   0.843  13.518 -0.2052 -0.3464  0.1889
  120MPD2    H7 1877   0.971   0.917  13.558  0.9666 -1.8296  1.2522
  121TMC2    C1 1878   2.807   2.937  14.131 -0.3931 -0.3509 -0.0250
  121TMC2    C2 1879   2.919   2.976  14.196  0.4138 -0.1005  0.2196
  121TMC2    C3 1880   2.928   2.948  14.328  0.3342 -0.4599 -0.6110
  121TMC2    C4 1881   2.708   2.864  14.196 -0.0402  0.4793  0.0465
  121TMC2    C5 1882   2.722   2.844  14.329 -0.2614 -0.1130 -0.2038
  121TMC2    C6 1883   2.837   2.872  14.391  0.3391 -0.3373 -0.0292
  121TMC2     C 1884   2.779   2.981  13.996  0.2311  0.0664 -0.0562
  121TMC2     O 1885   2.666   2.969  13.950 -0.4151  0.1254 -0.2756
  121TMC2     H 1886   2.985   3.048  14.148 -2.0480  1.0815 -1.3968
  121TMC2    H1 1887   2.621   2.841  14.135 -0.3471  2.3392 -0.2239
  121TMC2    H2 1888   2.848   2.853  14.497 -0.8182 -1.1846 -0.0510
  121TMC2    C7 1889   2.618   2.787  14.412  0.3330  0.0914 -0.2743
  121TMC2    C8 1890   3.067   2.917  14.369 -0.2342 -0.2690 -0.1946
  121TMC2    O1 1891   2.638   2.738  14.519  0.1348  0.2898  0.0238
  121TMC2    O2 1892   3.094   2.906  14.484  0.0999  0.1215  0.2123
  121TMC2    O5 1893   3.091   2.817  14.280 -0.1417 -0.2926  0.6123
  121TMC2    H5 1894   3.056   2.840  14.191  1.9728  0.9043  0.0767
  122MPD2     C 1895   2.782   3.112  13.727  0.3534  0.7443 -0.1078
  122MPD2    C1 1896   2.898   3.087  13.806 -0.4975  0.3348  0.4018
  122MPD2    C2 1897   3.024   3.115  13.758  0.4105  0.1090  0.2439
  122MPD2    C3 1898   3.052   3.167  13.634  0.7922 -0.3510 -0.3206
  122MPD2    C4 1899   2.933   3.194  13.559  0.3682  0.1525 -0.1208
  122MPD2    C5 1900   2.806   3.157  13.601  0.3159  0.1264 -0.3383
  122MPD2     H 1901   3.105   3.093  13.827 -0.1733 -0.4998  0.7329
  122MPD2    H1 1902   2.937   3.235  13.459  0.7109 -1.2995 -0.7019
  122MPD2    H2 1903   2.681   3.094  13.764 -0.8252  1.4787 -2.9439
  122MPD2    H3 1904   2.727   3.188  13.534 -1.6408 -0.7150  1.6005
  122MPD2     N 1905   3.183   3.177  13.580 -0.2561  0.1185 -0.1844
  122MPD2    H5 1906   3.190   3.196  13.481  0.1051 -0.8789 -0.3430
  122MPD2    N1 1907   2.894   3.030  13.937  0.1458  0.4329 -0.2354
  122MPD2    H7 1908   2.985   3.016  13.978 -1.0207 -2.3634  1.4320
  123TMC2    C1 1909   1.422   1.322  10.125 -0.8360  0.0047  0.2086
  123TMC2    C2 1910   1.539   1.393  10.143  0.4817  0.2726 -0.6698
  123TMC2    C3 1911   1.576   1.435  10.265 -0.1278 -0.3310 -0.5030
  123TMC2    C4 1912   1.353   1.288  10.239  0.0615  0.1565 -0.2772
  123TMC2    C5 1913   1.397   1.331  10.362 -1.4057 -0.5215  0.3140
  123TMC2    C6 1914   1.514   1.405  10.376 -0.1717  0.3598  0.5288
  123TMC2     C 1915   1.381   1.280   9.995 -0.1636  0.0080  0.5807
  123TMC2     O 1916   1.449   1.320   9.904 -0.2263 -0.0909  0.1372
  123TMC2     H 1917   1.595   1.415  10.053  1.4885  1.6480  0.2893
  123TMC2    H1 1918   1.256   1.239  10.242 -0.5761  1.4993  0.8970
  123TMC2    H2 1919   1.556   1.441  10.469  2.0634 -1.7805  0.3626
  123TMC2    C7 1920   1.315   1.303  10.479 -0.5595  0.6569  0.7430
  123TMC2    C8 1921   1.700   1.501  10.277  0.1997 -0.1019 -0.1634
  123TMC2    O1 1922   1.261   1.197  10.474  0.1627  0.1680  0.4732
  123TMC2    O2 1923   1.784   1.484  10.362 -0.3546 -0.2284  0.0079
  123TMC2    O5 1924   1.675   1.621  10.226  0.0066  0.3682 -0.2387
  123TMC2    H5 1925   1.595   1.620  10.169 -2.0505 -0.9443  2.6458
  124MPD2     C 1926   1.017   1.173   9.655  0.3889 -0.0099 -0.3935
  124MPD2    C1 1927   0.962   1.165   9.779 -0.7493  0.1060  0.5750
  124MPD2    C2 1928   1.048   1.156   9.891 -1.5469 -0.0082 -0.6057
  124MPD2    C3 1929   1.181   1.195   9.879 -0.2322 -0.3528 -0.0968
  124MPD2    C4 1930   1.242   1.202   9.752 -0.0506  0.8353  0.2816
  124MPD2    C5 1931   1.157   1.174   9.643 -0.4939 -0.4443  0.0475
  124MPD2     H 1932   1.008   1.142   9.991  0.1528 -3.4233 -0.4236
  124MPD2    H1 1933   1.347   1.216   9.728 -0.7153  1.5286 -2.2327
  124MPD2    H2 1934   0.960   1.178   9.563 -0.7915  2.6509  0.4687
  124MPD2    H3 1935   1.203   1.188   9.546 -1.1835  1.0755 -0.0629
  124MPD2     N 1936   1.254   1.231   9.993  0.1620 -0.0772 -0.4229
  124MPD2    H5 1937   1.222   1.180  10.075 -1.4833  0.5446 -0.6693
  124MPD2    N1 1938   0.819   1.177   9.788  0.2436 -0.1852 -0.3870
  124MPD2    H7 1939   0.771   1.164   9.700  1.2076 -1.7811 -0.6729
  125TMC2    C1 1940   2.502   4.347   9.026 -0.2680  0.2219  0.5533
  125TMC2    C2 1941   2.605   4.332   9.106  0.3652 -0.1175  0.2078
  125TMC2    C3 1942   2.660   4.206   9.128  0.8535  0.1523 -0.3401
  125TMC2    C4 1943   2.446   4.233   8.968 -0.9942 -0.6740  0.7373
  125TMC2    C5 1944   2.510   4.109   8.974 -0.3564  0.2440 -0.2853
  125TMC2    C6 1945   2.623   4.100   9.048 -0.3714 -0.1474  0.1000
  125TMC2     C 1946   2.427   4.464   9.043  0.3901 -0.3933 -0.6899
  125TMC2     O 1947   2.462   4.540   9.132 -0.1549 -0.2065 -0.0587
  125TMC2     H 1948   2.638   4.416   9.167 -0.6897 -0.9109  1.8806
  125TMC2    H1 1949   2.344   4.237   8.933 -0.1346 -1.8020 -1.9381
  125TMC2    H2 1950   2.675   4.005   9.047 -1.2268 -0.6136 -0.6144
  125TMC2    C7 1951   2.445   3.996   8.918 -0.3402 -0.0296 -0.1795
  125TMC2    C8 1952   2.794   4.205   9.174  0.1005 -0.0382  0.5018
  125TMC2    O1 1953   2.335   4.014   8.870  0.3383 -0.5145  1.2638
  125TMC2    O2 1954   2.863   4.306   9.162  0.3557  0.5053  0.6580
  125TMC2    O5 1955   2.821   4.104   9.254 -0.7070 -0.0228 -0.4002
  125TMC2    H5 1956   2.746   4.042   9.268 -0.9116  1.0164  3.1392
  126MPD1     C 1957   2.057   0.043   8.882 -0.6480 -0.6125  0.2740
  126MPD1    C1 1958   2.075   4.686   8.787  0.3713  0.2198  0.1287
  126MPD1    C2 1959   2.163   4.582   8.815 -0.0051 -1.3370  0.9151
  126MPD1    C3 1960   2.236   4.576   8.932 -0.7022  0.3736 -0.1575
  126MPD1    C4 1961   2.211   4.668   9.032  0.3144  0.1851 -0.3164
  126MPD1    C5 1962   2.118   0.031   9.008  0.2832 -0.0282 -0.2383
  126MPD1     H 1963   2.186   4.515   8.733 -2.1148 -1.5189  0.4859
  126MPD1    H1 1964   2.242   4.654   9.135  0.0090 -1.4403 -0.4573
  126MPD1    H2 1965   1.988   0.123   8.860 -1.0430 -1.4741 -1.6087
  126MPD1    H3 1966   2.082   0.095   9.087  0.2793  0.6865 -0.8221
  126MPD1     N 1967   2.334   4.476   8.938 -0.1850  0.2064 -0.0803
  126MPD1    H5 1968   2.340   4.405   8.866  1.4389  1.5148 -1.2001
  126MPD1    N1 1969   2.019   4.702   8.665  0.0797 -0.6856  0.6109
  126MPD1    H6 1970   2.006   4.622   8.603 -3.1204  0.1119  0.2374
  126MPD1    H7 1971   1.926   0.004   8.668 -0.0105 -0.9550  1.6040
  127TMC2    C1 1972   2.247   1.915  10.213  0.3770  0.4107  0.2988
  127TMC2    C2 1973   2.246   1.948  10.341 -0.2690  0.1357  0.3680
  127TMC2    C3 1974   2.169   1.863  10.418  0.0058 -0.3482 -0.4226
  127TMC2    C4 1975   2.186   1.803  10.165  0.5710  0.0920  0.1177
  127TMC2    C5 1976   2.109   1.725  10.251  0.2377  0.3205 -0.9633
  127TMC2    C6 1977   2.102   1.753  10.381  0.3669 -0.4144 -0.2178
  127TMC2     C 1978   2.334   1.992  10.126  0.2432  0.0861  0.4863
  127TMC2     O 1979   2.432   2.044  10.173 -0.7952 -0.1525  0.3645
  127TMC2     H 1980   2.303   2.034  10.376 -0.8029 -0.2397  2.1361
  127TMC2    H1 1981   2.215   1.770  10.066 -0.8140 -0.1202 -0.2173
  127TMC2    H2 1982   2.049   1.689  10.451 -0.7838 -0.0878 -0.7961
  127TMC2    C7 1983   2.085   1.588  10.215  0.1430 -0.2337  0.0551
  127TMC2    C8 1984   2.219   1.864  10.552 -0.0964 -0.1155  0.0755
  127TMC2    O1 1985   2.035   1.563  10.105  0.5222 -0.9097  0.2113
  127TMC2    O2 1986   2.334   1.900  10.571 -0.1507  0.6347 -0.1107
  127TMC2    O5 1987   2.115   1.866  10.639 -0.2619  0.3529 -0.0790
  127TMC2    H5 1988   2.023   1.856  10.606 -0.1695 -0.2073 -0.1637
  128MPD2     C 1989   2.252   2.081   9.795  0.2316  0.6819  0.1091
  128MPD2    C1 1990   2.336   2.060   9.896 -0.9369 -0.2190 -0.8157
  128MPD2    C2 1991   2.478   2.083   9.881 -0.2684  1.1367 -0.9252
  128MPD2    C3 1992   2.524   2.131   9.758 -0.5869  0.8148  0.9619
  128MPD2    C4 1993   2.430   2.171   9.662 -0.3091 -0.1025  0.4691
  128MPD2    C5 1994   2.299   2.129   9.684 -0.1072  0.0063  0.0403
  128MPD2     H 1995   2.543   2.062   9.965 -2.7204  0.6689  0.8409
  128MPD2    H1 1996   2.456   2.225   9.572  2.3644 -2.3542 -0.1307
  128MPD2    H2 1997   2.147   2.054   9.798  0.1555  1.2068  2.0623
  128MPD2    H3 1998   2.223   2.146   9.609  1.3501  0.1750 -1.3919
  128MPD2     N 1999   2.664   2.153   9.743  0.0273  0.1471 -0.0912
  128MPD2    H5 2000   2.723   2.128   9.821 -0.8840  1.3710  0.9800
  128MPD2    N1 2001   2.275   2.017  10.012 -0.3485  0.4800  0.1144
  128MPD2    H7 2002   2.174   2.014  10.003 -0.2592  1.1808 -1.1610
  129TMC2    C1 2003   0.786   2.491   1.633 -0.1946  0.2486  0.1017
  129TMC2    C2 2004   0.718   2.588   1.562 -0.9389 -0.7626  0.0118
  129TMC2    C3 2005   0.619   2.543   1.477  0.0892  0.4471 -0.2679
  129TMC2    C4 2006   0.763   2.356   1.613  0.2268 -0.0710 -0.8040
  129TMC2    C5 2007   0.669   2.324   1.520  0.7764 -0.0175 -0.8617
  129TMC2    C6 2008   0.590   2.409   1.452 -0.2341  0.2809 -0.2826
  129TMC2     C 2009   0.884   2.539   1.735 -0.7513 -0.2037 -0.1639
  129TMC2     O 2010   0.901   2.456   1.822  0.5053  0.1210 -0.3263
  129TMC2     H 2011   0.718   2.692   1.593  3.3555 -0.0569 -2.3447
  129TMC2    H1 2012   0.826   2.279   1.655 -0.7168 -0.6822 -0.5185
  129TMC2    H2 2013   0.511   2.384   1.383 -1.9558  1.5463  1.2228
  129TMC2    C7 2014   0.616   2.190   1.522  0.3601  0.1226 -0.1621
  129TMC2    C8 2015   0.522   2.630   1.412  0.2657  0.8569  0.4290
  129TMC2    O1 2016   0.510   2.168   1.467 -0.0695  0.0199 -0.5442
  129TMC2    O2 2017   0.413   2.591   1.366  0.9826 -0.1102  0.0825
  129TMC2    O5 2018   0.588   2.743   1.398  0.1085  0.3247  0.0524
  129TMC2    H5 2019   0.679   2.740   1.436 -0.5236 -0.2082  1.5333
  130MPD2     C 2020   1.052   2.679   1.935 -0.4010 -0.6301 -0.6485
  130MPD2    C1 2021   0.987   2.739   1.826 -0.2472 -0.1700  0.2330
  130MPD2    C2 2022   0.983   2.879   1.820 -0.1371 -0.2788  0.7697
  130MPD2    C3 2023   1.048   2.950   1.921  0.0590  0.3648  0.1150
  130MPD2    C4 2024   1.112   2.890   2.024  0.5459 -0.4481 -0.8530
  130MPD2    C5 2025   1.101   2.751   2.041  0.2900 -0.2174 -0.5360
  130MPD2     H 2026   0.929   2.930   1.741  0.0485 -0.5905  0.4403
  130MPD2    H1 2027   1.176   2.944   2.093  0.5652  0.8703 -1.8991
  130MPD2    H2 2028   1.055   2.571   1.935 -0.2375 -0.6243 -0.9129
  130MPD2    H3 2029   1.153   2.711   2.128  2.2870 -0.8783 -2.0432
  130MPD2     N 2030   1.059   3.085   1.899  0.0734  0.4304  0.1940
  130MPD2    H5 2031   1.038   3.115   1.804  0.4160  0.7874  0.2341
  130MPD2    N1 2032   0.923   2.670   1.727 -0.3435  0.0084  0.2164
  130MPD2    H7 2033   0.876   2.720   1.652  1.6223 -1.2750 -1.8395
  131TMC2    C1 2034   0.521   2.012  10.229 -0.7388  0.7066 -0.1410
  131TMC2    C2 2035   0.484   2.064  10.349  0.0761 -0.9409  0.0043
  131TMC2    C3 2036   0.558   2.178  10.385 -0.3118 -0.2823 -0.2059
  131TMC2    C4 2037   0.630   2.041  10.157  0.3024 -0.7226  0.2693
  131TMC2    C5 2038   0.708   2.142  10.206 -0.3215 -0.3897  0.5037
  131TMC2    C6 2039   0.676   2.209  10.318  0.5325  0.1934 -0.9490
  131TMC2     C 2040   0.452   1.894  10.180  0.1063 -0.5245  0.5097
  131TMC2     O 2041   0.472   1.851  10.067 -0.0307 -0.0676  0.3748
  131TMC2     H 2042   0.389   2.054  10.400  0.4987  0.1647  1.0032
  131TMC2    H1 2043   0.659   1.995  10.063 -0.9639 -0.2778 -0.3462
  131TMC2    H2 2044   0.752   2.273  10.362  0.2227  0.2057 -0.4289
  131TMC2    C7 2045   0.800   2.198  10.114 -0.1392 -0.8051 -0.6921
  131TMC2    C8 2046   0.535   2.240  10.516  0.0257 -0.4083  0.1222
  131TMC2    O1 2047   0.817   2.135  10.012 -0.6318 -0.0884 -0.5989
  131TMC2    O2 2048   0.497   2.164  10.610  0.2022  0.0562  0.2797
  131TMC2    O5 2049   0.615   2.347  10.537 -0.1531 -0.2245  0.0954
  131TMC2    H5 2050   0.640   2.402  10.459 -0.2637 -0.6867 -0.2675
  132MPD2     C 2051   0.290   1.652  10.401  0.5460 -1.2322  0.2387
  132MPD2    C1 2052   0.355   1.694  10.286  0.1724  0.3483 -0.2325
  132MPD2    C2 2053   0.357   1.606  10.181  0.2831 -0.6219  0.0990
  132MPD2    C3 2054   0.318   1.474  10.187  0.4200  0.7797  0.2713
  132MPD2    C4 2055   0.248   1.438  10.304  0.3834 -0.5584  0.2233
  132MPD2    C5 2056   0.230   1.525  10.408 -0.1076  0.1358  0.3932
  132MPD2     H 2057   0.410   1.626  10.089  0.7123 -2.5344 -0.0661
  132MPD2    H1 2058   0.185   1.351  10.322  0.1396 -0.6510 -1.1187
  132MPD2    H2 2059   0.293   1.710  10.493 -0.1617  0.3715 -0.7418
  132MPD2    H3 2060   0.168   1.496  10.492 -0.6074  0.7422  0.2378
  132MPD2     N 2061   0.352   1.388  10.086  0.1308 -0.2038 -0.1894
  132MPD2    H5 2062   0.406   1.423  10.008 -0.7684 -1.3703 -1.3232
  132MPD2    N1 2063   0.402   1.829  10.291 -0.0000 -0.0787  0.4567
  132MPD2    H7 2064   0.405   1.885  10.376 -0.7743  1.5845 -0.5946
  133TMC2    C1 2065   0.382   2.984   9.820 -1.3182  0.2008  0.1427
  133TMC2    C2 2066   0.392   3.102   9.885 -0.8075 -0.1254 -0.4495
  133TMC2    C3 2067   0.516   3.166   9.892 -1.2333  0.2957 -0.5970
  133TMC2    C4 2068   0.491   2.938   9.745 -0.3231 -0.3102  0.1241
  133TMC2    C5 2069   0.607   3.014   9.745 -0.3575  0.3811  0.1719
  133TMC2    C6 2070   0.626   3.127   9.822  0.1251  0.1827 -0.3949
  133TMC2     C 2071   0.259   2.908   9.797 -0.6675  0.6191  1.0642
  133TMC2     O 2072   0.273   2.796   9.755 -0.2434  0.3530  0.0792
  133TMC2     H 2073   0.311   3.155   9.934  0.0954  1.7053 -0.9366
  133TMC2    H1 2074   0.478   2.855   9.677 -0.8745 -0.4005  0.3422
  133TMC2    H2 2075   0.717   3.187   9.818  0.0593  0.2145 -1.4750
  133TMC2    C7 2076   0.706   2.957   9.657 -0.5027  0.5398 -0.0477
  133TMC2    C8 2077   0.527   3.300   9.929  0.3874 -0.1615 -0.0034
  133TMC2    O1 2078   0.689   2.841   9.616  0.5223 -0.3723  0.2985
  133TMC2    O2 2079   0.570   3.398   9.865 -0.1747  0.1132 -0.4278
  133TMC2    O5 2080   0.445   3.326  10.033 -0.4639  0.5441 -0.4648
  133TMC2    H5 2081   0.428   3.249  10.091  0.2311  0.0012 -0.9814
  134MPD2     C 2082   4.643   3.015   9.788 -0.5717 -0.0097  0.2291
  134MPD2    C1 2083   0.012   2.926   9.805 -0.4663  0.2485 -0.2898
  134MPD2    C2 2084   4.735   2.795   9.826  0.6166  0.2795 -0.0907
  134MPD2    C3 2085   4.611   2.740   9.818  0.3152  0.6389  0.3719
  134MPD2    C4 2086   4.507   2.822   9.798  0.7274 -0.1926 -0.3576
  134MPD2    C5 2087   4.515   2.961   9.786  0.1441 -0.2519  0.4225
  134MPD2     H 2088   0.077   2.726   9.847 -1.6053 -1.0537  4.0219
  134MPD2    H1 2089   4.406   2.784   9.800  0.9275 -0.7002  0.0271
  134MPD2    H2 2090   4.657   3.121   9.771  0.1594 -0.2249 -0.4957
  134MPD2    H3 2091   4.431   3.029   9.781  0.0534 -0.5115 -1.9512
  134MPD2     N 2092   4.585   2.603   9.823  0.0456 -0.8254 -0.0210
  134MPD2    H5 2093   4.495   2.564   9.797  0.4402 -1.5757 -0.2558
  134MPD2    N1 2094   0.143   2.980   9.812  0.3630  0.0036  0.4266
  134MPD2    H7 2095   0.146   3.080   9.830 -1.1260  0.1425 -0.1600
  135TMC2    C1 2096   1.723   3.794  10.245  0.4606 -0.5214 -0.0902
  135TMC2    C2 2097   1.693   3.892  10.336 -0.2001  0.3658 -0.4638
  135TMC2    C3 2098   1.673   3.853  10.468  0.0480  0.5536  0.0883
  135TMC2    C4 2099   1.719   3.662  10.280  0.8074  0.7206 -0.1818
  135TMC2    C5 2100   1.677   3.631  10.407  0.3985  0.0434 -0.3762
  135TMC2    C6 2101   1.664   3.723  10.509 -0.0204  0.0300  0.0508
  135TMC2     C 2102   1.712   3.840  10.103 -0.0543 -0.3209 -0.1684
  135TMC2     O 2103   1.640   3.935  10.083 -0.3149  0.0103  0.0493
  135TMC2     H 2104   1.685   3.993  10.300 -0.9530  1.3202  2.3693
  135TMC2    H1 2105   1.717   3.582  10.206 -1.9124 -0.0788  0.7287
  135TMC2    H2 2106   1.614   3.702  10.604  1.7735 -1.1211  0.7336
  135TMC2    C7 2107   1.641   3.492  10.431  0.3820 -0.1778  0.1820
  135TMC2    C8 2108   1.620   3.943  10.567  0.2599  0.4096  0.3951
  135TMC2    O1 2109   1.694   3.400  10.365 -0.4678 -0.3712  0.3356
  135TMC2    O2 2110   1.631   3.924  10.686 -0.1911 -0.2522  0.4907
  135TMC2    O5 2111   1.596   4.057  10.500 -0.1671 -0.0825  0.3116
  135TMC2    H5 2112   1.542   4.036  10.420  0.1973  2.7667 -0.6938
  136MPD2     C 2113   1.707   3.878   9.809 -0.0277 -0.2955 -0.1947
  136MPD2    C1 2114   1.778   3.782   9.873 -0.0715 -0.0359 -0.4502
  136MPD2    C2 2115   1.861   3.699   9.802 -0.8003  0.1211 -0.1139
  136MPD2    C3 2116   1.881   3.724   9.667 -0.6556 -0.6998  0.4015
  136MPD2    C4 2117   1.815   3.825   9.608  0.3123 -0.6021 -0.0028
  136MPD2    C5 2118   1.724   3.901   9.676 -0.2246  0.6278  0.4847
  136MPD2     H 2119   1.900   3.612   9.853 -0.5929  0.8453  0.9437
  136MPD2    H1 2120   1.816   3.850   9.502  1.3681  0.2671  0.2072
  136MPD2    H2 2121   1.633   3.939   9.858  0.8131  1.5808 -1.2308
  136MPD2    H3 2122   1.668   3.978   9.624  2.0651  0.8502 -1.6484
  136MPD2     N 2123   1.984   3.661   9.596  0.1491 -0.5873  0.3821
  136MPD2    H5 2124   1.992   3.683   9.497  1.3812 -0.7297  0.4569
  136MPD2    N1 2125   1.771   3.757  10.012 -0.0043  0.2428  0.0720
  136MPD2    H7 2126   1.823   3.676  10.044 -0.1579  1.5447  3.5212
  137TMC2    C1 2127   1.798   2.842   9.666 -0.5124  0.0792  0.3295
  137TMC2    C2 2128   1.918   2.812   9.617  0.2167 -0.4938  0.3412
  137TMC2    C3 2129   2.003   2.917   9.594  0.1088  0.0110 -0.0382
  137TMC2    C4 2130   1.764   2.977   9.676  0.6888  0.3082  0.9808
  137TMC2    C5 2131   1.857   3.078   9.658  0.3235  0.0522 -0.1736
  137TMC2    C6 2132   1.977   3.052   9.607  0.0260  0.2838 -0.7116
  137TMC2     C 2133   1.722   2.756   9.750 -0.0255  0.1126 -0.6775
  137TMC2     O 2134   1.667   2.808   9.846  0.0936  0.4968  0.0631
  137TMC2     H 2135   1.966   2.715   9.626  1.5071  0.0265 -0.7592
  137TMC2    H1 2136   1.667   3.005   9.716  1.3170  0.6805  2.2367
  137TMC2    H2 2137   2.058   3.123   9.619  0.7745 -0.6024 -0.5142
  137TMC2    C7 2138   1.834   3.200   9.734  0.4301  0.0339 -0.4903
  137TMC2    C8 2139   2.139   2.880   9.545 -0.2359 -0.8744 -0.8393
  137TMC2    O1 2140   1.853   3.302   9.671 -0.1535 -0.6643  0.5921
  137TMC2    O2 2141   2.198   2.946   9.465 -0.2474 -0.7743 -0.0354
  137TMC2    O5 2142   2.202   2.836   9.656  0.5652 -0.1605 -0.1317
  137TMC2    H5 2143   2.144   2.792   9.722 -1.1006  0.1489 -1.3653
  138MPD2     C 2144   1.598   2.428   9.667  0.4955 -0.9459  0.3495
  138MPD2    C1 2145   1.624   2.538   9.744  0.2758  0.1942  0.0595
  138MPD2    C2 2146   1.575   2.540   9.870 -0.1030 -0.0168 -0.4864
  138MPD2    C3 2147   1.497   2.439   9.927 -0.9192  0.0590  0.5506
  138MPD2    C4 2148   1.475   2.333   9.841 -0.3074 -0.0901 -0.0888
  138MPD2    C5 2149   1.524   2.326   9.718  0.7990  0.0156 -0.5386
  138MPD2     H 2150   1.599   2.624   9.934  0.6018  0.5490 -1.4866
  138MPD2    H1 2151   1.411   2.252   9.874  1.2556 -1.1283  0.3755
  138MPD2    H2 2152   1.640   2.417   9.567 -0.7705  1.6208 -0.4674
  138MPD2    H3 2153   1.492   2.239   9.661 -1.8162  1.6885 -1.6292
  138MPD2     N 2154   1.456   2.459  10.058 -0.0766 -0.4260 -0.5334
  138MPD2    H5 2155   1.472   2.550  10.101  0.4282 -2.2095  3.0926
  138MPD2    N1 2156   1.697   2.642   9.688  0.0437  0.4727 -0.9628
  138MPD2    H7 2157   1.737   2.628   9.596  2.5543  0.9030  0.0735
  139TMC2    C1 2158   2.582   0.876  13.238  0.1039  0.2494 -0.2887
  139TMC2    C2 2159   2.575   0.902  13.105 -0.2312 -0.2977  0.2717
  139TMC2    C3 2160   2.492   1.005  13.059 -0.1742 -0.2940  0.8950
  139TMC2    C4 2161   2.523   0.958  13.329 -0.2816  0.3974  0.3001
  139TMC2    C5 2162   2.425   1.045  13.281 -0.1457 -0.0017  0.0506
  139TMC2    C6 2163   2.402   1.067  13.142  0.4147  0.5774 -0.6612
  139TMC2     C 2164   2.561   0.737  13.264  0.3160  0.2700  0.2862
  139TMC2     O 2165   2.598   0.658  13.187  0.0363 -0.2579 -0.1731
  139TMC2     H 2166   2.617   0.832  13.034 -0.2592 -0.7000  0.6558
  139TMC2    H1 2167   2.548   0.964  13.434  0.9268 -0.5237  0.0677
  139TMC2    H2 2168   2.320   1.123  13.099  0.0668 -0.4235 -1.2978
  139TMC2    C7 2169   2.324   1.106  13.379 -0.2303 -0.5280 -0.3075
  139TMC2    C8 2170   2.462   1.003  12.916  0.3787  0.2724  0.5143
  139TMC2    O1 2171   2.238   1.168  13.318 -0.1523  0.5866 -0.0999
  139TMC2    O2 2172   2.354   1.040  12.875  0.5933  0.2316 -0.3290
  139TMC2    O5 2173   2.579   1.017  12.859 -0.5573 -0.4877  0.1988
  139TMC2    H5 2174   2.661   1.004  12.911  0.3772  0.3990 -1.0525
  140MPD2     C 2175   2.293   0.626  13.494 -0.6565 -0.1082  0.4445
  140MPD2    C1 2176   2.398   0.605  13.406  0.5637  0.1446  0.2843
  140MPD2    C2 2177   2.434   0.477  13.363 -0.1958  0.2902  0.8714
  140MPD2    C3 2178   2.360   0.368  13.400  0.2559 -0.4846  0.0823
  140MPD2    C4 2179   2.237   0.390  13.470 -0.7959  0.8182 -0.8530
  140MPD2    C5 2180   2.203   0.517  13.514  0.7442  0.1687 -0.0500
  140MPD2     H 2181   2.518   0.468  13.295 -0.7091  0.7984  0.1745
  140MPD2    H1 2182   2.178   0.315  13.521  0.4027 -0.7392 -1.7097
  140MPD2    H2 2183   2.276   0.730  13.519 -2.5234 -0.2714 -0.1792
  140MPD2    H3 2184   2.112   0.539  13.569  0.1247  1.3296 -1.5022
  140MPD2     N 2185   2.406   0.238  13.376 -0.3558  0.5292 -0.0477
  140MPD2    H5 2186   2.503   0.228  13.349 -0.1742 -0.4195  0.9491
  140MPD2    N1 2187   2.472   0.728  13.371  0.1593 -1.2545 -0.3730
  140MPD2    H7 2188   2.451   0.812  13.423  2.7588  0.4264 -2.0440
  141TMC2    C1 2189   2.529   2.345  14.505  0.0687  0.8533 -0.7397
  141TMC2    C2 2190   2.443   2.254  14.557  0.7585 -0.0084 -0.2871
  141TMC2    C3 2191   2.416   2.273  14.692  0.1078  0.1043 -0.7391
  141TMC2    C4 2192   2.593   2.433  14.583 -0.1513  0.1916 -0.3055
  141TMC2    C5 2193   2.569   2.451  14.712  0.7597 -0.4087 -0.3477
  141TMC2    C6 2194   2.472   2.372  14.768 -0.1745  0.9851  0.1011
  141TMC2     C 2195   2.587   2.320  14.375  0.8862 -0.5086 -0.4914
  141TMC2     O 2196   2.571   2.403  14.286  0.5910 -0.5184  0.2159
  141TMC2     H 2197   2.389   2.176  14.505  0.9377 -1.2762  1.4124
  141TMC2    H1 2198   2.664   2.503  14.540 -0.3059 -0.5368 -1.7422
  141TMC2    H2 2199   2.470   2.374  14.877  2.3869 -0.4327  0.1777
  141TMC2    C7 2200   2.675   2.489  14.805  0.1270 -0.6167 -0.1435
  141TMC2    C8 2201   2.364   2.157  14.763  0.8875 -0.9737  0.4109
  141TMC2    O1 2202   2.678   2.435  14.912  0.0907 -0.1021 -0.4401
  141TMC2    O2 2203   2.420   2.107  14.859  0.4547  0.4920 -0.1502
  141TMC2    O5 2204   2.241   2.130  14.727 -0.7779 -0.8031 -0.2478
  141TMC2    H5 2205   2.212   2.181  14.649 -1.6362 -1.1550 -0.1548
  142TMC2    C1 2206   0.702   0.811  10.832  0.1172 -0.0495 -0.3068
  142TMC2    C2 2207   0.728   0.752  10.961 -0.7437  0.2692 -0.9866
  142TMC2    C3 2208   0.837   0.801  11.027  0.0887 -0.0751 -0.5577
  142TMC2    C4 2209   0.780   0.923  10.792  0.5156  0.4820  0.1246
  142TMC2    C5 2210   0.873   0.974  10.873  0.6742  0.5154  0.1825
  142TMC2    C6 2211   0.913   0.909  10.989  0.4506  0.0414 -0.1719
  142TMC2     C 2212   0.600   0.753  10.749 -0.4611  0.5191  0.7107
  142TMC2     O 2213   0.570   0.639  10.762  0.8476  0.2246 -0.4757
  142TMC2     H 2214   0.673   0.663  10.987 -0.2849  0.6685  1.2802
  142TMC2    H1 2215   0.768   0.955  10.689  2.8411 -0.8427 -0.5578
  142TMC2    H2 2216   0.998   0.935  11.051  0.3084 -0.6953  0.3276
  142TMC2    C7 2217   0.961   1.069  10.812  0.6526 -0.6243  0.2722
  142TMC2    C8 2218   0.882   0.724  11.140 -0.3383  0.0961 -0.2995
  142TMC2    O1 2219   0.944   1.095  10.694  0.2571 -0.5433 -0.7029
  142TMC2    O2 2220   0.998   0.729  11.174  0.2757  0.2846 -0.1487
  142TMC2    O5 2221   0.770   0.687  11.214 -0.0972 -0.3673 -0.6200
  142TMC2    H5 2222   0.689   0.723  11.171 -1.0487  0.0110  1.5021
  143MPD2     C 2223   0.311   0.754  10.317 -0.1958  0.2973  0.2711
  143MPD2    C1 2224   0.337   0.650  10.403 -0.4940  0.9412  0.6800
  143MPD2    C2 2225   0.424   0.684  10.507  0.3516  0.3130  0.3753
  143MPD2    C3 2226   0.480   0.807  10.536 -1.2755  0.3899 -0.1290
  143MPD2    C4 2227   0.445   0.905  10.447 -0.4223  0.2563 -0.0362
  143MPD2    C5 2228   0.362   0.881  10.338 -0.1003 -0.1504 -0.0209
  143MPD2     H 2229   0.462   0.609  10.575  1.3164  0.7223  0.2887
  143MPD2    H1 2230   0.482   1.006  10.456  1.0240  0.0513 -3.5534
  143MPD2    H2 2231   0.244   0.738  10.234 -0.3192  0.2193  0.3862
  143MPD2    H3 2232   0.338   0.966  10.275  0.3033  0.0094  0.0449
  143MPD2     N 2233   0.565   0.833  10.643  0.2682 -0.1715  0.2665
  143MPD2    H5 2234   0.592   0.930  10.658 -0.7804 -0.1456  2.0502
  143MPD2    N1 2235   0.266   0.523  10.397  0.1764 -0.0318  0.1302
  143MPD2    H7 2236   0.214   0.506  10.312 -0.5372  0.4670  0.4715
  144TMC2    C1 2237   3.709   4.291   0.115  0.4968 -0.0363 -0.0752
  144TMC2    C2 2238   3.747   4.362   0.007  0.2912  0.2053 -0.3369
  144TMC2    C3 2239   3.797   4.488   0.031 -0.6475  0.0410 -0.0407
  144TMC2    C4 2240   3.705   4.342   0.242  0.3066 -0.4795  0.5769
  144TMC2    C5 2241   3.743   4.471   0.249  0.5195  0.0259 -0.6347
  144TMC2    C6 2242   3.799   4.540   0.148 -0.2489  0.0143 -0.8678
  144TMC2     C 2243   3.628   4.177   0.081 -0.1448 -0.0616  0.7186
  144TMC2     O 2244   3.657   4.131  17.725 -0.0580 -0.2937  0.2762
  144TMC2     H 2245   3.751   4.312  17.665  0.7426  0.8222 -0.6402
  144TMC2    H1 2246   3.680   4.282   0.329 -0.1708  0.4445  1.0739
  144TMC2    H2 2247   3.859   4.629   0.161  1.1255 -0.5429 -3.6192
  144TMC2    C7 2248   3.786   4.514   0.376  0.1439 -0.5694 -0.0881
  144TMC2    C8 2249   3.893   4.536  17.688 -0.5569  0.1407  0.3526
  144TMC2    O1 2250   3.836   4.434   0.451  0.1260  0.4510 -0.6788
  144TMC2    O2 2251   3.917   4.650  17.654  0.0835  0.1262 -0.5485
  144TMC2    O5 2252   3.960   4.429  17.646  0.0396  0.5393 -0.2820
  144TMC2    H5 2253   3.953   4.359  17.714  0.3005  0.3094 -0.4905
  145MPD2     C 2254   3.187   3.917   0.133  0.3663 -0.0640 -0.1151
  145MPD2    C1 2255   3.282   3.918   0.028 -0.0704 -0.1750 -0.5130
  145MPD2    C2 2256   3.396   3.993   0.040 -0.4143 -0.2877  0.4258
  145MPD2    C3 2257   3.422   4.062   0.157  0.1481 -0.2877 -0.0199
  145MPD2    C4 2258   3.334   4.055   0.254  0.0247  0.3316  0.1523
  145MPD2    C5 2259   3.214   3.991   0.243  0.1237 -0.2856 -0.0599
  145MPD2     H 2260   3.474   3.996  17.719 -1.9916  3.6626 -1.0692
  145MPD2    H1 2261   3.360   4.108   0.346 -0.1596 -0.7961  0.8537
  145MPD2    H2 2262   3.094   3.861   0.135 -1.0568  2.2502 -0.5357
  145MPD2    H3 2263   3.141   3.989   0.323 -0.2599 -1.5803 -0.4396
  145MPD2     N 2264   3.530   4.147   0.176 -0.0459  0.2710  0.7057
  145MPD2    H5 2265   3.541   4.204   0.260 -3.2945  1.2735  0.4388
  145MPD2    N1 2266   3.261   3.857  17.657 -0.5235 -0.1245 -0.0157
  145MPD2    H7 2267   3.334   3.880  17.591 -0.7851  0.9174  0.0540
  146TMC2    C1 2268   4.340   2.976  12.740 -0.1801  0.8337  0.3336
  146TMC2    C2 2269   4.388   3.047  12.629  0.6286  0.7997 -0.7062
  146TMC2    C3 2270   4.415   2.978  12.515 -0.2516  0.2703 -0.0603
  146TMC2    C4 2271   4.317   2.839  12.737  0.1365 -0.2653 -0.3219
  146TMC2    C5 2272   4.352   2.780  12.622 -0.4554 -0.7015 -0.2208
  146TMC2    C6 2273   4.403   2.843  12.510 -0.4310  0.2658 -0.1199
  146TMC2     C 2274   4.373   3.037  12.866  0.2566 -0.2601  0.1583
  146TMC2     O 2275   4.352   3.159  12.852  0.4858 -0.2152  0.6281
  146TMC2     H 2276   4.409   3.153  12.631  2.0985  0.4099  3.5384
  146TMC2    H1 2277   4.297   2.779  12.825  2.5567  0.2696  0.5801
  146TMC2    H2 2278   4.421   2.781  12.423 -0.4631  1.2726 -0.8385
  146TMC2    C7 2279   4.342   2.633  12.614  0.1115 -0.3527 -0.7391
  146TMC2    C8 2280   4.458   3.060  12.406  0.1698  0.2249 -0.3570
  146TMC2    O1 2281   4.324   2.584  12.506  0.6101 -0.1142  0.2434
  146TMC2    O2 2282   4.496   3.176  12.409 -0.7986 -1.0077 -0.2875
  146TMC2    O5 2283   4.417   2.999  12.299  0.0062  0.2368  0.2915
  146TMC2    H5 2284   4.383   2.908  12.305 -2.4512  1.2531  1.8189
  147MPD2     C 2285   4.496   2.167  12.787 -0.3776  0.1427 -0.2227
  147MPD2    C1 2286   4.523   2.260  12.887 -0.0726  0.2137 -0.9965
  147MPD2    C2 2287   4.488   2.393  12.858 -0.0131 -0.1512 -0.6022
  147MPD2    C3 2288   4.424   2.438  12.746  0.3899 -0.6539  0.3111
  147MPD2    C4 2289   4.409   2.346  12.646 -0.1050  0.1280 -0.8707
  147MPD2    C5 2290   4.448   2.212  12.665 -0.1551  0.1652  0.1898
  147MPD2     H 2291   4.500   2.463  12.941 -0.8495 -1.3625  0.5308
  147MPD2    H1 2292   4.366   2.378  12.552 -1.6236 -0.3451 -0.3276
  147MPD2    H2 2293   4.542   2.069  12.794 -0.6952  0.1036  1.2696
  147MPD2    H3 2294   4.447   2.140  12.584 -1.9329 -1.2431  1.4843
  147MPD2     N 2295   4.388   2.576  12.729  0.2821  0.1693  0.6885
  147MPD2    H5 2296   4.427   2.636  12.801 -1.9873  0.3117  1.7780
  147MPD2    N1 2297   4.614   2.215  12.979 -0.4455  0.2188  0.7553
  147MPD2    H7 2298   4.607   2.116  12.999  1.8382 -0.2023 -0.6227
  148TMC2    C1 2299   4.645   2.037  10.712  0.2166  0.1171  0.7108
  148TMC2    C2 2300   4.718   2.114  10.803 -0.6423 -0.5613 -0.1879
  148TMC2    C3 2301   0.076   2.047  10.873  0.0955  0.7341  0.2596
  148TMC2    C4 2302   4.667   1.903  10.683  0.1384  0.2902 -0.0517
  148TMC2    C5 2303   0.027   1.844  10.754 -0.7093 -0.2754 -0.7185
  148TMC2    C6 2304   0.106   1.915  10.847  0.0539  0.1008  0.1364
  148TMC2     C 2305   4.528   2.103  10.657  0.0326  0.0895 -0.1711
  148TMC2     O 2306   4.505   2.217  10.698 -0.0420 -0.1306 -0.4405
  148TMC2     H 2307   4.692   2.219  10.816 -0.8837 -1.0235  2.8852
  148TMC2    H1 2308   4.611   1.830  10.626 -0.3568  1.1245 -0.6199
  148TMC2    H2 2309   0.183   1.867  10.907 -0.8583 -1.4494  0.0653
  148TMC2    C7 2310   0.059   1.705  10.708  0.1533  0.6998 -0.4141
  148TMC2    C8 2311   0.177   2.125  10.935  0.7123 -0.5531  0.1176
  148TMC2    O1 2312   4.722   1.651  10.629 -0.1386  0.0070  0.6985
  148TMC2    O2 2313   0.293   2.126  10.888 -0.0091  0.0488  0.4437
  148TMC2    O5 2314   0.115   2.231  10.985  0.1945 -0.3619  0.8257
  148TMC2    H5 2315   0.023   2.219  11.016  0.7271 -2.3427  1.6451
  149MPD2     C 2316   4.304   2.206  10.477 -0.2770 -0.1106 -0.3339
  149MPD2    C1 2317   4.367   2.081  10.468 -0.3844  0.0970 -0.2522
  149MPD2    C2 2318   4.316   1.983  10.385 -0.3446 -0.2472  0.1990
  149MPD2    C3 2319   4.213   2.022  10.296 -0.1976  0.1974  0.2404
  149MPD2    C4 2320   4.165   2.149  10.290  0.0202  0.6314 -1.0023
  149MPD2    C5 2321   4.208   2.240  10.380  0.4590  0.3630  0.4612
  149MPD2     H 2322   4.355   1.883  10.405  0.0463 -0.7101 -2.9980
  149MPD2    H1 2323   4.101   2.178  10.207 -0.6819  1.4047 -0.1858
  149MPD2    H2 2324   4.334   2.296  10.529  0.2375  0.1637 -1.1069
  149MPD2    H3 2325   4.175   2.342  10.364 -0.9366 -0.1699 -0.0771
  149MPD2     N 2326   4.165   1.930  10.195  0.2318  0.5795  0.6180
  149MPD2    H5 2327   4.082   1.955  10.141  1.8437 -0.2148 -2.2599
  149MPD2    N1 2328   4.477   2.041  10.547 -0.5246 -0.3240  0.2337
  149MPD2    H7 2329   4.517   1.950  10.527  2.0997  0.5998  1.4262
  150TMC2    C1 2330   1.841   0.952  12.316 -0.6843 -0.1074 -0.3136
  150TMC2    C2 2331   1.798   0.950  12.188 -0.0184  0.0329 -0.1030
  150TMC2    C3 2332   1.890   0.953  12.092 -0.6098  0.2222  0.2171
  150TMC2    C4 2333   1.974   0.962  12.349 -0.6532 -0.1384 -0.3051
  150TMC2    C5 2334   2.067   0.982  12.249 -0.0804  0.2834 -0.0243
  150TMC2    C6 2335   2.027   0.968  12.118 -0.0856 -0.4427  1.5119
  150TMC2     C 2336   1.742   0.946  12.428 -0.4576 -0.3431  0.0516
  150TMC2     O 2337   1.791   0.926  12.538 -0.1670 -0.0269  0.2626
  150TMC2     H 2338   1.693   0.942  12.159 -0.8253  3.6505  1.8633
  150TMC2    H1 2339   1.994   0.976  12.454 -1.4082  1.4382 -0.3761
  150TMC2    H2 2340   2.105   0.957  12.044 -1.3508 -1.5509  0.3226
  150TMC2    C7 2341   2.200   1.016  12.280 -0.0938  0.3569 -0.1831
  150TMC2    C8 2342   1.864   0.983  11.952 -0.2142  0.2630 -0.3304
  150TMC2    O1 2343   2.258   1.105  12.215 -0.5178 -0.6022 -0.2612
  150TMC2    O2 2344   1.937   0.946  11.866 -0.6644  0.1169 -0.1958
  150TMC2    O5 2345   1.728   1.020  11.936 -0.7532  0.3109 -0.5276
  150TMC2    H5 2346   1.687   1.063  12.014 -3.1747 -1.7351 -0.6506
  151MPD2     C 2347   1.277   0.995  12.644 -0.7710 -0.8615 -0.3141
  151MPD2    C1 2348   1.249   0.979  12.513 -0.6267 -0.3952  0.5304
  151MPD2    C2 2349   1.367   0.975  12.428 -0.1041 -0.2519  0.8239
  151MPD2    C3 2350   1.496   0.971  12.480  0.3507  0.4994  0.2731
  151MPD2    C4 2351   1.513   0.974  12.615 -0.3485  0.1622  0.6746
  151MPD2    C5 2352   1.406   0.995  12.691  0.1791 -0.2417  0.3781
  151MPD2     H 2353   1.351   0.970  12.321 -2.5891  0.8509  1.1238
  151MPD2    H1 2354   1.606   0.962  12.671 -0.1432 -0.7485  0.1416
  151MPD2    H2 2355   1.203   0.997  12.723  2.0885 -0.0290  2.3445
  151MPD2    H3 2356   1.427   1.000  12.798 -3.2250 -1.6792  1.0985
  151MPD2     N 2357   1.608   0.963  12.388 -0.4550 -0.1554  0.2535
  151MPD2    H5 2358   1.592   0.987  12.291  0.9366  0.9153  0.2775
  151MPD2    N1 2359   1.112   0.957  12.475 -0.0535  0.1893 -0.0018
  151MPD2    H7 2360   1.041   0.971  12.546  0.2206 -0.4368  0.4003
  152TMC2    C1 2361   1.829   0.865  12.921 -0.5163  0.3984 -0.8877
  152TMC2    C2 2362   1.912   0.753  12.930  0.2815 -0.4668  0.4060
  152TMC2    C3 2363   2.032   0.767  12.862 -0.9469  0.2734  0.7037
  152TMC2    C4 2364   1.862   0.980  12.865 -0.4397 -1.0655  0.1347
  152TMC2    C5 2365   1.987   0.993  12.814 -0.6943 -0.1815 -0.0519
  152TMC2    C6 2366   2.074   0.887  12.822 -0.1104  0.4589  0.0953
  152TMC2     C 2367   1.683   0.839  12.947 -0.2168  0.0053 -0.3971
  152TMC2     O 2368   1.615   0.941  12.956 -0.2791  0.1908 -0.6693
  152TMC2     H 2369   1.889   0.664  12.988 -2.6116  0.9727  1.4413
  152TMC2    H1 2370   1.795   1.066  12.859  0.3893 -0.4846 -0.8540
  152TMC2    H2 2371   2.164   0.871  12.764 -0.2865 -1.5765  0.3650
  152TMC2    C7 2372   2.018   1.110  12.732  0.1856  0.2492  0.5373
  152TMC2    C8 2373   2.134   0.667  12.866  0.1618  0.7293 -0.0950
  152TMC2    O1 2374   1.919   1.186  12.727  0.0488 -0.2447 -0.2029
  152TMC2    O2 2375   2.252   0.688  12.891  0.0930 -0.7741  0.4882
  152TMC2    O5 2376   2.078   0.541  12.865  0.2260 -0.7862 -0.1446
  152TMC2    H5 2377   1.986   0.541  12.830  0.1048 -1.1114  0.1767
  153MPD2     C 2378   1.500   0.520  12.957 -0.1895 -0.2075 -0.4658
  153MPD2    C1 2379   1.521   0.652  12.976  0.1679 -0.4707 -0.1995
  153MPD2    C2 2380   1.419   0.732  13.022  0.2835 -0.5959 -0.3326
  153MPD2    C3 2381   1.285   0.694  13.027  0.3606 -0.5167  0.3407
  153MPD2    C4 2382   1.260   0.560  13.004  0.0101  0.2895 -0.4495
  153MPD2    C5 2383   1.365   0.473  12.974 -0.5427  0.1741 -0.0221
  153MPD2     H 2384   1.441   0.835  13.047  0.6676 -0.2059 -2.3128
  153MPD2    H1 2385   1.159   0.521  12.998  0.3508 -0.4176 -1.6232
  153MPD2    H2 2386   1.574   0.447  12.925  0.2265 -0.8916  2.0391
  153MPD2    H3 2387   1.342   0.370  12.945 -1.2282 -0.2320  2.0026
  153MPD2     N 2388   1.182   0.781  13.051 -0.4033  0.0247 -0.5765
  153MPD2    H5 2389   1.204   0.868  13.099 -2.0583 -0.9948  2.0080
  153MPD2    N1 2390   1.652   0.703  12.947 -0.3265 -0.0245  0.0285
  153MPD2    H7 2391   1.726   0.644  12.910  0.3464  1.0348 -0.2931
  154TMC2    C1 2392   2.922   0.459  17.630 -0.1486  0.2854  0.0653
  154TMC2    C2 2393   3.015   0.560  17.654 -0.2189 -0.4726  0.0484
  154TMC2    C3 2394   3.127   0.566  17.581 -0.0965  0.2428  0.1651
  154TMC2    C4 2395   2.949   0.359  17.543 -0.6010 -0.0707  0.2360
  154TMC2    C5 2396   3.052   0.372  17.453 -0.5342  0.1171 -0.1545
  154TMC2    C6 2397   3.141   0.482  17.468 -0.0660  0.4253  0.3959
  154TMC2     C 2398   2.797   0.460  17.708  0.0451 -0.4656  0.0016
  154TMC2     O 2399   2.794   0.540   0.049  0.1208  0.7999 -0.1493
  154TMC2     H 2400   3.005   0.630  17.736 -0.1172 -0.9800  0.4960
  154TMC2    H1 2401   2.892   0.267  17.544 -1.6974  0.6323  2.7558
  154TMC2    H2 2402   3.225   0.481  17.400 -0.1696 -2.3090  0.2756
  154TMC2    C7 2403   3.115   0.247  17.438  0.5098 -0.2576 -0.2450
  154TMC2    C8 2404   3.202   0.691  17.603  0.1658  1.0476 -0.2097
  154TMC2    O1 2405   3.237   0.239  17.466  0.0474 -0.0145  0.2221
  154TMC2    O2 2406   3.161   0.784  17.667 -0.2925 -0.5109  0.1693
  154TMC2    O5 2407   3.335   0.669  17.575 -0.2801  0.0813 -0.0063
  154TMC2    H5 2408   3.362   0.583  17.536  3.4800  0.2532  2.1922
  155MPD2     C 2409   2.470   0.313  17.620  0.1327 -0.5935  0.4085
  155MPD2    C1 2410   2.558   0.373  17.708 -0.2924  0.3993  0.5671
  155MPD2    C2 2411   2.510   0.437   0.070  0.2200 -0.2510  0.0641
  155MPD2    C3 2412   2.379   0.459   0.085  0.4352 -0.7523 -0.0229
  155MPD2    C4 2413   2.285   0.400   0.002 -0.1714  0.3772  0.1620
  155MPD2    C5 2414   2.337   0.333  17.645 -0.4549  0.3602 -0.9539
  155MPD2     H 2415   2.578   0.502   0.124  1.1481 -2.6990  1.8656
  155MPD2    H1 2416   2.178   0.419   0.004 -0.2509  0.0139 -0.4764
  155MPD2    H2 2417   2.505   0.283  17.522  1.1064 -1.8441  1.1345
  155MPD2    H3 2418   2.275   0.290  17.567 -2.6217  1.4502  0.1637
  155MPD2     N 2419   2.351   0.552   0.191 -0.3844  0.4235  0.2456
  155MPD2    H5 2420   2.426   0.582   0.253 -0.4144  2.6857 -0.7874
  155MPD2    N1 2421   2.693   0.386  17.653 -0.1913 -0.0621 -0.1893
  155MPD2    H7 2422   2.707   0.338  17.565 -2.0300 -2.9108  1.0860
  156TMC2    C1 2423   1.787   3.369  12.361  0.2197  0.0670 -0.3548
  156TMC2    C2 2424   1.816   3.256  12.295 -0.6306  0.0576 -0.5329
  156TMC2    C3 2425   1.766   3.236  12.166  0.0134  0.1686  0.1656
  156TMC2    C4 2426   1.702   3.457  12.300 -0.4944  0.4119 -0.0450
  156TMC2    C5 2427   1.639   3.420  12.182  0.1341  0.5690  0.0203
  156TMC2    C6 2428   1.666   3.307  12.109 -0.5715 -0.3903 -0.8021
  156TMC2     C 2429   1.794   3.379  12.503  0.0318 -0.1684  0.3079
  156TMC2     O 2430   1.731   3.470  12.559  0.1134 -0.0838  0.0229
  156TMC2     H 2431   1.893   3.187  12.331 -1.9386 -1.0285  0.1771
  156TMC2    H1 2432   1.680   3.557  12.337  0.7047  1.2482 -1.6022
  156TMC2    H2 2433   1.620   3.283  12.014 -1.2681  1.4659 -0.9254
  156TMC2    C7 2434   1.579   3.538  12.116  0.3694 -0.0600 -0.4906
  156TMC2    C8 2435   1.777   3.106  12.110 -0.1375 -0.0509  0.1871
  156TMC2    O1 2436   1.587   3.645  12.169 -0.4264 -0.1087  0.0217
  156TMC2    O2 2437   1.816   3.005  12.168  0.1738  0.4003 -0.3771
  156TMC2    O5 2438   1.827   3.142  11.992  0.2024 -0.0332 -0.1733
  156TMC2    H5 2439   1.828   3.238  11.975 -0.1724  0.3046  1.7002
  157MPD2     C 2440   1.970   3.161  12.737 -0.0438 -0.5388  0.5114
  157MPD2    C1 2441   1.876   3.255  12.701  0.5225 -0.7047  0.4101
  157MPD2    C2 2442   1.789   3.302  12.798 -0.4785  0.2939  0.0913
  157MPD2    C3 2443   1.800   3.261  12.933  0.3428 -0.0640  0.4041
  157MPD2    C4 2444   1.900   3.171  12.966 -0.0318  0.4170 -0.0573
  157MPD2    C5 2445   1.980   3.123  12.869  0.5666  0.2121  0.3051
  157MPD2     H 2446   1.706   3.368  12.775  0.0700  0.8120 -0.4299
  157MPD2    H1 2447   1.926   3.133  13.064  0.4376  0.9851  0.0415
  157MPD2    H2 2448   2.033   3.114  12.663 -0.0018 -0.3867  0.4526
  157MPD2    H3 2449   2.051   3.049  12.907  0.0500 -0.8463 -0.7817
  157MPD2     N 2450   1.702   3.308  13.021 -0.0089 -0.4930 -0.4100
  157MPD2    H5 2451   1.624   3.357  12.979 -0.7194 -1.5579 -0.3209
  157MPD2    N1 2452   1.873   3.281  12.559  0.5701 -0.6245 -0.1903
  157MPD2    H7 2453   1.943   3.237  12.499  2.0805  3.0058 -1.0829
  158TMC2    C1 2454   2.719   2.162  13.232  0.0202  0.1456 -0.3168
  158TMC2    C2 2455   2.786   2.261  13.158  0.4630 -0.4053 -0.0145
  158TMC2    C3 2456   2.711   2.334  13.072 -0.0230  0.3843 -1.0254
  158TMC2    C4 2457   2.584   2.143  13.222 -0.4573 -0.0380  0.3574
  158TMC2    C5 2458   2.506   2.240  13.156 -0.6631 -0.0493 -1.2122
  158TMC2    C6 2459   2.567   2.328  13.073 -0.8562  0.5378  0.1529
  158TMC2     C 2460   2.798   2.073  13.312  0.0212 -0.3745 -0.3567
  158TMC2     O 2461   2.922   2.070  13.295  0.0158  0.1979 -0.4074
  158TMC2     H 2462   2.894   2.255  13.144  0.3183  0.3084 -1.3993
  158TMC2    H1 2463   2.534   2.053  13.256 -0.8614  0.0902  0.1029
  158TMC2    H2 2464   2.512   2.401  13.014 -3.3220 -0.4534  1.2061
  158TMC2    C7 2465   2.356   2.243  13.160 -0.1633  0.9750  0.2461
  158TMC2    C8 2466   2.796   2.426  12.988  0.4105 -0.2331  0.4640
  158TMC2    O1 2467   2.302   2.334  13.098  0.1716 -0.6633 -0.4669
  158TMC2    O2 2468   2.889   2.482  13.049 -0.2545 -0.4421  0.0385
  158TMC2    O5 2469   2.713   2.479  12.901 -0.5412 -0.3097  0.1807
  158TMC2    H5 2470   2.669   2.405  12.854 -0.1414 -0.7299  0.4732
  159MPD2     C 2471   2.846   1.783  13.732  0.3965 -0.3403 -0.4184
  159MPD2    C1 2472   2.725   1.841  13.741 -0.6585 -0.4439 -0.4544
  159MPD2    C2 2473   2.691   1.921  13.635 -0.2365  0.2959  0.4760
  159MPD2    C3 2474   2.772   1.945  13.529  0.0713 -0.0296  0.1284
  159MPD2    C4 2475   2.895   1.884  13.525  0.0694 -0.0130  0.4946
  159MPD2    C5 2476   2.926   1.801  13.626 -0.2456 -0.9845 -1.2397
  159MPD2     H 2477   2.590   1.960  13.631  0.6703  2.8971  1.9845
  159MPD2    H1 2478   2.974   1.902  13.453  0.6602  1.5815  1.5598
  159MPD2    H2 2479   2.882   1.716  13.809  2.3891 -1.4989 -2.3830
  159MPD2    H3 2480   3.016   1.741  13.628  0.6889  0.5033  0.9598
  159MPD2     N 2481   2.728   2.031  13.426  0.7356 -0.2308  0.1020
  159MPD2    H5 2482   2.632   2.065  13.431  0.3612 -1.4757  1.4854
  159MPD2    N1 2483   2.644   1.812  13.854  0.0341  0.0207  0.8763
  159MPD2    H7 2484   2.681   1.733  13.906  2.2820 -0.1626 -1.0179
  160TMC2    C1 2485   1.446   4.690   1.206  0.3600  0.4892 -0.0861
  160TMC2    C2 2486   1.400   0.020   1.102 -0.8692 -0.1179 -0.0084
  160TMC2    C3 2487   1.478   0.004   0.989 -0.1870 -0.3561  0.5859
  160TMC2    C4 2488   1.562   4.624   1.221 -0.0945  0.3370 -0.3609
  160TMC2    C5 2489   1.639   4.626   1.111  0.2427 -0.5558  0.0174
  160TMC2    C6 2490   1.599   4.679   0.991 -0.2077  0.0724  0.3250
  160TMC2     C 2491   1.360   4.699   1.324  0.4179 -0.0292 -0.7327
  160TMC2     O 2492   1.351   4.594   1.384 -0.1994  0.5823 -0.9639
  160TMC2     H 2493   1.317   0.091   1.102 -0.0291  0.8735 -1.3563
  160TMC2    H1 2494   1.600   4.570   1.308 -1.1532 -0.3315 -0.3049
  160TMC2    H2 2495   1.668   4.686   0.907 -0.6372  1.0695  0.0530
  160TMC2    C7 2496   1.778   4.584   1.128 -0.2327 -1.1530  0.6402
  160TMC2    C8 2497   1.428   0.095   0.876  0.0075  0.3942 -0.0047
  160TMC2    O1 2498   1.790   4.495   1.214  0.1266  0.3110 -0.0225
  160TMC2    O2 2499   1.499   0.154   0.799 -0.4117 -0.0856  0.5836
  160TMC2    O5 2500   1.299   0.073   0.858 -0.2806 -0.0573  0.9412
  160TMC2    H5 2501   1.284   4.735   0.917 -0.7060  1.4067  2.7481
  161MPD2     C 2502   1.155   0.005   1.525 -0.4738 -0.2218  0.7498
  161MPD2    C1 2503   1.205   0.109   1.444 -0.4818 -0.0789  0.2296
  161MPD2    C2 2504   1.156   0.235   1.448 -0.4501  0.7344 -0.2221
  161MPD2    C3 2505   1.037   0.253   1.518  0.0591  0.7621 -0.0843
  161MPD2    C4 2506   0.991   0.156   1.599  0.2579 -0.5945 -0.0242
  161MPD2    C5 2507   1.047   0.033   1.605 -0.1434 -0.5129 -0.3355
  161MPD2     H 2508   1.196   0.314   1.387 -0.1787  2.4335  2.1532
  161MPD2    H1 2509   0.906   0.167   1.666  0.7225 -0.7321  0.5808
  161MPD2    H2 2510   1.189   4.642   1.534  2.4810  0.8259  1.3666
  161MPD2    H3 2511   1.001   4.689   1.657  0.8597 -2.1801 -2.1036
  161MPD2     N 2512   0.948   0.363   1.522  0.1444  0.4380 -0.3970
  161MPD2    H5 2513   0.865   0.352   1.578  0.0795 -0.4927 -0.6760
  161MPD2    N1 2514   1.311   0.084   1.353  0.0464 -0.1294 -0.6765
  161MPD2    H7 2515   1.349   0.159   1.297  1.6553  0.1491  0.7768
  162TMC2    C1 2516   4.458   2.404   0.834 -0.3333  0.1856  0.1958
  162TMC2    C2 2517   4.517   2.499   0.919 -0.0310 -0.1341 -0.6637
  162TMC2    C3 2518   4.498   2.478   1.050 -0.2610 -0.0663  0.3618
  162TMC2    C4 2519   4.388   2.299   0.890 -0.4971  0.8837 -0.3342
  162TMC2    C5 2520   4.378   2.284   1.027 -0.6451 -0.2262 -0.7684
  162TMC2    C6 2521   4.435   2.375   1.111  0.0450 -0.2945 -0.0044
  162TMC2     C 2522   4.500   2.383   0.704  0.4746 -0.2929 -0.5840
  162TMC2     O 2523   4.434   2.317   0.627  0.4225 -0.4483  0.0211
  162TMC2     H 2524   4.557   2.592   0.878  0.3140  0.7979  1.8088
  162TMC2    H1 2525   4.332   2.232   0.826 -1.0474 -2.1851  3.3663
  162TMC2    H2 2526   4.423   2.375   1.219  0.7830 -0.1000  0.0794
  162TMC2    C7 2527   4.323   2.153   1.066  0.2985 -0.0305 -0.2437
  162TMC2    C8 2528   4.547   2.569   1.144 -0.1308 -0.3294  0.3406
  162TMC2    O1 2529   4.263   2.080   0.988  0.3923  0.5533 -0.1560
  162TMC2    O2 2530   4.491   2.584   1.246  0.4239  0.0609  0.0246
  162TMC2    O5 2531   4.641   2.649   1.092 -0.1994  0.1252  0.8341
  162TMC2    H5 2532   4.705   2.614   1.027 -1.0437  2.0742 -1.0825
  163MPD2     C 2533   0.107   2.487   0.340 -0.4010 -0.7934  0.5189
  163MPD2    C1 2534   0.029   2.372   0.353 -0.4234  0.6472  0.2858
  163MPD2    C2 2535   4.680   2.370   0.458 -0.1519  0.6590  1.0959
  163MPD2    C3 2536   4.679   2.472   0.552 -0.7405 -0.3636  0.1215
  163MPD2    C4 2537   0.018   2.583   0.529  0.4631  0.2535  0.7845
  163MPD2    C5 2538   0.095   2.597   0.417 -0.0080  0.1517  0.1973
  163MPD2     H 2539   4.618   2.283   0.475 -3.2412  2.6461 -0.0260
  163MPD2    H1 2540   4.738   2.668   0.594  2.4215  0.5799  0.9329
  163MPD2    H2 2541   0.187   2.487   0.267 -1.3630  1.0796 -0.5296
  163MPD2    H3 2542   0.153   2.689   0.412  0.6977 -0.3262 -0.3357
  163MPD2     N 2543   4.614   2.462   0.676 -0.2463 -0.2470 -0.0081
  163MPD2    H5 2544   4.644   2.527   0.749  3.2370 -2.8582  0.9061
  163MPD2    N1 2545   0.059   2.262   0.267  0.7598 -0.1349  0.8511
  163MPD2    H7 2546   0.141   2.274   0.210  0.4347  0.9465  0.6172
  164TMC2    C1 2547   0.491   1.893  11.091  0.5847 -0.1946  0.3859
  164TMC2    C2 2548   0.586   1.990  11.117  0.8840 -0.2136 -0.4525
  164TMC2    C3 2549   0.564   2.067  11.228 -0.3300 -0.1675  0.2038
  164TMC2    C4 2550   0.374   1.885  11.159  0.5795 -0.9176 -0.8216
  164TMC2    C5 2551   0.354   1.968  11.268  0.2529  0.6430 -0.6558
  164TMC2    C6 2552   0.451   2.062  11.302 -0.0881 -0.8193 -0.4477
  164TMC2     C 2553   0.496   1.821  10.965 -0.0195 -0.1394 -0.2678
  164TMC2     O 2554   0.383   1.783  10.930  0.4289 -0.5241  0.7421
  164TMC2     H 2555   0.672   2.017  11.057  3.9410 -1.4496  3.3475
  164TMC2    H1 2556   0.299   1.812  11.132 -0.2692  0.6853 -2.7534
  164TMC2    H2 2557   0.447   2.131  11.386  1.4940 -1.2947  0.0288
  164TMC2    C7 2558   0.213   2.016  11.285  0.4497  0.6524  0.3777
  164TMC2    C8 2559   0.672   2.151  11.265 -0.0395 -0.2052  0.2198
  164TMC2    O1 2560   0.131   1.982  11.206  0.2712 -0.0673  0.0819
  164TMC2    O2 2561   0.735   2.207  11.178 -0.9586 -0.3720 -0.3589
  164TMC2    O5 2562   0.701   2.125  11.391  0.3235  0.0940 -0.1870
  164TMC2    H5 2563   0.637   2.065  11.435  0.4509  0.8600  1.0544
  165TMC2    C1 2564   2.095   4.467   1.478 -0.6211 -0.0155 -0.1656
  165TMC2    C2 2565   2.099   4.335   1.440  0.0157 -0.1790  0.1303
  165TMC2    C3 2566   2.220   4.270   1.424 -0.3593  0.1523  0.5096
  165TMC2    C4 2567   2.206   4.541   1.501 -0.1755  0.2480 -0.6923
  165TMC2    C5 2568   2.327   4.475   1.489  0.0763 -0.5129  0.0737
  165TMC2    C6 2569   2.334   4.340   1.452  0.6610  0.6124  0.1137
  165TMC2     C 2570   1.963   4.522   1.504  0.5246 -0.2344  0.0794
  165TMC2     O 2571   1.881   4.432   1.512  0.1675 -0.1554  0.3564
  165TMC2     H 2572   2.002   4.287   1.427 -0.6468  0.1903  3.6234
  165TMC2    H1 2573   2.199   4.644   1.536  0.1807  0.3209 -0.8361
  165TMC2    H2 2574   2.426   4.284   1.461 -0.1036 -0.6878 -0.1663
  165TMC2    C7 2575   2.447   4.546   1.438 -0.2077  0.6312 -0.0738
  165TMC2    C8 2576   2.219   4.126   1.425  0.2263  0.2307  0.7276
  165TMC2    O1 2577   2.522   4.468   1.379  0.1552 -0.0776  0.2267
  165TMC2    O2 2578   2.130   4.054   1.474  0.3184  0.3332  0.0161
  165TMC2    O5 2579   2.321   4.094   1.339  0.4175  0.8055  0.0540
  165TMC2    H5 2580   2.359   4.180   1.310  0.7604 -0.2810 -2.7142
  166MPD2     C 2581   1.619   0.162   1.555  0.7277  0.4164  0.3118
  166MPD2    C1 2582   1.619   0.032   1.606  0.1711  0.0691 -0.2457
  166MPD2    C2 2583   1.714   4.682   1.574 -0.6377 -0.0015 -0.4468
  166MPD2    C3 2584   1.827   4.725   1.509  0.4953 -0.8657 -0.2148
  166MPD2    C4 2585   1.832   0.117   1.469  0.2572  0.9201  0.3417
  166MPD2    C5 2586   1.732   0.206   1.491  0.1670 -1.1526 -0.2980
  166MPD2     H 2587   1.714   4.578   1.605 -1.2886 -0.8710 -3.3828
  166MPD2    H1 2588   1.914   0.159   1.412  0.2640 -1.9332 -1.7002
  166MPD2    H2 2589   1.538   0.232   1.570  0.3748 -0.0278  0.4587
  166MPD2    H3 2590   1.744   0.307   1.453 -0.2373 -0.9135  0.2060
  166MPD2     N 2591   1.946   4.654   1.489  0.2118 -0.4818 -0.1617
  166MPD2    H5 2592   2.023   4.704   1.445  0.2099  0.6777  1.1393
  166MPD2    N1 2593   1.501   4.738   1.683 -0.0786 -0.0130  0.2587
  166MPD2    H7 2594   1.423   0.062   1.674 -0.3586 -0.6270 -1.7017
  167TMC2    C1 2595   4.714   1.675  13.017  0.2076 -0.3723 -0.1199
  167TMC2    C2 2596   4.666   1.695  13.148  0.5782  0.1614  0.7383
  167TMC2    C3 2597   4.604   1.586  13.199 -0.2934  0.1166  0.3233
  167TMC2    C4 2598   4.692   1.565  12.943 -0.0450  0.7537 -0.3853
  167TMC2    C5 2599   4.635   1.461  13.006  0.1096 -1.0082 -0.2862
  167TMC2    C6 2600   4.594   1.470  13.128 -0.1983  0.0896 -0.7159
  167TMC2     C 2601   0.006   1.794  12.942 -0.8117  0.4602  1.3079
  167TMC2     O 2602   0.090   1.867  12.989 -0.0455  0.6007  0.0004
  167TMC2     H 2603   4.654   1.795  13.189  0.8853  0.4234  0.1921
  167TMC2    H1 2604   4.719   1.570  12.838 -0.8531 -0.6782 -0.6653
  167TMC2    H2 2605   4.549   1.385  13.178 -0.1264  1.1031  1.1020
  167TMC2    C7 2606   4.620   1.334  12.935  0.1944 -0.1224 -0.7612
  167TMC2    C8 2607   4.549   1.573  13.339  0.1101  0.7873 -0.1155
  167TMC2    O1 2608   4.547   1.252  12.989 -0.1473 -0.0451 -0.3559
  167TMC2    O2 2609   4.520   1.469  13.393  0.2272 -0.4568 -0.3694
  167TMC2    O5 2610   4.592   1.675  13.416 -0.6779 -0.1783 -0.0372
  167TMC2    H5 2611   4.629   1.755  13.372 -1.0282  0.4193  0.7580
  168MPD2     C 2612   0.089   1.953  12.709  0.2979 -0.6381 -0.0266
  168MPD2    C1 2613   4.715   1.876  12.710  0.5239  0.7081 -0.2504
  168MPD2    C2 2614   4.628   1.880  12.596 -0.7273  0.4653 -0.2800
  168MPD2    C3 2615   4.647   1.959  12.488 -0.0911 -0.2588  0.1745
  168MPD2    C4 2616   0.021   2.034  12.492  0.9487 -0.1809 -0.4922
  168MPD2    C5 2617   0.106   2.035  12.600 -0.0230 -0.5949  0.2864
  168MPD2     H 2618   4.542   1.813  12.598 -0.5731  0.2087 -4.0504
  168MPD2    H1 2619   0.062   2.097  12.415  0.4137 -3.0124 -3.0983
  168MPD2    H2 2620   0.172   1.963  12.779 -1.2447 -0.5343  1.8053
  168MPD2    H3 2621   0.193   2.100  12.600 -0.2642 -0.2714  0.3833
  168MPD2     N 2622   4.563   1.960  12.370  0.1490 -0.5489 -0.0806
  168MPD2    H5 2623   4.595   2.009  12.288 -1.1404  1.3080  0.5408
  168MPD2    N1 2624   4.680   1.805  12.825  0.0313  0.8188  0.4916
  168MPD2    H7 2625   4.590   1.757  12.825  0.3611  0.1565  2.7798
  169MPD1     C 2626   1.406   1.310   9.137  0.0026  0.3570 -0.7747
  169MPD1    C1 2627   1.395   1.256   9.262 -0.5112  0.0658 -0.1430
  169MPD1    C2 2628   1.475   1.295   9.365 -0.4834 -0.2114 -0.0988
  169MPD1    C3 2629   1.599   1.358   9.338 -0.3183  0.2772 -0.2507
  169MPD1    C4 2630   1.618   1.407   9.212  0.0014  1.1114  0.5038
  169MPD1    C5 2631   1.521   1.383   9.116  0.2092  0.2442  0.2607
  169MPD1     H 2632   1.451   1.259   9.464  1.0796 -0.0013  0.3508
  169MPD1    H1 2633   1.714   1.449   9.185  0.3051 -0.4613 -0.8299
  169MPD1    H2 2634   1.337   1.290   9.056 -0.5561 -3.3464  0.6489
  169MPD1    H3 2635   1.532   1.406   9.011  2.1426 -0.1093  0.3681
  169MPD1     N 2636   1.698   1.360   9.432 -0.1642 -0.7972  0.2660
  169MPD1    H5 2637   1.673   1.312   9.518 -1.5238 -0.1280  0.2545
  169MPD1    N1 2638   1.276   1.184   9.289  0.4298 -0.4495 -0.0469
  169MPD1    H6 2639   1.243   1.143   9.201  0.4101  1.7585 -1.0706
  169MPD1    H7 2640   1.279   1.113   9.362  0.1287 -0.6430 -0.2198
  170MPD1     C 2641   0.187   3.552  13.070  0.1859 -0.1772  0.4640
  170MPD1    C1 2642   0.143   3.647  13.165  0.4187 -0.6460 -0.4678
  170MPD1    C2 2643   0.231   3.686  13.269 -0.1909  0.1213 -0.2825
  170MPD1    C3 2644   0.361   3.644  13.272 -0.3298  0.6132 -0.1202
  170MPD1    C4 2645   0.403   3.546  13.184  0.2996 -0.8285 -0.0448
  170MPD1    C5 2646   0.312   3.495  13.095  0.3126 -0.2085 -0.3975
  170MPD1     H 2647   0.204   3.771  13.331 -1.4320 -0.3869 -0.1211
  170MPD1    H1 2648   0.499   3.498  13.197  1.8485  1.9313 -1.2417
  170MPD1    H2 2649   0.129   3.515  12.986 -0.4138 -1.7426  1.5879
  170MPD1    H3 2650   0.353   3.420  13.029 -0.4605  0.1900 -1.3413
  170MPD1     N 2651   0.450   3.679  13.377  0.0262 -0.0012  0.2476
  170MPD1    H5 2652   0.545   3.648  13.360  0.2901 -0.0970  1.8248
  170MPD1    N1 2653   0.012   3.686  13.166  0.5898 -0.3068  0.0696
  170MPD1    H6 2654   4.711   3.685  13.072  0.9875 -0.0457 -0.1042
  170MPD1    H7 2655   0.019   3.786  13.181  1.4941 -0.1812 -1.2549
  171MPD1     C 2656   4.229   0.423  15.225 -0.1630  0.8559 -0.3693
  171MPD1    C1 2657   4.153   0.326  15.166 -0.1248  0.1387 -0.3807
  171MPD1    C2 2658   4.175   0.203  15.213  0.4304 -0.4971  0.5993
  171MPD1    C3 2659   4.277   0.169  15.303  0.2840  0.1980  0.3810
  171MPD1    C4 2660   4.363   0.271  15.344  0.3289  0.0589 -0.8493
  171MPD1    C5 2661   4.328   0.397  15.316  0.7440  0.1937 -0.2451
  171MPD1     H 2662   4.114   0.125  15.170  2.1057 -1.0940 -0.6640
  171MPD1    H1 2663   4.447   0.255  15.409  0.5566 -0.9254 -1.3952
  171MPD1    H2 2664   4.221   0.526  15.193  2.7684  1.4048  0.6321
  171MPD1    H3 2665   4.387   0.477  15.357  0.2573  0.5417 -0.2204
  171MPD1     N 2666   4.299   0.041  15.357 -0.2755 -0.9086 -0.2301
  171MPD1    H5 2667   4.371   0.031  15.428  0.7668  0.4880 -1.1046
  171MPD1    N1 2668   4.049   0.363  15.080 -0.2145  0.0962  0.0557
  171MPD1    H6 2669   4.090   0.442  15.030  0.9468  0.5293  1.7004
  171MPD1    H7 2670   4.036   0.287  15.014 -0.0632  0.5687 -0.5165
  172MPD1     C 2671   3.457   4.044  17.253 -0.8449 -0.4214  0.7164
  172MPD1    C1 2672   3.323   4.020  17.268 -0.3166  0.3508 -0.0092
  172MPD1    C2 2673   3.256   4.071  17.371  0.2096 -0.1271 -0.0132
  172MPD1    C3 2674   3.314   4.150  17.464 -0.5164  0.1300  0.2917
  172MPD1    C4 2675   3.445   4.182  17.455 -0.8354  0.4545  0.1785
  172MPD1    C5 2676   3.518   4.129  17.348  0.6313 -0.5665 -0.4812
  172MPD1     H 2677   3.151   4.046  17.380  0.4780 -0.6723  1.6520
  172MPD1    H1 2678   3.506   4.237  17.525 -1.0906 -1.1746  1.6900
  172MPD1    H2 2679   3.505   3.991  17.172 -0.6760  0.3893  0.2906
  172MPD1    H3 2680   3.620   4.166  17.342  0.0879  0.5110 -2.7468
  172MPD1     N 2681   3.250   4.209  17.567  0.0128 -0.4903  0.0586
  172MPD1    H5 2682   3.308   4.262  17.630  1.2433  0.2230 -1.6823
  172MPD1    N1 2683   3.267   3.918  17.183 -0.0813 -0.0491 -0.1849
  172MPD1    H6 2684   3.305   3.924  17.089 -3.4389 -0.4913 -1.5854
  172MPD1    H7 2685   3.285   3.822  17.212  1.2955  0.6187  1.1794
  173MPD1     C 2686   0.281   4.400  13.476 -0.6076 -0.3867 -0.4789
  173MPD1    C1 2687   0.165   4.352  13.531  0.0916  0.0113 -0.2041
  173MPD1    C2 2688   0.183   4.287  13.650 -0.1611  0.1328  0.3538
  173MPD1    C3 2689   0.309   4.251  13.697  1.1001 -0.3912  0.1093
  173MPD1    C4 2690   0.421   4.293  13.630 -0.6762  0.1632  0.4082
  173MPD1    C5 2691   0.405   4.375  13.525  0.6302  0.5710  0.7192
  173MPD1     H 2692   0.098   4.279  13.716 -0.8854  1.7759 -0.3865
  173MPD1    H1 2693   0.519   4.261  13.664 -1.4132 -0.6255  1.8080
  173MPD1    H2 2694   0.282   4.469  13.392  0.6757 -1.7093 -1.5615
  173MPD1    H3 2695   0.492   4.407  13.469 -0.1285  0.0812 -0.7580
  173MPD1     N 2696   0.317   4.197  13.831 -0.2311  0.0508  0.1467
  173MPD1    H5 2697   0.232   4.157  13.870 -0.3296  0.4034  0.2873
  173MPD1    N1 2698   0.049   4.414  13.487  0.5554  0.8608 -0.2059
  173MPD1    H6 2699   0.037   4.410  13.386 -0.1339  1.9456 -0.1776
  173MPD1    H7 2700   4.709   4.358  13.518 -0.7193  0.5560 -3.9361
  174MPD1     C 2701   1.105   3.654  14.153 -0.3858 -0.2072  0.3819
  174MPD1    C1 2702   0.996   3.608  14.223  0.3286 -0.5080  0.3834
  174MPD1    C2 2703   0.876   3.684  14.215  0.3460 -0.5023 -0.0919
  174MPD1    C3 2704   0.855   3.781  14.116  0.4716 -0.4433 -0.2322
  174MPD1    C4 2705   0.966   3.826  14.047 -0.1863 -0.2894 -0.2508
  174MPD1    C5 2706   1.086   3.766  14.073  0.4228 -0.2014 -0.0811
  174MPD1     H 2707   0.801   3.654  14.288  0.6100  0.0299  0.3946
  174MPD1    H1 2708   0.965   3.912  13.981  3.5295  0.6762  0.8921
  174MPD1    H2 2709   1.192   3.590  14.150 -0.3327 -0.0743 -1.2060
  174MPD1    H3 2710   1.168   3.799  14.010  0.0259  1.2090  0.1453
  174MPD1     N 2711   0.735   3.856  14.106 -0.3085 -0.3367  0.0901
  174MPD1    H5 2712   0.747   3.941  14.052  0.8194  0.3034  1.3473
  174MPD1    N1 2713   1.019   3.513  14.323  0.7254 -0.1082 -0.1254
  174MPD1    H6 2714   0.933   3.460  14.338  0.5077  0.4550  0.6450
  174MPD1    H7 2715   1.091   3.451  14.287  0.3669 -1.3891  1.3569
  175MPD1     C 2716   3.705   0.278  15.065  0.3561  0.3077  0.2322
  175MPD1    C1 2717   3.723   0.217  15.192 -0.0042 -0.5122  0.2582
  175MPD1    C2 2718   3.609   0.169  15.256 -1.3292 -0.0429 -0.5557
  175MPD1    C3 2719   3.479   0.182  15.203  0.3130  0.6139 -0.1458
  175MPD1    C4 2720   3.468   0.237  15.072  0.0888 -0.1658  0.5375
  175MPD1    C5 2721   3.579   0.289  15.009  0.0100 -0.5372 -0.0202
  175MPD1     H 2722   3.622   0.128  15.355  0.6585 -0.6662 -1.0740
  175MPD1    H1 2723   3.370   0.260  15.033  0.9691  0.9290 -1.0127
  175MPD1    H2 2724   3.788   0.318  15.008  0.0347 -0.3924 -0.7417
  175MPD1    H3 2725   3.570   0.330  14.909 -2.6003 -0.6337  0.1820
  175MPD1     N 2726   3.375   0.157  15.286 -0.0331  0.7151 -0.2140
  175MPD1    H5 2727   3.401   0.138  15.382  0.3523  0.1654 -0.4254
  175MPD1    N1 2728   3.852   0.198  15.231  0.7447  0.5070  0.0518
  175MPD1    H6 2729   3.926   0.244  15.180  0.5553 -1.8814 -2.3798
  175MPD1    H7 2730   3.865   0.196  15.332 -1.2776  4.4216  0.3804
  176MPD1     C 2731   0.341   0.744  16.206  0.2411  0.5351 -0.4994
  176MPD1    C1 2732   0.428   0.774  16.299  0.0280 -0.3959 -0.9005
  176MPD1    C2 2733   0.412   0.895  16.359  0.3297  0.1705  0.2821
  176MPD1    C3 2734   0.323   0.990  16.314  0.0467  0.9987  0.3636
  176MPD1    C4 2735   0.240   0.958  16.209  0.6127 -0.0028 -0.2557
  176MPD1    C5 2736   0.253   0.833  16.152 -1.1287  0.5906 -0.1557
  176MPD1     H 2737   0.475   0.928  16.442  3.4553 -0.4664 -1.8175
  176MPD1    H1 2738   0.159   1.018  16.169  2.0884  3.9483  2.6743
  176MPD1    H2 2739   0.361   0.645  16.166 -0.2833 -0.4085  1.5644
  176MPD1    H3 2740   0.187   0.805  16.071  0.5872 -0.9865 -1.0092
  176MPD1     N 2741   0.314   1.108  16.389 -0.2432 -0.0973 -0.3654
  176MPD1    H5 2742   0.383   1.112  16.463 -0.9821 -1.3986  0.3751
  176MPD1    N1 2743   0.507   0.676  16.354 -0.1904  0.1325  0.0654
  176MPD1    H6 2744   0.457   0.615  16.418 -0.8397 -1.5836 -2.0637
  176MPD1    H7 2745   0.585   0.718  16.404 -0.2485  0.7811 -0.3829
  177MPD1     C 2746   3.229   1.771  10.188  0.5242 -0.5471  0.0804
  177MPD1    C1 2747   3.136   1.724  10.098 -0.3946  0.0449  0.2923
  177MPD1    C2 2748   3.098   1.809   9.995 -0.0064  0.1153 -0.8588
  177MPD1    C3 2749   3.145   1.932   9.982  0.3890 -0.7556  0.3814
  177MPD1    C4 2750   3.236   1.979  10.078 -0.2351 -0.9465 -0.6125
  177MPD1    C5 2751   3.270   1.901  10.185  0.3846 -0.3193 -0.4034
  177MPD1     H 2752   3.037   1.762   9.919  0.6436  1.0145 -1.9283
  177MPD1    H1 2753   3.269   2.081  10.070  0.3741 -1.1555 -0.7493
  177MPD1    H2 2754   3.266   1.711  10.270 -1.0958  0.8212  1.8151
  177MPD1    H3 2755   3.344   1.924  10.260  0.7322 -1.4207 -0.4017
  177MPD1     N 2756   3.101   2.014   9.874  0.3350 -0.5732 -0.4312
  177MPD1    H5 2757   3.020   1.982   9.822 -1.9145  1.6067  1.7478
  177MPD1    N1 2758   3.108   1.588  10.088 -0.2065 -0.4477  0.1621
  177MPD1    H6 2759   3.107   1.551  10.183 -0.5850 -0.7440  0.0422
  177MPD1    H7 2760   3.024   1.563  10.036  1.2116  0.8032 -2.7516
  178MPD1     C 2761   0.442   2.879  17.400 -0.0537 -0.6057 -0.3853
  178MPD1    C1 2762   0.521   2.995  17.391  0.2068  0.4090  0.3061
  178MPD1    C2 2763   0.627   2.994  17.306  0.0515  0.2827  0.1961
  178MPD1    C3 2764   0.648   2.889  17.220 -0.5930  0.4513  0.4593
  178MPD1    C4 2765   0.572   2.775  17.224  0.1873  0.4787 -0.1038
  178MPD1    C5 2766   0.464   2.770  17.314  0.1309 -0.0693  0.0105
  178MPD1     H 2767   0.681   3.088  17.311  2.4202 -0.9834 -1.4215
  178MPD1    H1 2768   0.593   2.689  17.161 -4.0156 -1.8286  1.6373
  178MPD1    H2 2769   0.363   2.869  17.472 -0.2744  1.8124 -0.2856
  178MPD1    H3 2770   0.411   2.676  17.326 -0.4652  0.3541  0.7380
  178MPD1     N 2771   0.750   2.890  17.121 -0.3320 -0.5562  0.0636
  178MPD1    H5 2772   0.760   2.813  17.056  0.4904 -1.1477  0.8796
  178MPD1    N1 2773   0.500   3.098  17.486  0.0118  0.5058 -0.2506
  178MPD1    H6 2774   0.528   3.192  17.461  2.0836 -0.0370 -0.0164
  178MPD1    H7 2775   0.403   3.097  17.517 -0.1015  0.4272 -0.6158
  179MPD1     C 2776   0.562   1.459  16.190  0.1809  0.2528 -0.3665
  179MPD1    C1 2777   0.534   1.451  16.058 -0.1453  0.3156 -0.1408
  179MPD1    C2 2778   0.497   1.335  15.998  0.1803 -0.5845 -0.2677
  179MPD1    C3 2779   0.518   1.219  16.071  0.4615 -0.4238 -0.6507
  179MPD1    C4 2780   0.561   1.220  16.198  0.6362 -0.0942  0.4017
  179MPD1    C5 2781   0.591   1.340  16.263 -0.5069  0.1699 -1.1117
  179MPD1     H 2782   0.464   1.341  15.895 -1.4331 -1.2236  0.2164
  179MPD1    H1 2783   0.572   1.125  16.249  1.3012 -0.2905 -0.0956
  179MPD1    H2 2784   0.565   1.555  16.240 -0.8833  0.4668 -0.7260
  179MPD1    H3 2785   0.632   1.354  16.362  1.1323  1.2890 -1.9399
  179MPD1     N 2786   0.492   1.091  16.018 -0.0810  0.4189  0.4423
  179MPD1    H5 2787   0.505   1.013  16.082 -0.2350  0.0116 -0.0264
  179MPD1    N1 2788   0.494   1.573  15.997  0.4349 -0.0804  0.5558
  179MPD1    H6 2789   0.491   1.582  15.896 -1.7235  0.9912  0.7176
  179MPD1    H7 2790   0.556   1.648  16.028  1.2832 -0.9723  1.0434
  180MPD1     C 2791   0.698   1.870  15.423 -0.0522 -0.1162  0.2713
  180MPD1    C1 2792   0.573   1.923  15.427  0.7246  0.5837 -0.6397
  180MPD1    C2 2793   0.547   2.017  15.332  0.4282  0.3632  0.3698
  180MPD1    C3 2794   0.628   2.032  15.217  0.6522  0.2403 -0.1844
  180MPD1    C4 2795   0.752   1.971  15.216 -0.3817  0.2999 -0.0112
  180MPD1    C5 2796   0.784   1.898  15.326 -0.3177 -0.8344  0.6434
  180MPD1     H 2797   0.445   2.052  15.327 -0.5912 -2.8479 -1.5902
  180MPD1    H1 2798   0.820   1.977  15.131  0.2570 -2.3049  0.3077
  180MPD1    H2 2799   0.740   1.817  15.507  0.4840  0.0944  0.1374
  180MPD1    H3 2800   0.885   1.858  15.334  1.2121  2.6944 -0.9678
  180MPD1     N 2801   0.578   2.113  15.119 -0.5151  0.1788  0.5387
  180MPD1    H5 2802   0.483   2.143  15.141 -0.0960 -0.0712  2.7540
  180MPD1    N1 2803   0.493   1.899  15.541 -0.3283 -0.1192 -0.0710
  180MPD1    H6 2804   0.393   1.917  15.529 -0.0200  1.6274 -0.0556
  180MPD1    H7 2805   0.503   1.806  15.582  1.5320 -0.2799 -0.9048
  181MPD1     C 2806   1.901   4.568  10.614  0.2134 -0.3873  0.1306
  181MPD1    C1 2807   1.989   4.510  10.703 -0.2705  0.0531  0.5104
  181MPD1    C2 2808   2.125   4.527  10.688  0.1737  0.2701  0.2243
  181MPD1    C3 2809   2.176   4.600  10.582  0.0117 -0.2532 -0.0863
  181MPD1    C4 2810   2.087   4.640  10.482 -0.8954  0.4786 -0.0214
  181MPD1    C5 2811   1.953   4.626  10.504  0.2300 -0.3834 -0.5957
  181MPD1     H 2812   2.198   4.482  10.755 -0.8002 -0.7054  0.6181
  181MPD1    H1 2813   2.129   4.688  10.395  1.1902 -0.4813  0.4460
  181MPD1    H2 2814   1.793   4.571  10.617  0.1402 -2.6522 -0.4000
  181MPD1    H3 2815   1.896   4.683  10.432 -0.5159 -0.3777  0.0040
  181MPD1     N 2816   2.314   4.628  10.569 -0.2492  0.2533  0.3535
  181MPD1    H5 2817   2.325   4.669  10.477 -0.2424  0.6766  0.5460
  181MPD1    N1 2818   1.938   4.464  10.825  0.1525  0.3681 -0.6963
  181MPD1    H6 2819   1.998   4.397  10.873 -1.0843 -0.0696  0.2338
  181MPD1    H7 2820   1.843   4.430  10.817  0.3995  0.0623 -2.1820
  182MPD1     C 2821   3.543   4.369   1.697  0.1918 -0.0403 -0.1073
  182MPD1    C1 2822   3.579   4.236   1.706  0.0658  0.2612  0.0577
  182MPD1    C2 2823   3.538   4.156   1.610 -0.3517  0.2242 -0.3997
  182MPD1    C3 2824   3.460   4.188   1.503 -0.2899 -0.0656  0.3062
  182MPD1    C4 2825   3.408   4.318   1.502 -0.0272  0.4006  0.0643
  182MPD1    C5 2826   3.451   4.410   1.602 -0.5177 -0.4968 -0.3124
  182MPD1     H 2827   3.545   4.049   1.621 -0.0233  0.3787  0.8623
  182MPD1    H1 2828   3.352   4.353   1.417  0.4759  1.0434 -0.0062
  182MPD1    H2 2829   3.564   4.445   1.772 -1.3583 -1.1749  1.4748
  182MPD1    H3 2830   3.417   4.513   1.602  2.9691  0.6774  0.3628
  182MPD1     N 2831   3.410   4.096   1.399  0.3883 -0.1617  0.2298
  182MPD1    H5 2832   3.351   4.139   1.329 -1.8410 -0.7849  1.7402
  182MPD1    N1 2833   3.635   4.180   1.824  0.4905  0.0704 -0.6302
  182MPD1    H6 2834   3.688   4.249   1.878  0.1086  0.4068 -0.6905
  182MPD1    H7 2835   3.680   4.088   1.820 -1.8615 -1.0800 -0.7841
  183MPD1     C 2836   2.402   2.918   8.999  0.2128  0.0094  0.2452
  183MPD1    C1 2837   2.501   2.948   9.083 -0.4105  0.0195 -0.1090
  183MPD1    C2 2838   2.508   3.083   9.126  0.0443 -0.2657  0.8663
  183MPD1    C3 2839   2.416   3.177   9.088 -0.1384 -0.3245  0.3616
  183MPD1    C4 2840   2.313   3.136   9.010  0.1623 -0.6427 -0.9826
  183MPD1    C5 2841   2.302   3.006   8.960 -0.0691 -0.1379  0.0256
  183MPD1     H 2842   2.577   3.119   9.201 -0.1341  0.9784  0.4334
  183MPD1    H1 2843   2.233   3.201   8.977  1.0182  0.1732 -1.4344
  183MPD1    H2 2844   2.400   2.817   8.959  0.9881 -0.1239  0.5417
  183MPD1    H3 2845   2.233   2.978   8.881 -0.7670 -0.6541  0.8102
  183MPD1     N 2846   2.433   3.304   9.134 -0.0519 -0.3679 -0.7013
  183MPD1    H5 2847   2.518   3.318   9.188 -1.0233  1.9714  0.2002
  183MPD1    N1 2848   2.599   2.853   9.115  0.1048  0.0318  0.0079
  183MPD1    H6 2849   2.552   2.762   9.113 -0.5279  0.3374  1.7120
  183MPD1    H7 2850   2.637   2.864   9.208  1.2960  1.2301 -0.6334
  184MPD1     C 2851   1.872   2.389  10.659  0.0591  0.3374 -0.2529
  184MPD1    C1 2852   1.963   2.290  10.625  0.1886  0.3134  0.1881
  184MPD1    C2 2853   2.021   2.295  10.501 -0.1867  0.0321 -0.2227
  184MPD1    C3 2854   2.011   2.404  10.415  0.6079 -0.1268  0.0968
  184MPD1    C4 2855   1.925   2.502  10.459 -0.1759 -0.8825  0.7862
  184MPD1    C5 2856   1.857   2.493  10.573 -0.7268 -0.1061  0.0292
  184MPD1     H 2857   2.083   2.208  10.485  1.7512  0.9529  2.3076
  184MPD1    H1 2858   1.911   2.588  10.395  3.8945 -1.7970 -1.3488
  184MPD1    H2 2859   1.805   2.381  10.743 -0.0416  0.2195 -0.3449
  184MPD1    H3 2860   1.788   2.574  10.592 -0.9172  0.2991 -2.4347
  184MPD1     N 2861   2.083   2.417  10.293 -0.1724 -0.0222 -0.1750
  184MPD1    H5 2862   2.058   2.502  10.243 -0.1654 -0.1608 -0.4155
  184MPD1    N1 2863   1.972   2.173  10.694 -0.0283 -0.0034  0.1626
  184MPD1    H6 2864   2.070   2.147  10.691  0.2259  0.9980 -0.2809
  184MPD1    H7 2865   1.954   2.202  10.790  1.6694 -0.7075  0.6906
  185MPD1     C 2866   2.103   2.530   9.311 -0.0415  0.6569 -0.1739
  185MPD1    C1 2867   2.041   2.446   9.398 -0.1663  0.3003  0.1862
  185MPD1    C2 2868   2.087   2.444   9.532 -0.7217  0.5237  0.3933
  185MPD1    C3 2869   2.204   2.501   9.570 -0.1519 -0.5038 -0.7113
  185MPD1    C4 2870   2.269   2.571   9.474 -0.1368 -0.3463 -0.8800
  185MPD1    C5 2871   2.219   2.588   9.351 -0.0938 -0.7269  0.0653
  185MPD1     H 2872   2.038   2.376   9.600  0.0216  0.4195  0.8249
  185MPD1    H1 2873   2.363   2.622   9.488 -0.9303  0.4332  1.4953
  185MPD1    H2 2874   2.073   2.541   9.208 -0.2721  0.5322 -0.1203
  185MPD1    H3 2875   2.277   2.647   9.281  0.1957 -0.5498  0.4596
  185MPD1     N 2876   2.256   2.485   9.704  0.2166  0.6363  0.6085
  185MPD1    H5 2877   2.342   2.536   9.722  1.2104 -1.5700  2.0328
  185MPD1    N1 2878   1.920   2.387   9.364 -0.1043  0.1481 -0.2580
  185MPD1    H6 2879   1.882   2.320   9.430 -2.0025  0.4551 -1.0443
  185MPD1    H7 2880   1.928   2.357   9.266  0.4458  0.1034 -0.2005
  186MPD1     C 2881   1.142   0.455  15.856 -0.3892  0.0093  0.8081
  186MPD1    C1 2882   1.045   0.485  15.944  0.4822 -0.3743 -0.2624
  186MPD1    C2 2883   1.055   0.616  16.004 -0.3460  0.2194  0.2443
  186MPD1    C3 2884   1.155   0.707  15.972  0.3073 -0.2044 -0.1352
  186MPD1    C4 2885   1.243   0.672  15.878  0.1795  0.2519 -0.4802
  186MPD1    C5 2886   1.240   0.546  15.815  0.3129 -0.4557  0.0427
  186MPD1     H 2887   0.980   0.637  16.079 -1.3136 -2.9078  0.1466
  186MPD1    H1 2888   1.310   0.748  15.842 -0.7004  0.8675 -0.8099
  186MPD1    H2 2889   1.137   0.360  15.805  0.6051  0.6865 -0.5303
  186MPD1    H3 2890   1.317   0.517  15.745  2.1603  0.7163  1.5884
  186MPD1     N 2891   1.141   0.845  16.004  0.7453  0.0232 -0.2759
  186MPD1    H5 2892   1.199   0.910  15.952 -1.2832  0.6666 -1.7210
  186MPD1    N1 2893   0.957   0.394  15.992 -0.1168  0.1431  0.2583
  186MPD1    H6 2894   0.929   0.324  15.923  0.0145  1.5958 -1.2458
  186MPD1    H7 2895   0.866   0.438  16.007 -0.5065 -0.1833 -1.1547
  187MPD1     C 2896   4.395   3.656  17.609  0.0963  0.0045 -0.1040
  187MPD1    C1 2897   4.378   3.517  17.611 -0.3714 -0.2603 -0.0503
  187MPD1    C2 2898   4.473   3.437  17.549 -0.4976 -0.4577 -0.3085
  187MPD1    C3 2899   4.570   3.478  17.458 -0.6118 -0.3498  0.1752
  187MPD1    C4 2900   4.583   3.615  17.458 -0.0496 -0.7362  0.5041
  187MPD1    C5 2901   4.500   3.701  17.525  0.6572 -0.0940  0.2946
  187MPD1     H 2902   4.485   3.333  17.576 -0.7798 -0.6326 -0.8588
  187MPD1    H1 2903   4.659   3.663  17.397 -0.1920  0.5848  1.3545
  187MPD1    H2 2904   4.330   3.719  17.669 -0.4862  0.9773 -1.7414
  187MPD1    H3 2905   4.526   3.806  17.519  0.0604 -0.0807 -1.8207
  187MPD1     N 2906   4.656   3.388  17.382 -0.0411  0.2865 -0.5060
  187MPD1    H5 2907   0.005   3.430  17.352 -0.1045  1.1208  0.4795
  187MPD1    N1 2908   4.285   3.474  17.702  0.3006  0.3311  0.5989
  187MPD1    H6 2909   4.255   3.377  17.694  0.9967  0.2229 -0.6678
  187MPD1    H7 2910   4.205   3.536  17.693  2.2201  2.7263 -0.0176
  188MPD1     C 2911   0.052   3.622  10.266 -1.0266  0.1735  0.7723
  188MPD1    C1 2912   0.175   3.575  10.230 -0.1859  0.9641 -0.8857
  188MPD1    C2 2913   0.183   3.440  10.234 -0.6254 -0.1658  0.2160
  188MPD1    C3 2914   0.096   3.354  10.292  0.4056 -0.1988  0.6604
  188MPD1    C4 2915   4.720   3.403  10.348  0.0321  1.0580  1.1521
  188MPD1    C5 2916   4.697   3.536  10.327 -0.1520  0.4737  0.2248
  188MPD1     H 2917   0.278   3.399  10.200 -1.2212  0.5537 -2.3374
  188MPD1    H1 2918   4.645   3.336  10.388 -0.2556  1.4064  1.1890
  188MPD1    H2 2919   0.037   3.729  10.276 -0.4189  0.3614 -0.3596
  188MPD1    H3 2920   4.600   3.572  10.358 -0.5864  0.7249 -1.4082
  188MPD1     N 2921   0.112   3.214  10.293 -0.8924 -0.3533  0.3156
  188MPD1    H5 2922   0.036   3.162  10.336 -0.3090 -0.6001  1.0407
  188MPD1    N1 2923   0.265   3.654  10.162  0.1718  0.1045 -0.8765
  188MPD1    H6 2924   0.259   3.748  10.199  2.3041 -0.2466  0.4148
  188MPD1    H7 2925   0.365   3.632  10.162  0.0481 -0.4619 -1.2833
  189MPD1     C 2926   1.953   3.703   0.794 -0.7698 -0.0311  0.2818
  189MPD1    C1 2927   1.842   3.708   0.877 -0.4995 -1.0792 -0.1747
  189MPD1    C2 2928   1.730   3.783   0.835 -0.2100 -0.1885  0.4250
  189MPD1    C3 2929   1.738   3.856   0.723 -0.5145  0.0980 -0.3599
  189MPD1    C4 2930   1.847   3.862   0.647 -0.3219 -0.3466  0.9362
  189MPD1    C5 2931   1.957   3.787   0.686 -0.6614 -0.7208 -0.1361
  189MPD1     H 2932   1.644   3.797   0.899 -1.0363 -0.2402 -0.6927
  189MPD1    H1 2933   1.854   3.913   0.551  2.9384 -2.6169 -0.0258
  189MPD1    H2 2934   2.038   3.640   0.817 -0.6796  0.0240  0.0996
  189MPD1    H3 2935   2.045   3.782   0.623 -1.5371 -0.7747 -1.3422
  189MPD1     N 2936   1.624   3.935   0.698  0.1202  0.3081 -0.3689
  189MPD1    H5 2937   1.545   3.922   0.761  1.5556 -1.0229  1.1236
  189MPD1    N1 2938   1.825   3.626   0.983 -1.0466 -0.4284  0.2612
  189MPD1    H6 2939   1.912   3.602   1.030  0.6223  2.7484 -1.2218
  189MPD1    H7 2940   1.762   3.663   1.053  0.1066 -1.5662  1.8990
  190MPD1     C 2941   0.914   1.367  15.869  0.3592 -0.5281  0.0554
  190MPD1    C1 2942   1.001   1.362  15.763  0.6260  0.2408 -0.3395
  190MPD1    C2 2943   1.040   1.487  15.701  0.4838 -0.1109 -0.3993
  190MPD1    C3 2944   0.972   1.603  15.736 -0.4437 -0.2387  0.2064
  190MPD1    C4 2945   0.880   1.604  15.837  0.3012  0.6593 -0.6493
  190MPD1    C5 2946   0.860   1.490  15.903 -0.0850 -0.0414  0.2431
  190MPD1     H 2947   1.120   1.487  15.629 -0.0009  1.0882 -0.9269
  190MPD1    H1 2948   0.835   1.693  15.880 -0.6234  0.8260 -1.9365
  190MPD1    H2 2949   0.887   1.278  15.924  1.3092 -1.1957 -0.5676
  190MPD1    H3 2950   0.785   1.495  15.981  0.4710 -2.8904  0.9657
  190MPD1     N 2951   1.008   1.718  15.662 -0.0169  0.1155 -0.6214
  190MPD1    H5 2952   1.065   1.689  15.584  2.5138 -0.4075  1.4061
  190MPD1    N1 2953   1.077   1.248  15.746 -0.4594 -0.2133 -0.4919
  190MPD1    H6 2954   1.121   1.243  15.654  2.3898  0.5965  0.8252
  190MPD1    H7 2955   1.005   1.177  15.748  0.6447 -1.3107 -0.0802
  191MPD1     C 2956   0.176   3.503  12.625  1.0638 -0.6152 -0.2110
  191MPD1    C1 2957   0.038   3.506  12.604 -0.4803  0.3791 -0.1855
  191MPD1    C2 2958   4.701   3.596  12.677 -0.6110 -0.0860 -0.0097
  191MPD1    C3 2959   0.026   3.694  12.755 -0.5152 -0.5652 -0.0308
  191MPD1    C4 2960   0.162   3.686  12.780 -0.1180 -0.1865  0.6819
  191MPD1    C5 2961   0.234   3.593  12.712 -0.1865  0.2758  0.1942
  191MPD1     H 2962   4.594   3.593  12.659 -0.4948  0.0724 -0.7288
  191MPD1    H1 2963   0.209   3.748  12.856  0.2783  2.5493 -1.7869
  191MPD1    H2 2964   0.238   3.427  12.579  1.6871  1.4388 -2.7829
  191MPD1    H3 2965   0.338   3.577  12.736  0.0230  0.9405 -0.2861
  191MPD1     N 2966   4.684   3.779  12.836  0.3804  0.6148  0.6899
  191MPD1    H5 2967   4.732   3.843  12.898  0.2937 -0.0845  1.4833
  191MPD1    N1 2968   4.709   3.409  12.530 -0.3359  0.5202 -0.4368
  191MPD1    H6 2969   0.020   3.355  12.461  0.3021  0.6430 -0.0678
  191MPD1    H7 2970   4.635   3.444  12.470 -0.7459  0.2123 -0.1131
  192MPD1     C 2971   4.148   4.071  13.647  0.1774  0.3661  0.5025
  192MPD1    C1 2972   4.212   3.960  13.606 -0.4118 -0.6235 -0.4542
  192MPD1    C2 2973   4.259   3.970  13.479  0.2962 -0.0642  0.1021
  192MPD1    C3 2974   4.244   4.075  13.392  0.2728 -0.2768  1.0301
  192MPD1    C4 2975   4.165   4.179  13.437 -0.3637  0.1336  0.6001
  192MPD1    C5 2976   4.121   4.175  13.565  0.3512  0.0147  0.1044
  192MPD1     H 2977   4.322   3.888  13.447  0.5953  1.4070 -3.0753
  192MPD1    H1 2978   4.153   4.271  13.380  0.7154  0.7134  1.3080
  192MPD1    H2 2979   4.106   4.083  13.746  2.5514 -1.0828  1.6803
  192MPD1    H3 2980   4.068   4.259  13.609 -1.3974 -2.2336  2.2652
  192MPD1     N 2981   4.293   4.087  13.263 -0.3249 -0.4145 -0.5710
  192MPD1    H5 2982   4.265   4.170  13.211  1.4239  0.0172 -0.8122
  192MPD1    N1 2983   4.251   3.859  13.689 -0.3969 -0.2697 -0.3225
  192MPD1    H6 2984   4.187   3.843  13.767  1.2025 -0.8609  0.8668
  192MPD1    H7 2985   4.267   3.773  13.637 -1.1287  0.3037 -1.5145
  193MPD1     C 2986   3.956   4.248  15.619  0.0131  0.0201  0.2281
  193MPD1    C1 2987   3.962   4.382  15.653  0.4816  0.0197  0.4975
  193MPD1    C2 2988   4.024   4.417  15.772 -0.2686 -0.7464  0.4552
  193MPD1    C3 2989   4.085   4.324  15.852  0.2591  0.9365  0.0468
  193MPD1    C4 2990   4.087   4.191  15.805  0.3888 -0.1547 -0.0455
  193MPD1    C5 2991   4.021   4.150  15.694 -1.1214 -0.3633 -0.8334
  193MPD1     H 2992   4.013   4.517  15.811  0.9676 -0.9308  1.2692
  193MPD1    H1 2993   4.131   4.112  15.865  1.6612 -0.3291 -1.2273
  193MPD1    H2 2994   3.899   4.218  15.532 -1.0344  0.7623  0.6636
  193MPD1    H3 2995   4.026   4.044  15.672 -1.8447  0.0929 -3.2435
  193MPD1     N 2996   4.151   4.341  15.977  0.0420  1.2581  0.5546
  193MPD1    H5 2997   4.175   4.260  16.033  0.9008 -0.7046 -2.6901
  193MPD1    N1 2998   3.881   4.465  15.577  0.4371 -0.0923 -0.2273
  193MPD1    H6 2999   3.908   4.564  15.575  2.6398 -0.6783 -0.1990
  193MPD1    H7 3000   3.872   4.439  15.479  0.8513 -2.4537  0.3563
  194MPD1     C 3001   1.777   1.772  16.897  0.5087 -0.0369 -0.0504
  194MPD1    C1 3002   1.761   1.688  17.007 -0.0321  0.4844 -0.3106
  194MPD1    C2 3003   1.802   1.558  16.996  0.5477 -0.0766  0.4160
  194MPD1    C3 3004   1.861   1.510  16.888  0.7692 -0.1727 -0.0268
  194MPD1    C4 3005   1.867   1.592  16.775  0.6066  0.2957 -0.4990
  194MPD1    C5 3006   1.816   1.720  16.786 -0.0612 -0.4632 -0.3407
  194MPD1     H 3007   1.784   1.494  17.082  0.4265  1.4536  1.5388
  194MPD1    H1 3008   1.904   1.562  16.678  1.0465  0.3265 -0.3404
  194MPD1    H2 3009   1.761   1.879  16.893 -3.1562 -0.5885  0.1206
  194MPD1    H3 3010   1.819   1.783  16.698  2.1482 -1.2394 -0.8303
  194MPD1     N 3011   1.921   1.378  16.868  0.6593  0.4786  0.0528
  194MPD1    H5 3012   1.948   1.351  16.773  0.1302 -0.0031  0.0379
  194MPD1    N1 3013   1.736   1.745  17.133  0.9899  0.6881 -0.1480
  194MPD1    H6 3014   1.710   1.680  17.207  0.3291 -1.0152 -1.8928
  194MPD1    H7 3015   1.665   1.819  17.125  1.5775  1.3781  1.0296
  195MPD1     C 3016   0.277   2.445  16.870  0.2896  0.1517  0.0543
  195MPD1    C1 3017   0.237   2.502  16.988  0.0838 -0.4781 -0.2680
  195MPD1    C2 3018   0.178   2.417  17.079 -0.7730  0.3812 -0.5868
  195MPD1    C3 3019   0.158   2.285  17.051  0.3940 -1.1107 -0.3336
  195MPD1    C4 3020   0.193   2.229  16.932  0.0268  0.5371  0.3457
  195MPD1    C5 3021   0.258   2.313  16.843 -0.3399 -0.2955  0.5571
  195MPD1     H 3022   0.180   2.458  17.179  0.1239  1.3810 -1.0149
  195MPD1    H1 3023   0.178   2.123  16.914  0.4892  0.4467  0.4819
  195MPD1    H2 3024   0.321   2.494  16.784 -0.6169  1.8308  0.5479
  195MPD1    H3 3025   0.293   2.283  16.745 -0.7620 -0.5048  0.4727
  195MPD1     N 3026   0.115   2.189  17.149  0.7073  0.5157  0.7228
  195MPD1    H5 3027   0.092   2.095  17.117  2.4980  0.4736 -0.4701
  195MPD1    N1 3028   0.285   2.624  17.032 -0.4429  0.2529 -0.6879
  195MPD1    H6 3029   0.295   2.689  16.954 -1.3212  3.0771  1.5501
  195MPD1    H7 3030   0.215   2.665  17.094 -0.3448  0.7235 -0.8878
  196MPD1     C 3031   3.644   2.937  17.702  0.5200  0.4640  0.1229
  196MPD1    C1 3032   3.669   3.073  17.707  0.4813 -0.4751 -0.1512
  196MPD1    C2 3033   3.670   3.140   0.074 -0.1083 -0.4641  0.5221
  196MPD1    C3 3034   3.674   3.076   0.195 -0.1122 -0.3924 -0.2544
  196MPD1    C4 3035   3.638   2.942   0.194  0.2592 -0.4485 -0.1959
  196MPD1    C5 3036   3.636   2.873   0.070  0.0472  0.5778 -0.3171
  196MPD1     H 3037   3.674   3.248   0.070  1.0484 -0.5212 -0.1137
  196MPD1    H1 3038   3.604   2.891   0.283 -0.2886 -0.0265 -0.1588
  196MPD1    H2 3039   3.614   2.878  17.616  1.6228 -1.0380  0.7627
  196MPD1    H3 3040   3.622   2.766   0.067 -1.2369  0.7191  1.0013
  196MPD1     N 3041   3.689   3.143   0.319  0.6937 -0.2141  0.0399
  196MPD1    H5 3042   3.700   3.081   0.398  2.4728  0.5689  0.3915
  196MPD1    N1 3043   3.656   3.142  17.584 -0.3938  0.0298 -0.1432
  196MPD1    H6 3044   3.683   3.095  17.497 -1.4549 -2.9612  1.1280
  196MPD1    H7 3045   3.700   3.233  17.584 -1.3722  0.5029  0.3949
  197MPD1     C 3046   2.822   4.000  16.835  0.1796 -0.1103 -0.9676
  197MPD1    C1 3047   2.954   4.022  16.875  0.1079  0.5719  0.4433
  197MPD1    C2 3048   3.015   4.147  16.857 -0.1777  0.1070 -0.0473
  197MPD1    C3 3049   2.957   4.234  16.764  0.0114  0.6307 -0.2832
  197MPD1    C4 3050   2.837   4.191  16.701 -0.0321 -0.0016 -0.3066
  197MPD1    C5 3051   2.775   4.071  16.726 -0.2461  0.7139 -0.3491
  197MPD1     H 3052   3.108   4.172  16.906 -1.4068  0.1553  2.2695
  197MPD1    H1 3053   2.797   4.257  16.626 -0.4171 -1.5708 -1.4877
  197MPD1    H2 3054   2.764   3.910  16.854  0.3587  0.5782  2.8124
  197MPD1    H3 3055   2.680   4.059  16.674  0.0280  0.3417 -0.7558
  197MPD1     N 3056   3.014   4.358  16.727  0.5369 -0.1513  0.0587
  197MPD1    H5 3057   2.980   4.416  16.650  2.0578  0.1248 -0.4231
  197MPD1    N1 3058   3.005   3.931  16.956  0.2958 -0.0008  0.4086
  197MPD1    H6 3059   2.959   3.843  16.934 -0.6199  0.9562 -1.4478
  197MPD1    H7 3060   3.107   3.930  16.957  0.2809 -0.0583  2.7393
  198MPD1     C 3061   4.380   3.459  15.423 -0.4591  0.5774 -0.4115
  198MPD1    C1 3062   4.467   3.492  15.526  0.4871  0.8162  0.0851
  198MPD1    C2 3063   4.602   3.500  15.500  0.6674  0.6201 -0.6480
  198MPD1    C3 3064   4.648   3.495  15.371  0.1108  0.6169 -0.0936
  198MPD1    C4 3065   4.563   3.462  15.269  0.4654  0.3901 -1.0531
  198MPD1    C5 3066   4.433   3.438  15.300  0.3868 -0.7355 -0.2430
  198MPD1     H 3067   4.676   3.499  15.580 -0.5465 -0.9037  0.4569
  198MPD1    H1 3068   4.598   3.450  15.167 -2.1610 -2.0316 -1.6620
  198MPD1    H2 3069   4.275   3.449  15.448  0.2188 -0.1451  2.0894
  198MPD1    H3 3070   4.370   3.414  15.216 -1.8234  0.3761  1.0752
  198MPD1     N 3071   0.046   3.514  15.368 -0.4125  0.4082  0.2096
  198MPD1    H5 3072   0.095   3.528  15.456 -1.3480  2.2488  0.4306
  198MPD1    N1 3073   4.424   3.478  15.658  0.0188 -0.0127 -0.1375
  198MPD1    H6 3074   4.324   3.493  15.669 -0.1903  0.0061 -2.0321
  198MPD1    H7 3075   4.477   3.533  15.724  0.4774  0.7935 -1.1893
  199MPD1     C 3076   3.460   1.211  10.199  0.1079 -0.1468 -0.3993
  199MPD1    C1 3077   3.370   1.312  10.198 -0.3903 -0.1095 -0.3901
  199MPD1    C2 3078   3.244   1.276  10.242 -0.5453 -0.4166 -0.4864
  199MPD1    C3 3079   3.206   1.147  10.268  0.2376 -0.3706  0.6921
  199MPD1    C4 3080   3.299   1.048  10.278 -0.2047  0.2647 -0.3230
  199MPD1    C5 3081   3.429   1.087  10.249 -0.1610 -0.1053 -0.1967
  199MPD1     H 3082   3.180   1.364  10.251  1.0901  0.7997 -0.7372
  199MPD1    H1 3083   3.266   0.952  10.314  0.1576 -1.0026 -3.3929
  199MPD1    H2 3084   3.566   1.224  10.178  0.6011 -0.5949  1.7966
  199MPD1    H3 3085   3.514   1.023  10.269 -0.4167 -0.8364 -1.4723
  199MPD1     N 3086   3.069   1.112  10.290 -0.1545 -0.9110  1.0878
  199MPD1    H5 3087   3.048   1.016  10.315  0.2239 -1.4423 -0.6118
  199MPD1    N1 3088   3.409   1.446  10.167  0.4676 -0.4794  0.1061
  199MPD1    H6 3089   3.329   1.508  10.158 -0.4394 -1.3839  1.8434
  199MPD1    H7 3090   3.465   1.448  10.082  2.8830  0.4779  1.7400
  200MPD1     C 3091   1.522   4.715  14.908  0.6775 -0.1969 -0.2100
  200MPD1    C1 3092   1.457   4.684  14.790 -0.2136 -0.4179  0.4587
  200MPD1    C2 3093   1.540   4.668  14.681 -0.4720 -0.3960  0.7974
  200MPD1    C3 3094   1.671   4.712  14.676 -0.2968 -0.2003 -0.5038
  200MPD1    C4 3095   1.728   0.024  14.793 -0.7602 -0.0261  0.2564
  200MPD1    C5 3096   1.654   0.021  14.911 -0.9032  0.7940  0.0169
  200MPD1     H 3097   1.501   4.625  14.589 -0.2003  0.1125  0.4485
  200MPD1    H1 3098   1.832   0.055  14.793 -0.7901  0.0515  1.6421
  200MPD1    H2 3099   1.469   4.705  15.002  0.8230  0.1516 -0.0912
  200MPD1    H3 3100   1.702   0.057  15.001  0.5788 -0.2834 -0.3486
  200MPD1     N 3101   1.745   4.720  14.553 -0.0889 -0.5049 -0.0364
  200MPD1    H5 3102   1.702   4.681  14.470  0.5793  0.0902 -0.6561
  200MPD1    N1 3103   1.325   4.635  14.792 -0.0851  0.4112 -0.5919
  200MPD1    H6 3104   1.274   4.696  14.857  2.1759  0.4500  1.1371
  200MPD1    H7 3105   1.292   4.651  14.697  1.4839  1.3295 -0.9790
  201MPD1     C 3106   3.701   4.179  13.026  0.6092  0.7359  0.2361
  201MPD1    C1 3107   3.713   4.094  13.135  0.4456 -0.9303  0.7341
  201MPD1    C2 3108   3.738   3.954  13.111 -0.1065  0.5124 -0.1191
  201MPD1    C3 3109   3.756   3.901  12.986 -0.4253  0.1856  0.0352
  201MPD1    C4 3110   3.757   3.996  12.884 -0.3651  0.1556 -0.3255
  201MPD1    C5 3111   3.726   4.126  12.904 -0.0254  0.0944  0.2548
  201MPD1     H 3112   3.750   3.887  13.195  2.4081  1.0482 -0.0419
  201MPD1    H1 3113   3.783   3.970  12.782 -2.3830 -0.8116 -0.5913
  201MPD1    H2 3114   3.659   4.278  13.038 -1.8434  0.1417 -3.3890
  201MPD1    H3 3115   3.724   4.195  12.820 -1.2116  0.9083  0.9443
  201MPD1     N 3116   3.783   3.762  12.971 -0.3011  0.8520  0.0586
  201MPD1    H5 3117   3.807   3.718  13.060 -0.7371  0.8398  0.1706
  201MPD1    N1 3118   3.673   4.138  13.262 -0.5103  0.1954  0.2367
  201MPD1    H6 3119   3.723   4.101  13.342 -0.6946 -0.5800 -0.0059
  201MPD1    H7 3120   3.695   4.237  13.259 -2.3291  0.6121  0.5188
  202MPD1     C 3121   3.076   2.768   8.783  0.3405  0.2044 -0.2078
  202MPD1    C1 3122   3.149   2.712   8.885 -0.4763  0.4188 -0.2574
  202MPD1    C2 3123   3.225   2.800   8.958  0.3817 -0.4322  0.2499
  202MPD1    C3 3124   3.255   2.924   8.916 -0.3814  0.3797  0.3733
  202MPD1    C4 3125   3.185   2.980   8.807 -0.2260 -0.8301  0.7136
  202MPD1    C5 3126   3.098   2.898   8.742  0.4579  1.2080  0.6151
  202MPD1     H 3127   3.271   2.760   9.048 -0.4409  0.5647  1.1167
  202MPD1    H1 3128   3.191   3.080   8.766 -1.5336 -1.0589 -0.0358
  202MPD1    H2 3129   3.008   2.705   8.728 -1.3438 -0.0532  2.1299
  202MPD1    H3 3130   3.042   2.933   8.656 -0.5501 -2.9522 -0.3877
  202MPD1     N 3131   3.340   3.010   8.985 -0.4449  0.1431  0.3048
  202MPD1    H5 3132   3.336   3.109   8.965 -0.0432  1.0761  4.9987
  202MPD1    N1 3133   3.096   2.599   8.952 -0.1340  0.6561  0.1285
  202MPD1    H6 3134   3.162   2.557   9.017 -2.2071 -1.6963  0.6947
  202MPD1    H7 3135   3.058   2.527   8.891  1.7763 -1.3222  1.3138
  203MPD1     C 3136   2.395   4.230  12.760  0.1215 -0.5795  0.3049
  203MPD1    C1 3137   2.385   4.155  12.651 -0.1917  0.3651 -0.6924
  203MPD1    C2 3138   2.465   4.034  12.645 -0.2316 -0.7833  0.3689
  203MPD1    C3 3139   2.572   4.017  12.731 -0.1478 -0.3641 -0.3430
  203MPD1    C4 3140   2.596   4.120  12.829 -0.6185  0.1896  0.9856
  203MPD1    C5 3141   2.496   4.211  12.846 -0.2542  0.7243  0.0741
  203MPD1     H 3142   2.454   3.956  12.571  1.7412 -1.4853  0.8075
  203MPD1    H1 3143   2.680   4.119  12.897 -1.5834 -0.3084  2.1761
  203MPD1    H2 3144   2.343   4.319  12.791  2.3455  0.9896 -0.4211
  203MPD1    H3 3145   2.516   4.278  12.929 -1.4666  2.1109 -0.7403
  203MPD1     N 3146   2.660   3.903  12.726  0.2727  0.0147 -0.2755
  203MPD1    H5 3147   2.625   3.818  12.685  1.5230  0.3867 -2.1457
  203MPD1    N1 3148   2.272   4.165  12.561 -0.1283 -0.6536 -0.8994
  203MPD1    H6 3149   2.290   4.130  12.467 -3.2354 -0.5440 -1.5387
  203MPD1    H7 3150   2.260   4.266  12.559  0.6822 -0.5623 -1.1712
  204MPD1     C 3151   1.465   0.411  17.390 -0.0977  0.4847 -0.3336
  204MPD1    C1 3152   1.469   0.293  17.451 -0.0603  0.1782 -0.3160
  204MPD1    C2 3153   1.557   0.191  17.411  0.3855  0.1383  0.0166
  204MPD1    C3 3154   1.635   0.213  17.303  0.0638  0.1655  0.4324
  204MPD1    C4 3155   1.631   0.337  17.239 -0.6407  0.1332  0.5145
  204MPD1    C5 3156   1.552   0.440  17.287 -0.1128 -0.5308 -0.2261
  204MPD1     H 3157   1.568   0.103  17.472  1.4048  0.1982 -0.0715
  204MPD1    H1 3158   1.700   0.367  17.162 -2.1389  1.3655 -0.3454
  204MPD1    H2 3159   1.402   0.495  17.416  0.2332  1.5537 -2.9583
  204MPD1    H3 3160   1.541   0.537  17.240 -1.4426 -0.1800  0.8036
  204MPD1     N 3161   1.721   0.102  17.272  0.0854 -0.4642 -0.1199
  204MPD1    H5 3162   1.712   0.026  17.339 -0.5003  0.1697  0.5140
  204MPD1    N1 3163   1.385   0.281  17.566 -0.3854 -0.3300 -0.3790
  204MPD1    H6 3164   1.294   0.327  17.561  0.4554  1.3868  0.1875
  204MPD1    H7 3165   1.361   0.183  17.583 -0.4486 -0.3041 -0.3169
  205MPD1     C 3166   2.463   3.300  17.016  0.2559 -0.4854 -1.0894
  205MPD1    C1 3167   2.513   3.387  17.112 -0.3864  0.4515  0.3819
  205MPD1    C2 3168   2.431   3.433  17.212 -0.4673  0.4320 -1.3901
  205MPD1    C3 3169   2.306   3.378  17.236 -0.3191  0.4302  0.6203
  205MPD1    C4 3170   2.264   3.278  17.152  0.6054  0.6119  0.9773
  205MPD1    C5 3171   2.344   3.242  17.047 -0.0434 -0.2324  0.0514
  205MPD1     H 3172   2.455   3.508  17.286  1.9567  0.2546 -1.9873
  205MPD1    H1 3173   2.171   3.226  17.172  0.4267  0.2794 -0.7510
  205MPD1    H2 3174   2.516   3.266  16.928  2.1845 -1.6040  0.4948
  205MPD1    H3 3175   2.299   3.159  16.994 -0.8961  0.4120 -0.2337
  205MPD1     N 3176   2.223   3.417  17.346  0.1829  0.9868  0.2315
  205MPD1    H5 3177   2.128   3.381  17.346  0.3245  0.6235 -1.7453
  205MPD1    N1 3178   2.632   3.459  17.093 -0.2544 -0.3926  0.0900
  205MPD1    H6 3179   2.679   3.493  17.176 -1.9967  1.9399  0.1138
  205MPD1    H7 3180   2.694   3.399  17.039  1.7924  1.6353  0.2108
  206MPD1     C 3181   2.165   1.638  16.628 -0.4217 -0.0934  0.4340
  206MPD1    C1 3182   2.222   1.535  16.558  0.4512 -0.6313 -0.2967
  206MPD1    C2 3183   2.218   1.533  16.421 -0.0966  0.0933 -1.0606
  206MPD1    C3 3184   2.187   1.640  16.350  0.0941 -0.0663 -0.6075
  206MPD1    C4 3185   2.142   1.749  16.427 -0.0644  0.1117 -0.9386
  206MPD1    C5 3186   2.124   1.747  16.560 -0.1535  0.5783  0.6824
  206MPD1     H 3187   2.253   1.442  16.373 -3.0201 -1.7704  0.3786
  206MPD1    H1 3188   2.102   1.840  16.382 -0.3737 -0.0177 -0.9265
  206MPD1    H2 3189   2.151   1.637  16.736  0.0319  0.8971  0.4971
  206MPD1    H3 3190   2.085   1.835  16.609 -0.3301 -0.6778  2.8191
  206MPD1     N 3191   2.181   1.651  16.212 -0.3497 -0.6708  0.7361
  206MPD1    H5 3192   2.134   1.736  16.183  1.3997 -0.3187 -0.9932
  206MPD1    N1 3193   2.245   1.416  16.626 -0.0386  0.8508  0.1460
  206MPD1    H6 3194   2.266   1.425  16.725 -0.2790  0.7308  0.2102
  206MPD1    H7 3195   2.324   1.369  16.583 -2.3605 -3.0887  0.1680
  207MPD1     C 3196   4.376   0.088   9.860  0.2579 -0.2435  0.6094
  207MPD1    C1 3197   4.346   0.215   9.910 -0.1366 -0.2760  0.6713
  207MPD1    C2 3198   4.406   0.259  10.025  0.1828 -0.6409  0.5065
  207MPD1    C3 3199   4.475   0.172  10.101  0.2874  0.3360  0.4277
  207MPD1    C4 3200   4.466   0.034  10.069 -0.1946  1.3895 -0.5119
  207MPD1    C5 3201   4.430   0.001   9.944 -0.4748  0.0805  0.1661
  207MPD1     H 3202   4.390   0.359  10.064 -0.3133 -0.2017 -0.8573
  207MPD1    H1 3203   4.519   4.694  10.121 -1.6523  0.1580 -0.8976
  207MPD1    H2 3204   4.331   0.052   9.768 -2.4648  0.1703  1.7872
  207MPD1    H3 3205   4.434   4.637   9.909 -1.1661  0.1897 -0.2295
  207MPD1     N 3206   4.545   0.201  10.219 -0.9602 -0.5164 -0.1913
  207MPD1    H5 3207   4.576   0.123  10.277 -2.6832 -0.5106  0.7174
  207MPD1    N1 3208   4.282   0.311   9.820 -0.3650  0.8732  0.0094
  207MPD1    H6 3209   4.216   0.259   9.763 -1.5553  0.6803  1.5768
  207MPD1    H7 3210   4.251   0.400   9.858  1.5423  1.9109 -0.8550
  208MPD1     C 3211   2.951   3.150  17.674  0.1380  0.3293 -0.2207
  208MPD1    C1 3212   2.906   3.279  17.694 -0.4503 -0.6125 -0.0111
  208MPD1    C2 3213   2.871   3.312   0.073 -0.5085 -0.2005  0.4165
  208MPD1    C3 3214   2.884   3.208   0.171 -0.0907 -0.3418  0.8103
  208MPD1    C4 3215   2.914   3.076   0.142  0.2896  0.4885  0.2501
  208MPD1    C5 3216   2.945   3.050   0.013 -0.4413  0.2691 -0.0017
  208MPD1     H 3217   2.847   3.416   0.094 -1.5653 -0.3234 -0.1507
  208MPD1    H1 3218   2.918   2.996   0.214 -1.5090 -0.9732 -1.2870
  208MPD1    H2 3219   2.987   3.123  17.576 -1.5619 -0.5466 -0.6129
  208MPD1    H3 3220   2.977   2.949  17.743  0.0977  0.0580  1.5742
  208MPD1     N 3221   2.857   3.244   0.303  0.1573  0.2668  0.3681
  208MPD1    H5 3222   2.845   3.345   0.308 -2.9908 -0.1035  0.6345
  208MPD1    N1 3223   2.927   3.380  17.598  0.3218 -0.1172 -0.1044
  208MPD1    H6 3224   2.922   3.360  17.498  0.4774 -3.1946  0.5171
  208MPD1    H7 3225   2.872   3.464  17.614  1.8102  0.8155  0.1565
  209MPD1     C 3226   4.679   3.714  11.302 -0.4362  0.2822  0.2625
  209MPD1    C1 3227   4.728   3.782  11.196  0.1698  0.1447 -0.0000
  209MPD1    C2 3228   4.728   3.923  11.200  0.1441  0.0595 -0.1666
  209MPD1    C3 3229   4.691   3.991  11.313  0.9805 -0.7030  0.6830
  209MPD1    C4 3230   4.651   3.922  11.425  0.1541  0.1893 -0.5222
  209MPD1    C5 3231   4.643   3.781  11.413 -0.0952  0.0617  0.2789
  209MPD1     H 3232   0.023   3.973  11.110 -0.0485 -0.1806 -0.3724
  209MPD1    H1 3233   4.624   3.969  11.519  1.2802  1.8529 -1.0458
  209MPD1    H2 3234   4.663   3.607  11.310 -1.7785  0.3914 -0.8786
  209MPD1    H3 3235   4.602   3.726  11.497 -0.9830 -0.0306 -0.2227
  209MPD1     N 3236   4.703   4.127  11.312  0.5262  0.0963  0.0410
  209MPD1    H5 3237   4.720   4.180  11.227  1.2496  2.2651  1.5396
  209MPD1    N1 3238   4.735   3.716  11.075 -0.2268 -0.3846  0.3286
  209MPD1    H6 3239   4.646   3.676  11.046 -0.1335  0.0126 -0.4943
  209MPD1    H7 3240   0.017   3.779  10.999  0.6922  0.3213  1.1641
  210MPD1     C 3241   0.340   0.048  11.973  0.3692 -0.5076 -0.7734
  210MPD1    C1 3242   0.294   0.124  11.873  0.3369  0.4548 -0.1651
  210MPD1    C2 3243   0.220   0.055  11.779 -0.0970  0.5545  0.1760
  210MPD1    C3 3244   0.206   4.661  11.776 -0.3418  0.3583 -0.2442
  210MPD1    C4 3245   0.274   4.587  11.875 -0.0196  0.1528 -0.5089
  210MPD1    C5 3246   0.335   4.651  11.977 -0.6451  0.5446 -0.6360
  210MPD1     H 3247   0.171   0.118  11.705  1.3211  0.3016 -0.9935
  210MPD1    H1 3248   0.266   4.479  11.884  0.6609  0.3402  2.4726
  210MPD1    H2 3249   0.376   0.103  12.059 -2.4023 -2.9582  1.9814
  210MPD1    H3 3250   0.379   4.593  12.058  1.3511  4.0555  0.7950
  210MPD1     N 3251   0.133   4.584  11.680  0.1338 -0.2893  0.7414
  210MPD1    H5 3252   0.136   4.483  11.684  0.8982 -0.3554 -1.6341
  210MPD1    N1 3253   0.303   0.264  11.880  0.0852  0.1532  0.0157
  210MPD1    H6 3254   0.381   0.293  11.939  0.0033 -1.2908  0.8372
  210MPD1    H7 3255   0.304   0.319  11.795  3.4306 -2.0355 -1.3955
  211MPD1     C 3256   2.863   3.221  15.827  0.5478 -0.4853  0.1377
  211MPD1    C1 3257   2.919   3.344  15.810  0.3214 -0.0756 -0.2334
  211MPD1    C2 3258   2.841   3.443  15.747  0.8424  0.1048  0.0713
  211MPD1    C3 3259   2.718   3.410  15.690  0.4019 -0.5913 -0.8336
  211MPD1    C4 3260   2.666   3.282  15.698 -0.6321  0.2116 -0.0915
  211MPD1    C5 3261   2.741   3.188  15.773 -0.6462 -0.1489  0.6910
  211MPD1     H 3262   2.883   3.543  15.741 -1.2035  0.9534 -0.0862
  211MPD1    H1 3263   2.573   3.248  15.653 -1.9911  0.9928  2.1162
  211MPD1    H2 3264   2.917   3.153  15.892 -1.7287  0.1271  2.6629
  211MPD1    H3 3265   2.704   3.090  15.798  0.7308 -1.1275 -1.1412
  211MPD1     N 3266   2.641   3.507  15.630  0.0542 -0.5290  0.2255
  211MPD1    H5 3267   2.651   3.602  15.664  1.9080 -0.6103 -0.0866
  211MPD1    N1 3268   3.041   3.378  15.871  0.2423  0.6813 -0.3048
  211MPD1    H6 3269   3.081   3.463  15.832  0.2951  0.3657 -0.9517
  211MPD1    H7 3270   3.108   3.303  15.889 -0.4855  0.1594  0.2070
  212MPD1     C 3271   1.888   2.070  16.355 -0.3316  0.5480 -0.4129
  212MPD1    C1 3272   1.862   1.959  16.277 -0.1885 -0.3292 -0.3235
  212MPD1    C2 3273   1.782   1.862  16.339  0.1305  0.3694  0.0244
  212MPD1    C3 3274   1.720   1.882  16.464 -1.0463  0.4535 -0.6675
  212MPD1    C4 3275   1.735   2.004  16.528  0.2228  0.7483  0.3058
  212MPD1    C5 3276   1.827   2.089  16.479  0.6339 -0.9488  0.4829
  212MPD1     H 3277   1.769   1.773  16.279  1.5113  0.4200 -0.3465
  212MPD1    H1 3278   1.685   2.023  16.622 -1.6670  0.0917 -0.5727
  212MPD1    H2 3279   1.945   2.158  16.328  0.4019  0.3207  0.3971
  212MPD1    H3 3280   1.854   2.180  16.532 -0.6480 -0.2060 -0.1376
  212MPD1     N 3281   1.634   1.789  16.520  0.6066  0.1947 -0.2425
  212MPD1    H5 3282   1.605   1.814  16.614  1.2316  0.6188 -0.1594
  212MPD1    N1 3283   1.936   1.926  16.164 -0.3301 -0.0179 -0.0600
  212MPD1    H6 3284   1.961   2.013  16.118  1.2961 -0.4230  0.0454
  212MPD1    H7 3285   1.893   1.864  16.096 -0.2744 -0.6122  0.4449
  213MPD1     C 3286   0.500   2.707  15.714  0.5413 -0.6442  0.9367
  213MPD1    C1 3287   0.375   2.715  15.765  0.2835  0.5164  0.0011
  213MPD1    C2 3288   0.266   2.701  15.678 -0.7189 -0.0119 -0.5787
  213MPD1    C3 3289   0.288   2.714  15.541  0.5358  0.8139 -0.0227
  213MPD1    C4 3290   0.414   2.722  15.500  0.1825 -0.0006  0.0158
  213MPD1    C5 3291   0.524   2.722  15.585 -0.0665  0.9308 -0.6246
  213MPD1     H 3292   0.164   2.689  15.714 -0.4795 -1.2151 -0.3137
  213MPD1    H1 3293   0.427   2.718  15.392 -0.2276  0.1006 -0.0346
  213MPD1    H2 3294   0.587   2.706  15.778  0.3677  1.5676  1.2070
  213MPD1    H3 3295   0.629   2.717  15.556  0.4372  0.9817  1.1377
  213MPD1     N 3296   0.177   2.718  15.450 -0.1128 -0.7963  0.1168
  213MPD1    H5 3297   0.091   2.674  15.481 -0.3449  0.1205  0.7792
  213MPD1    N1 3298   0.353   2.677  15.898 -0.3628 -0.3705 -0.2443
  213MPD1    H6 3299   0.259   2.705  15.927  0.6923  1.3269  1.5641
  213MPD1    H7 3300   0.414   2.733  15.957  1.2139 -1.9414 -0.3808
  214MPD1     C 3301   4.212   2.293  15.643  0.1294  0.0180  0.4093
  214MPD1    C1 3302   4.197   2.298  15.509 -0.1890  0.5708  0.0709
  214MPD1    C2 3303   4.291   2.370  15.436 -0.1387 -0.3077  0.2170
  214MPD1    C3 3304   4.379   2.462  15.491 -0.7224  0.4973 -0.1163
  214MPD1    C4 3305   4.381   2.458  15.628 -0.1437 -0.2663 -0.6421
  214MPD1    C5 3306   4.305   2.372  15.699  0.0294  0.0612 -0.7631
  214MPD1     H 3307   4.282   2.365  15.328  0.3582 -0.4234  0.1806
  214MPD1    H1 3308   4.446   2.522  15.688 -1.3596  0.4167 -0.0566
  214MPD1    H2 3309   4.143   2.246  15.712 -2.8094  3.1726 -0.3646
  214MPD1    H3 3310   4.312   2.364  15.807  0.4476 -2.4834 -0.9765
  214MPD1     N 3311   4.464   2.550  15.421 -0.5975  0.5205  0.0759
  214MPD1    H5 3312   4.526   2.610  15.474  0.9208  1.4463 -2.7082
  214MPD1    N1 3313   4.088   2.234  15.455  0.2051 -0.0459  0.6952
  214MPD1    H6 3314   4.012   2.211  15.519 -0.0283  0.4595  0.5952
  214MPD1    H7 3315   4.062   2.281  15.369  4.4825 -0.5084 -0.8567
  215MPD1     C 3316   3.577   3.841  10.911  0.0957  1.1011  0.5452
  215MPD1    C1 3317   3.605   3.868  11.037  0.4310  0.3863  0.8315
  215MPD1    C2 3318   3.739   3.863  11.076  0.0140 -0.0472 -0.2763
  215MPD1    C3 3319   3.839   3.828  10.990  0.3394  0.0353  0.7208
  215MPD1    C4 3320   3.806   3.773  10.866  0.6101 -0.0810  0.3572
  215MPD1    C5 3321   3.678   3.793  10.827  0.8850 -0.1451 -0.4067
  215MPD1     H 3322   3.775   3.907  11.168 -2.3378  2.7819 -0.6956
  215MPD1    H1 3323   3.884   3.741  10.798  0.0336  0.3523 -0.5006
  215MPD1    H2 3324   3.475   3.854  10.875 -0.4310 -1.9183  0.9905
  215MPD1    H3 3325   3.654   3.772  10.723  0.7080 -1.0712 -0.1825
  215MPD1     N 3326   3.976   3.835  11.029 -0.2474 -0.0391 -0.1196
  215MPD1    H5 3327   4.006   3.886  11.112  1.4653 -0.7843 -0.2695
  215MPD1    N1 3328   3.502   3.931  11.115 -0.2281 -0.1267  0.2960
  215MPD1    H6 3329   3.520   3.913  11.214  0.2279  0.4441  0.3193
  215MPD1    H7 3330   3.408   3.901  11.091 -0.3507 -0.2580  0.9338
  216MPD1     C 3331   1.020   2.001  17.562 -0.3922  0.4486  0.5027
  216MPD1    C1 3332   0.975   1.914  17.656 -0.4229 -0.1407 -0.4089
  216MPD1    C2 3333   0.983   1.776  17.626  0.0234 -0.9250 -0.0907
  216MPD1    C3 3334   1.032   1.736  17.505  0.6601 -0.5372  0.5029
  216MPD1    C4 3335   1.067   1.829  17.405 -0.4570  0.6093  0.8449
  216MPD1    C5 3336   1.071   1.962  17.444  0.3455  0.1234 -0.7657
  216MPD1     H 3337   0.957   1.699  17.698 -1.6990 -1.1602 -0.9722
  216MPD1    H1 3338   1.091   1.795  17.305 -3.8881 -0.2096  0.2756
  216MPD1    H2 3339   1.015   2.108  17.578  3.1741  0.9999 -1.7743
  216MPD1    H3 3340   1.103   2.037  17.374 -2.0201  0.7501 -1.1807
  216MPD1     N 3341   1.050   1.591  17.490  0.4084 -0.1217  0.0469
  216MPD1    H5 3342   1.041   1.528  17.570 -2.2360 -1.6750 -1.4526
  216MPD1    N1 3343   0.930   1.961   0.022  0.5581  0.0134 -0.4022
  216MPD1    H6 3344   0.910   2.061   0.023  1.4573  0.1860  1.3103
  216MPD1    H7 3345   0.864   1.902   0.071  1.1329 -1.6420 -1.6185
  217MPD1     C 3346   1.813   2.873   9.066 -0.0651 -0.3511 -0.1832
  217MPD1    C1 3347   1.775   3.002   9.067 -0.0279 -0.6941 -0.8598
  217MPD1    C2 3348   1.850   3.095   9.136 -0.2951 -0.0708 -0.5344
  217MPD1    C3 3349   1.949   3.053   9.205 -0.0624 -0.5318  0.4637
  217MPD1    C4 3350   1.986   2.922   9.208 -0.3180  1.3589  0.5844
  217MPD1    C5 3351   1.920   2.831   9.135  0.1007  0.2789 -0.1980
  217MPD1     H 3352   1.834   3.201   9.119 -2.0393 -0.4838 -1.4896
  217MPD1    H1 3353   2.074   2.890   9.262  0.2543 -1.4265 -2.0307
  217MPD1    H2 3354   1.748   2.802   9.017 -0.7590  0.0137  0.2098
  217MPD1    H3 3355   1.949   2.726   9.136  0.5193  0.3953 -0.5497
  217MPD1     N 3356   2.027   3.138   9.285 -0.0809 -0.0934 -0.1085
  217MPD1    H5 3357   2.106   3.094   9.331 -1.9573 -1.5950  1.6697
  217MPD1    N1 3358   1.673   3.049   8.976 -0.4161 -0.5625 -0.6028
  217MPD1    H6 3359   1.628   3.128   9.021  0.5283 -0.0936 -0.4643
  217MPD1    H7 3360   1.607   2.972   8.970 -1.6691  0.6694 -2.4078
  218MPD1     C 3361   3.966   4.707  13.320  1.3671 -0.2919  0.2739
  218MPD1    C1 3362   3.986   0.020  13.197 -0.3909 -0.4028 -0.1398
  218MPD1    C2 3363   4.004   4.677  13.086 -0.6980 -0.6960 -0.8380
  218MPD1    C3 3364   4.019   4.539  13.106  0.2564  0.3637  0.2589
  218MPD1    C4 3365   4.007   4.490  13.232 -0.2369  0.4875 -0.4543
  218MPD1    C5 3366   3.978   4.576  13.337  1.0387 -0.0497 -0.3053
  218MPD1     H 3367   4.017   4.726  12.990 -2.9523 -1.2377 -1.4111
  218MPD1    H1 3368   4.008   4.383  13.253 -2.4935  0.4360 -0.6786
  218MPD1    H2 3369   3.916   0.023  13.398  2.5904  0.6213  0.4165
  218MPD1    H3 3370   3.944   4.534  13.430 -1.5117  1.8872 -0.3527
  218MPD1     N 3371   4.033   4.452  12.998 -0.2355  0.4145 -0.5551
  218MPD1    H5 3372   4.018   4.489  12.905 -1.2428 -1.8523 -1.2742
  218MPD1    N1 3373   3.947   0.149  13.172 -0.2218 -0.5167  0.2063
  218MPD1    H6 3374   4.009   0.193  13.106 -0.8778  0.5893  0.3322
  218MPD1    H7 3375   3.938   0.205  13.257  0.1684 -0.3013  0.0993
  219MPD1     C 3376   4.598   4.292  12.212 -0.3818 -0.6163  0.0537
  219MPD1    C1 3377   4.517   4.393  12.260  0.1684 -0.6984  0.2497
  219MPD1    C2 3378   4.429   4.363  12.355  1.0875 -0.2011  0.3952
  219MPD1    C3 3379   4.418   4.240  12.419  0.0637  0.0569  0.1302
  219MPD1    C4 3380   4.496   4.137  12.367  1.0458  0.1705 -0.0566
  219MPD1    C5 3381   4.583   4.165  12.265  0.4719  0.1820 -0.6061
  219MPD1     H 3382   4.364   4.447  12.375  0.1050 -0.7176 -0.6666
  219MPD1    H1 3383   4.477   4.035  12.397  1.6839 -0.8379 -3.1093
  219MPD1    H2 3384   4.668   4.306  12.132 -0.6295 -1.6193 -0.3445
  219MPD1    H3 3385   4.656   4.089  12.238 -1.0418 -1.4791  0.0256
  219MPD1     N 3386   4.315   4.203  12.508 -0.1388  0.3991  0.4253
  219MPD1    H5 3387   4.316   4.107  12.542  2.5724 -0.0112 -0.8005
  219MPD1    N1 3388   4.523   4.518  12.196 -0.3244 -0.6864  0.0286
  219MPD1    H6 3389   4.511   4.593  12.263 -0.9024 -1.4904  0.8107
  219MPD1    H7 3390   4.614   4.528  12.150 -1.5819  0.1961 -2.2576
  220MPD1     C 3391   4.270   4.518   9.458 -0.2586 -0.6018  0.2702
  220MPD1    C1 3392   4.338   4.431   9.548 -0.2640  0.1292 -0.2799
  220MPD1    C2 3393   4.302   4.444   9.684  0.3974 -0.4010  0.3436
  220MPD1    C3 3394   4.206   4.538   9.724 -0.3893  0.0738  0.6499
  220MPD1    C4 3395   4.148   4.627   9.628  0.1950 -0.0358  0.8314
  220MPD1    C5 3396   4.192   4.616   9.499 -0.2038  0.4495 -0.2556
  220MPD1     H 3397   4.331   4.370   9.758 -1.2133 -2.0538 -0.6934
  220MPD1    H1 3398   4.084   4.710   9.656 -0.6597 -1.0221  1.7572
  220MPD1    H2 3399   4.308   4.516   9.357 -0.1310  1.2035  0.2823
  220MPD1    H3 3400   4.141   4.686   9.434  0.8438  0.0412 -1.5007
  220MPD1     N 3401   4.177   4.542   9.863 -0.7402  0.9007  0.3291
  220MPD1    H5 3402   4.228   4.494   9.936  1.6393  2.2756 -0.4454
  220MPD1    N1 3403   4.413   4.322   9.500  0.5429 -0.3694  0.3535
  220MPD1    H6 3404   4.484   4.306   9.572  1.2462 -0.6757 -0.4105
  220MPD1    H7 3405   4.459   4.355   9.416 -0.4519 -0.4897 -0.2429
  221MPD1     C 3406   2.927   2.156  16.563  0.1427 -0.3840  0.1111
  221MPD1    C1 3407   2.794   2.130  16.558  0.6017  0.5777 -0.8962
  221MPD1    C2 3408   2.716   2.204  16.471 -0.1694  0.0550 -0.4969
  221MPD1    C3 3409   2.772   2.290  16.381  0.2912 -0.3983 -0.1942
  221MPD1    C4 3410   2.906   2.303  16.373  0.6080 -0.2626  0.5465
  221MPD1    C5 3411   2.984   2.231  16.461 -0.0620  0.3141  0.2674
  221MPD1     H 3412   2.608   2.203  16.472 -0.1870  4.6001  2.6130
  221MPD1    H1 3413   2.955   2.373  16.307  2.1634 -2.1669 -0.3196
  221MPD1    H2 3414   2.987   2.106  16.638  2.4098  0.5784 -1.0571
  221MPD1    H3 3415   3.091   2.252  16.459  0.2599 -1.2440  1.2579
  221MPD1     N 3416   2.699   2.365  16.291 -0.1542  0.0260 -0.0937
  221MPD1    H5 3417   2.751   2.430  16.232  1.9288 -0.8771  0.7341
  221MPD1    N1 3418   2.734   2.058  16.668  0.1842  0.4976  0.0402
  221MPD1    H6 3419   2.801   2.004  16.723  0.1406  1.2386  0.8324
  221MPD1    H7 3420   2.650   2.004  16.651  0.0958  1.0230 -1.1729
  222MPD1     C 3421   1.002   2.033   1.517  0.3044  0.1085 -0.0985
  222MPD1    C1 3422   1.080   2.067   1.626  0.0756  0.2211  0.1667
  222MPD1    C2 3423   1.127   2.195   1.641 -0.2222 -0.2134  0.8597
  222MPD1    C3 3424   1.096   2.295   1.540 -0.1702 -0.6193  0.1755
  222MPD1    C4 3425   1.028   2.257   1.430 -0.8468  0.0281  0.1876
  222MPD1    C5 3426   0.980   2.127   1.420 -0.3910 -0.3053 -0.0496
  222MPD1     H 3427   1.179   2.225   1.731  0.8523 -1.7877  0.7498
  222MPD1    H1 3428   1.002   2.328   1.351  0.9685  0.3663 -0.1029
  222MPD1    H2 3429   0.978   1.931   1.490 -1.8289  0.7716 -0.7109
  222MPD1    H3 3430   0.932   2.092   1.329 -2.1111  0.6504  0.5132
  222MPD1     N 3431   1.140   2.427   1.545 -0.4659 -0.3960  0.3074
  222MPD1    H5 3432   1.121   2.480   1.461 -0.8771  2.6232  2.3063
  222MPD1    N1 3433   1.091   1.984   1.744  0.0028 -0.2156 -0.8420
  222MPD1    H6 3434   1.080   1.884   1.728 -0.1955 -0.5316  1.2176
  222MPD1    H7 3435   1.175   1.990   1.803 -1.3830  0.2703  1.0888
  223MPD1     C 3436   1.503   3.380   1.977 -0.2156  0.4718  0.1840
  223MPD1    C1 3437   1.484   3.401   1.847  0.7787 -0.1977  0.2138
  223MPD1    C2 3438   1.462   3.285   1.770 -0.4191 -0.2148  0.2084
  223MPD1    C3 3439   1.436   3.154   1.830 -0.6392 -0.3865  0.0569
  223MPD1    C4 3440   1.454   3.143   1.968  0.1132  0.2480  0.5668
  223MPD1    C5 3441   1.495   3.254   2.033  0.2584  0.3641 -0.5079
  223MPD1     H 3442   1.446   3.292   1.663  1.1533  2.3517  0.1585
  223MPD1    H1 3443   1.440   3.053   2.025  0.6952  0.3786  0.9081
  223MPD1    H2 3444   1.536   3.460   2.042 -1.0106 -0.1787  1.3735
  223MPD1    H3 3445   1.510   3.231   2.138  2.6086 -0.7943 -1.0826
  223MPD1     N 3446   1.397   3.050   1.745 -0.7174  0.1209  0.6106
  223MPD1    H5 3447   1.377   3.073   1.648 -0.4970  1.9585  1.0046
  223MPD1    N1 3448   1.515   3.515   1.785 -0.2646  0.0418 -0.9793
  223MPD1    H6 3449   1.514   3.596   1.846 -2.2700 -1.7646  1.3557
  223MPD1    H7 3450   1.464   3.520   1.697 -0.9314 -2.3076 -0.7304
  224MPD1     C 3451   2.137   4.381   9.233 -0.1478 -0.6396  0.2339
  224MPD1    C1 3452   2.182   4.252   9.221  0.5364 -0.7273 -0.4595
  224MPD1    C2 3453   2.289   4.221   9.302  0.9311 -0.3285 -0.1357
  224MPD1    C3 3454   2.331   4.300   9.412  0.6948  0.0811  0.5245
  224MPD1    C4 3455   2.270   4.420   9.431  0.4705 -0.5431 -0.2716
  224MPD1    C5 3456   2.178   4.460   9.335 -0.1395 -0.3675  0.7829
  224MPD1     H 3457   2.337   4.127   9.277  1.2206 -0.4077  0.7214
  224MPD1    H1 3458   2.292   4.480   9.519 -0.9990  0.1985 -0.4039
  224MPD1    H2 3459   2.064   4.423   9.165  0.9872  1.5865  0.3892
  224MPD1    H3 3460   2.125   4.554   9.339 -0.8957 -0.7026 -1.3683
  224MPD1     N 3461   2.434   4.271   9.494 -0.8525  0.3764  0.4891
  224MPD1    H5 3462   2.449   4.331   9.574 -0.1124  0.5876  0.1961
  224MPD1    N1 3463   2.150   4.187   9.106  0.2341 -0.3942  0.0037
  224MPD1    H6 3464   2.057   4.214   9.075  0.6178 -0.5970 -1.3652
  224MPD1    H7 3465   2.166   4.086   9.102 -0.2452 -0.3290 -4.1682
  225MPD1     C 3466   4.145   0.564  11.828 -1.4566  0.2459  0.4972
  225MPD1    C1 3467   4.064   0.484  11.758 -0.1334  0.3435  0.4871
  225MPD1    C2 3468   3.957   0.424  11.819 -0.3511 -0.3965  0.0706
  225MPD1    C3 3469   3.936   0.428  11.955 -0.0274  0.3248  0.2838
  225MPD1    C4 3470   4.036   0.496  12.029  0.2710 -0.5042 -0.4060
  225MPD1    C5 3471   4.135   0.561  11.963 -0.2357  0.2494 -0.6328
  225MPD1     H 3472   3.895   0.363  11.755 -2.1525 -0.0376  1.4827
  225MPD1    H1 3473   4.040   0.499  12.138 -1.1800  0.0319 -0.3593
  225MPD1    H2 3474   4.232   0.614  11.788 -1.5760 -1.0671 -1.4002
  225MPD1    H3 3475   4.215   0.597  12.026  0.2177 -0.6209 -0.7034
  225MPD1     N 3476   3.831   0.367  12.020 -0.0131  0.0907  0.3646
  225MPD1    H5 3477   3.835   0.377  12.121 -0.4295  1.3363  0.2622
  225MPD1    N1 3478   4.084   0.478  11.622 -0.4166  0.6058 -0.4107
  225MPD1    H6 3479   4.180   0.511  11.612  0.2503 -1.8734 -2.1919
  225MPD1    H7 3480   4.078   0.388  11.576  1.1821 -0.2999  1.1277
  226MPD1     C 3481   1.363   0.126  10.139 -0.2946  0.1323 -0.1837
  226MPD1    C1 3482   1.309   0.077  10.030 -0.2507 -0.6511  0.0254
  226MPD1    C2 3483   1.386   4.731   9.949  0.5510  0.2356 -0.3146
  226MPD1    C3 3484   1.519   4.703   9.979  0.3249 -0.6765 -0.0838
  226MPD1    C4 3485   1.572   0.009  10.099  0.2964 -0.5854  0.9366
  226MPD1    C5 3486   1.495   0.089  10.182 -0.2962  0.4522 -0.2129
  226MPD1     H 3487   1.338   4.690   9.861 -2.9506  0.0362  1.6717
  226MPD1    H1 3488   1.672   4.737  10.139  0.9196  0.9380 -0.2306
  226MPD1    H2 3489   1.310   0.189  10.209  0.1822  0.1696  0.1382
  226MPD1    H3 3490   1.528   0.129  10.276 -0.4416 -1.3970  0.6298
  226MPD1     N 3491   1.595   4.620   9.893 -0.0038  0.2888  0.0062
  226MPD1    H5 3492   1.556   4.595   9.803  1.6014 -1.0426 -0.3194
  226MPD1    N1 3493   1.171   0.086  10.008  0.5329  0.1365 -0.0403
  226MPD1    H6 3494   1.144   0.102   9.911  1.4006  0.6710 -0.1890
  226MPD1    H7 3495   1.121   0.163  10.051 -1.5443 -0.6290 -1.0787
  227MPD1     C 3496   1.760   4.445   8.946 -0.2793 -0.0716  0.9903
  227MPD1    C1 3497   1.739   4.325   9.003 -0.3166 -0.4470 -0.1615
  227MPD1    C2 3498   1.749   4.313   9.141  0.1301  0.9887  0.1652
  227MPD1    C3 3499   1.791   4.424   9.220  0.7277 -0.5112 -0.0767
  227MPD1    C4 3500   1.818   4.544   9.156 -0.1015  0.2508  0.3769
  227MPD1    C5 3501   1.800   4.551   9.019  0.3556  0.1544  0.0324
  227MPD1     H 3502   1.727   4.221   9.194  0.9309  1.2329  0.9159
  227MPD1    H1 3503   1.842   4.640   9.201  0.8687  0.1572  0.0385
  227MPD1    H2 3504   1.737   4.460   8.841  0.0523  0.8333  1.0475
  227MPD1    H3 3505   1.812   4.648   8.974 -0.7124  1.2208  2.0426
  227MPD1     N 3506   1.787   4.413   9.362  0.2324  0.0775 -0.5556
  227MPD1    H5 3507   1.761   4.324   9.401  2.0624  0.4858  1.6215
  227MPD1    N1 3508   1.683   4.218   8.929  0.2010  0.0427 -0.4466
  227MPD1    H6 3509   1.718   4.241   8.836  0.5498  1.4626  0.0292
  227MPD1    H7 3510   1.728   4.131   8.954 -0.3679  0.2037  1.1401
  228MPD1     C 3511   0.686   2.720  13.257  0.5308  0.4817 -0.0876
  228MPD1    C1 3512   0.623   2.705  13.138 -0.8290  0.4323  0.0798
  228MPD1    C2 3513   0.516   2.615  13.134  1.0123  0.8114  0.6694
  228MPD1    C3 3514   0.483   2.546  13.247  0.2254 -0.5003  0.0304
  228MPD1    C4 3515   0.550   2.565  13.365 -0.0323  0.4314 -0.1467
  228MPD1    C5 3516   0.664   2.644  13.365  1.0260 -0.3727  0.3822
  228MPD1     H 3517   0.464   2.595  13.041 -1.6290  1.0733  2.0722
  228MPD1    H1 3518   0.514   2.521  13.457  2.2837  0.0044  0.5540
  228MPD1    H2 3519   0.758   2.800  13.270  1.8091 -0.5197 -1.0931
  228MPD1    H3 3520   0.713   2.669  13.459  1.3485  1.3514 -0.2633
  228MPD1     N 3521   0.368   2.463  13.235 -0.0873 -0.0252  0.2302
  228MPD1    H5 3522   0.328   2.475  13.142  3.4230 -1.2047 -1.3992
  228MPD1    N1 3523   0.652   2.791  13.030 -0.1135  0.5675  0.5349
  228MPD1    H6 3524   0.629   2.739  12.946 -0.7537 -0.0119  1.0708
  228MPD1    H7 3525   0.751   2.817  13.035  0.1803 -0.0050 -2.4169
  229MPD1     C 3526   0.506   0.813  15.511 -0.0451 -0.0787  0.9180
  229MPD1    C1 3527   0.485   0.756  15.391 -0.0260  0.2302  1.1966
  229MPD1    C2 3528   0.591   0.686  15.332  0.6726 -0.3024 -0.3424
  229MPD1    C3 3529   0.707   0.669  15.405 -0.0008 -0.2364  0.0472
  229MPD1    C4 3530   0.717   0.718  15.535  0.0188  0.2283  0.5252
  229MPD1    C5 3531   0.613   0.792  15.589  0.5746 -0.2228  0.6868
  229MPD1     H 3532   0.581   0.640  15.234 -2.8146  4.0749 -2.0462
  229MPD1    H1 3533   0.814   0.717  15.582  0.3879 -0.1916 -0.2504
  229MPD1    H2 3534   0.427   0.872  15.556 -0.5760  0.4106 -0.6637
  229MPD1    H3 3535   0.614   0.849  15.681  2.8500  1.8381 -0.6162
  229MPD1     N 3536   0.827   0.611  15.352 -0.0427 -0.1449 -0.4631
  229MPD1    H5 3537   0.902   0.602  15.420  1.3933 -1.4799 -2.2061
  229MPD1    N1 3538   0.366   0.789  15.325 -0.2521 -0.2412 -0.4387
  229MPD1    H6 3539   0.328   0.714  15.266  1.6558 -2.5742  1.3230
  229MPD1    H7 3540   0.300   0.810  15.400  0.0798 -0.8083  0.0090
  230MPD1     C 3541   1.697   0.259  15.665  0.4132 -0.8729 -0.2478
  230MPD1    C1 3542   1.725   0.291  15.537  0.2508 -0.0905 -0.1729
  230MPD1    C2 3543   1.620   0.330  15.454  0.4713 -0.0771  0.3830
  230MPD1    C3 3544   1.490   0.313  15.486 -1.0627  0.1148 -0.5199
  230MPD1    C4 3545   1.465   0.247  15.606  0.3262  0.0574 -0.4562
  230MPD1    C5 3546   1.567   0.235  15.698  0.0938  0.8819 -0.3046
  230MPD1     H 3547   1.634   0.376  15.357  0.0240 -1.0330 -0.1339
  230MPD1    H1 3548   1.364   0.224  15.637  0.5222 -0.7088 -0.4036
  230MPD1    H2 3549   1.769   0.252  15.746  0.0907  0.8251  0.1871
  230MPD1    H3 3550   1.543   0.183  15.789  2.2248  1.1121  0.3921
  230MPD1     N 3551   1.393   0.355  15.393  0.5049 -0.0684  0.0088
  230MPD1    H5 3552   1.422   0.396  15.305  2.0807 -0.3225  0.3992
  230MPD1    N1 3553   1.857   0.327  15.506 -0.4194 -0.2301  0.3209
  230MPD1    H6 3554   1.888   0.320  15.409  1.7521 -1.2274  1.0902
  230MPD1    H7 3555   1.921   0.270  15.560 -1.3589 -0.2801  1.3809
  231MPD1     C 3556   4.089   2.873  15.263 -0.3425  0.6939  0.2894
  231MPD1    C1 3557   4.018   2.917  15.159  0.8927 -0.6677  0.0417
  231MPD1    C2 3558   4.069   2.991  15.060 -0.7786  0.3905  0.6314
  231MPD1    C3 3559   4.203   3.038  15.061 -0.0168  0.1523 -0.3290
  231MPD1    C4 3560   4.284   2.990  15.161 -0.0096 -0.3315 -0.0320
  231MPD1    C5 3561   4.220   2.922  15.265 -0.1060  0.2759 -0.2872
  231MPD1     H 3562   4.009   3.032  14.979 -0.3879 -2.8552 -1.3413
  231MPD1    H1 3563   4.385   3.023  15.180 -0.5627  0.5120  1.4598
  231MPD1    H2 3564   4.042   2.816  15.342 -0.8573  0.8141  0.0687
  231MPD1    H3 3565   4.284   2.894  15.348  0.8727  1.9889 -0.4717
  231MPD1     N 3566   4.251   3.116  14.951  0.1092  0.5783 -0.4146
  231MPD1    H5 3567   4.202   3.110  14.862 -0.6834  0.0359  0.0617
  231MPD1    N1 3568   3.885   2.862  15.146 -0.5075  0.1399  0.1167
  231MPD1    H6 3569   3.822   2.923  15.095  1.4132  1.0697 -1.1263
  231MPD1    H7 3570   3.833   2.864  15.234 -1.2683  2.2648 -0.3820
  232MPD1     C 3571   1.105   0.404  17.720  0.6460 -0.0388 -0.7125
  232MPD1    C1 3572   1.001   0.346  17.649  0.3513  0.2065  0.7757
  232MPD1    C2 3573   0.916   0.249  17.702  0.0629  0.2270  0.2852
  232MPD1    C3 3574   0.924   0.223   0.084  0.2047  0.8217  1.0447
  232MPD1    C4 3575   1.015   0.296   0.158  0.4191 -0.9060 -0.7773
  232MPD1    C5 3576   1.103   0.382   0.101  0.4684 -0.3420 -0.5355
  232MPD1     H 3577   0.849   0.196  17.635  1.9165 -1.0539 -0.5588
  232MPD1    H1 3578   1.016   0.297   0.266 -0.3243 -0.7454 -0.7761
  232MPD1    H2 3579   1.173   0.480  17.684 -0.1996  0.7419 -0.6835
  232MPD1    H3 3580   1.171   0.440   0.162 -1.4940  1.5442 -0.1804
  232MPD1     N 3581   0.829   0.142   0.142  0.5720 -0.4443  0.4624
  232MPD1    H5 3582   0.778   0.087   0.074  0.8276 -1.3723  1.0147
  232MPD1    N1 3583   0.986   0.373  17.508  0.3357 -0.2554  0.2267
  232MPD1    H6 3584   0.889   0.384  17.481  0.4102 -0.1717 -0.0038
  232MPD1    H7 3585   1.030   0.459  17.475  0.8117 -0.8873 -0.7643
  233MPD1     C 3586   2.224   4.007  17.680 -0.3114 -0.4343  0.3662
  233MPD1    C1 3587   2.335   3.921  17.681 -0.1923 -0.6814  0.3047
  233MPD1    C2 3588   2.387   3.885   0.052  0.2901  0.5317 -0.0845
  233MPD1    C3 3589   2.327   3.938   0.171  0.0479 -0.8348  0.2206
  233MPD1    C4 3590   2.221   4.019   0.165 -0.2813  0.0317  0.1130
  233MPD1    C5 3591   2.164   4.046   0.044 -0.0981 -0.1865 -0.2305
  233MPD1     H 3592   2.478   3.827   0.049 -0.9825 -1.4635  0.2801
  233MPD1    H1 3593   2.183   4.071   0.252 -0.5028 -0.2055  0.1584
  233MPD1    H2 3594   2.195   4.047  17.584  0.1518  0.6776  0.6871
  233MPD1    H3 3595   2.077   4.110   0.033 -0.9237 -1.1399  0.7170
  233MPD1     N 3596   2.376   3.914   0.303  0.0650  0.5029 -0.4595
  233MPD1    H5 3597   2.332   3.960   0.382 -1.3141 -1.0487 -0.3037
  233MPD1    N1 3598   2.399   3.899  17.564  0.2239  1.1659  1.1238
  233MPD1    H6 3599   2.338   3.890  17.483  0.3328 -0.4663  1.2265
  233MPD1    H7 3600   2.452   3.813  17.576 -0.8261 -0.1871 -3.8003
  234MPD1     C 3601   3.524   2.916  10.248  0.2568  0.4426  0.2765
  234MPD1    C1 3602   3.562   3.050  10.228  1.1988  0.3557  0.4637
  234MPD1    C2 3603   3.551   3.110  10.101 -0.2190 -0.2735 -1.1345
  234MPD1    C3 3604   3.477   3.038  10.007 -0.2235  0.3818 -0.0858
  234MPD1    C4 3605   3.414   2.918  10.038 -0.1300 -0.1212 -0.0799
  234MPD1    C5 3606   3.448   2.854  10.148 -0.4514  0.4646  0.0476
  234MPD1     H 3607   3.590   3.209  10.084  0.1339  0.0091  1.4325
  234MPD1    H1 3608   3.349   2.862   9.972 -0.2683  0.0749 -0.1094
  234MPD1    H2 3609   3.535   2.865  10.343 -3.1147 -0.2514  0.2846
  234MPD1    H3 3610   3.406   2.756  10.170  0.1064  0.1369 -0.3587
  234MPD1     N 3611   3.448   3.103   9.888 -0.1491  0.4265  0.1700
  234MPD1    H5 3612   3.471   3.202   9.891  0.1400  0.3542  0.3235
  234MPD1    N1 3613   3.627   3.119  10.333  0.9620  0.1979 -0.2846
  234MPD1    H6 3614   3.615   3.220  10.325 -0.4031  0.1008  0.6583
  234MPD1    H7 3615   3.585   3.096  10.422  0.9826 -0.1380 -0.3613
  235MPD1     C 3616   0.189   0.462  10.040 -0.0999  0.4083  0.2013
  235MPD1    C1 3617   0.100   0.541   9.985  0.2292 -0.3838 -0.7078
  235MPD1    C2 3618   0.142   0.658   9.917 -0.1427 -0.6931  0.4792
  235MPD1    C3 3619   0.277   0.697   9.913  0.4068 -0.1702  0.0362
  235MPD1    C4 3620   0.363   0.612   9.976 -0.2870  0.6239  0.1795
  235MPD1    C5 3621   0.317   0.499  10.038 -0.7219 -0.3609  0.2801
  235MPD1     H 3622   0.070   0.722   9.866 -1.7371 -1.4148  1.8228
  235MPD1    H1 3623   0.469   0.634   9.982 -0.3595  0.7231  1.0841
  235MPD1    H2 3624   0.162   0.367  10.086 -1.4369  0.5880 -0.2063
  235MPD1    H3 3625   0.392   0.430  10.075 -1.3679 -1.5755 -0.6811
  235MPD1     N 3626   0.318   0.819   9.850 -0.6416 -0.2997  0.2702
  235MPD1    H5 3627   0.242   0.879   9.820  0.2283  1.5270  1.6843
  235MPD1    N1 3628   4.717   0.477   9.950  0.5879 -0.4199 -0.2557
  235MPD1    H6 3629   4.675   0.431  10.030 -2.1003  1.6688 -0.4761
  235MPD1    H7 3630   4.643   0.543   9.928  1.7564  1.4846  1.4716
  236MPD1     C 3631   3.448   1.985   9.728 -0.0188 -0.3481 -0.0451
  236MPD1    C1 3632   3.457   1.851   9.760 -0.6525  0.0896  0.0517
  236MPD1    C2 3633   3.581   1.799   9.789 -0.3283 -0.4699 -0.5523
  236MPD1    C3 3634   3.692   1.878   9.791  0.3899  0.3424 -0.2007
  236MPD1    C4 3635   3.684   2.010   9.761  0.0198 -0.9022 -0.2383
  236MPD1    C5 3636   3.566   2.065   9.723  0.2339 -0.1541 -0.1067
  236MPD1     H 3637   3.592   1.692   9.802  1.3829 -0.0802  1.1986
  236MPD1    H1 3638   3.774   2.071   9.767  0.4181 -1.3481 -1.7994
  236MPD1    H2 3639   3.359   2.020   9.677 -0.2518  0.1779  0.7360
  236MPD1    H3 3640   3.552   2.172   9.712 -0.2511 -0.3861 -1.7416
  236MPD1     N 3641   3.827   1.826   9.817  0.5917  0.1871 -0.1127
  236MPD1    H5 3642   3.902   1.895   9.828  0.9648  0.1541 -2.3873
  236MPD1    N1 3643   3.348   1.768   9.734 -0.2748  0.4326 -0.6173
  236MPD1    H6 3644   3.259   1.818   9.736 -0.5318 -0.0125 -0.8450
  236MPD1    H7 3645   3.338   1.702   9.811  1.3971 -0.0983 -0.8544
  237MPD1     C 3646   4.381   4.356  14.810 -0.0595  0.1816  0.7199
  237MPD1    C1 3647   4.363   4.248  14.897  1.2856  0.2283 -0.0428
  237MPD1    C2 3648   4.239   4.242  14.963  0.1736  0.3283 -0.1272
  237MPD1    C3 3649   4.137   4.346  14.942  0.4229 -0.1700 -0.3887
  237MPD1    C4 3650   4.166   4.446  14.864  0.6787  0.8560 -0.4276
  237MPD1    C5 3651   4.280   4.453  14.791  0.5697  0.1345 -0.3835
  237MPD1     H 3652   4.216   4.160  15.030  0.6956 -0.2143 -0.6086
  237MPD1    H1 3653   4.091   4.521  14.842 -0.6070 -0.3254 -0.0137
  237MPD1    H2 3654   4.475   4.361  14.758 -1.2666  0.6426 -1.4245
  237MPD1    H3 3655   4.290   4.535  14.721 -1.2440  1.7899  1.3192
  237MPD1     N 3656   4.004   4.340  14.993 -0.7240 -0.1801  0.0636
  237MPD1    H5 3657   3.931   4.388  14.942 -0.9396  1.0212  1.4844
  237MPD1    N1 3658   4.451   4.146  14.882 -0.0345 -0.7313 -0.5361
  237MPD1    H6 3659   4.452   4.102  14.974 -1.1164  1.8799  0.7317
  237MPD1    H7 3660   4.543   4.185  14.860 -1.1192  2.1249 -0.0769
  238MPD1     C 3661   1.361   2.670  15.284  0.5456  0.0347  0.1568
  238MPD1    C1 3662   1.353   2.765  15.186 -0.6725 -0.0934  0.0348
  238MPD1    C2 3663   1.255   2.742  15.090 -0.8253 -0.5611  0.3568
  238MPD1    C3 3664   1.160   2.638  15.095  0.0956  0.1113 -0.3034
  238MPD1    C4 3665   1.164   2.555  15.206 -0.2297 -0.8532  0.2216
  238MPD1    C5 3666   1.265   2.571  15.291  0.4463 -0.1164  0.3986
  238MPD1     H 3667   1.256   2.802  15.000  0.9172  0.1717  0.8517
  238MPD1    H1 3668   1.087   2.483  15.232 -0.2333 -1.5374 -1.6833
  238MPD1    H2 3669   1.440   2.676  15.358 -0.6036 -1.8276  1.5292
  238MPD1    H3 3670   1.275   2.500  15.373 -0.5349  0.3110  0.8767
  238MPD1     N 3671   1.049   2.628  15.011  0.0932  0.2257 -0.0738
  238MPD1    H5 3672   0.976   2.566  15.044 -1.4754  1.4175 -1.3201
  238MPD1    N1 3673   1.459   2.852  15.168 -0.6806  0.6595  0.0460
  238MPD1    H6 3674   1.427   2.943  15.134  2.2394  1.7544  0.2830
  238MPD1    H7 3675   1.497   2.871  15.260  0.0482  0.8142 -0.2930
  239MPD1     C 3676   0.986   3.367  14.861  0.5741 -0.1161 -0.8448
  239MPD1    C1 3677   1.114   3.385  14.811 -0.6608 -0.6739  0.2015
  239MPD1    C2 3678   1.133   3.475  14.708 -0.1093 -0.0291 -0.1950
  239MPD1    C3 3679   1.029   3.559  14.673 -0.0112 -0.1157 -0.2766
  239MPD1    C4 3680   0.907   3.537  14.723  0.1574 -0.4021  0.5846
  239MPD1    C5 3681   0.885   3.441  14.818  0.3579  0.5888 -0.0010
  239MPD1     H 3682   1.226   3.487  14.654 -0.9779 -0.2894 -1.7334
  239MPD1    H1 3683   0.826   3.602  14.692 -0.1119 -0.8801  0.2759
  239MPD1    H2 3684   0.957   3.283  14.921 -0.7434  0.6299 -0.4463
  239MPD1    H3 3685   0.787   3.440  14.866  1.3620  1.5740  2.0795
  239MPD1     N 3686   1.040   3.668  14.584 -0.3046 -0.5063  0.3385
  239MPD1    H5 3687   0.950   3.694  14.545 -0.1769 -1.6075 -0.7007
  239MPD1    N1 3688   1.210   3.287  14.843  0.1610 -0.2618 -0.4865
  239MPD1    H6 3689   1.203   3.265  14.943  0.1702  0.8431 -0.2452
  239MPD1    H7 3690   1.304   3.325  14.839  0.7630 -1.7077 -0.0302
  240MPD1     C 3691   0.592   3.469  13.997  0.0037  0.4216 -0.0248
  240MPD1    C1 3692   0.473   3.408  14.027  0.8535  1.0413  0.4887
  240MPD1    C2 3693   0.452   3.338  14.144  0.0397 -0.1628  0.4984
  240MPD1    C3 3694   0.560   3.294  14.212  0.5093 -0.4226  0.1513
  240MPD1    C4 3695   0.684   3.339  14.175 -0.0081 -0.4390  0.2914
  240MPD1    C5 3696   0.695   3.425  14.071 -0.6832 -0.2223 -0.3081
  240MPD1     H 3697   0.353   3.325  14.188 -1.4504  3.5976 -1.7331
  240MPD1    H1 3698   0.780   3.311  14.218  0.0557  1.1389  1.2093
  240MPD1    H2 3699   0.610   3.518  13.902  0.4727 -2.3159 -1.3424
  240MPD1    H3 3700   0.793   3.445  14.030  0.0008  0.4590  1.6272
  240MPD1     N 3701   0.538   3.232  14.334  0.2778  0.5420  0.1326
  240MPD1    H5 3702   0.443   3.214  14.365 -0.3639  0.6719 -1.7431
  240MPD1    N1 3703   0.364   3.440  13.949  0.0572 -0.5950  0.2168
  240MPD1    H6 3704   0.293   3.367  13.957  0.1489 -0.7771 -0.6577
  240MPD1    H7 3705   0.389   3.457  13.852  0.7290 -0.7335  0.3661
  241MPD1     C 3706   0.868   2.808  15.318 -0.2957 -0.1453  0.0116
  241MPD1    C1 3707   0.936   2.889  15.227  0.1008  0.2679 -1.1091
  241MPD1    C2 3708   0.867   2.969  15.141 -0.3225  0.4431 -0.2009
  241MPD1    C3 3709   0.732   2.949  15.125  0.4237 -0.2662 -0.5983
  241MPD1    C4 3710   0.664   2.877  15.218  0.3326  0.0958 -0.2801
  241MPD1    C5 3711   0.731   2.811  15.317 -0.3878 -0.2661  0.1415
  241MPD1     H 3712   0.911   3.042  15.074  0.5479 -1.2098 -1.4292
  241MPD1    H1 3713   0.558   2.864  15.201 -0.0826 -0.6208  2.6859
  241MPD1    H2 3714   0.918   2.754  15.398  1.1088 -0.3906 -1.0233
  241MPD1    H3 3715   0.685   2.734  15.380 -3.4171  1.2666 -0.1914
  241MPD1     N 3716   0.656   2.997  15.011  0.2570  0.2581  0.0760
  241MPD1    H5 3717   0.556   2.981  15.020  0.2219 -0.5266 -1.6034
  241MPD1    N1 3718   1.067   2.930  15.257  0.8142 -0.0677  0.5772
  241MPD1    H6 3719   1.110   2.963  15.171  1.8101 -0.0532  1.0740
  241MPD1    H7 3720   1.123   2.854  15.297 -0.4763 -0.5814  1.4068
  242MPD1     C 3721   0.132   1.939  15.988  0.5906 -0.0604 -0.1671
  242MPD1    C1 3722   0.265   1.913  15.961 -0.0688  0.0544  0.2527
  242MPD1    C2 3723   0.290   1.812  15.867  0.1246 -0.3414  0.9465
  242MPD1    C3 3724   0.192   1.760  15.792  0.6943  0.1607  0.5878
  242MPD1    C4 3725   0.060   1.791  15.817  0.0906 -0.3069  0.8405
  242MPD1    C5 3726   0.029   1.881  15.911  0.6658 -0.1731  0.5001
  242MPD1     H 3727   0.391   1.783  15.840 -0.3873 -0.3931 -0.9250
  242MPD1    H1 3728   4.717   1.748  15.760  0.1605  0.1750  0.3712
  242MPD1    H2 3729   0.104   2.014  16.061 -0.4023  0.6043 -1.2220
  242MPD1    H3 3730   4.668   1.920  15.920  0.9232  0.4505  0.6666
  242MPD1     N 3731   0.210   1.655  15.694  0.2948  0.3448  0.1359
  242MPD1    H5 3732   0.132   1.626  15.636 -2.4662  2.1607  2.9703
  242MPD1    N1 3733   0.359   1.954  16.053  0.1180 -0.6387  0.7564
  242MPD1    H6 3734   0.456   1.948  16.024 -0.3777  0.0464 -1.0423
  242MPD1    H7 3735   0.331   2.042  16.096  1.5332  0.9616 -1.5530
  243MPD1     C 3736   1.324   4.549  17.365  0.8433  0.0104 -0.2149
  243MPD1    C1 3737   1.349   4.414  17.360  0.5597 -0.7093  0.2392
  243MPD1    C2 3738   1.445   4.372  17.267 -0.2565 -0.0467 -0.7901
  243MPD1    C3 3739   1.509   4.461  17.178  0.6101 -0.6003  0.6211
  243MPD1    C4 3740   1.480   4.595  17.181 -0.2932  0.1902  0.0869
  243MPD1    C5 3741   1.387   4.639  17.279 -0.5601 -0.0040  0.0966
  243MPD1     H 3742   1.459   4.265  17.262  0.2016 -0.0163 -0.2454
  243MPD1    H1 3743   1.526   4.668  17.115 -1.3002  0.2555 -0.5359
  243MPD1    H2 3744   1.246   4.581  17.433  1.5170  1.3259 -0.0831
  243MPD1    H3 3745   1.357   0.004  17.273  0.2255  0.2658  0.8028
  243MPD1     N 3746   1.604   4.402  17.085 -0.0165 -0.0399 -0.4133
  243MPD1    H5 3747   1.613   4.301  17.093 -0.1441  0.0317  0.6203
  243MPD1    N1 3748   1.278   4.318  17.434  0.1834 -0.2266  0.0759
  243MPD1    H6 3749   1.292   4.218  17.421  2.3782  0.2910 -1.3833
  243MPD1    H7 3750   1.247   4.346  17.527 -2.2607 -0.5095 -0.6553
  244MPD1     C 3751   2.176   3.614  16.961  0.0601  0.1219 -0.0119
  244MPD1    C1 3752   2.211   3.687  16.847  0.6457 -0.0231 -0.2735
  244MPD1    C2 3753   2.127   3.793  16.810  0.2424  0.1623  0.2760
  244MPD1    C3 3754   2.023   3.838  16.893 -0.6740  0.8849 -0.7011
  244MPD1    C4 3755   2.000   3.763  17.010 -0.1860 -0.3969  0.5577
  244MPD1    C5 3756   2.079   3.657  17.044  0.3336 -0.0918  0.4449
  244MPD1     H 3757   2.154   3.843  16.718  1.5215 -0.7866  0.1397
  244MPD1    H1 3758   1.926   3.798  17.081 -1.6876 -1.1541 -0.6483
  244MPD1    H2 3759   2.227   3.523  16.990  1.2145  0.9480  0.5304
  244MPD1    H3 3760   2.078   3.605  17.139  1.9029  1.2859  1.2399
  244MPD1     N 3761   1.951   3.952  16.858  0.4452  0.0974  0.5080
  244MPD1    H5 3762   1.987   3.997  16.775  0.6907  0.6376  0.9024
  244MPD1    N1 3763   2.303   3.627  16.757 -0.2677 -0.5862  0.3818
  244MPD1    H6 3764   2.345   3.706  16.709  0.4135 -1.2094 -0.0457
  244MPD1    H7 3765   2.383   3.597  16.813 -0.4666 -2.1056 -0.1419
  245MPD1     C 3766   3.675   1.071  13.101  0.1045 -1.1140  0.4669
  245MPD1    C1 3767   3.577   1.163  13.093  0.3774  1.1172  0.3151
  245MPD1    C2 3768   3.610   1.292  13.130 -0.2632 -0.3182  0.0720
  245MPD1    C3 3769   3.720   1.325  13.195 -0.3057 -0.0679  0.1924
  245MPD1    C4 3770   3.818   1.226  13.216  0.9954 -0.0843 -0.3217
  245MPD1    C5 3771   3.799   1.110  13.149 -0.3169 -0.0665  0.1256
  245MPD1     H 3772   3.539   1.371  13.110 -0.1237 -1.1905 -3.9591
  245MPD1    H1 3773   3.910   1.240  13.271 -0.3073  2.1384  1.3029
  245MPD1    H2 3774   3.675   0.970  13.061  2.5581 -0.6598 -0.6794
  245MPD1    H3 3775   3.879   1.037  13.146 -0.3903 -0.2601  2.4296
  245MPD1     N 3776   3.722   1.459  13.248 -0.4635 -0.5925 -0.3236
  245MPD1    H5 3777   3.633   1.505  13.264 -0.8968 -1.4586 -0.2087
  245MPD1    N1 3778   3.457   1.132  13.024 -0.0876 -0.4563  0.1696
  245MPD1    H6 3779   3.381   1.199  13.025 -0.2709 -0.6676  0.2931
  245MPD1    H7 3780   3.422   1.052  13.075  2.9731 -0.5473  2.1789
  246MPD1     C 3781   1.139   2.971   9.381  1.0555 -0.3903  0.0560
  246MPD1    C1 3782   1.132   3.089   9.449 -0.1205 -0.0252  0.2610
  246MPD1    C2 3783   1.022   3.111   9.532  0.0121 -0.4118  0.7743
  246MPD1    C3 3784   0.926   3.013   9.546  0.0535 -0.2249 -0.1760
  246MPD1    C4 3785   0.939   2.893   9.483 -0.2246  0.6239 -0.3128
  246MPD1    C5 3786   1.054   2.869   9.412 -0.1225 -0.3853  0.5505
  246MPD1     H 3787   1.010   3.202   9.589 -2.4461  1.2861 -2.4089
  246MPD1    H1 3788   0.864   2.817   9.465 -0.3281  0.4538  0.8220
  246MPD1    H2 3789   1.218   2.945   9.311  1.9911  1.7836  0.2982
  246MPD1    H3 3790   1.048   2.781   9.349 -2.3709 -1.0335  1.6904
  246MPD1     N 3791   0.810   3.049   9.617 -0.1173  0.2074  0.0294
  246MPD1    H5 3792   0.790   3.145   9.643  0.4632  0.3497 -0.0506
  246MPD1    N1 3793   1.232   3.190   9.428  0.1080 -0.3666 -0.4628
  246MPD1    H6 3794   1.318   3.146   9.399 -0.4876 -1.4499 -0.5953
  246MPD1    H7 3795   1.245   3.242   9.515 -0.8918 -3.4858  1.5468
  247MPD1     C 3796   2.850   4.632  16.754  0.3419 -0.1115  0.6643
  247MPD1    C1 3797   2.865   4.633  16.619 -1.1989 -0.1094 -0.1920
  247MPD1    C2 3798   2.937   4.735  16.567  0.0322  0.1999 -0.0113
  247MPD1    C3 3799   2.982   0.098  16.650 -0.2427  0.0873  1.1348
  247MPD1    C4 3800   2.949   0.108  16.783 -0.0021 -0.0332  0.0725
  247MPD1    C5 3801   2.888   4.738  16.837  1.0363  0.2658 -0.6122
  247MPD1     H 3802   2.963   4.732  16.462 -2.2341 -1.2952 -0.5416
  247MPD1    H1 3803   2.988   0.186  16.847  0.4728  0.4527 -0.8010
  247MPD1    H2 3804   2.802   4.547  16.800 -0.2632  0.6993  1.5295
  247MPD1    H3 3805   2.872   4.726  16.943  0.7199 -0.7085 -0.7766
  247MPD1     N 3806   3.052   0.208  16.598  0.3017  0.8915  0.6319
  247MPD1    H5 3807   3.091   0.271  16.667  1.7475  0.9660 -0.2613
  247MPD1    N1 3808   2.842   4.511  16.547 -0.3057  0.3983  0.3677
  247MPD1    H6 3809   2.842   4.518  16.446  0.0932 -0.2428  0.3222
  247MPD1    H7 3810   2.756   4.463  16.576  0.3335 -0.9974 -0.0695
  248MPD1     C 3811   3.101   4.511  17.269  0.5464 -0.0464 -0.1885
  248MPD1    C1 3812   3.026   4.579  17.179  0.1301 -0.0070 -0.4493
  248MPD1    C2 3813   2.999   4.709  17.219 -0.2669 -0.8285  0.5696
  248MPD1    C3 3814   3.076   0.031  17.320  0.4479  0.4934  0.1609
  248MPD1    C4 3815   3.162   4.701  17.401  0.2516  0.2063  0.2981
  248MPD1    C5 3816   3.170   4.564  17.375 -0.1590  0.3732  0.7334
  248MPD1     H 3817   2.940   0.031  17.152  2.6683  0.7698 -0.5591
  248MPD1    H1 3818   3.207   0.014  17.485  1.5134  0.1985 -0.3645
  248MPD1    H2 3819   3.113   4.404  17.264 -0.5702 -0.2013  0.4994
  248MPD1    H3 3820   3.237   4.495  17.424 -1.4256 -0.3368  1.4705
  248MPD1     N 3821   3.040   0.165  17.361 -0.3188  0.2824 -0.1790
  248MPD1    H5 3822   2.964   0.212  17.312  0.7221 -0.2295 -2.2757
  248MPD1    N1 3823   2.951   4.509  17.083 -0.6064 -0.0653  0.4053
  248MPD1    H6 3824   2.911   4.565  17.008  0.7751 -0.6444 -0.7671
  248MPD1    H7 3825   3.004   4.433  17.040 -0.4328 -0.0894  0.6633
  249MPD1     C 3826   0.785   1.040  10.258 -0.2620  0.4031 -0.3761
  249MPD1    C1 3827   0.851   1.002  10.366  0.0739 -0.2271  0.5030
  249MPD1    C2 3828   0.838   0.867  10.404 -0.7871  0.1315  0.4990
  249MPD1    C3 3829   0.761   0.778  10.333  0.0554  0.0181 -0.3310
  249MPD1    C4 3830   0.689   0.827  10.225 -0.2543  0.0477 -0.3167
  249MPD1    C5 3831   0.704   0.957  10.186 -0.6554 -0.1069  0.0412
  249MPD1     H 3832   0.890   0.832  10.492  1.0002  1.0728 -0.1841
  249MPD1    H1 3833   0.608   0.773  10.177  0.5702 -1.0341 -0.4917
  249MPD1    H2 3834   0.776   1.143  10.227 -1.8787  0.5425  0.5347
  249MPD1    H3 3835   0.637   0.996  10.110 -1.5785 -0.4840  0.6618
  249MPD1     N 3836   0.734   0.646  10.383 -0.1640 -0.1317  0.5805
  249MPD1    H5 3837   0.744   0.630  10.483  1.9221  1.1425  0.5642
  249MPD1    N1 3838   0.936   1.100  10.427 -0.0388 -0.1660  0.5739
  249MPD1    H6 3839   0.948   1.084  10.527  1.3847 -0.2349  0.3964
  249MPD1    H7 3840   0.899   1.195  10.420  0.8385  0.0814 -0.7922
  250MPD2     C 3841   2.096   4.371  12.893  0.4087 -0.2824 -0.2588
  250MPD2    C1 3842   2.004   4.482  12.877 -0.5598  0.2468  0.0603
  250MPD2    C2 3843   1.875   4.455  12.818  0.5826 -0.8868 -0.3407
  250MPD2    C3 3844   1.835   4.328  12.789 -0.0636  0.6303  0.4637
  250MPD2    C4 3845   1.930   4.227  12.808 -0.2002 -0.2744  0.5220
  250MPD2    C5 3846   2.056   4.251  12.854  0.2474  0.5677  0.0276
  250MPD2     H 3847   1.808   4.537  12.795 -0.3417 -1.9279 -1.2748
  250MPD2    H1 3848   1.911   4.126  12.773 -2.4494  0.5099 -0.5129
  250MPD2    H2 3849   2.195   4.378  12.938  0.8969 -2.0996 -1.0539
  250MPD2    H3 3850   2.132   4.173  12.854 -0.7933 -0.4511 -0.9164
  250MPD2     N 3851   1.712   4.286  12.742  0.3151 -0.6577  0.1531
  250MPD2    H5 3852   1.701   4.190  12.710 -0.3623 -0.1240 -1.1846
  250MPD2    N1 3853   2.039   4.614  12.917  0.1681  0.6831  0.9381
  250MPD2    H7 3854   2.135   4.629  12.948  0.3526 -2.2918  1.8903
  251TMC3    C1 3855   2.045   0.110  12.967  0.7438  0.0158  0.3949
  251TMC3    C2 3856   1.988   0.205  13.045 -0.3100 -0.6306  0.5630
  251TMC3    C3 3857   2.071   0.302  13.092 -0.1614  0.4112  0.3856
  251TMC3    C4 3858   2.183   0.105  12.944  0.6666 -0.0550  0.2774
  251TMC3    C5 3859   2.258   0.208  12.989 -0.7239  0.5788  0.2499
  251TMC3    C6 3860   2.209   0.305  13.072 -0.1580  0.5280  0.4313
  251TMC3     C 3861   1.967   4.737  12.918  0.7090 -0.1279  0.2870
  251TMC3     O 3862   1.851   0.014  12.881 -0.2671 -0.6426  0.1106
  251TMC3     H 3863   1.880   0.205  13.062 -0.7611  0.8115 -2.3461
  251TMC3    H1 3864   2.219   0.025  12.880  0.8230 -0.4411  0.8463
  251TMC3    H2 3865   2.276   0.378  13.117  1.2456 -1.1364  1.0066
  251TMC3    C7 3866   2.393   0.165  13.000 -0.2305 -0.0387 -0.2005
  251TMC3    C8 3867   2.018   0.399  13.180  0.0564 -0.3224 -0.0711
  251TMC3    O1 3868   2.412   0.045  12.995 -0.1065  0.0442  0.4862
  251TMC3    O2 3869   1.923   0.358  13.251 -0.0485  0.8544  0.0446
  252TMC3    C1 3870   1.909   1.416   9.528  0.8684 -0.2531 -0.5376
  252TMC3    C2 3871   2.021   1.495   9.521 -0.2385  0.0242  0.2113
  252TMC3    C3 3872   2.130   1.454   9.596  0.4671 -0.5573  0.3307
  252TMC3    C4 3873   1.907   1.299   9.601 -0.2504  0.3357 -0.4153
  252TMC3    C5 3874   2.017   1.270   9.676 -1.4879  0.1700 -0.4548
  252TMC3    C6 3875   2.131   1.344   9.673 -0.1845  0.5976  0.1825
  252TMC3     C 3876   1.808   1.453   9.434 -0.9296  0.3159  0.4331
  252TMC3     O 3877   1.842   1.533   9.344 -0.0343  0.0262  0.4526
  252TMC3     H 3878   2.016   1.596   9.481  1.5730  0.6927  1.6278
  252TMC3    H1 3879   1.833   1.220   9.591  0.5195 -0.2214 -1.6957
  252TMC3    H2 3880   2.230   1.317   9.709  0.1147  2.3789  0.6903
  252TMC3    C7 3881   2.019   1.142   9.735 -0.2245 -0.2309 -0.5046
  252TMC3    C8 3882   2.238   1.559   9.607  0.9447  0.1037 -0.0767
  252TMC3    O1 3883   1.960   1.046   9.683  0.8273 -0.0842  0.0987
  252TMC3    O2 3884   2.251   1.639   9.512  0.2017 -0.1232 -0.1387
  253MPD2     C 3885   3.601   4.571  15.184 -0.6226  0.4431  0.0059
  253MPD2    C1 3886   3.467   4.544  15.153  0.0671 -0.0371  0.9275
  253MPD2    C2 3887   3.393   4.475  15.255  0.6061  0.5302  0.5510
  253MPD2    C3 3888   3.459   4.416  15.360  0.0172 -0.3240  0.0415
  253MPD2    C4 3889   3.591   4.447  15.379 -0.3837  0.0277  0.3115
  253MPD2    C5 3890   3.654   4.531  15.299 -0.4987 -0.4100  0.8134
  253MPD2     H 3891   3.286   4.463  15.240  1.1048 -0.2886 -2.1492
  253MPD2    H1 3892   3.640   4.419  15.471 -0.0674 -1.2884 -0.2568
  253MPD2    H2 3893   3.670   4.621  15.117  2.2475 -0.6609  2.1082
  253MPD2    H3 3894   3.753   4.574  15.315 -0.2334 -0.3984 -0.8386
  253MPD2     N 3895   3.391   4.343  15.465  0.1267  0.1436  0.1359
  253MPD2    H5 3896   3.440   4.326  15.552  0.8766  2.5570  0.1900
  253MPD2    N1 3897   3.403   4.591  15.037  1.0389 -0.0709 -0.1634
  253MPD2    H7 3898   3.304   4.568  15.034  1.1808 -0.3811 -2.5735
  254TMC3    C1 3899   3.223   4.253  15.605 -0.7104 -0.0852 -0.1077
  254TMC3    C2 3900   3.086   4.249  15.621 -0.4852 -0.2226  0.4325
  254TMC3    C3 3901   3.035   4.194  15.740  0.4331 -0.1385 -0.2524
  254TMC3    C4 3902   3.316   4.194  15.689  0.6593  0.0931 -0.1291
  254TMC3    C5 3903   3.256   4.133  15.799  0.5189 -0.6615  0.3785
  254TMC3    C6 3904   3.120   4.132  15.827  0.4430  0.0885  0.2380
  254TMC3     C 3905   3.261   4.307  15.472 -0.2266 -0.3966  0.0465
  254TMC3     O 3906   3.166   4.338  15.400 -0.2424  0.4114 -0.0277
  254TMC3     H 3907   3.014   4.287  15.549  0.7443 -1.4316 -1.4108
  254TMC3    H1 3908   3.421   4.180  15.665  0.3652  0.6582 -1.7350
  254TMC3    H2 3909   3.073   4.083  15.911  0.7190  2.0229  1.5051
  254TMC3    C7 3910   3.345   4.091  15.910 -0.4624  0.0832 -0.1938
  254TMC3    C8 3911   2.892   4.190  15.779  0.4245  0.3644  0.4945
  254TMC3    O1 3912   3.293   4.025  16.003  0.6240 -0.6308 -0.4858
  254TMC3    O2 3913   2.846   4.097  15.851 -0.6104 -0.0428 -0.1313
  255MPD2     C 3914   0.736   2.690  10.765 -0.2209 -0.0347  0.7424
  255MPD2    C1 3915   0.837   2.783  10.740  0.5629 -0.0470 -0.6922
  255MPD2    C2 3916   0.946   2.742  10.664 -0.4433  0.0748  0.1841
  255MPD2    C3 3917   0.969   2.612  10.625  0.3338 -0.1478  0.6059
  255MPD2    C4 3918   0.877   2.518  10.664  0.9083 -0.9725  0.5334
  255MPD2    C5 3919   0.757   2.560  10.725  0.3704 -0.1560  0.9819
  255MPD2     H 3920   1.010   2.826  10.637 -1.0639  0.6952  0.6180
  255MPD2    H1 3921   0.895   2.412  10.651  0.0887 -1.5369  4.0895
  255MPD2    H2 3922   0.644   2.723  10.813 -0.9693 -1.8831  0.5622
  255MPD2    H3 3923   0.682   2.484  10.742 -0.2822  0.7970  2.3796
  255MPD2     N 3924   1.088   2.586  10.567 -0.3093  0.1911  0.8519
  255MPD2    H5 3925   1.151   2.664  10.549  1.7828 -1.4284  1.0589
  255MPD2    N1 3926   0.833   2.907  10.810 -0.8345  0.3625 -0.1463
  255MPD2    H7 3927   0.750   2.923  10.866 -1.0730  0.3183 -0.4893
  256TMC3    C1 3928   0.921   3.102  10.908  0.1780  0.6243 -0.6491
  256TMC3    C2 3929   1.022   3.175  10.956 -0.2911  0.0294 -0.6559
  256TMC3    C3 3930   1.031   3.312  10.950  0.5427  0.1894  0.4168
  256TMC3    C4 3931   0.809   3.179  10.864  0.7337  0.5795  0.4903
  256TMC3    C5 3932   0.813   3.320  10.868  0.6588  0.5896  0.2944
  256TMC3    C6 3933   0.921   3.387  10.923  0.0803  0.0502 -0.3971
  256TMC3     C 3934   0.950   2.980  10.832  0.3165  0.3677  0.3225
  256TMC3     O 3935   1.068   2.971  10.793  0.6723 -0.6427 -0.0396
  256TMC3     H 3936   1.110   3.126  10.996 -0.5919 -1.0353 -1.2982
  256TMC3    H1 3937   0.720   3.136  10.820  0.0012  0.1688  2.3739
  256TMC3    H2 3938   0.923   3.494  10.911 -2.1782 -0.0256 -1.5555
  256TMC3    C7 3939   0.692   3.392  10.839 -0.5295  0.5109  0.2706
  256TMC3    C8 3940   1.141   3.348  10.858 -0.6834 -0.6942  0.4562
  256TMC3    O1 3941   0.587   3.354  10.894 -0.4055  0.3560  0.1436
  256TMC3    O2 3942   1.163   3.467  10.838  0.0218  0.2886 -0.9145
  257MPD2     C 3943   0.940   4.370  13.238  0.1202 -0.5012  0.1030
  257MPD2    C1 3944   0.826   4.304  13.192 -0.3139  0.0259 -0.0890
  257MPD2    C2 3945   0.752   4.236  13.287  0.6964 -0.5383 -0.7044
  257MPD2    C3 3946   0.799   4.215  13.417 -0.1475 -0.4027  0.4029
  257MPD2    C4 3947   0.917   4.272  13.454  0.0329  0.6196 -0.5530
  257MPD2    C5 3948   0.981   4.353  13.363 -0.5847  0.2954  0.9526
  257MPD2     H 3949   0.656   4.192  13.263  0.5830  0.9733 -2.9893
  257MPD2    H1 3950   0.962   4.276  13.553  2.6766  0.5111 -1.7571
  257MPD2    H2 3951   0.997   4.438  13.176 -2.0192  1.3140  0.1001
  257MPD2    H3 3952   1.073   4.405  13.387 -0.2695 -0.0383  0.4648
  257MPD2     N 3953   0.713   4.138  13.501 -0.5742 -0.0573 -0.1477
  257MPD2    H5 3954   0.626   4.104  13.461 -0.0291  0.9877 -2.2286
  257MPD2    N1 3955   0.767   4.336  13.066 -0.0253  0.3847 -0.0185
  257MPD2    H7 3956   0.676   4.298  13.045 -0.6067  1.5090  0.4677
  258TMC3    C1 3957   0.693   3.961  13.649  0.2713  0.2457  0.4221
  258TMC3    C2 3958   0.582   3.936  13.577  0.5535 -0.1805  0.2761
  258TMC3    C3 3959   0.562   3.806  13.535 -0.7382 -0.3103  0.4808
  258TMC3    C4 3960   0.782   3.864  13.680  0.0054 -0.6332 -0.0071
  258TMC3    C5 3961   0.770   3.746  13.616  0.1746  0.6368  0.2641
  258TMC3    C6 3962   0.658   3.708  13.550  0.3761  0.2056 -0.5219
  258TMC3     C 3963   0.750   4.088  13.625  0.5702  0.0687  0.1680
  258TMC3     O 3964   0.853   4.115  13.687  0.2461  0.3119  0.3544
  258TMC3     H 3965   0.502   4.008  13.559 -1.5000 -2.2809  0.9258
  258TMC3    H1 3966   0.862   3.896  13.745 -1.1608  1.1164  0.5678
  258TMC3    H2 3967   0.649   3.604  13.521  2.8099 -0.1859  0.0825
  258TMC3    C7 3968   0.854   3.631  13.658  0.2760 -0.1183 -0.5248
  258TMC3    C8 3969   0.436   3.770  13.473  0.5652 -0.4369  0.2030
  258TMC3    O1 3970   0.817   3.515  13.633 -0.0882  0.1176 -0.4580
  258TMC3    O2 3971   0.345   3.850  13.483  0.3084  0.2244 -0.1035
  259MPD2     C 3972   4.560   1.057   0.079  0.3562  0.2703  1.1080
  259MPD2    C1 3973   4.571   0.983   0.193  0.4798  0.8768 -1.0691
  259MPD2    C2 3974   4.670   0.882   0.202 -0.5375 -0.0815 -0.0512
  259MPD2    C3 3975   0.008   0.859   0.089  0.0775  0.5173  0.1609
  259MPD2    C4 3976   4.725   0.922  17.724 -0.1268  1.2728  0.4331
  259MPD2    C5 3977   4.630   1.022  17.727 -0.4471  0.3852  0.1023
  259MPD2     H 3978   4.687   0.821   0.291  1.1572  0.6919  0.1536
  259MPD2    H1 3979   0.024   0.885  17.629 -0.4772  0.5371  0.5741
  259MPD2    H2 3980   4.483   1.131   0.065  1.5133  1.0675 -1.0130
  259MPD2    H3 3981   4.595   1.070  17.636  1.4822  0.8769 -0.3816
  259MPD2     N 3982   0.095   0.745   0.107 -0.2732 -0.2487  0.3888
  259MPD2    H5 3983   0.096   0.708   0.202 -2.7821 -1.9047 -0.2408
  259MPD2    N1 3984   4.485   1.018   0.305  0.9359  0.8706 -0.7567
  259MPD2    H7 3985   4.436   1.105   0.284  0.2975 -0.2402 -3.9275
  260TMC3    C1 3986   0.297   0.619   0.077 -0.6062  0.9679  0.3077
  260TMC3    C2 3987   0.415   0.605   0.012 -0.5789  0.2997  0.9369
  260TMC3    C3 3988   0.507   0.512   0.060  0.1613 -0.4140  0.7621
  260TMC3    C4 3989   0.278   0.553   0.193  0.2331  0.4649  0.3759
  260TMC3    C5 3990   0.366   0.461   0.240  0.3403  1.1189  0.7018
  260TMC3    C6 3991   0.481   0.443   0.173  1.0230  0.1788 -0.5613
  260TMC3     C 3992   0.196   0.714   0.025 -0.9141  0.3952 -0.0400
  260TMC3     O 3993   0.214   0.750  17.667 -0.5472 -0.0924 -0.5380
  260TMC3     H 3994   0.436   0.662  17.677  1.6054  1.8682  2.4696
  260TMC3    H1 3995   0.183   0.569   0.243  1.1613  2.4225  1.5361
  260TMC3    H2 3996   0.553   0.372   0.211  0.7110 -0.0728 -0.4441
  260TMC3    C7 3997   0.306   0.337   0.292  0.1657  0.1259  0.4974
  260TMC3    C8 3998   0.550   0.423  17.704  0.0298  0.1759 -0.0263
  260TMC3    O1 3999   0.359   0.238   0.244 -0.0674  0.3943  0.2705
  260TMC3    O2 4000   0.600   0.477  17.606 -0.5437  0.1750 -0.3346
  261MPD2     C 4001   1.314   4.238  12.058 -0.7132  0.4594  0.2814
  261MPD2    C1 4002   1.401   4.309  12.135 -0.1766 -0.3436 -0.3426
  261MPD2    C2 4003   1.447   4.429  12.094  0.7599 -0.5305 -0.2731
  261MPD2    C3 4004   1.415   4.488  11.976  0.0267  0.0098 -0.7980
  261MPD2    C4 4005   1.325   4.419  11.899 -0.6152  0.3262  0.3132
  261MPD2    C5 4006   1.279   4.292  11.935  0.2273 -0.6079 -0.6207
  261MPD2     H 4007   1.518   4.479  12.160  0.2206  0.1420 -0.1964
  261MPD2    H1 4008   1.276   4.462  11.813  1.2841  0.6830 -0.5753
  261MPD2    H2 4009   1.283   4.139  12.088 -1.0856  1.4051  3.0561
  261MPD2    H3 4010   1.205   4.236  11.878 -1.0775  0.4307  0.0506
  261MPD2     N 4011   1.450   4.620  11.961 -0.4400 -0.5560 -1.0984
  261MPD2    H5 4012   1.500   4.670  12.034  0.9299 -0.1124 -2.3302
  261MPD2    N1 4013   1.438   4.272  12.271  0.2025 -0.7342  0.1984
  261MPD2    H7 4014   1.488   4.350  12.312  0.4082  0.7561 -2.8298
  262TMC3    C1 4015   1.450   0.103  11.875  0.7744 -0.1002  0.6021
  262TMC3    C2 4016   1.365   0.198  11.830  0.0983  0.1579  0.0374
  262TMC3    C3 4017   1.419   0.321  11.805 -1.3842 -0.3146  0.3502
  262TMC3    C4 4018   1.582   0.119  11.913  0.2142  0.6026 -0.4054
  262TMC3    C5 4019   1.633   0.243  11.898  0.1096 -0.2051  0.3544
  262TMC3    C6 4020   1.551   0.339  11.837  0.2178  1.0293  0.0333
  262TMC3     C 4021   1.405   4.702  11.864  0.5255  0.6172  0.0039
  262TMC3     O 4022   1.322   4.683  11.774 -0.0947  0.6387  0.0297
  262TMC3     H 4023   1.268   0.172  11.789  0.1387  0.1106 -0.0271
  262TMC3    H1 4024   1.647   0.034  11.930 -1.6053 -1.0123 -1.4564
  262TMC3    H2 4025   1.587   0.441  11.828  2.3041  0.3030  0.0699
  262TMC3    C7 4026   1.778   0.245  11.864 -0.4787  0.1805  0.1982
  262TMC3    C8 4027   1.327   0.428  11.831 -0.3868 -0.2270  0.1033
  262TMC3    O1 4028   1.838   0.146  11.904 -0.3458 -0.4811 -0.4670
  262TMC3    O2 4029   1.222   0.396  11.885 -0.3313 -0.0255 -0.4755
  263MPD2     C 4030   2.226   3.603  11.558  0.8589 -0.3285  0.1139
  263MPD2    C1 4031   2.359   3.630  11.552  0.4680  0.1310 -0.2126
  263MPD2    C2 4032   2.400   3.749  11.495  1.1153  0.6678 -0.6935
  263MPD2    C3 4033   2.298   3.828  11.437 -0.2000 -0.1241 -0.0550
  263MPD2    C4 4034   2.168   3.792  11.442  0.0165 -0.3102 -0.1883
  263MPD2    C5 4035   2.134   3.671  11.497  0.2735  0.1219 -0.4597
  263MPD2     H 4036   2.504   3.774  11.481  1.8901 -1.0212  2.0289
  263MPD2    H1 4037   2.092   3.857  11.399 -0.4327 -0.2391  0.7088
  263MPD2    H2 4038   2.191   3.515  11.611 -0.6166  1.4709  2.1111
  263MPD2    H3 4039   2.033   3.637  11.513  0.1815  0.0772 -1.1333
  263MPD2     N 4040   2.352   3.940  11.367 -0.1829  0.4868 -0.3778
  263MPD2    H5 4041   2.452   3.952  11.376 -0.2928  1.8683 -0.9247
  263MPD2    N1 4042   2.446   3.537  11.617 -0.0399  0.3000 -0.4282
  263MPD2    H7 4043   2.407   3.460  11.670  1.0884 -1.2789 -1.9146
  264TMC3    C1 4044   2.354   4.136  11.240 -0.1205 -0.1189  0.3393
  264TMC3    C2 4045   2.437   4.193  11.334  0.2731 -0.0843  0.0609
  264TMC3    C3 4046   2.546   4.267  11.290 -0.2682  0.6776 -0.6217
  264TMC3    C4 4047   2.382   4.136  11.109  0.0293 -0.2927  1.0901
  264TMC3    C5 4048   2.492   4.208  11.066 -0.5238  0.2926 -0.3180
  264TMC3    C6 4049   2.572   4.275  11.155 -0.1316 -0.0609 -0.0487
  264TMC3     C 4050   2.272   4.018  11.279 -0.1788 -0.0852  0.3584
  264TMC3     O 4051   2.167   3.990  11.224 -0.2101  0.0758  0.1387
  264TMC3     H 4052   2.416   4.180  11.440 -3.6036  1.3590 -0.5284
  264TMC3    H1 4053   2.320   4.087  11.035  1.2564  0.0140 -0.1365
  264TMC3    H2 4054   2.661   4.325  11.119  0.3840 -0.1789  1.0823
  264TMC3    C7 4055   2.530   4.222  10.929 -0.3461  0.5296 -0.2235
  264TMC3    C8 4056   2.637   4.343  11.378  0.0801 -0.3961  0.8837
  264TMC3    O1 4057   2.645   4.259  10.905 -0.8121 -0.9497  0.2646
  264TMC3    O2 4058   2.725   4.410  11.320  0.2194  0.0715  0.1192
  265MPD2     C 4059   4.377   3.921  15.291 -0.2645 -0.6081  0.3984
  265MPD2    C1 4060   4.441   4.034  15.246  0.0479 -0.6472 -0.7388
  265MPD2    C2 4061   4.542   4.022  15.148  0.4295 -0.4648 -0.8152
  265MPD2    C3 4062   4.568   3.900  15.091 -0.3563  0.7176  0.8675
  265MPD2    C4 4063   4.505   3.791  15.145  0.0731 -0.1041 -0.7202
  265MPD2    C5 4064   4.410   3.799  15.239  0.6891 -0.8294  0.1892
  265MPD2     H 4065   4.600   4.109  15.117 -0.0267  0.2223  0.2799
  265MPD2    H1 4066   4.534   3.691  15.115 -0.8714 -0.7896  0.6451
  265MPD2    H2 4067   4.307   3.922  15.373  0.0320  1.5554  0.6334
  265MPD2    H3 4068   4.381   3.707  15.289  0.9562 -1.0370 -0.0338
  265MPD2     N 4069   4.663   3.864  14.995  0.1219  0.4926  0.7306
  265MPD2    H5 4070   4.668   3.767  14.967 -1.2532  0.4047  0.7700
  265MPD2    N1 4071   4.408   4.159  15.310  0.1534  0.1436 -0.1524
  265MPD2    H7 4072   4.459   4.239  15.275 -1.3497 -0.7155 -4.3576
  266TMC3    C1 4073   4.314   4.320  15.450  0.3567  0.2031  0.1970
  266TMC3    C2 4074   4.320   4.341  15.585 -0.3536 -0.4780  0.5856
  266TMC3    C3 4075   4.309   4.468  15.638  0.2026 -0.1931 -0.3495
  266TMC3    C4 4076   4.285   4.416  15.361  0.3579 -0.7283  0.2163
  266TMC3    C5 4077   4.279   4.549  15.407  0.6347  0.1162  0.0440
  266TMC3    C6 4078   4.296   4.573  15.547  0.1880  0.2652  0.3531
  266TMC3     C 4079   4.324   4.182  15.418 -0.0447 -0.1731 -0.2577
  266TMC3     O 4080   4.264   4.103  15.487 -0.0091  0.5952 -0.7131
  266TMC3     H 4081   4.341   4.262  15.656  0.0421 -0.3220  0.6415
  266TMC3    H1 4082   4.269   4.397  15.256 -0.4796  1.3060 -0.0148
  266TMC3    H2 4083   4.293   4.672  15.591  1.8867  1.5040 -2.3497
  266TMC3    C7 4084   4.240   4.660  15.314 -0.2421  0.1113  0.5411
  266TMC3    C8 4085   4.413   4.477  15.738 -0.5186 -0.8166 -0.6818
  266TMC3    O1 4086   4.159   4.633  15.229  0.0555  0.3248  0.0938
  266TMC3    O2 4087   4.511   4.404  15.736  0.1763 -0.2379 -0.0351
  267MPD2     C 4088   1.172   0.738   0.212 -0.2756 -0.0300  0.3363
  267MPD2    C1 4089   1.270   0.739   0.114  0.5370  0.6406 -0.3530
  267MPD2    C2 4090   1.264   0.837   0.019 -0.7568 -0.0460 -0.1375
  267MPD2    C3 4091   1.175   0.938   0.024 -0.2085  0.1634  0.1358
  267MPD2    C4 4092   1.074   0.937   0.118  0.3316 -0.5925  0.7842
  267MPD2    C5 4093   1.077   0.835   0.217  0.0422  0.5014 -0.2857
  267MPD2     H 4094   1.341   0.833  17.697  0.2566 -1.8932  0.9711
  267MPD2    H1 4095   0.991   1.006   0.127 -0.7844 -1.9928  1.2519
  267MPD2    H2 4096   1.181   0.672   0.298  0.1142 -1.2117 -0.6093
  267MPD2    H3 4097   1.007   0.836   0.300  0.6941 -0.7299  0.2682
  267MPD2     N 4098   1.167   1.016  17.665 -0.0406 -0.3896 -0.0178
  267MPD2    H5 4099   1.241   0.999  17.598 -0.1414 -1.9852  0.2735
  267MPD2    N1 4100   1.383   0.653   0.126  0.2128 -0.0565 -0.1411
  267MPD2    H7 4101   1.388   0.605   0.215 -0.1684 -1.5291 -0.9198
  268TMC3    C1 4102   1.585   0.545   0.057 -0.0066  0.2410  0.3636
  268TMC3    C2 4103   1.655   0.502  17.702  0.5719 -0.3394 -0.5244
  268TMC3    C3 4104   1.786   0.457  17.724 -0.0296 -0.4440 -0.0094
  268TMC3    C4 4105   1.639   0.565   0.176 -0.0999 -1.1732  0.8041
  268TMC3    C5 4106   1.771   0.524   0.190 -0.5785  0.2401 -0.1001
  268TMC3    C6 4107   1.850   0.474   0.089  0.1330  0.3738  0.4906
  268TMC3     C 4108   1.470   0.620   0.021  0.4439  0.5095 -0.5335
  268TMC3     O 4109   1.457   0.659  17.662  0.4798 -0.2013  0.4269
  268TMC3     H 4110   1.617   0.492  17.601  1.5231  0.8394 -0.9939
  268TMC3    H1 4111   1.574   0.584   0.261 -0.0471  1.7738  0.1660
  268TMC3    H2 4112   1.951   0.438   0.105 -0.2981 -0.5563  1.1665
  268TMC3    C7 4113   1.838   0.554   0.319  0.2381  0.4449 -0.1506
  268TMC3    C8 4114   1.878   0.419  17.614 -0.3296  0.6633  0.0155
  268TMC3    O1 4115   1.928   0.477   0.348 -0.3015 -0.1173 -0.0541
  268TMC3    O2 4116   1.974   0.343  17.636 -0.0539  0.0653 -0.1475
  269MPD2     C 4117   2.833   4.512  15.188  0.0734  0.1324  0.3827
  269MPD2    C1 4118   2.704   4.547  15.235 -0.2477  0.4721 -1.0673
  269MPD2    C2 4119   2.651   4.670  15.212 -0.4228 -0.0637  0.2280
  269MPD2    C3 4120   2.727   0.033  15.152 -0.4436 -0.2378  0.2753
  269MPD2    C4 4121   2.857   0.000  15.115 -0.8906  0.3244  0.4278
  269MPD2    C5 4122   2.902   4.607  15.123 -0.6275  0.5067 -0.1085
  269MPD2     H 4123   2.547   4.691  15.231 -0.6837 -0.3615 -0.8998
  269MPD2    H1 4124   2.919   0.082  15.080 -1.7161  0.3980 -0.8382
  269MPD2    H2 4125   2.876   4.413  15.197  0.2021  0.1777  0.2692
  269MPD2    H3 4126   3.007   4.586  15.105 -0.7713  0.1113 -0.4751
  269MPD2     N 4127   2.666   0.156  15.127  0.3004  0.0444  0.0975
  269MPD2    H5 4128   2.565   0.160  15.133  0.2642  3.2005 -2.7754
  269MPD2    N1 4129   2.629   4.449  15.299 -0.1432 -0.8217 -0.0454
  269MPD2    H7 4130   2.665   4.354  15.302 -0.3212 -0.8310  1.7447
  270TMC3    C1 4131   2.452   4.350  15.424 -0.1377 -0.4422  0.0173
  270TMC3    C2 4132   2.315   4.326  15.430  0.2661  0.0012  0.4645
  270TMC3    C3 4133   2.257   4.206  15.445  0.3946  0.3107  0.2645
  270TMC3    C4 4134   2.532   4.247  15.458 -0.5676  0.5237  0.3379
  270TMC3    C5 4135   2.474   4.127  15.492  0.4194  0.5479 -0.7618
  270TMC3    C6 4136   2.340   4.115  15.496 -0.0801 -0.3464  0.6520
  270TMC3     C 4137   2.508   4.469  15.372 -0.2537 -0.4415 -0.3999
  270TMC3     O 4138   2.436   4.569  15.382  0.4831 -0.3062 -0.5640
  270TMC3     H 4139   2.250   4.404  15.393 -0.0278  0.0060  0.9990
  270TMC3    H1 4140   2.640   4.251  15.451 -0.4763  0.5895  1.7904
  270TMC3    H2 4141   2.299   4.015  15.507  0.4394 -0.5573  0.6806
  270TMC3    C7 4142   2.543   4.005  15.456 -0.7969  0.1945 -0.1885
  270TMC3    C8 4143   2.207   4.159  15.313  0.4502 -0.4362  0.7762
  270TMC3    O1 4144   2.648   3.995  15.513  0.4357  0.5161  0.4667
  270TMC3    O2 4145   2.270   4.069  15.253 -0.4212  0.2104 -0.2236
  271MPD2     C 4146   1.558   4.409  13.579  0.3941  0.1743 -0.3011
  271MPD2    C1 4147   1.503   4.396  13.705 -0.0976  0.0425 -0.5153
  271MPD2    C2 4148   1.372   4.442  13.731 -0.2222  0.3071  0.2309
  271MPD2    C3 4149   1.309   4.510  13.628 -0.0488  0.0907 -0.2194
  271MPD2    C4 4150   1.366   4.530  13.507  0.3438 -0.3925 -0.2452
  271MPD2    C5 4151   1.488   4.482  13.481  0.5974  0.3814 -0.6373
  271MPD2     H 4152   1.332   4.427  13.830  1.4286  0.1352  0.8673
  271MPD2    H1 4153   1.317   4.592  13.433 -0.0761 -1.9862 -1.2734
  271MPD2    H2 4154   1.659   4.377  13.554 -0.2600 -0.2542 -2.3854
  271MPD2    H3 4155   1.533   4.496  13.384 -1.0205  1.1468 -1.2811
  271MPD2     N 4156   1.188   4.587  13.640  0.1103 -0.2702  0.0967
  271MPD2    H5 4157   1.155   4.637  13.558  0.8730 -0.5989 -0.4159
  271MPD2    N1 4158   1.573   4.332  13.811 -0.1478 -0.1693  0.4244
  271MPD2    H7 4159   1.521   4.318  13.897  0.1225 -0.2171  0.5794
  272TMC3    C1 4160   1.761   4.263  13.950  0.5764 -0.0367 -0.6403
  272TMC3    C2 4161   1.897   4.247  13.956 -0.1057  0.5278 -0.2949
  272TMC3    C3 4162   1.940   4.172  14.059  0.2148 -1.1292  1.3505
  272TMC3    C4 4163   1.669   4.244  14.051 -0.4038 -0.2374 -0.1761
  272TMC3    C5 4164   1.729   4.187  14.158 -0.4397  0.1806 -0.2315
  272TMC3    C6 4165   1.864   4.154  14.174  0.2135  0.7654 -0.3722
  272TMC3     C 4166   1.709   4.308  13.819 -0.4970 -0.0251  0.2528
  272TMC3     O 4167   1.798   4.344  13.741 -0.5046 -0.2652 -0.4377
  272TMC3     H 4168   1.960   4.247  13.868  2.7557 -0.9104  1.7328
  272TMC3    H1 4169   1.565   4.272  14.054 -0.2388  0.4631 -0.9736
  272TMC3    H2 4170   1.901   4.115  14.268 -0.2097  1.9615  0.2858
  272TMC3    C7 4171   1.670   4.240  14.279  0.0431 -0.1097 -0.2418
  272TMC3    C8 4172   2.090   4.147  14.063 -0.0305 -0.0750 -0.3384
  272TMC3    O1 4173   1.548   4.236  14.288  0.2374  0.2512 -0.4791
  272TMC3    O2 4174   2.165   4.221  13.999  0.0780  0.1294 -0.5860
  273MPD2     C 4175   3.003   2.438  11.929  0.3868 -0.3511 -0.0821
  273MPD2    C1 4176   3.095   2.533  11.891 -0.7067 -0.6747 -0.1371
  273MPD2    C2 4177   3.119   2.565  11.757  0.8367 -0.0938  0.6838
  273MPD2    C3 4178   3.038   2.499  11.656  0.1603  0.6966  0.2892
  273MPD2    C4 4179   2.944   2.400  11.693 -0.1369  0.2495  0.3238
  273MPD2    C5 4180   2.925   2.377  11.827 -0.2196 -0.1586 -0.1792
  273MPD2     H 4181   3.182   2.646  11.723 -0.2632  0.5957  0.2965
  273MPD2    H1 4182   2.885   2.347  11.619 -0.4470  0.1458  0.6456
  273MPD2    H2 4183   2.982   2.424  12.035 -0.2321  2.5464  0.1845
  273MPD2    H3 4184   2.848   2.310  11.862  1.5676 -1.3323  1.4969
  273MPD2     N 4185   3.070   2.532  11.517 -0.2532 -0.2961  0.5296
  273MPD2    H5 4186   3.139   2.605  11.504  0.7211 -0.9487  2.0718
  273MPD2    N1 4187   3.176   2.596  11.995 -0.7324 -0.9684 -0.0331
  273MPD2    H7 4188   3.151   2.571  12.091  1.0646  1.6859  1.1070
  274TMC3    C1 4189   3.078   2.492  11.288 -0.4398  0.3264  0.0385
  274TMC3    C2 4190   2.992   2.496  11.186 -1.0005  0.1483  1.2401
  274TMC3    C3 4191   3.009   2.586  11.083 -0.0771 -0.2083  0.1258
  274TMC3    C4 4192   3.182   2.581  11.303  0.4341 -0.4357  0.5039
  274TMC3    C5 4193   3.193   2.674  11.211  0.0024 -0.6532 -0.9062
  274TMC3    C6 4194   3.119   2.673  11.091  0.1690 -0.2162 -0.1867
  274TMC3     C 4195   3.013   2.461  11.411 -0.1493  1.2922  0.3900
  274TMC3     O 4196   2.909   2.395  11.407 -0.1262  0.1614 -0.3160
  274TMC3     H 4197   2.911   2.424  11.190  0.8195 -1.9462  0.2658
  274TMC3    H1 4198   3.262   2.570  11.375  0.6071 -0.9508  0.2351
  274TMC3    H2 4199   3.110   2.760  11.027 -0.3887  0.0820  0.2935
  274TMC3    C7 4200   3.179   2.796  11.289  0.1992 -0.7418  0.1010
  274TMC3    C8 4201   2.902   2.601  10.988  0.6733  0.0308  0.5988
  274TMC3    O1 4202   3.137   2.787  11.404 -0.2195 -0.3805 -0.0742
  274TMC3    O2 4203   2.808   2.524  11.006 -0.3684 -0.0125  0.8971
  275MPD2     C 4204   2.904   1.061  14.100 -1.1322  0.2475  0.0784
  275MPD2    C1 4205   2.951   0.942  14.148  0.0022  1.0010 -0.2989
  275MPD2    C2 4206   2.869   0.834  14.166 -0.4614 -0.0784 -0.5780
  275MPD2    C3 4207   2.735   0.838  14.132 -1.0423  0.5398  0.6115
  275MPD2    C4 4208   2.679   0.955  14.077 -0.4724  0.2040  0.3820
  275MPD2    C5 4209   2.771   1.060  14.058  0.1962 -0.0394  0.7065
  275MPD2     H 4210   2.911   0.738  14.195  0.7463  1.2949  2.2924
  275MPD2    H1 4211   2.581   0.966  14.032  0.1863 -0.9719 -1.3619
  275MPD2    H2 4212   2.974   1.139  14.073 -1.9912  0.9106 -0.2497
  275MPD2    H3 4213   2.734   1.145  14.002  1.0379 -0.9700 -1.3031
  275MPD2     N 4214   2.642   0.734  14.144  0.0037  0.3008  0.1638
  275MPD2    H5 4215   2.545   0.758  14.125  0.0720 -0.1122 -0.7026
  275MPD2    N1 4216   3.089   0.927  14.168 -0.0920 -0.3570 -0.3319
  275MPD2    H7 4217   3.117   0.830  14.176 -0.6084 -0.3764  1.3909
  276TMC3    C1 4218   3.309   0.974  14.226  0.1469 -0.9214  0.2117
  276TMC3    C2 4219   3.350   0.868  14.148 -0.6001  0.7746 -0.5101
  276TMC3    C3 4220   3.448   0.787  14.202 -0.5508  0.3285 -0.0179
  276TMC3    C4 4221   3.347   0.989  14.362  0.2345 -0.1331 -0.2929
  276TMC3    C5 4222   3.439   0.900  14.408  0.0227  0.4853  0.4146
  276TMC3    C6 4223   3.479   0.793  14.332 -0.5176  0.1167  0.1363
  276TMC3     C 4224   3.177   1.025  14.197 -0.1065 -0.0438 -0.2497
  276TMC3     O 4225   3.152   1.138  14.242  0.1415 -0.7775  0.1963
  276TMC3     H 4226   3.315   0.855  14.046 -2.9365 -0.6985  0.4747
  276TMC3    H1 4227   3.306   1.074  14.415  0.7471  0.0269 -0.1504
  276TMC3    H2 4228   3.528   0.715  14.389  1.4588  1.2914  0.0471
  276TMC3    C7 4229   3.434   0.882  14.555  0.3570 -0.2869 -0.3725
  276TMC3    C8 4230   3.452   0.663  14.130 -0.5558 -0.3892 -0.1551
  276TMC3    O1 4231   3.482   0.965  14.630 -0.1356  0.0972 -0.0438
  276TMC3    O2 4232   3.429   0.672  14.009  0.2902 -0.1731 -0.4338
  277MPD2     C 4233   0.073   4.477  13.052 -0.6590  0.4889 -0.4115
  277MPD2    C1 4234   4.682   4.487  13.089 -0.2226  0.8415  0.0827
  277MPD2    C2 4235   4.621   4.402  13.171  0.1329 -0.6154  0.9171
  277MPD2    C3 4236   4.697   4.295  13.214  1.3292 -0.0340 -0.1688
  277MPD2    C4 4237   0.085   4.268  13.162  0.1904  0.5356  0.3636
  277MPD2    C5 4238   0.145   4.357  13.071  0.0881 -0.4626  0.4939
  277MPD2     H 4239   4.522   4.410  13.214 -0.2480  0.4505 -0.1801
  277MPD2    H1 4240   0.137   4.178  13.193  0.2760  0.5780  0.3449
  277MPD2    H2 4241   0.098   4.547  12.972 -0.8159  1.0083 -0.0098
  277MPD2    H3 4242   0.243   4.337  13.028 -0.1928  0.2802 -0.5156
  277MPD2     N 4243   4.636   4.208  13.309 -0.5195 -0.0714  0.0270
  277MPD2    H5 4244   4.565   4.242  13.373  1.2963 -0.1351  2.0745
  277MPD2    N1 4245   4.627   4.606  13.046 -0.5338  0.0445  0.4018
  277MPD2    H7 4246   4.682   4.670  12.991 -1.0590 -0.4729 -0.7217
  278TMC3    C1 4247   4.641   4.009  13.444  0.1932 -0.1002  0.6308
  278TMC3    C2 4248   4.627   3.872  13.443 -0.0375  0.0922 -0.3588
  278TMC3    C3 4249   4.589   3.813  13.565 -0.4740 -0.2102  0.0395
  278TMC3    C4 4250   4.626   4.083  13.559 -0.1713 -0.5808  0.6670
  278TMC3    C5 4251   4.587   4.030  13.677  0.2715  0.1711 -0.0578
  278TMC3    C6 4252   4.555   3.891  13.677  0.5242  0.1852  0.5783
  278TMC3     C 4253   4.673   4.072  13.321  0.3519 -0.6760  0.1337
  278TMC3     O 4254   4.738   4.003  13.244 -0.4601 -0.1210 -0.2505
  278TMC3     H 4255   4.664   3.807  13.364 -0.3940  0.5313 -0.8850
  278TMC3    H1 4256   4.648   4.189  13.561  1.2825 -0.8806  0.2034
  278TMC3    H2 4257   4.506   3.837  13.758  1.3482 -1.3287  0.0702
  278TMC3    C7 4258   4.514   4.120  13.764 -0.2732  0.1337 -0.0002
  278TMC3    C8 4259   4.527   3.683  13.560  0.1795  1.0600 -0.3131
  278TMC3    O1 4260   4.541   4.244  13.762 -0.5111  0.6908 -0.2267
  278TMC3    O2 4261   4.531   3.620  13.664 -0.0693  0.0003 -0.7382
  279MPD2     C 4262   3.488   0.123  17.694  0.4140 -0.5465  0.1594
  279MPD2    C1 4263   3.480   4.723  17.667  0.9612 -0.1080  0.7100
  279MPD2    C2 4264   3.554   4.664  17.561  0.2923  0.2442 -0.6632
  279MPD2    C3 4265   3.642   0.003  17.485 -0.0929  0.5980 -0.4382
  279MPD2    C4 4266   3.641   0.141  17.515  0.3975 -0.1185 -0.1486
  279MPD2    C5 4267   3.572   0.197  17.619 -0.4830 -0.1505  0.6184
  279MPD2     H 4268   3.533   4.563  17.528  0.6395 -0.1975  0.4477
  279MPD2    H1 4269   3.699   0.209  17.454 -0.8823  1.4234  0.3604
  279MPD2    H2 4270   3.448   0.155   0.035  0.2000  1.9791 -0.7699
  279MPD2    H3 4271   3.578   0.303  17.640 -1.7289  0.4565 -2.0510
  279MPD2     N 4272   3.716   4.690  17.381 -0.1083 -0.3076 -0.8581
  279MPD2    H5 4273   3.784   0.014  17.338  1.2699 -1.8694 -0.9573
  279MPD2    N1 4274   3.380   4.654  17.739 -0.0090  0.4449 -0.0980
  279MPD2    H7 4275   3.333   4.706   0.058 -0.1889 -0.6723  0.5688
  280TMC3    C1 4276   3.237   4.471   0.028 -0.9964 -0.7787  0.3490
  280TMC3    C2 4277   3.210   4.339   0.015  0.3162 -0.0862  0.0623
  280TMC3    C3 4278   3.090   4.292  17.727  0.9340  0.3137  0.3405
  280TMC3    C4 4279   3.130   4.559   0.006  0.8782  0.2132 -0.5530
  280TMC3    C5 4280   3.013   4.511  17.716  0.4385 -0.6580  0.4438
  280TMC3    C6 4281   2.991   4.377  17.690 -0.0521  0.0493  0.2298
  280TMC3     C 4282   3.359   4.519  17.727  1.2691  0.1052 -0.1489
  280TMC3     O 4283   3.421   4.434  17.666  0.3374 -0.2712 -0.3342
  280TMC3     H 4284   3.281   4.260   0.039  0.2081  0.3886  1.9267
  280TMC3    H1 4285   3.151   4.666   0.008 -1.4492  0.6677 -0.2118
  280TMC3    H2 4286   2.899   4.334  17.653  1.4992 -1.0190 -2.4146
  280TMC3    C7 4287   2.941   4.614  17.647  0.2830  0.3455  0.4924
  280TMC3    C8 4288   3.114   4.203  17.610 -0.1739 -0.0128 -0.5926
  280TMC3    O1 4289   2.958   4.731  17.679 -0.6244 -0.7813  0.0816
  280TMC3    O2 4290   3.015   4.151  17.565 -0.3778  0.1844  0.7621
  281TMC3    C1 4291   2.401   0.001  13.348 -0.2916 -1.1768  0.5039
  281TMC3    C2 4292   2.537   4.732  13.352  0.7344  0.1956  0.2801
  281TMC3    C3 4293   2.595   4.617  13.303 -1.0799  0.7506  1.0984
  281TMC3    C4 4294   2.327   4.626  13.310  0.0421 -0.3075  0.0474
  281TMC3    C5 4295   2.389   4.519  13.264  0.6773  0.2704  0.0120
  281TMC3    C6 4296   2.525   4.501  13.266 -0.6570 -0.3006  0.6937
  281TMC3     C 4297   2.333   0.123  13.372 -0.3124  0.2057  0.6288
  281TMC3     O 4298   2.212   0.114  13.377 -0.2079  0.4314  0.3024
  281TMC3     H 4299   2.598   0.077  13.381  3.0142 -1.2984 -0.1961
  281TMC3    H1 4300   2.226   4.641  13.274  0.8565  0.3402 -1.9818
  281TMC3    H2 4301   2.572   4.419  13.213 -0.1073  0.7910 -0.4860
  281TMC3    C7 4302   2.300   4.406  13.243 -0.4792  0.3023 -0.0344
  281TMC3    C8 4303   2.739   4.610  13.302  0.4379  0.6245  0.1114
  281TMC3    O1 4304   2.180   4.427  13.247  0.1721  0.2098 -0.6037
  281TMC3    O2 4305   2.776   4.502  13.342  0.2283 -0.6289  0.2150
  282MPD2     C 4306   4.576   0.996  14.921  0.7854  0.0687 -0.6693
  282MPD2    C1 4307   4.487   1.097  14.927 -0.6301  0.3396 -0.1389
  282MPD2    C2 4308   4.441   1.138  14.805 -0.2749 -0.9780  0.5974
  282MPD2    C3 4309   4.476   1.080  14.687  0.4567 -0.4365 -0.4494
  282MPD2    C4 4310   4.566   0.978  14.688  0.4146 -0.2065 -0.4257
  282MPD2    C5 4311   4.627   0.940  14.801 -0.3685 -0.3915 -0.2696
  282MPD2     H 4312   4.378   1.226  14.803 -0.9314 -1.4163  2.0498
  282MPD2    H1 4313   4.581   0.909  14.606  1.3591  0.1585 -0.5535
  282MPD2    H2 4314   4.611   0.951  15.013 -1.0429 -2.4453 -1.1961
  282MPD2    H3 4315   4.704   0.865  14.804 -1.4483 -1.4363  1.4860
  282MPD2     N 4316   4.396   1.110  14.572  0.0741  0.1466  0.0216
  282MPD2    H5 4317   4.307   1.154  14.595 -0.4046  0.0265 -1.6042
  282MPD2    N1 4318   4.425   1.157  15.044  0.0470  0.2931  0.5974
  282MPD2    H7 4319   4.348   1.221  15.030  0.4168  0.6073 -0.0182
  283TMC3    C1 4320   4.359   1.175  15.264 -0.3049 -0.2467  0.1725
  283TMC3    C2 4321   4.386   1.260  15.367 -0.3462  0.4101  0.1335
  283TMC3    C3 4322   4.304   1.258  15.478 -0.2156  0.7882  0.9812
  283TMC3    C4 4323   4.242   1.104  15.259  0.4232  0.1320  0.1278
  283TMC3    C5 4324   4.152   1.117  15.369 -0.6548  0.1112  0.2940
  283TMC3    C6 4325   4.187   1.203  15.472 -0.7557 -0.1325 -0.1841
  283TMC3     C 4326   4.464   1.134  15.175  0.3762 -0.0335  0.3116
  283TMC3     O 4327   4.555   1.071  15.232 -0.3152 -0.0446 -0.1146
  283TMC3     H 4328   4.474   1.323  15.361 -0.0241  0.0290  0.8211
  283TMC3    H1 4329   4.243   1.023  15.187  1.2965  0.0691  0.2188
  283TMC3    H2 4330   4.132   1.198  15.566  0.9548  0.1383  0.8240
  283TMC3    C7 4331   4.075   0.996  15.406 -0.0077  0.0733 -0.4357
  283TMC3    C8 4332   4.325   1.356  15.589  0.0102 -0.1457 -0.0067
  283TMC3    O1 4333   4.095   0.971  15.523 -0.8213  0.3119 -0.2945
  283TMC3    O2 4334   4.317   1.306  15.698 -0.0628 -0.5002  0.2215
  284MPD2     C 4335   2.444   0.362  12.279 -0.3044  0.0110 -0.0720
  284MPD2    C1 4336   2.543   0.446  12.307  0.1006 -0.2289 -0.4439
  284MPD2    C2 4337   2.661   0.390  12.349  0.2413  0.9211  0.5848
  284MPD2    C3 4338   2.689   0.255  12.337 -0.2231  0.0502  0.5038
  284MPD2    C4 4339   2.584   0.168  12.321 -0.2986 -0.1406 -0.1968
  284MPD2    C5 4340   2.462   0.226  12.294 -0.2648  0.4713  0.1023
  284MPD2     H 4341   2.745   0.456  12.369  1.1595  0.4392 -1.6662
  284MPD2    H1 4342   2.603   0.062  12.327  0.1894 -0.0710 -0.5719
  284MPD2    H2 4343   2.349   0.396  12.237 -0.2571 -0.8776 -0.9087
  284MPD2    H3 4344   2.377   0.165  12.269 -0.9005  0.5773  2.0068
  284MPD2     N 4345   2.824   0.209  12.334 -0.0992  0.6265 -0.0336
  284MPD2    H5 4346   2.839   0.111  12.311  0.3463  1.3358 -2.8204
  284MPD2    N1 4347   2.548   0.583  12.287  0.3687  0.2394 -1.1988
  284MPD2    H7 4348   2.635   0.634  12.298  0.1774 -0.0539  1.6187
  285TMC3    C1 4349   2.543   0.753  12.143 -0.0934  0.7541 -0.7996
  285TMC3    C2 4350   2.667   0.703  12.100  0.0012 -0.8066 -0.2181
  285TMC3    C3 4351   2.756   0.782  12.030 -0.0830  0.6069 -0.3537
  285TMC3    C4 4352   2.498   0.877  12.105  0.0893 -0.3903 -0.4359
  285TMC3    C5 4353   2.589   0.946  12.026 -0.3915  0.0019 -0.4799
  285TMC3    C6 4354   2.711   0.906  12.002  0.0137  0.1791 -0.5644
  285TMC3     C 4355   2.461   0.653  12.214 -0.3341  0.1730 -0.0531
  285TMC3     O 4356   2.348   0.627  12.170  0.1298 -0.2656 -0.2151
  285TMC3     H 4357   2.704   0.603  12.121  3.3314  0.4248 -0.2205
  285TMC3    H1 4358   2.395   0.909  12.119  0.7012  0.0866  3.1769
  285TMC3    H2 4359   2.785   0.970  11.955  1.3827 -2.0159 -1.4109
  285TMC3    C7 4360   2.559   1.067  11.942  0.2467 -0.5238 -0.2460
  285TMC3    C8 4361   2.852   0.723  11.947 -0.2985  0.8594 -0.2065
  285TMC3    O1 4362   2.643   1.098  11.856 -0.7258 -0.0738  0.1910
  285TMC3    O2 4363   2.835   0.602  11.933 -0.2836 -0.6361 -0.2513
  286MPD2     C 4364   3.714   4.505   1.356 -0.3376  0.0146  1.1199
  286MPD2    C1 4365   3.631   4.441   1.268  0.4401  0.3583  0.0125
  286MPD2    C2 4366   3.674   4.321   1.215 -0.1187 -0.6395  0.3490
  286MPD2    C3 4367   3.787   4.260   1.249 -0.1377 -0.4484  0.7889
  286MPD2    C4 4368   3.869   4.324   1.337 -0.1892  0.6301  0.3043
  286MPD2    C5 4369   3.829   4.445   1.391  0.4189 -0.4990  0.5742
  286MPD2     H 4370   3.607   4.276   1.143  1.4765 -0.3994 -1.2721
  286MPD2    H1 4371   3.969   4.284   1.353  0.0816  1.2315  0.0922
  286MPD2    H2 4372   3.681   4.595   1.407 -1.8381  1.3945 -2.3189
  286MPD2    H3 4373   3.897   4.496   1.459  0.6899  0.6327 -0.5577
  286MPD2     N 4374   3.830   4.135   1.192  0.0966  0.2377  0.0142
  286MPD2    H5 4375   3.916   4.091   1.221  0.8188  1.5728 -0.1188
  286MPD2    N1 4376   3.510   4.491   1.232  0.1772 -0.3925 -0.1478
  286MPD2    H7 4377   3.440   4.428   1.193  0.3092  0.9330 -2.5092
  287TMC3    C1 4378   3.799   3.920   1.078  0.2735  0.2429  0.5506
  287TMC3    C2 4379   3.737   3.845   0.980  0.2778  0.0075 -0.0463
  287TMC3    C3 4380   3.751   3.713   0.995  0.4841 -0.4881 -0.0970
  287TMC3    C4 4381   3.854   3.865   1.195 -0.3403 -0.4745 -0.3897
  287TMC3    C5 4382   3.856   3.726   1.207  0.2600  0.4218  0.5489
  287TMC3    C6 4383   3.807   3.645   1.100  0.0629 -0.3975  0.8349
  287TMC3     C 4384   3.754   4.063   1.100 -0.2952  0.5551 -0.4475
  287TMC3     O 4385   3.670   4.106   1.023 -0.4055 -0.1781  0.4080
  287TMC3     H 4386   3.704   3.894   0.889  2.2668 -0.4447 -1.0086
  287TMC3    H1 4387   3.872   3.926   1.283 -2.1118 -0.5573  0.0209
  287TMC3    H2 4388   3.798   3.537   1.108 -0.4802 -0.6529 -2.8565
  287TMC3    C7 4389   3.948   3.680   1.304  0.3705 -0.6333  0.6599
  287TMC3    C8 4390   3.687   3.622   0.900 -0.4621  0.3467 -0.7427
  287TMC3    O1 4391   4.041   3.752   1.342 -0.1819 -0.0810  0.1848
  287TMC3    O2 4392   3.661   3.509   0.938  0.3700  0.0090 -0.0966
  288TMC3    C1 4393   0.510   3.904  14.135 -0.7171  0.6236  0.1367
  288TMC3    C2 4394   0.396   3.894  14.207  0.3147 -0.6143 -0.4331
  288TMC3    C3 4395   0.290   3.987  14.181  0.1582 -0.0313 -0.7771
  288TMC3    C4 4396   0.512   3.992  14.037  0.2938  0.7457  0.3926
  288TMC3    C5 4397   0.408   4.071  14.002  0.0640 -0.0529  0.0563
  288TMC3    C6 4398   0.298   4.071  14.079 -0.1921 -0.5851 -0.1051
  288TMC3     C 4399   0.622   3.822  14.175  0.6593 -0.5796 -0.9196
  288TMC3     O 4400   0.596   3.732  14.256  0.2621  0.3491 -0.2373
  288TMC3     H 4401   0.392   3.823  14.288  0.0094  0.9411  0.9034
  288TMC3    H1 4402   0.597   4.001  13.970  0.9637 -0.0155  1.1353
  288TMC3    H2 4403   0.217   4.139  14.055 -0.7822 -0.4580  2.2211
  288TMC3    C7 4404   0.430   4.177  13.905 -0.1396 -0.5497  0.1449
  288TMC3    C8 4405   0.185   3.999  14.273  0.1253 -0.3830 -0.2307
  288TMC3    O1 4406   0.543   4.209  13.874  0.7974  0.2198  0.3466
  288TMC3    O2 4407   0.116   4.101  14.259  0.0858  0.4463  0.1470
  289MPD2     C 4408   0.137   2.685  14.865  0.2444  0.7250  0.3863
  289MPD2    C1 4409   0.133   2.789  14.779  0.4393  0.5306 -0.5152
  289MPD2    C2 4410   0.028   2.802  14.688  0.5697  0.0552 -0.8529
  289MPD2    C3 4411   4.663   2.704  14.689 -0.3924  0.3600 -0.1774
  289MPD2    C4 4412   4.667   2.609  14.790 -0.5752 -0.1009  1.0140
  289MPD2    C5 4413   0.031   2.604  14.886 -0.0488  0.5243 -0.0297
  289MPD2     H 4414   0.036   2.885  14.620  1.2562  0.8799  0.2301
  289MPD2    H1 4415   4.596   2.527  14.790  1.8678 -2.1935 -2.0508
  289MPD2    H2 4416   0.221   2.673  14.932  0.4282  0.7783  0.1632
  289MPD2    H3 4417   0.037   2.518  14.952  0.1693  1.1227  0.7313
  289MPD2     N 4418   4.563   2.688  14.590  0.0230  0.0171  0.1766
  289MPD2    H5 4419   4.491   2.617  14.589 -0.4032  0.4380  1.1785
  289MPD2    N1 4420   0.241   2.876  14.762  0.4326 -0.4092  0.5502
  289MPD2    H7 4421   0.303   2.874  14.843 -1.3252  0.0353  1.9029
  290TMC3    C1 4422   4.434   2.765  14.395  0.2380 -0.3573 -0.7292
  290TMC3    C2 4423   4.447   2.822  14.271 -0.2910  0.5140  0.4020
  290TMC3    C3 4424   4.336   2.833  14.193  0.5110  0.5112  0.3091
  290TMC3    C4 4425   4.329   2.694  14.438 -0.1113  0.0014 -0.3304
  290TMC3    C5 4426   4.231   2.685  14.345 -0.2296 -0.8259  0.1554
  290TMC3    C6 4427   4.226   2.761  14.231  0.2421 -0.4855  0.1019
  290TMC3     C 4428   4.548   2.783  14.488 -0.2958 -0.6867  0.4903
  290TMC3     O 4429   4.625   2.873  14.451  0.8487  0.3796  0.3890
  290TMC3     H 4430   4.547   2.859  14.251 -0.6575  1.1062 -0.3466
  290TMC3    H1 4431   4.317   2.655  14.539  0.0784 -1.2134 -0.7801
  290TMC3    H2 4432   4.131   2.774  14.179  0.1919 -0.8366  0.1077
  290TMC3    C7 4433   4.112   2.616  14.388 -0.4741  0.0967  0.0166
  290TMC3    C8 4434   4.334   2.906  14.069 -0.3526  1.0992  0.2982
  290TMC3    O1 4435   4.004   2.654  14.347  0.3500 -0.7172  0.3427
  290TMC3    O2 4436   4.259   2.865  13.983 -0.8000  0.2831  1.1197
  291MPD2     C 4437   4.289   2.388   0.187 -0.6377  0.7617 -0.2974
  291MPD2    C1 4438   4.241   2.270   0.131  0.2840 -0.6046  0.0424
  291MPD2    C2 4439   4.326   2.204   0.044 -0.1204 -0.2196 -0.2487
  291MPD2    C3 4440   4.452   2.254   0.016 -0.6717  0.8008 -0.0492
  291MPD2    C4 4441   4.502   2.364   0.089  0.2726 -0.6008 -0.6143
  291MPD2    C5 4442   4.420   2.436   0.170 -0.2244  0.0810  0.2315
  291MPD2     H 4443   4.293   2.117  17.743  0.3553  0.6815 -1.9631
  291MPD2    H1 4444   4.600   2.398   0.058 -0.5164  0.9382 -1.4236
  291MPD2    H2 4445   4.226   2.439   0.260 -1.2821  0.5716 -0.7178
  291MPD2    H3 4446   4.459   2.528   0.212 -1.0466  0.9815 -0.9521
  291MPD2     N 4447   4.528   2.185  17.674 -0.0708 -0.2038 -0.2424
  291MPD2    H5 4448   4.619   2.225  17.653  0.2691 -0.9739 -0.2200
  291MPD2    N1 4449   4.109   2.216   0.137  0.2109 -0.1024  0.2050
  291MPD2    H7 4450   4.084   2.150   0.064 -2.1884  1.8386 -0.7366
  292TMC3    C1 4451   3.882   2.186   0.198  0.3324 -0.4040 -0.5472
  292TMC3    C2 4452   3.771   2.250   0.253  0.5133  0.0078  0.2345
  292TMC3    C3 4453   3.650   2.188   0.227 -0.1911 -0.2318  0.0449
  292TMC3    C4 4454   3.875   2.075   0.121 -0.1279 -0.6098  0.6603
  292TMC3    C5 4455   3.748   2.026   0.090 -0.1106 -0.0151 -0.7987
  292TMC3    C6 4456   3.638   2.078   0.146  0.1280  0.2528  0.6169
  292TMC3     C 4457   4.012   2.250   0.224  0.0589 -0.1871  0.6458
  292TMC3     O 4458   4.024   2.324   0.322 -0.7360  0.2017 -0.3327
  292TMC3     H 4459   3.774   2.323   0.333  1.8192  0.6956 -0.4469
  292TMC3    H1 4460   3.967   2.031   0.083  0.7705  0.6318  1.3786
  292TMC3    H2 4461   3.542   2.032   0.126 -0.5453  1.2688  1.5934
  292TMC3    C7 4462   3.753   1.894   0.023  0.4960 -0.3402 -0.1190
  292TMC3    C8 4463   3.539   2.225   0.318 -0.5676 -0.4836  0.1272
  292TMC3    O1 4464   3.859   1.857  17.741 -0.4330  0.5997  0.3140
  292TMC3    O2 4465   3.541   2.334   0.369  0.0877 -0.0955  0.0431
  293MPD2     C 4466   0.509   3.929  12.898  0.0811  0.4537 -0.1960
  293MPD2    C1 4467   0.604   4.017  12.855  0.5721 -0.3314 -0.2908
  293MPD2    C2 4468   0.720   4.035  12.926  1.1257  0.0365 -0.8148
  293MPD2    C3 4469   0.741   3.965  13.039 -0.2211  0.4368 -0.7508
  293MPD2    C4 4470   0.642   3.873  13.088  0.3602  0.4168 -0.5742
  293MPD2    C5 4471   0.531   3.857  13.014  0.3722 -0.6920  0.7131
  293MPD2     H 4472   0.802   4.097  12.892 -0.4959  2.6466 -0.0162
  293MPD2    H1 4473   0.651   3.817  13.180 -0.0531 -0.3848 -1.0166
  293MPD2    H2 4474   0.417   3.914  12.842 -0.4060  0.2094  0.6696
  293MPD2    H3 4475   0.471   3.774  13.050 -1.0292  0.0001 -0.0318
  293MPD2     N 4476   0.871   3.986  13.110  0.0362 -0.4386  0.3891
  293MPD2    H5 4477   0.927   4.068  13.088  0.2913  0.0484  2.9217
  293MPD2    N1 4478   0.578   4.075  12.734  0.1610 -0.1734 -0.0251
  293MPD2    H7 4479   0.488   4.053  12.694 -0.2807  0.7615  0.4433
  294TMC3    C1 4480   0.588   4.196  12.541  0.4594  0.4347 -0.3986
  294TMC3    C2 4481   0.451   4.178  12.521  0.0796 -0.0340 -0.1766
  294TMC3    C3 4482   0.411   4.143  12.396 -0.6861 -1.0488  0.5224
  294TMC3    C4 4483   0.678   4.213  12.433  0.4157  0.0827  0.1196
  294TMC3    C5 4484   0.637   4.194  12.305  0.6110  0.3202  0.2858
  294TMC3    C6 4485   0.501   4.151  12.289  0.1480  0.2699 -0.2128
  294TMC3     C 4486   0.653   4.159  12.666  0.2367  0.2737  0.1861
  294TMC3     O 4487   0.771   4.179  12.681 -0.2713 -0.4278  0.5254
  294TMC3     H 4488   0.386   4.175  12.607  1.6605  0.5777  1.0380
  294TMC3    H1 4489   0.777   4.248  12.461  0.4538  0.6163 -0.6690
  294TMC3    H2 4490   0.464   4.153  12.188  3.7948 -4.7550 -1.6519
  294TMC3    C7 4491   0.701   4.268  12.193  0.8783 -0.1420 -0.4446
  294TMC3    C8 4492   0.281   4.081  12.375 -0.3145  0.0128 -0.0617
  294TMC3    O1 4493   0.618   4.330  12.128 -0.1085  0.2911  0.0631
  294TMC3    O2 4494   0.216   4.076  12.479 -0.0296 -0.3293  0.8656
  295MPD2     C 4495   1.017   3.750   1.175 -0.0544 -0.2879  1.2204
  295MPD2    C1 4496   1.067   3.617   1.188 -0.0306 -0.3283 -0.7799
  295MPD2    C2 4497   1.078   3.559   1.310 -0.1274  0.2149  0.4064
  295MPD2    C3 4498   1.046   3.624   1.429  0.3784 -0.1402 -0.1896
  295MPD2    C4 4499   0.988   3.742   1.411  0.7670  0.3985 -0.3330
  295MPD2    C5 4500   0.976   3.799   1.291  0.1071  0.0226 -0.3205
  295MPD2     H 4501   1.125   3.462   1.323 -0.0390  0.2071  0.0264
  295MPD2    H1 4502   0.948   3.797   1.496 -0.1641 -0.4808 -0.1949
  295MPD2    H2 4503   1.002   3.809   1.086  1.2167 -1.3481  0.2988
  295MPD2    H3 4504   0.930   3.897   1.284 -0.8202 -0.3991 -0.1049
  295MPD2     N 4505   1.072   3.584   1.563  0.6129 -0.1941 -0.1632
  295MPD2    H5 4506   1.046   3.650   1.635  0.2447  2.4340 -2.6972
  295MPD2    N1 4507   1.114   3.547   1.075 -0.0877  0.1136 -0.0770
  295MPD2    H7 4508   1.119   3.446   1.083  0.8149  0.2660  1.1545
  296TMC3    C1 4509   1.150   3.449   1.744  0.3606  0.6201  0.4018
  296TMC3    C2 4510   1.148   3.561   1.824  0.1375  0.5862  0.1364
  296TMC3    C3 4511   1.130   3.538   1.955 -0.4419 -0.0137  0.0834
  296TMC3    C4 4512   1.124   3.326   1.793  0.0814 -1.0961 -0.2895
  296TMC3    C5 4513   1.112   3.306   1.925  0.2615 -0.0842  0.1997
  296TMC3    C6 4514   1.114   3.413   2.006 -0.4939 -0.0345 -0.2164
  296TMC3     C 4515   1.122   3.459   1.601  0.4662 -0.9348  0.0572
  296TMC3     O 4516   1.148   3.360   1.528 -0.1616 -0.0634  0.6440
  296TMC3     H 4517   1.151   3.658   1.775 -1.8545  0.3649 -0.4076
  296TMC3    H1 4518   1.108   3.245   1.722 -0.6709 -0.5968 -0.6869
  296TMC3    H2 4519   1.096   3.400   2.112  2.3317 -0.4896  0.1934
  296TMC3    C7 4520   1.100   3.176   1.990 -0.0620  0.2706 -0.3391
  296TMC3    C8 4521   1.137   3.646   2.054 -0.3444 -0.1990  0.2471
  296TMC3    O1 4522   1.120   3.175   2.113  0.5476  0.0042 -0.2741
  296TMC3    O2 4523   1.130   3.606   2.169  0.7091 -0.1560  0.3568
  297MPD2     C 4524   3.335   4.498  15.870 -0.3461  0.0653 -0.3131
  297MPD2    C1 4525   3.389   4.577  15.772 -0.4942 -0.5435  0.2836
  297MPD2    C2 4526   3.518   4.627  15.775  0.4903 -0.7662 -0.2832
  297MPD2    C3 4527   3.599   4.599  15.884 -0.4312 -0.4263  0.4682
  297MPD2    C4 4528   3.540   4.524  15.990  0.8563  0.2368 -0.0809
  297MPD2    C5 4529   3.412   4.475  15.978  0.4031 -0.2075  0.0790
  297MPD2     H 4530   3.562   4.698  15.707 -0.6719 -1.1975 -1.4917
  297MPD2    H1 4531   3.602   4.482  16.069 -0.9759 -1.0382  0.6712
  297MPD2    H2 4532   3.237   4.454  15.861 -0.2826 -0.0921 -0.2398
  297MPD2    H3 4533   3.387   4.406  16.059  0.6080  0.6969  0.9067
  297MPD2     N 4534   3.725   4.665  15.904 -0.1671  0.1488 -0.7046
  297MPD2    H5 4535   3.752   4.723  15.825  0.2119 -0.2723 -0.8884
  297MPD2    N1 4536   3.312   4.612  15.659  0.0419  0.4040  0.4370
  297MPD2    H7 4537   3.360   4.677  15.598  0.3388  0.7617  1.0590
  298TMC3    C1 4538   3.130   4.675  15.527  0.0604  0.1790  0.3148
  298TMC3    C2 4539   3.212   4.725  15.438  0.0301 -0.4048  0.4956
  298TMC3    C3 4540   3.161   0.083  15.352 -1.3075  1.3217  0.0392
  298TMC3    C4 4541   3.000   4.719  15.539 -0.1751  0.2509  0.4969
  298TMC3    C5 4542   2.959   0.086  15.461  0.8981  0.2139 -0.5295
  298TMC3    C6 4543   3.036   0.137  15.362 -0.4512  0.6219 -0.3448
  298TMC3     C 4544   3.172   4.592  15.639  0.2623  0.1249 -0.1206
  298TMC3     O 4545   3.086   4.542  15.713 -0.1043  0.2584 -0.4200
  298TMC3     H 4546   3.313   4.686  15.426  1.2865  2.6410  1.1597
  298TMC3    H1 4547   2.948   4.693  15.630 -0.3334 -0.7572  0.1206
  298TMC3    H2 4548   3.010   0.211  15.286 -2.1975 -0.2831 -0.6225
  298TMC3    C7 4549   2.835   0.154  15.496 -0.3004  1.0052 -0.5992
  298TMC3    C8 4550   3.246   0.138  15.246 -0.7068  0.3412  0.1988
  298TMC3    O1 4551   2.752   0.086  15.553 -0.3131  0.2690 -0.2023
  298TMC3    O2 4552   3.207   0.152  15.136  0.4000 -0.4413 -0.1837
  299MPD2     C 4553   4.174   0.129  10.444 -0.3478 -0.4252  0.1344
  299MPD2    C1 4554   4.111   0.094  10.557  0.3879  0.3234 -0.1342
  299MPD2    C2 4555   3.978   0.075  10.555  0.0474 -0.6620 -0.8378
  299MPD2    C3 4556   3.911   0.078  10.434 -0.8489  0.1503 -0.2508
  299MPD2    C4 4557   3.977   0.117  10.322 -0.1743 -0.9254 -0.0785
  299MPD2    C5 4558   4.112   0.138  10.326 -0.3603  0.0070 -0.2187
  299MPD2     H 4559   3.921   0.056  10.646 -0.2561  0.9453 -0.6913
  299MPD2    H1 4560   3.931   0.125  10.225  0.5529 -1.6438 -0.4882
  299MPD2    H2 4561   4.281   0.139  10.456 -0.3249  0.3558 -0.7924
  299MPD2    H3 4562   4.175   0.174  10.246  0.5987 -0.7479  0.1889
  299MPD2     N 4563   3.772   0.057  10.423  0.6283 -0.2524 -0.1935
  299MPD2    H5 4564   3.730   0.070  10.331 -0.9489 -2.1417  0.2600
  299MPD2    N1 4565   4.180   0.096  10.677  0.2129 -0.2831  0.6131
  299MPD2    H7 4566   4.276   0.130  10.668  0.5121 -0.6568  2.2847
  300TMC3    C1 4567   3.545   0.033  10.493 -0.1886 -0.6795  0.0416
  300TMC3    C2 4568   3.512   0.067  10.358 -0.7469 -0.0750  0.3117
  300TMC3    C3 4569   3.378   0.053  10.323 -0.4099 -0.0216 -0.2120
  300TMC3    C4 4570   3.454   4.732  10.580  0.7497 -0.4086 -0.6218
  300TMC3    C5 4571   3.323   4.721  10.544 -0.1338  0.5332  0.4808
  300TMC3    C6 4572   3.279   0.013  10.412  0.4579  0.0465 -0.3460
  300TMC3     C 4573   3.684   0.029  10.531  0.6838 -0.9204  0.4747
  300TMC3     O 4574   3.720   4.717  10.638  0.4965  0.3564  0.5449
  300TMC3     H 4575   3.572   0.113  10.281 -0.4164  0.7642  1.0673
  300TMC3    H1 4576   3.487   4.717  10.682 -0.2028 -2.0769 -0.5463
  300TMC3    H2 4577   3.176   4.733  10.384  0.3320  1.2988 -0.7460
  300TMC3    C7 4578   3.219   4.679  10.633 -0.0279  0.2470  0.4771
  300TMC3    C8 4579   3.339   0.167  10.247  0.1804 -0.6272 -0.1251
  300TMC3    O1 4580   3.108   4.649  10.583  0.3691  0.1352 -0.5217
  300TMC3    O2 4581   3.260   0.244  10.301 -0.3718 -1.0530  0.4912
  301MPD2     C 4582   1.045   1.398   1.515  0.7561  0.6801  0.2649
  301MPD2    C1 4583   0.917   1.365   1.477 -0.2300 -0.0573 -0.0857
  301MPD2    C2 4584   0.880   1.231   1.461  0.0130 -0.7618 -0.7448
  301MPD2    C3 4585   0.971   1.133   1.495 -0.4853 -0.6817 -0.6512
  301MPD2    C4 4586   1.096   1.171   1.523 -0.1775 -0.5053  0.4030
  301MPD2    C5 4587   1.136   1.298   1.536 -0.6569  0.2219  0.3388
  301MPD2     H 4588   0.774   1.220   1.443 -0.1228  0.9265 -0.9799
  301MPD2    H1 4589   1.174   1.098   1.543  0.1982  0.3394  2.0659
  301MPD2    H2 4590   1.087   1.497   1.513  0.8464  0.6099 -2.0208
  301MPD2    H3 4591   1.242   1.319   1.538 -0.3610 -1.4135  2.1987
  301MPD2     N 4592   0.942   0.994   1.499 -0.1278  0.0851  0.6622
  301MPD2    H5 4593   1.013   0.930   1.531  0.2768 -0.2494 -0.8680
  301MPD2    N1 4594   0.832   1.464   1.428 -0.6758  0.0347 -0.2043
  301MPD2    H7 4595   0.744   1.434   1.388 -0.2890 -0.7724 -0.4425
  302TMC3    C1 4596   0.807   0.806   1.457  0.3173  0.6892 -0.9263
  302TMC3    C2 4597   0.914   0.725   1.473 -0.4805 -0.0952  0.4241
  302TMC3    C3 4598   0.878   0.590   1.475 -1.1652  0.1107  0.3240
  302TMC3    C4 4599   0.678   0.762   1.440  0.3804 -0.1122 -0.0063
  302TMC3    C5 4600   0.649   0.624   1.435 -0.4724 -0.2689  0.1786
  302TMC3    C6 4601   0.750   0.538   1.456 -0.4170 -0.4561  0.3928
  302TMC3     C 4602   0.831   0.941   1.429  0.2513  0.0758  0.2739
  302TMC3     O 4603   0.738   1.003   1.377 -0.3303  0.6529  0.2566
  302TMC3     H 4604   1.015   0.753   1.447 -0.4355 -0.3006  0.3777
  302TMC3    H1 4605   0.599   0.836   1.433 -1.1508 -1.5817  1.5928
  302TMC3    H2 4606   0.725   0.433   1.455 -0.2326 -0.4943 -0.0751
  302TMC3    C7 4607   0.527   0.569   1.370 -0.5409  0.4812  0.2786
  302TMC3    C8 4608   0.986   0.490   1.472 -0.0202  0.3189 -0.0845
  302TMC3    O1 4609   0.485   0.457   1.394 -0.4054 -0.1121 -0.1744
  302TMC3    O2 4610   1.101   0.523   1.449  0.4230  0.2845  0.2149
  303MPD2     C 4611   1.603   4.677  11.166 -0.7095  0.1989 -0.6262
  303MPD2    C1 4612   1.581   0.053  11.097  0.2746 -0.0255  0.1255
  303MPD2    C2 4613   1.673   0.096  11.002 -0.2020  0.2778  0.4472
  303MPD2    C3 4614   1.796   0.035  10.992  0.0905 -0.4951  0.3524
  303MPD2    C4 4615   1.822   4.658  11.067  0.2818  0.2634  0.5261
  303MPD2    C5 4616   1.726   4.617  11.157  0.0303 -0.3039  0.4425
  303MPD2     H 4617   1.656   0.190  10.951 -1.2297 -1.2551 -2.0409
  303MPD2    H1 4618   1.912   4.603  11.043  0.5865  0.8025  0.4351
  303MPD2    H2 4619   1.533   4.639  11.239  0.2521 -0.4096 -0.0208
  303MPD2    H3 4620   1.744   4.524  11.208  1.1944 -0.2208  0.2000
  303MPD2     N 4621   1.902   0.085  10.901  0.0190  0.8000 -0.2764
  303MPD2    H5 4622   1.978   0.018  10.893 -0.8827 -0.5723  2.4874
  303MPD2    N1 4623   1.460   0.122  11.110  0.0245 -0.0184 -0.4258
  303MPD2    H7 4624   1.389   0.068  11.158  1.1720 -1.3920 -0.2919
  304TMC3    C1 4625   1.288   0.277  11.078 -0.9111  0.0738 -0.5684
  304TMC3    C2 4626   1.247   0.407  11.086 -0.9284  0.4416  0.0299
  304TMC3    C3 4627   1.123   0.446  11.031 -0.1047  0.5106 -0.1012
  304TMC3    C4 4628   1.198   0.184  11.034 -0.1694  0.0076  0.2000
  304TMC3    C5 4629   1.076   0.222  10.988 -0.1096 -0.3745  0.1249
  304TMC3    C6 4630   1.041   0.350  10.985 -0.4131  0.1755  0.9370
  304TMC3     C 4631   1.428   0.249  11.064  0.4553 -0.0674 -0.5873
  304TMC3     O 4632   1.493   0.350  11.034 -0.4654 -0.3997 -0.3282
  304TMC3     H 4633   1.316   0.486  11.113 -0.4885  0.5492 -1.3969
  304TMC3    H1 4634   1.235   0.086  11.008  0.9901 -0.0584  2.1384
  304TMC3    H2 4635   0.941   0.377  10.955 -0.4009 -0.9464 -0.0996
  304TMC3    C7 4636   1.020   0.152  10.869  0.1031  0.1527  0.0499
  304TMC3    C8 4637   1.108   0.560  10.946  0.7036  0.0603  0.5720
  304TMC3    O1 4638   0.972   0.041  10.877  0.2342 -0.5149 -0.6804
  304TMC3    O2 4639   1.020   0.549  10.864 -0.2783  0.6934  0.4135
  305MPD2     C 4640   4.354   1.306  13.979 -0.2059 -0.1642 -0.2146
  305MPD2    C1 4641   4.488   1.316  13.979 -0.4137 -0.6738  0.2233
  305MPD2    C2 4642   4.555   1.280  13.861 -0.4121 -0.3050 -0.5114
  305MPD2    C3 4643   4.488   1.250  13.745 -0.4464  0.2362  0.1611
  305MPD2    C4 4644   4.349   1.247  13.751  0.0721  0.4730 -0.1343
  305MPD2    C5 4645   4.286   1.267  13.867  0.4787 -0.3258 -0.3905
  305MPD2     H 4646   4.663   1.274  13.851 -0.1683  0.7463  1.4378
  305MPD2    H1 4647   4.295   1.198  13.670 -0.9808 -0.6168  1.2349
  305MPD2    H2 4648   4.289   1.320  14.065  1.0283  2.8314  0.2477
  305MPD2    H3 4649   4.178   1.261  13.877  0.4836  1.3456  0.7231
  305MPD2     N 4650   4.543   1.222  13.618 -0.0184 -0.0957  0.5872
  305MPD2    H5 4651   4.475   1.200  13.546  1.2204  1.4224 -1.0384
  305MPD2    N1 4652   4.562   1.345  14.097  0.4122  0.3575  0.2682
  305MPD2    H7 4653   4.661   1.330  14.081  0.3906 -0.1611  0.6144
  306TMC3    C1 4654   4.603   1.364  14.324 -0.0382 -0.7869 -0.5311
  306TMC3    C2 4655   4.693   1.256  14.312 -0.0217 -0.0046  0.0243
  306TMC3    C3 4656   4.739   1.209  14.434  0.2005 -0.5105  0.5366
  306TMC3    C4 4657   4.558   1.409  14.445  0.3711  0.4770  0.5114
  306TMC3    C5 4658   4.611   1.356  14.564 -0.4185 -0.1301  0.5677
  306TMC3    C6 4659   4.706   1.262  14.559 -0.9318 -0.5004  0.5374
  306TMC3     C 4660   4.511   1.385  14.216  1.0342 -0.4967  0.3851
  306TMC3     O 4661   4.401   1.438  14.236 -0.5485 -0.3488 -0.2932
  306TMC3     H 4662   4.737   1.216  14.221  0.1772  0.3845 -0.0483
  306TMC3    H1 4663   4.486   1.490  14.436 -0.1243 -0.1096 -0.8258
  306TMC3    H2 4664   4.728   1.218  14.655  0.6290  0.6936  0.7130
  306TMC3    C7 4665   4.575   1.426  14.685 -0.6461  0.5575 -0.7873
  306TMC3    C8 4666   0.087   1.099  14.431 -0.0643  0.3979 -0.7754
  306TMC3    O1 4667   4.475   1.495  14.663 -0.7130  0.2730  0.2689
  306TMC3    O2 4668   0.113   1.051  14.322 -0.0610  0.3036 -0.1435
  307MPD2     C 4669   2.849   4.060   0.561 -1.1965  0.4214 -0.3341
  307MPD2    C1 4670   2.757   4.126   0.478 -0.3125  0.4654 -0.9601
  307MPD2    C2 4671   2.644   4.187   0.532 -0.1911  0.1840 -0.3551
  307MPD2    C3 4672   2.631   4.199   0.670  0.2095  0.5101 -0.4092
  307MPD2    C4 4673   2.723   4.131   0.756 -0.0487  0.1326 -0.6127
  307MPD2    C5 4674   2.825   4.053   0.696 -0.5752  0.9578  0.7013
  307MPD2     H 4675   2.570   4.229   0.465  1.3321  0.5727 -1.8101
  307MPD2    H1 4676   2.697   4.118   0.860 -1.6632 -1.5713 -1.2329
  307MPD2    H2 4677   2.938   4.014   0.520 -1.1461  2.1558 -2.2113
  307MPD2    H3 4678   2.880   3.987   0.762  0.8745  3.0346  1.5750
  307MPD2     N 4679   2.522   4.274   0.718  0.0995  0.1679 -0.3326
  307MPD2    H5 4680   2.453   4.312   0.654  0.1289 -0.7760 -0.9245
  307MPD2    N1 4681   2.745   4.099   0.340  0.3725 -0.2930 -1.0089
  307MPD2    H7 4682   2.677   4.155   0.290 -0.1675 -1.5967 -1.7174
  308TMC3    C1 4683   2.188   4.458   0.825 -0.3877 -0.2335 -0.3523
  308TMC3    C2 4684   2.215   4.590   0.824 -0.1485 -0.6885 -0.6011
  308TMC3    C3 4685   2.350   4.627   0.838 -0.0158 -0.1713 -0.1586
  308TMC3    C4 4686   2.286   4.368   0.834  0.2379 -0.3599  0.2087
  308TMC3    C5 4687   2.412   4.405   0.864  0.0332 -0.3379  0.2048
  308TMC3    C6 4688   2.447   4.533   0.870  0.2995  0.0089 -0.7958
  308TMC3     C 4689   2.047   4.422   0.837  0.2811  0.0893 -0.1587
  308TMC3     O 4690   2.029   4.310   0.882  0.5178  0.1837  0.1083
  308TMC3     H 4691   2.138   4.666   0.823  0.0111 -0.5377 -4.0581
  308TMC3    H1 4692   2.254   4.266   0.820  0.8113 -0.9950  3.5196
  308TMC3    H2 4693   2.553   4.554   0.883  0.7028 -2.5449  0.0701
  308TMC3    C7 4694   2.520   4.316   0.843  0.4062  0.0813  0.2221
  308TMC3    C8 4695   2.399   4.725   0.740  0.3438  0.3606  0.0835
  308TMC3    O1 4696   2.601   4.312   0.937  0.6415 -0.3432  0.5273
  308TMC3    O2 4697   2.522   0.004   0.745 -0.1291 -0.3066  0.0954
  309MPD2     C 4698   1.436   4.128  16.865  0.1853  0.2472 -0.2302
  309MPD2    C1 4699   1.404   4.232  16.775  0.2301 -0.7808 -0.0189
  309MPD2    C2 4700   1.329   4.337  16.819 -0.0483 -0.1099  0.3460
  309MPD2    C3 4701   1.279   4.335  16.953  0.0832  0.0627  0.5132
  309MPD2    C4 4702   1.298   4.226  17.032 -0.3345 -0.4540 -0.0008
  309MPD2    C5 4703   1.386   4.132  16.995  0.9063  0.2683 -0.2846
  309MPD2     H 4704   1.309   4.422  16.756 -1.9963  0.7327  2.0691
  309MPD2    H1 4705   1.259   4.232  17.133  1.9721 -0.8930  0.9070
  309MPD2    H2 4706   1.497   4.042  16.841 -2.2791 -1.1019 -1.7155
  309MPD2    H3 4707   1.414   4.052  17.062 -0.8158 -1.4367 -1.6023
  309MPD2     N 4708   1.207   4.441  17.008  0.1280 -0.0897  0.3013
  309MPD2    H5 4709   1.167   4.434  17.101 -3.8666 -0.9638 -1.4978
  309MPD2    N1 4710   1.447   4.240  16.642  0.2029  0.3433 -0.0537
  309MPD2    H7 4711   1.416   4.314  16.579  0.2130  1.1595  0.9108
  310TMC3    C1 4712   1.550   4.163  16.441 -0.6298  0.5461  1.1506
  310TMC3    C2 4713   1.473   4.244  16.367  0.4875  0.5604  0.3089
  310TMC3    C3 4714   1.503   4.243  16.236 -0.1056  0.1590  0.2230
  310TMC3    C4 4715   1.663   4.099  16.386  0.3552 -0.6008 -0.4394
  310TMC3    C5 4716   1.700   4.131  16.262 -0.4316  0.5932  0.6142
  310TMC3    C6 4717   1.619   4.191  16.178  0.5836 -0.4467 -0.1825
  310TMC3     C 4718   1.528   4.142  16.584 -0.4696  0.1411 -0.8154
  310TMC3     O 4719   1.585   4.045  16.635  0.1253  0.3747  0.2521
  310TMC3     H 4720   1.385   4.288  16.413  0.0019 -0.0711 -0.0137
  310TMC3    H1 4721   1.725   4.039  16.451  1.7273  0.3488 -0.8937
  310TMC3    H2 4722   1.651   4.199  16.075  2.0229 -1.5680  0.1851
  310TMC3    C7 4723   1.828   4.083  16.212  0.0632 -0.5667 -0.7063
  310TMC3    C8 4724   1.424   4.314  16.136  0.4036 -0.4654 -0.3681
  310TMC3    O1 4725   1.851   4.107  16.090  0.3282  0.3048  0.3096
  310TMC3    O2 4726   1.453   4.273  16.027 -0.0164 -0.0542 -0.3443
  311MPD2     C 4727   3.443   0.958  12.554 -0.6472 -0.8759 -0.6178
  311MPD2    C1 4728   3.448   1.034  12.660 -0.0406 -0.3409 -0.2732
  311MPD2    C2 4729   3.332   1.075  12.716  0.6929  0.6042  0.0926
  311MPD2    C3 4730   3.217   1.032  12.663  0.2397  0.7358  0.7600
  311MPD2    C4 4731   3.211   0.948  12.550 -0.2813  0.1639 -0.8124
  311MPD2    C5 4732   3.326   0.920  12.492 -0.1252  0.2838  0.7577
  311MPD2     H 4733   3.325   1.139  12.804  1.9839  0.2008  0.4751
  311MPD2    H1 4734   3.118   0.912  12.507 -1.6910  1.1423  1.3439
  311MPD2    H2 4735   3.532   0.921  12.504 -0.3444  1.5961 -1.8712
  311MPD2    H3 4736   3.325   0.868  12.398  1.8081 -1.0019  1.4573
  311MPD2     N 4737   3.112   1.096  12.724 -0.5326  0.0591 -0.6102
  311MPD2    H5 4738   3.124   1.146  12.811  1.0497  1.5721 -1.6990
  311MPD2    N1 4739   3.565   1.067  12.732  0.1038  0.1198  0.5291
  311MPD2    H7 4740   3.547   1.131  12.808 -1.7726  1.5805 -1.1717
  312TMC3    C1 4741   2.906   1.204  12.724 -0.2731  0.0536  0.6410
  312TMC3    C2 4742   2.814   1.255  12.635 -0.2619  0.3602  0.2660
  312TMC3    C3 4743   2.760   1.380  12.652 -0.8626 -0.9975  0.2009
  312TMC3    C4 4744   2.946   1.285  12.832  0.2533  0.8299  0.0234
  312TMC3    C5 4745   2.891   1.414  12.840 -0.1068 -0.7101  0.2392
  312TMC3    C6 4746   2.801   1.460  12.752 -0.5526  0.0451 -0.1173
  312TMC3     C 4747   2.983   1.093  12.681 -0.5424  0.1730 -0.0916
  312TMC3     O 4748   2.935   1.037  12.585 -0.3981 -0.2633  0.5018
  312TMC3     H 4749   2.786   1.200  12.546  0.1828  1.0967 -0.3229
  312TMC3    H1 4750   3.020   1.250  12.903 -0.1412 -1.1525 -0.5322
  312TMC3    H2 4751   2.768   1.564  12.751 -1.1995 -0.1731 -1.6958
  312TMC3    C7 4752   2.934   1.512  12.938  0.1458  0.6018 -0.6817
  312TMC3    C8 4753   2.649   1.406  12.572  0.1509 -0.1077 -0.0581
  312TMC3    O1 4754   2.900   1.632  12.916 -0.3506 -0.3158  0.3421
  312TMC3    O2 4755   2.637   1.521  12.540  0.7272  1.3111 -0.2759
  313MPD2     C 4756   2.314   0.814  11.776 -0.4519 -0.7417  0.6340
  313MPD2    C1 4757   2.433   0.821  11.706  0.1640 -0.4375 -0.8030
  313MPD2    C2 4758   2.529   0.716  11.711  0.7454  0.2459  0.5415
  313MPD2    C3 4759   2.497   0.598  11.773 -0.3190  0.3828 -0.1766
  313MPD2    C4 4760   2.375   0.588  11.838  0.1648  0.0998 -0.8571
  313MPD2    C5 4761   2.287   0.692  11.836 -0.7487  0.4667 -0.0299
  313MPD2     H 4762   2.629   0.734  11.672  0.2573  0.3253 -0.6815
  313MPD2    H1 4763   2.344   0.501  11.895 -1.8923  1.4256  0.0492
  313MPD2    H2 4764   2.228   0.879  11.779 -0.8697 -1.2287 -1.2509
  313MPD2    H3 4765   2.190   0.673  11.880 -0.0316  0.2988  1.5005
  313MPD2     N 4766   2.591   0.492  11.785 -0.7138  0.9279  0.2098
  313MPD2    H5 4767   2.679   0.505  11.736 -1.2060 -0.7294 -1.1131
  313MPD2    N1 4768   2.467   0.927  11.617 -0.2931  0.0291 -0.3516
  313MPD2    H7 4769   2.558   0.928  11.571 -1.0332 -1.2659 -1.7976
  314TMC3    C1 4770   2.424   1.131  11.509  0.3265  0.2977 -0.0899
  314TMC3    C2 4771   2.553   1.179  11.533 -0.6959 -0.3943  0.4963
  314TMC3    C3 4772   2.583   1.282  11.441  0.6240  0.2099  0.2004
  314TMC3    C4 4773   2.323   1.188  11.427  0.0299  0.0676 -0.2102
  314TMC3    C5 4774   2.362   1.291  11.338 -0.1646  0.5384  0.4174
  314TMC3    C6 4775   2.496   1.321  11.338 -0.3549  0.0151 -0.1281
  314TMC3     C 4776   2.377   1.027  11.593 -0.3936 -0.1436  0.2684
  314TMC3     O 4777   2.257   1.034  11.614 -0.0018 -0.3480  0.5151
  314TMC3     H 4778   2.613   1.139  11.613 -0.1292  1.1111  0.8085
  314TMC3    H1 4779   2.227   1.141  11.410 -0.0474  0.0863  0.1594
  314TMC3    H2 4780   2.521   1.405  11.274  0.7836  0.0091  0.3113
  314TMC3    C7 4781   2.292   1.324  11.205 -0.0541 -0.3671  0.1293
  314TMC3    C8 4782   2.728   1.306  11.419  0.0126  0.6519 -0.2332
  314TMC3    O1 4783   2.173   1.290  11.201 -0.7477 -0.2641 -0.2434
  314TMC3    O2 4784   2.747   1.365  11.315 -0.1570 -0.4583  0.4971
  315MPD2     C 4785   2.568   3.763  17.210 -0.4129 -0.0386  0.6368
  315MPD2    C1 4786   2.672   3.849  17.210 -0.0817 -0.6808  0.0838
  315MPD2    C2 4787   2.655   3.973  17.156 -0.0911 -0.1920  0.0251
  315MPD2    C3 4788   2.551   4.009  17.081  0.2639 -0.1510  0.6890
  315MPD2    C4 4789   2.449   3.916  17.077  0.5836 -0.4270 -0.6503
  315MPD2    C5 4790   2.454   3.802  17.148  0.3038  0.1706 -0.2383
  315MPD2     H 4791   2.730   4.051  17.163 -2.0525  1.7204 -0.3468
  315MPD2    H1 4792   2.357   3.938  17.024  0.1522 -1.2914 -0.2632
  315MPD2    H2 4793   2.571   3.667  17.261  0.6821 -0.6589 -0.6164
  315MPD2    H3 4794   2.371   3.733  17.136  0.3998 -0.1743  1.0963
  315MPD2     N 4795   2.559   4.127  17.014  0.3750 -0.5707  0.3760
  315MPD2    H5 4796   2.624   4.198  17.046 -1.4425  0.7636  1.1428
  315MPD2    N1 4797   2.794   3.810  17.264  0.5240 -0.0369 -0.2838
  315MPD2    H7 4798   2.862   3.885  17.266  0.3491  0.1068  0.1928
  316TMC3    C1 4799   2.487   4.292  16.869 -0.4509  0.3188  0.6340
  316TMC3    C2 4800   2.496   4.376  16.975  0.0085  0.2218 -0.5196
  316TMC3    C3 4801   2.492   4.507  16.941 -0.2192 -0.3296  0.1183
  316TMC3    C4 4802   2.451   4.332  16.737 -0.3875 -0.2685  0.2256
  316TMC3    C5 4803   2.463   4.466  16.715  0.3424  0.0601  0.7053
  316TMC3    C6 4804   2.488   4.556  16.812 -0.5718 -0.4228 -0.2496
  316TMC3     C 4805   2.488   4.152  16.898 -0.1376  0.1569 -0.1066
  316TMC3     O 4806   2.408   4.078  16.840 -0.0932  0.3398 -0.1825
  316TMC3     H 4807   2.497   4.333  17.074 -2.2650  0.3536 -0.4458
  316TMC3    H1 4808   2.433   4.262  16.656  0.2333 -0.2232  0.0550
  316TMC3    H2 4809   2.509   4.660  16.795 -1.6027  0.0361  1.2583
  316TMC3    C7 4810   2.522   4.491  16.584 -0.2212 -0.1579  0.7808
  316TMC3    C8 4811   2.514   4.603  17.041 -0.7682  0.1387 -0.3122
  316TMC3    O1 4812   2.571   4.390  16.536  0.1798 -0.4407  0.3744
  316TMC3    O2 4813   2.478   4.715  17.026  0.6523 -0.2918  0.0122
  317MPD2     C 4814   4.409   3.133  13.165 -0.2343 -0.2383  0.0263
  317MPD2    C1 4815   4.435   3.007  13.109  0.1192 -1.6194  0.2658
  317MPD2    C2 4816   4.500   2.918  13.189  0.0755 -0.2289 -0.5264
  317MPD2    C3 4817   4.534   2.947  13.323 -0.3142  0.0049  0.0665
  317MPD2    C4 4818   4.520   3.078  13.365  0.5697 -0.1438 -0.0615
  317MPD2    C5 4819   4.455   3.165  13.285 -0.5327  0.1845 -0.3846
  317MPD2     H 4820   4.531   2.822  13.150  2.3178  0.2560  0.0649
  317MPD2    H1 4821   4.543   3.113  13.465  0.2519  3.1760 -1.1375
  317MPD2    H2 4822   4.362   3.217  13.114 -1.7182 -2.1488 -1.8051
  317MPD2    H3 4823   4.426   3.265  13.315 -3.4000 -0.6333 -0.4198
  317MPD2     N 4824   4.585   2.851  13.410  0.2437 -0.3674 -0.3956
  317MPD2    H5 4825   4.578   2.760  13.366  2.4939 -1.8832  2.3146
  317MPD2    N1 4826   4.411   2.964  12.973 -0.9235 -0.3199  0.7565
  317MPD2    H7 4827   4.421   2.863  12.965 -1.4200 -0.3872  1.0071
  318TMC3    C1 4828   4.719   2.748  13.568  0.5602 -0.0709  0.4121
  318TMC3    C2 4829   4.660   2.625  13.547  0.0587  0.4933 -0.1927
  318TMC3    C3 4830   0.007   2.520  13.565  0.5466 -0.1520  0.6512
  318TMC3    C4 4831   0.107   2.766  13.613 -0.4798  0.5262 -0.2661
  318TMC3    C5 4832   0.186   2.658  13.624  0.1559 -0.0420  0.0513
  318TMC3    C6 4833   0.136   2.530  13.606  0.9613  0.5866 -0.0215
  318TMC3     C 4834   4.650   2.867  13.532 -0.3421  0.0302  0.2378
  318TMC3     O 4835   4.672   2.966  13.600 -0.2410  0.1172  0.0698
  318TMC3     H 4836   4.557   2.619  13.517  0.1152 -1.8798  0.0960
  318TMC3    H1 4837   0.145   2.866  13.628  0.7527  0.4104 -2.7546
  318TMC3    H2 4838   0.204   2.446  13.600 -0.0475 -0.5005  3.1656
  318TMC3    C7 4839   0.305   2.678  13.708 -0.0903  0.0133  0.0148
  318TMC3    C8 4840   4.696   2.384  13.524  0.0247  0.2477 -0.1164
  318TMC3    O1 4841   0.314   2.786  13.761  0.0459 -0.0932  0.6118
  318TMC3    O2 4842   0.009   2.283  13.568 -0.6899  0.0676  0.7895
  319MPD2     C 4843   1.029   4.145  16.167  0.3140 -1.2596  0.7543
  319MPD2    C1 4844   0.999   4.041  16.255 -0.6999 -0.1817 -0.2437
  319MPD2    C2 4845   0.896   3.958  16.212  0.0222  0.6090  0.0401
  319MPD2    C3 4846   0.828   3.981  16.090  0.1404 -0.1191  0.3512
  319MPD2    C4 4847   0.873   4.079  16.003 -0.7497  0.3847  0.8984
  319MPD2    C5 4848   0.978   4.159  16.040  0.1055 -0.0836 -0.6391
  319MPD2     H 4849   0.868   3.886  16.288  2.6197 -0.3597  0.0859
  319MPD2    H1 4850   0.833   4.089  15.903  1.5619 -0.6069 -0.1330
  319MPD2    H2 4851   1.119   4.200  16.192 -0.4970 -1.1799  3.5676
  319MPD2    H3 4852   1.025   4.232  15.974  1.7605 -2.3724 -2.0201
  319MPD2     N 4853   0.727   3.901  16.042 -0.3687  0.3461  0.0593
  319MPD2    H5 4854   0.687   3.925  15.952 -0.9938  1.3641  0.6220
  319MPD2    N1 4855   1.045   4.029  16.388  0.7329 -0.1286  0.1063
  319MPD2    H7 4856   1.014   3.949  16.442 -1.6648  0.7599  0.0495
  320TMC3    C1 4857   0.558   3.736  16.032 -0.0354 -0.2449 -0.0751
  320TMC3    C2 4858   0.511   3.797  15.926 -0.5149 -0.6368 -1.1513
  320TMC3    C3 4859   0.396   3.756  15.862  0.0178  0.4962  0.2099
  320TMC3    C4 4860   0.488   3.641  16.086 -0.2126  0.3697 -0.5152
  320TMC3    C5 4861   0.369   3.600  16.028  0.3471  0.0775  0.8510
  320TMC3    C6 4862   0.317   3.661  15.916  0.1432  0.0366  1.0959
  320TMC3     C 4863   0.668   3.795  16.108  0.5627  0.1623  0.1374
  320TMC3     O 4864   0.702   3.741  16.212  0.2977 -0.4473  0.8267
  320TMC3     H 4865   0.559   3.881  15.876  1.8644 -2.5262 -2.0024
  320TMC3    H1 4866   0.525   3.596  16.177  1.4434  1.1454 -0.8122
  320TMC3    H2 4867   0.215   3.641  15.884  0.2263  1.4524 -0.0643
  320TMC3    C7 4868   0.350   3.455  16.028 -0.0412  0.1191  0.7162
  320TMC3    C8 4869   0.339   3.852  15.761  0.1756 -0.0344  0.9937
  320TMC3    O1 4870   0.296   3.419  15.923 -0.1139 -0.5482 -0.1489
  320TMC3    O2 4871   0.398   3.959  15.747  0.1918  0.1309  0.0362
  321TMC3    C1 4872   1.155   4.083  16.583  0.3512 -0.0952  0.4297
  321TMC3    C2 4873   1.176   3.947  16.591 -0.6307  0.2522  0.1257
  321TMC3    C3 4874   1.106   3.859  16.677 -0.3255 -0.1563  0.1931
  321TMC3    C4 4875   1.055   4.137  16.663 -0.9454  0.3337 -0.3177
  321TMC3    C5 4876   0.988   4.052  16.741 -0.7101 -0.0183 -0.6451
  321TMC3    C6 4877   1.001   3.915  16.744  0.5188  0.1481  0.3643
  321TMC3     C 4878   1.111   4.125  16.450 -0.5803 -0.6230  0.2704
  321TMC3     O 4879   1.114   4.245  16.417  0.4803 -0.5574  0.1426
  321TMC3     H 4880   1.260   3.905  16.538 -3.2544 -3.5097 -1.0503
  321TMC3    H1 4881   1.024   4.241  16.651 -1.0336  0.2466 -0.8820
  321TMC3    H2 4882   0.925   3.858  16.797  0.6340 -0.5703 -0.2520
  321TMC3    C7 4883   0.939   4.112  16.862  0.3337  0.7899 -0.1709
  321TMC3    C8 4884   1.190   3.809  16.787 -0.2417  0.0419 -0.0134
  321TMC3    O1 4885   0.903   4.229  16.861  0.5023 -0.1220 -0.1470
  321TMC3    O2 4886   1.145   3.835  16.897  0.1929 -0.3496  0.4169
  322MPD2     C 4887   4.154   0.623  13.653 -0.2548  0.0477 -0.5652
  322MPD2    C1 4888   4.259   0.580  13.736 -0.0742 -0.0985 -0.0611
  322MPD2    C2 4889   4.319   0.461  13.697  0.1108  0.3736 -0.8802
  322MPD2    C3 4890   4.289   0.407  13.573  0.4604 -0.1247  0.6438
  322MPD2    C4 4891   4.186   0.449  13.495  0.1888 -0.2503  0.2050
  322MPD2    C5 4892   4.118   0.558  13.537 -0.1722  0.4565 -0.2464
  322MPD2     H 4893   4.396   0.421  13.763 -0.8008  1.1683  0.6696
  322MPD2    H1 4894   4.154   0.385  13.414  0.3963 -0.1159  0.0146
  322MPD2    H2 4895   4.096   0.711  13.676  1.1114  1.4025 -2.2653
  322MPD2    H3 4896   4.033   0.591  13.478  1.3297  1.5782 -1.7540
  322MPD2     N 4897   4.356   0.286  13.540 -0.3165  0.1884  0.0787
  322MPD2    H5 4898   4.434   0.264  13.601 -0.4843 -1.0477 -0.1426
  322MPD2    N1 4899   4.309   0.642  13.849  0.0769  0.1107  0.7112
  322MPD2    H7 4900   4.382   0.596  13.902  0.6333  0.4983  0.2815
  323TMC3    C1 4901   4.358   0.817  13.996  0.0944 -0.5236  0.1322
  323TMC3    C2 4902   4.447   0.912  13.959 -0.2249 -0.0581 -0.7055
  323TMC3    C3 4903   4.563   0.931  14.030 -0.4932 -0.1915  0.3061
  323TMC3    C4 4904   4.393   0.732  14.102  0.4309 -0.1610  0.2156
  323TMC3    C5 4905   4.500   0.760  14.178  0.0570  0.4179  0.1605
  323TMC3    C6 4906   4.591   0.858  14.143 -0.4659  0.2884  0.6246
  323TMC3     C 4907   4.278   0.773  13.881  0.5483 -0.0658 -0.2397
  323TMC3     O 4908   4.200   0.852  13.827  0.3411 -0.1075  0.0684
  323TMC3     H 4909   4.414   0.985  13.885  1.7778  0.1721 -1.3632
  323TMC3    H1 4910   4.331   0.646  14.126  0.7549 -0.1762  1.0009
  323TMC3    H2 4911   4.686   0.875  14.192  0.8057  1.0108 -2.0850
  323TMC3    C7 4912   4.533   0.661  14.277  0.0100 -0.2275 -0.5018
  323TMC3    C8 4913   4.681   0.973  13.946 -0.1770  0.6201  0.2145
  323TMC3    O1 4914   4.485   0.550  14.266 -0.1623 -0.5132  0.0553
  323TMC3    O2 4915   0.047   1.003  14.005  0.1893  0.0805  0.3674
  324MPD2     C 4916   1.202   1.477  14.390  0.8917 -0.4558  0.2915
  324MPD2    C1 4917   1.219   1.609  14.344 -0.3713  0.5889 -0.4126
  324MPD2    C2 4918   1.121   1.671  14.277  0.4082  0.5825 -0.5059
  324MPD2    C3 4919   1.001   1.607  14.249  0.5148  0.3510  0.0371
  324MPD2    C4 4920   0.980   1.481  14.299 -0.3650  0.7944 -0.2306
  324MPD2    C5 4921   1.075   1.417  14.379 -0.2407  0.8218 -0.4081
  324MPD2     H 4922   1.157   1.764  14.235  1.3483  0.8414  0.8769
  324MPD2    H1 4923   0.879   1.440  14.292  0.1467 -0.8620  2.0900
  324MPD2    H2 4924   1.281   1.416  14.433  0.5998 -0.1674  1.2479
  324MPD2    H3 4925   1.056   1.315  14.409 -0.4210  0.5753 -1.3516
  324MPD2     N 4926   0.904   1.672  14.166 -0.2312 -0.1336 -0.1924
  324MPD2    H5 4927   0.822   1.614  14.152 -1.5639  0.8229  3.8020
  324MPD2    N1 4928   1.336   1.684  14.372 -0.3191  0.6753  0.3146
  324MPD2    H7 4929   1.342   1.783  14.353  0.0838  0.3049 -1.4928
  325TMC3    C1 4930   0.788   1.843  14.040  0.0403 -0.0798  0.1383
  325TMC3    C2 4931   0.743   1.761  13.943  0.5453  0.1450 -0.1369
  325TMC3    C3 4932   0.687   1.820  13.834 -0.0654  0.0360 -0.6494
  325TMC3    C4 4933   0.775   1.979  14.029  0.1623 -0.1498 -0.1703
  325TMC3    C5 4934   0.714   2.035  13.919 -0.4656 -0.5649 -0.7244
  325TMC3    C6 4935   0.674   1.958  13.814 -0.3777 -0.0545  0.3463
  325TMC3     C 4936   0.905   1.804  14.122  0.2107  0.4944  0.6961
  325TMC3     O 4937   0.985   1.896  14.137 -0.6234 -0.3951  0.0820
  325TMC3     H 4938   0.750   1.653  13.950 -1.2645  0.1621  1.7514
  325TMC3    H1 4939   0.818   2.039  14.108 -0.8842 -0.4475  0.6352
  325TMC3    H2 4940   0.605   1.996  13.739 -0.1681  0.5009  0.4341
  325TMC3    C7 4941   0.633   2.150  13.936  0.3159 -0.0420  0.4309
  325TMC3    C8 4942   0.630   1.736  13.733 -0.1741  0.9162 -0.1117
  325TMC3    O1 4943   0.571   2.194  13.839  0.1944  0.0695  0.1137
  325TMC3    O2 4944   0.636   1.769  13.615  0.0729  0.1223 -0.0490
  326MPD2     C 4945   2.717   2.903  11.122 -0.1680  0.2719  0.7798
  326MPD2    C1 4946   2.648   2.967  11.024  0.1088 -0.5914 -0.4880
  326MPD2    C2 4947   2.705   3.038  10.929  1.0289  0.5658  0.2582
  326MPD2    C3 4948   2.845   3.056  10.917  0.0592  0.4612  0.2283
  326MPD2    C4 4949   2.913   2.998  11.020 -0.6275  0.8864 -0.7568
  326MPD2    C5 4950   2.853   2.923  11.117  0.8496  0.2299 -0.6237
  326MPD2     H 4951   2.642   3.073  10.848 -0.0772 -2.2866 -0.1148
  326MPD2    H1 4952   3.021   3.001  11.026 -0.5775  0.3523 -1.4265
  326MPD2    H2 4953   2.674   2.845  11.202 -0.4609 -1.0563 -0.3345
  326MPD2    H3 4954   2.911   2.877  11.197 -0.2688  0.0604  0.0837
  326MPD2     N 4955   2.916   3.138  10.824  0.4757 -0.7458 -0.8158
  326MPD2    H5 4956   3.013   3.159  10.844 -0.3473  1.2990  1.0368
  326MPD2    N1 4957   2.503   2.966  11.022 -0.0708  0.0407  0.0114
  326MPD2    H7 4958   2.452   3.034  10.966  0.4572  0.3659 -0.0756
  327TMC3    C1 4959   2.299   2.878  11.009 -0.3692 -0.3437  0.4368
  327TMC3    C2 4960   2.253   3.008  11.011 -0.2420 -0.6476 -0.3351
  327TMC3    C3 4961   2.204   3.056  10.892  0.5236 -0.3337 -0.1871
  327TMC3    C4 4962   2.299   2.794  10.901 -0.6818 -0.4650  0.0759
  327TMC3    C5 4963   2.272   2.857  10.781 -0.3031  0.3379  0.6007
  327TMC3    C6 4964   2.219   2.983  10.778 -0.1829 -0.0504  0.0729
  327TMC3     C 4965   2.425   2.860  11.070  0.4121 -0.0893  0.0068
  327TMC3     O 4966   2.461   2.751  11.100  0.0622  0.6345 -0.0466
  327TMC3     H 4967   2.262   3.067  11.101 -1.0294  0.9054 -1.2605
  327TMC3    H1 4968   2.328   2.690  10.900  1.9172  0.2268  3.7944
  327TMC3    H2 4969   2.183   3.016  10.681 -1.4300 -0.4192  0.4130
  327TMC3    C7 4970   2.366   2.826  10.677  0.3839  0.0626  0.3555
  327TMC3    C8 4971   2.140   3.184  10.893 -0.0833  0.4439 -0.3026
  327TMC3    O1 4972   2.355   2.896  10.578 -0.1427 -1.0358  0.0147
  327TMC3    O2 4973   2.122   3.241  10.785  0.1639  0.3868 -0.4714
  328MPD2     C 4974   4.621   1.706  16.218 -0.4002 -0.4677  0.0287
  328MPD2    C1 4975   4.712   1.744  16.313 -0.2095 -0.7941  0.0883
  328MPD2    C2 4976   4.692   1.871  16.367  0.8819  0.0521 -0.2804
  328MPD2    C3 4977   4.591   1.960  16.333  0.0224 -0.4823 -0.3300
  328MPD2    C4 4978   4.509   1.921  16.233  0.5037  0.3241 -0.1951
  328MPD2    C5 4979   4.523   1.795  16.180 -0.7029  0.4715  0.0665
  328MPD2     H 4980   0.019   1.912  16.442 -2.3897  2.2981  1.4037
  328MPD2    H1 4981   4.441   1.992  16.188  2.0042  4.2731  3.7619
  328MPD2    H2 4982   4.643   1.612  16.168  2.7188  0.5722 -0.5394
  328MPD2    H3 4983   4.442   1.765  16.114 -0.7707  0.6641  0.0636
  328MPD2     N 4984   4.573   2.083  16.403  0.3753  0.3237  0.3776
  328MPD2    H5 4985   4.484   2.132  16.401  1.0315  1.4389 -1.5689
  328MPD2    N1 4986   0.078   1.652  16.354  0.1903  0.3212 -0.8938
  328MPD2    H7 4987   0.082   1.558  16.316  0.0581 -0.2824  0.6087
  329TMC3    C1 4988   0.242   1.554  16.482  0.1205  0.4221  0.5106
  329TMC3    C2 4989   0.291   1.547  16.603  0.1335  0.4801 -0.0042
  329TMC3    C3 4990   0.334   1.423  16.645 -0.1978  0.7554 -0.2480
  329TMC3    C4 4991   0.234   1.453  16.389 -0.0153  0.8389  0.2876
  329TMC3    C5 4992   0.275   1.331  16.433  0.1544 -0.8090  0.2033
  329TMC3    C6 4993   0.323   1.320  16.562  0.7860 -0.6659 -0.9346
  329TMC3     C 4994   0.167   1.671  16.453 -0.5393 -0.1735  0.3819
  329TMC3     O 4995   0.177   1.761  16.533  0.0020  0.2195 -0.6201
  329TMC3     H 4996   0.324   1.638  16.653 -1.3178  1.7351 -1.3263
  329TMC3    H1 4997   0.198   1.464  16.287  0.8846  2.2967  0.1337
  329TMC3    H2 4998   0.350   1.221  16.599 -1.2622 -0.8129  0.1811
  329TMC3    C7 4999   0.236   1.216  16.354 -0.4540 -0.3194  0.8781
  329TMC3    C8 5000   0.330   1.389  16.784  0.1301 -0.6609  0.0955
  329TMC3    O1 5001   0.163   1.229  16.257 -0.8304  0.1068  0.3779
  329TMC3    O2 5002   0.335   1.270  16.812  0.1945 -0.0469 -0.6222
  330TMC3    C1 5003   3.036   2.412   9.637  0.0432 -0.6066 -0.6716
  330TMC3    C2 5004   2.901   2.385   9.609  0.3384  0.1447  0.1433
  330TMC3    C3 5005   2.859   2.261   9.664  0.2914 -0.3476  0.1773
  330TMC3    C4 5006   3.126   2.316   9.692  0.0777 -0.2498 -0.4061
  330TMC3    C5 5007   3.075   2.202   9.737 -0.0149  0.3418 -0.4551
  330TMC3    C6 5008   2.945   2.171   9.724 -0.8254  0.4746 -0.3162
  330TMC3     C 5009   3.097   2.541   9.612 -0.4803  1.3470 -0.4191
  330TMC3     O 5010   3.193   2.566   9.680 -0.0083  0.4488 -0.0155
  330TMC3     H 5011   2.829   2.463   9.585 -0.9268 -1.9975 -2.9580
  330TMC3    H1 5012   3.228   2.346   9.716  0.0497 -0.5559  0.1075
  330TMC3    H2 5013   2.895   2.088   9.770 -2.1506  1.4853  0.0625
  330TMC3    C7 5014   3.150   2.141   9.846 -0.0598 -0.1232 -0.2456
  330TMC3    C8 5015   2.730   2.219   9.638 -0.0166 -0.4787 -0.2375
  330TMC3    O1 5016   3.263   2.183   9.867  0.1830 -0.2723 -0.3185
  330TMC3    O2 5017   2.686   2.258   9.531 -0.3569 -0.2683 -0.5550
  331MPD2     C 5018   1.261   1.663  13.235 -0.4389 -0.0861 -0.5780
  331MPD2    C1 5019   1.279   1.632  13.101  0.1212 -0.0955 -0.1814
  331MPD2    C2 5020   1.241   1.503  13.066 -0.2191  0.4449 -0.0106
  331MPD2    C3 5021   1.198   1.412  13.156  0.7693 -0.0266 -0.2653
  331MPD2    C4 5022   1.183   1.451  13.285  0.4357  0.3039 -0.2981
  331MPD2    C5 5023   1.217   1.573  13.327 -0.4624  0.5576  0.1724
  331MPD2     H 5024   1.236   1.478  12.961 -1.4725 -0.4302  0.2555
  331MPD2    H1 5025   1.149   1.382  13.362  0.4809  0.4765 -0.1259
  331MPD2    H2 5026   1.285   1.763  13.270  0.0302 -0.6271  0.6674
  331MPD2    H3 5027   1.196   1.602  13.429  3.0284 -3.8678  2.2066
  331MPD2     N 5028   1.140   1.301  13.101  0.1007 -0.4064 -0.5810
  331MPD2    H5 5029   1.135   1.299  12.999  0.0818 -0.1986 -0.5843
  331MPD2    N1 5030   1.324   1.722  13.005 -0.5355 -0.1122  0.1790
  331MPD2    H7 5031   1.329   1.817  13.040  1.2201 -0.7708  1.7402
  332TMC3    C1 5032   1.011   1.118  13.094 -0.0314 -0.5657 -0.0560
  332TMC3    C2 5033   0.942   1.163  12.980 -0.1839 -0.3901 -0.2591
  332TMC3    C3 5034   0.892   1.071  12.894 -0.2832 -0.0550 -0.3156
  332TMC3    C4 5035   1.018   0.986  13.118  0.0992 -0.0483 -0.2934
  332TMC3    C5 5036   0.974   0.896  13.023 -0.2656  0.5220 -0.1439
  332TMC3    C6 5037   0.911   0.938  12.913  0.2494 -0.2762 -0.1839
  332TMC3     C 5038   1.091   1.195  13.174 -0.2916  0.5072  0.1244
  332TMC3     O 5039   1.096   1.174  13.294 -0.4468  0.5507 -0.3950
  332TMC3     H 5040   0.935   1.269  12.954 -2.0583 -0.8314 -1.5911
  332TMC3    H1 5041   1.068   0.964  13.212 -0.5244 -3.1396 -0.6642
  332TMC3    H2 5042   0.878   0.872  12.834 -1.0295 -0.8499  0.8347
  332TMC3    C7 5043   1.053   0.774  13.011 -0.6699 -0.3155 -0.1776
  332TMC3    C8 5044   0.902   1.117  12.755 -0.1745 -0.3532  0.0764
  332TMC3    O1 5045   0.985   0.679  12.963 -0.2259  0.0909 -0.4859
  332TMC3    O2 5046   0.962   1.037  12.679  0.2435  0.6899  0.0875
  333MPD2     C 5047   0.931   1.905  11.195  0.2653  0.0851  0.7169
  333MPD2    C1 5048   0.934   1.856  11.071 -0.1203  0.7583 -0.1509
  333MPD2    C2 5049   0.876   1.732  11.047 -0.0892  0.7604 -0.4645
  333MPD2    C3 5050   0.807   1.663  11.151  0.6340  0.2668  0.0342
  333MPD2    C4 5051   0.808   1.722  11.276  0.3284 -0.3991 -0.5030
  333MPD2    C5 5052   0.865   1.839  11.297 -0.9658  0.4603 -0.0155
  333MPD2     H 5053   0.874   1.690  10.947  3.1004  1.2519 -0.7416
  333MPD2    H1 5054   0.754   1.678  11.358  1.1197  1.3855  0.9795
  333MPD2    H2 5055   0.967   2.006  11.214  1.3575 -0.0044 -0.8992
  333MPD2    H3 5056   0.862   1.888  11.394 -0.7089  0.1329  0.1563
  333MPD2     N 5057   0.747   1.541  11.117  0.4044  0.5266 -0.3123
  333MPD2    H5 5058   0.782   1.514  11.025 -2.6621 -0.3158 -1.2095
  333MPD2    N1 5059   1.009   1.924  10.974  0.2089 -0.2781 -0.3606
  333MPD2    H7 5060   1.041   2.016  11.000  0.9531 -0.1444 -1.7841
  334TMC3    C1 5061   1.180   1.947  10.801 -0.7089  0.3323  0.2178
  334TMC3    C2 5062   1.297   1.872  10.783  0.6096  0.1569 -0.4447
  334TMC3    C3 5063   1.422   1.930  10.797 -0.7643 -0.1922 -0.2459
  334TMC3    C4 5064   1.186   2.082  10.822 -0.1150 -0.1022  0.1685
  334TMC3    C5 5065   1.314   2.136  10.831  0.2581 -0.4503  0.0911
  334TMC3    C6 5066   1.423   2.066  10.810 -0.6506  0.1599  0.0560
  334TMC3     C 5067   1.065   1.870  10.857 -0.1875 -0.1619 -0.2888
  334TMC3     O 5068   1.049   1.757  10.814 -0.1650  0.5393 -0.2838
  334TMC3     H 5069   1.292   1.764  10.793 -0.7809  0.0665 -1.9482
  334TMC3    H1 5070   1.092   2.135  10.827  0.4759  0.9033  0.5725
  334TMC3    H2 5071   1.517   2.112  10.838  0.6677 -3.5289  1.7028
  334TMC3    C7 5072   1.328   2.286  10.850 -0.6409 -0.2874  0.2337
  334TMC3    C8 5073   1.510   1.852  10.880 -0.2433 -0.2097 -0.1071
  334TMC3    O1 5074   1.432   2.327  10.798 -0.4929 -0.3098 -0.1386
  334TMC3    O2 5075   1.452   1.771  10.954  0.4906  0.0338 -0.5483
  335TMC3    C1 5076   0.934   2.973  16.984 -0.6615 -0.0681  0.4131
  335TMC3    C2 5077   0.929   2.856  16.906 -0.9304  0.1316  0.2416
  335TMC3    C3 5078   1.028   2.833  16.815  0.5828 -0.4437  0.3145
  335TMC3    C4 5079   1.042   3.052  16.980 -0.9901  0.4384 -0.9335
  335TMC3    C5 5080   1.141   3.032  16.884 -0.4491  0.4517 -0.4541
  335TMC3    C6 5081   1.133   2.920  16.806  0.0276  0.0022 -1.1209
  335TMC3     C 5082   0.848   2.985  17.107 -0.5221 -0.2909 -0.5518
  335TMC3     O 5083   0.868   3.079  17.182 -0.9646  0.3065  0.3328
  335TMC3     H 5084   0.848   2.784  16.908 -1.6765  0.9771  0.5390
  335TMC3    H1 5085   1.050   3.142  17.040  1.2483 -0.7874  0.6037
  335TMC3    H2 5086   1.209   2.904  16.729 -1.4305  0.4995 -2.6713
  335TMC3    C7 5087   1.288   3.052  16.912  0.5090 -0.5980 -0.4964
  335TMC3    C8 5088   1.023   2.719  16.725 -0.1046 -0.0741 -0.0100
  335TMC3    O1 5089   1.358   3.076  16.814  0.0092 -0.3339  0.1099
  335TMC3    O2 5090   1.101   2.716  16.632 -0.1596 -0.2521  0.2859
  336MPD2     C 5091   0.585   0.394  16.135  0.8862 -0.9341 -0.4273
  336MPD2    C1 5092   0.571   0.373  16.002 -0.2234  0.1133  1.0132
  336MPD2    C2 5093   0.599   0.245  15.950  1.0141  0.5523 -0.4120
  336MPD2    C3 5094   0.637   0.139  16.034  0.8580  0.1831  0.2191
  336MPD2    C4 5095   0.648   0.172  16.169  0.1017 -0.7257  0.4180
  336MPD2    C5 5096   0.631   0.296  16.218  0.4903 -0.4880  0.0218
  336MPD2     H 5097   0.572   0.236  15.845  1.4049 -0.0346 -0.4628
  336MPD2    H1 5098   0.685   0.097  16.238  0.1877 -3.6651 -2.8273
  336MPD2    H2 5099   0.554   0.486  16.184 -0.5234 -0.5597 -2.0286
  336MPD2    H3 5100   0.627   0.310  16.325  2.4925  1.3288 -0.1465
  336MPD2     N 5101   0.656   0.008  15.994  0.0976  0.2638  0.1001
  336MPD2    H5 5102   0.668   4.676  16.065  1.0961 -0.8955 -1.2159
  336MPD2    N1 5103   0.527   0.478  15.921 -0.5120 -0.8102  0.4743
  336MPD2    H7 5104   0.494   0.447  15.831 -2.0050  2.0669  0.0490
  337TMC3    C1 5105   0.457   0.702  15.871 -0.1020 -0.2215  0.0149
  337TMC3    C2 5106   0.333   0.665  15.829  0.8364 -0.3976 -0.3031
  337TMC3    C3 5107   0.247   0.765  15.792 -0.6071  0.3990  0.0253
  337TMC3    C4 5108   0.491   0.832  15.902  0.6928  0.9399 -0.4078
  337TMC3    C5 5109   0.387   0.927  15.891 -0.1089 -0.7760 -0.2107
  337TMC3    C6 5110   0.270   0.898  15.826 -0.1142  0.7100 -0.0099
  337TMC3     C 5111   0.540   0.613  15.947 -0.4945 -0.4919  0.8373
  337TMC3     O 5112   0.616   0.660  16.031 -0.2765  0.6168 -0.1870
  337TMC3     H 5113   0.315   0.560  15.811  0.9105 -0.5070  0.2740
  337TMC3    H1 5114   0.595   0.862  15.901  0.6902  0.9659  0.3422
  337TMC3    H2 5115   0.203   0.980  15.801  1.4451  1.6982 -0.9985
  337TMC3    C7 5116   0.418   1.067  15.904 -0.0055 -0.5013  0.8455
  337TMC3    C8 5117   0.126   0.736  15.727 -0.0867  0.3244 -0.0432
  337TMC3    O1 5118   0.365   1.134  15.821 -0.2599  0.5907  0.6201
  337TMC3    O2 5119   0.131   0.645  15.648  0.2679  0.3851 -0.0849
  338MPD2     C 5120   1.294   0.562   0.583  0.2736  0.3905 -0.0416
  338MPD2    C1 5121   1.279   0.427   0.606  0.6954 -0.7112 -0.0376
  338MPD2    C2 5122   1.208   0.391   0.723 -0.7306 -0.4690 -0.5531
  338MPD2    C3 5123   1.151   0.484   0.805 -0.8733  0.1370 -0.1473
  338MPD2    C4 5124   1.176   0.613   0.782  0.5737  0.2699 -0.2472
  338MPD2    C5 5125   1.241   0.657   0.670 -0.9324 -0.7886 -0.3207
  338MPD2     H 5126   1.208   0.288   0.755  2.0278 -0.5448 -0.8466
  338MPD2    H1 5127   1.135   0.693   0.842  2.1720  1.3847 -0.6272
  338MPD2    H2 5128   1.357   0.598   0.502 -0.6722 -1.5072 -1.6007
  338MPD2    H3 5129   1.260   0.763   0.656 -4.3365 -0.0802  0.2668
  338MPD2     N 5130   1.068   0.442   0.905  0.9888  0.4198  0.4920
  338MPD2    H5 5131   1.067   0.343   0.925  0.5349  0.3237  0.0006
  338MPD2    N1 5132   1.322   0.323   0.519  0.4084  0.7368 -0.2579
  338MPD2    H7 5133   1.321   0.228   0.555  1.6869  0.8700  0.1034
  339TMC3    C1 5134   0.922   0.444   1.093 -0.1843  0.6438 -0.2891
  339TMC3    C2 5135   0.988   0.336   1.135 -0.0678  0.1572 -0.1811
  339TMC3    C3 5136   0.910   0.239   1.198 -0.2477 -0.0679  0.0968
  339TMC3    C4 5137   0.786   0.466   1.103 -0.0433  0.3239 -0.2846
  339TMC3    C5 5138   0.712   0.363   1.143 -0.4097  0.2736 -0.3382
  339TMC3    C6 5139   0.773   0.252   1.193  0.9666 -0.5346  0.0263
  339TMC3     C 5140   0.988   0.518   0.987 -0.0097 -0.7845 -0.0461
  339TMC3     O 5141   0.945   0.631   0.970  0.6898  0.4601  0.1664
  339TMC3     H 5142   1.096   0.325   1.131  0.1048  1.9676 -0.4655
  339TMC3    H1 5143   0.741   0.553   1.056 -0.2106 -0.3744 -1.4165
  339TMC3    H2 5144   0.708   0.167   1.210  1.0862 -0.8139 -0.9276
  339TMC3    C7 5145   0.605   0.344   1.051 -0.4174 -0.6432 -0.5338
  339TMC3    C8 5146   0.972   0.109   1.190  0.3674  0.0111  0.2092
  339TMC3    O1 5147   0.593   0.425   0.958 -0.0838  0.7692  0.1445
  339TMC3    O2 5148   1.064   0.099   1.110 -0.5166  0.3154  0.2001
  340MPD2     C 5149   0.985   3.554  10.459  0.2149 -0.7130 -0.2658
  340MPD2    C1 5150   0.961   3.429  10.504 -0.1812  0.2926 -0.4159
  340MPD2    C2 5151   0.863   3.414  10.597  0.2273  1.0062 -0.4465
  340MPD2    C3 5152   0.805   3.519  10.661 -0.3560 -0.5679  0.9516
  340MPD2    C4 5153   0.831   3.646  10.611 -0.1912  0.3306 -1.0834
  340MPD2    C5 5154   0.913   3.660  10.502 -0.2119  0.0990 -0.7574
  340MPD2     H 5155   0.839   3.316  10.639 -0.9208  0.9191 -1.3095
  340MPD2    H1 5156   0.782   3.731  10.657  2.4831  1.4387 -0.2701
  340MPD2    H2 5157   1.066   3.577  10.390  0.8187  1.9001  1.3177
  340MPD2    H3 5158   0.945   3.759  10.472  1.0045 -0.9641 -2.9973
  340MPD2     N 5159   0.713   3.509  10.771 -0.1262  0.5614 -0.0842
  340MPD2    H5 5160   0.647   3.586  10.781 -2.7957 -1.8176  0.4934
  340MPD2    N1 5161   1.046   3.325  10.464  0.1839  0.1227 -0.0049
  340MPD2    H7 5162   1.125   3.349  10.405  1.3074  0.5910  1.6882
  341TMC3    C1 5163   1.109   3.103  10.410 -0.1300 -0.3651 -0.3845
  341TMC3    C2 5164   1.060   2.979  10.383 -0.2410  0.2215  1.1450
  341TMC3    C3 5165   1.123   2.906  10.287 -0.9970  0.3827 -0.5955
  341TMC3    C4 5166   1.225   3.148  10.359  0.7400  0.7025 -0.2016
  341TMC3    C5 5167   1.296   3.062  10.278 -0.7074  0.9027 -0.1899
  341TMC3    C6 5168   1.242   2.949  10.233 -0.2243  0.7625 -0.5260
  341TMC3     C 5169   1.034   3.192  10.498 -0.6296 -0.6748 -0.0897
  341TMC3     O 5170   0.954   3.140  10.579 -0.4017 -0.2014 -0.0610
  341TMC3     H 5171   0.969   2.950  10.434 -0.7967  0.6288  0.3890
  341TMC3    H1 5172   1.270   3.229  10.415 -1.3837  1.2889  0.6677
  341TMC3    H2 5173   1.293   2.892  10.156 -1.9370  0.8203 -1.7070
  341TMC3    C7 5174   1.423   3.103  10.228  0.5026  0.3766  0.1820
  341TMC3    C8 5175   1.059   2.778  10.247 -0.3819  0.4091  0.7001
  341TMC3    O1 5176   1.488   3.005  10.200  0.5150  0.1739  0.0941
  341TMC3    O2 5177   0.954   2.748  10.297  0.2988  0.3617 -0.6247
  342MPD2     C 5178   3.598   0.700  17.280 -0.2163 -0.4123 -0.7660
  342MPD2    C1 5179   3.713   0.692  17.204 -0.6929  0.1407  0.6174
  342MPD2    C2 5180   3.775   0.806  17.164 -0.2363 -0.5943  0.3498
  342MPD2    C3 5181   3.726   0.928  17.208  0.1685 -0.3968 -0.6512
  342MPD2    C4 5182   3.599   0.934  17.261  0.4807 -0.0939 -0.4158
  342MPD2    C5 5183   3.534   0.821  17.292  0.0617 -0.3290 -0.4958
  342MPD2     H 5184   3.874   0.808  17.121 -0.4249  0.1816 -0.0525
  342MPD2    H1 5185   3.552   1.028  17.286  0.2238 -1.3105  3.5694
  342MPD2    H2 5186   3.542   0.610  17.302 -1.5398  0.7666  0.7440
  342MPD2    H3 5187   3.436   0.827  17.338  0.8734 -1.5348  1.4056
  342MPD2     N 5188   3.788   1.053  17.178  0.1210 -0.7136  0.6190
  342MPD2    H5 5189   3.732   1.134  17.202 -1.3588 -2.2378  2.3368
  342MPD2    N1 5190   3.772   0.566  17.168  0.0071  0.3034  0.0673
  342MPD2    H7 5191   3.853   0.578  17.109  0.6134  1.0541  1.0497
  343TMC3    C1 5192   3.771   0.342  17.100  0.2699  0.7792 -0.6748
  343TMC3    C2 5193   3.899   0.353  17.043 -0.2265 -0.3871  0.2898
  343TMC3    C3 5194   3.925   0.285  16.924 -0.8033 -0.3969 -0.2938
  343TMC3    C4 5195   3.693   0.241  17.065 -0.3661  0.0258  0.2404
  343TMC3    C5 5196   3.731   0.160  16.972  0.3554  0.2357  0.0060
  343TMC3    C6 5197   3.837   0.185  16.879 -0.6456 -0.8830  0.2327
  343TMC3     C 5198   3.723   0.440  17.194 -0.6661  0.2973  0.1901
  343TMC3     O 5199   3.643   0.409  17.285 -0.3380 -0.4195  0.5104
  343TMC3     H 5200   3.967   0.424  17.089 -2.0545 -0.0051  2.3870
  343TMC3    H1 5201   3.595   0.233  17.111 -0.0218  1.7130  1.2659
  343TMC3    H2 5202   3.865   0.117  16.799 -0.0856 -1.0419  0.5614
  343TMC3    C7 5203   3.655   0.040  16.950  0.2104 -0.3621 -0.4284
  343TMC3    C8 5204   4.058   0.302  16.866 -0.1942  0.5017 -0.1220
  343TMC3    O1 5205   3.706   4.712  16.862  0.4055 -0.3620  0.7163
  343TMC3    O2 5206   4.128   0.374  16.936  0.0312 -0.0150  0.0080
  344MPD2     C 5207   0.012   0.435  10.914  0.4387 -0.7412 -0.6238
  344MPD2    C1 5208   4.643   0.440  10.836 -0.1930 -0.0810  0.8303
  344MPD2    C2 5209   4.640   0.518  10.721  0.3542 -0.1401 -0.1030
  344MPD2    C3 5210   0.015   0.589  10.695  0.0137  0.6502 -0.2579
  344MPD2    C4 5211   0.117   0.592  10.785  0.8619 -0.3690  0.1393
  344MPD2    C5 5212   0.121   0.514  10.896 -0.5116  0.4590 -0.2385
  344MPD2     H 5213   4.550   0.523  10.661 -1.0510 -0.0706  1.9782
  344MPD2    H1 5214   0.205   0.651  10.760  0.3901 -0.8568 -2.6769
  344MPD2    H2 5215   0.030   0.362  10.993  2.1096 -1.0538 -1.2959
  344MPD2    H3 5216   0.211   0.509  10.958  0.5635  2.3405 -1.6678
  344MPD2     N 5217   0.029   0.685  10.588  0.3665  0.5319  0.1895
  344MPD2    H5 5218   0.111   0.745  10.596  0.3846  0.7056 -1.2576
  344MPD2    N1 5219   4.532   0.354  10.864  0.0260  0.0077  0.4693
  344MPD2    H7 5220   4.463   0.345  10.790 -1.1978  0.7922  1.5150
  345TMC3    C1 5221   4.716   0.837  10.420 -0.1250 -0.0968 -1.4641
  345TMC3    C2 5222   0.009   0.936  10.513 -0.4462 -0.2862 -0.2947
  345TMC3    C3 5223   0.039   1.059  10.456 -0.2155 -0.1708 -0.5242
  345TMC3    C4 5224   4.688   0.861  10.288 -0.5115 -0.1472 -0.4341
  345TMC3    C5 5225   4.723   0.987  10.238 -0.9215  0.1713 -1.1151
  345TMC3    C6 5226   0.026   1.083  10.324  0.1224  0.2900 -0.2808
  345TMC3     C 5227   4.676   0.720  10.489  0.7118  0.0423  0.2500
  345TMC3     O 5228   4.565   0.675  10.456  0.3746  0.0631 -0.3422
  345TMC3     H 5229   4.735   0.919  10.619  1.0891 -2.1113 -0.3942
  345TMC3    H1 5230   4.661   0.774  10.229 -2.9964  0.5977 -0.4109
  345TMC3    H2 5231   0.045   1.185  10.295  1.9117 -0.7003 -2.6082
  345TMC3    C7 5232   4.655   1.032  10.118  0.1781 -0.0137  0.7501
  345TMC3    C8 5233   0.043   1.180  10.536  0.3530  0.4503  0.0611
  345TMC3    O1 5234   4.584   0.946  10.061  0.4285 -0.2684  0.0141
  345TMC3    O2 5235   0.003   1.281  10.489  0.3630  1.0834 -0.4176
  346MPD2     C 5236   4.483   2.180  14.641 -0.5815  0.8339  0.7631
  346MPD2    C1 5237   4.582   2.137  14.553 -0.5531 -0.4340  0.7420
  346MPD2    C2 5238   4.713   2.154  14.577  0.2593 -0.0618  0.1097
  346MPD2    C3 5239   0.010   2.204  14.701  0.4594  0.2093  0.0254
  346MPD2    C4 5240   4.658   2.248  14.793 -0.5590 -0.1037 -0.0380
  346MPD2    C5 5241   4.528   2.221  14.764  0.1157 -0.5908 -0.3634
  346MPD2     H 5242   0.044   2.113  14.505  1.3148  2.1782 -0.1337
  346MPD2    H1 5243   4.677   2.297  14.888  0.6379 -0.6432  0.0035
  346MPD2    H2 5244   4.376   2.163  14.630 -0.8349  0.7489  3.4969
  346MPD2    H3 5245   4.456   2.251  14.839  2.0019 -2.5054  2.2357
  346MPD2     N 5246   0.150   2.220  14.716  0.0885  0.4587 -0.3101
  346MPD2    H5 5247   0.204   2.195  14.634 -0.3435 -2.0348  0.1765
  346MPD2    N1 5248   4.554   2.093  14.423  0.2137 -0.1223  0.4017
  346MPD2    H7 5249   4.633   2.066  14.365  0.9542  0.1092  1.2870
  347TMC3    C1 5250   0.361   2.272  14.827 -0.3097  0.8435 -0.0177
  347TMC3    C2 5251   0.417   2.339  14.725  0.6525  0.0308  0.4197
  347TMC3    C3 5252   0.553   2.338  14.706 -0.0355  0.6125 -0.2710
  347TMC3    C4 5253   0.429   2.230  14.934 -0.0631  0.1667 -0.0638
  347TMC3    C5 5254   0.568   2.249  14.922 -0.1726  0.6465  0.5095
  347TMC3    C6 5255   0.632   2.297  14.806  0.1955 -0.1580 -0.6128
  347TMC3     C 5256   0.215   2.258  14.833  0.2233  0.5251  0.3311
  347TMC3     O 5257   0.165   2.291  14.942  0.3889 -0.2539 -0.0995
  347TMC3     H 5258   0.349   2.380  14.651  1.0748 -0.5940 -0.3140
  347TMC3    H1 5259   0.373   2.206  15.024 -1.2922 -0.3998 -0.9765
  347TMC3    H2 5260   0.740   2.305  14.801  0.3710 -1.5591  1.0646
  347TMC3    C7 5261   0.646   2.157  15.006  0.6344 -0.6288 -0.2033
  347TMC3    C8 5262   0.601   2.336  14.572 -0.0801 -0.1054 -0.2852
  347TMC3    O1 5263   0.763   2.147  14.978  0.1539 -0.4665 -0.2873
  347TMC3    O2 5264   0.710   2.288  14.553  0.6272 -0.2329  0.3092
  348MPD2     C 5265   3.908   1.906  12.175 -0.0100 -0.5997 -0.4578
  348MPD2    C1 5266   3.783   1.886  12.111 -0.5655  0.1631  0.1819
  348MPD2    C2 5267   3.725   1.988  12.044 -0.3374  0.3526 -0.5891
  348MPD2    C3 5268   3.785   2.114  12.025  0.7749 -0.1581  1.0602
  348MPD2    C4 5269   3.922   2.125  12.068  0.4003 -0.0638  0.2182
  348MPD2    C5 5270   3.977   2.024  12.144 -0.3091  0.4058 -0.6208
  348MPD2     H 5271   3.625   1.983  12.004 -0.7835 -1.3482  0.7544
  348MPD2    H1 5272   3.981   2.216  12.058 -0.5724  0.7650  1.9061
  348MPD2    H2 5273   3.971   1.834  12.226 -1.6101 -1.4237  0.3401
  348MPD2    H3 5274   4.070   2.042  12.198 -0.9181 -1.8508  1.1440
  348MPD2     N 5275   3.706   2.201  11.948 -0.4500 -0.0725 -0.3221
  348MPD2    H5 5276   3.614   2.173  11.915  0.9012 -3.3811 -1.2372
  348MPD2    N1 5277   3.707   1.765  12.115  0.7298  0.1701  0.0226
  348MPD2    H7 5278   3.618   1.767  12.065 -0.8801  0.3459  2.9206
  349TMC3    C1 5279   3.667   1.540  12.145 -0.2337  0.2275 -0.7355
  349TMC3    C2 5280   3.665   1.431  12.227 -0.5791 -0.2030  0.0619
  349TMC3    C3 5281   3.576   1.334  12.192  0.1765 -0.6666 -0.4872
  349TMC3    C4 5282   3.586   1.551  12.031  0.7209 -0.8443 -0.3727
  349TMC3    C5 5283   3.510   1.438  11.995 -0.3666  0.1485 -0.0763
  349TMC3    C6 5284   3.489   1.338  12.088 -0.1424  0.1797 -0.2688
  349TMC3     C 5285   3.749   1.651  12.181 -0.3507  0.1033  0.2695
  349TMC3     O 5286   3.852   1.629  12.246  0.5667 -0.1178 -0.4600
  349TMC3     H 5287   3.735   1.414  12.308  0.7167 -1.4881 -1.3353
  349TMC3    H1 5288   3.594   1.627  11.954  1.7607 -2.7357 -2.0877
  349TMC3    H2 5289   3.417   1.262  12.058 -0.0297 -0.7355  1.8133
  349TMC3    C7 5290   3.411   1.459  11.885 -0.2602  0.0218 -0.1439
  349TMC3    C8 5291   3.608   1.204  12.250  0.2894 -0.4518  0.5870
  349TMC3    O1 5292   3.301   1.403  11.901 -0.2195 -0.6598  0.3205
  349TMC3    O2 5293   3.634   1.201  12.372 -0.2746  0.8038 -0.0164
  350MPD2     C 5294   2.933   0.317  10.957  0.3541 -0.0698 -0.5544
  350MPD2    C1 5295   2.838   0.216  10.981 -0.5973  0.3160  0.3032
  350MPD2    C2 5296   2.794   0.201  11.114  0.0874 -0.0574  0.2842
  350MPD2    C3 5297   2.828   0.283  11.220 -0.2525  0.2626  0.4373
  350MPD2    C4 5298   2.929   0.381  11.192 -0.0590  0.5325 -0.1516
  350MPD2    C5 5299   2.971   0.395  11.066  0.1367  0.0244  0.5631
  350MPD2     H 5300   2.726   0.118  11.131  0.0848  0.6342  3.6645
  350MPD2    H1 5301   2.972   0.444  11.269  0.5859  0.5168 -0.4962
  350MPD2    H2 5302   2.965   0.349  10.858 -0.6343 -1.0274 -1.1814
  350MPD2    H3 5303   3.040   0.474  11.041  1.2866 -1.3696 -0.6924
  350MPD2     N 5304   2.776   0.264  11.350  0.0602  0.0448  0.0898
  350MPD2    H5 5305   2.720   0.179  11.357  2.2891 -1.2164  2.8803
  350MPD2    N1 5306   2.783   0.125  10.887 -0.5881  0.1594  0.1195
  350MPD2    H7 5307   2.727   0.047  10.920  0.1473 -0.4645 -0.1212
  351TMC3    C1 5308   2.757   0.017  10.666  0.7730 -0.0688  0.9301
  351TMC3    C2 5309   2.801   0.003  10.541 -0.0745 -0.4416  0.7646
  351TMC3    C3 5310   2.710   4.699  10.447 -0.1689 -0.4860  0.5144
  351TMC3    C4 5311   2.626   4.731  10.701  0.0010  0.3298  0.0605
  351TMC3    C5 5312   2.538   4.689  10.607 -0.1508 -0.3703  0.0456
  351TMC3    C6 5313   2.583   4.666  10.477 -0.7020  0.5649 -0.1202
  351TMC3     C 5314   2.822   0.123  10.752 -0.2261 -0.3611  0.4015
  351TMC3     O 5315   2.910   0.188  10.700 -0.8368  0.4333  0.3013
  351TMC3     H 5316   2.901   0.033  10.512 -0.9925  0.6845 -1.2028
  351TMC3    H1 5317   2.588   0.006  10.801  0.7325 -2.0612  0.6929
  351TMC3    H2 5318   2.513   4.623  10.407 -1.2299 -1.3315  1.5965
  351TMC3    C7 5319   2.416   4.627  10.663  0.3364  0.3870 -0.4726
  351TMC3    C8 5320   2.750   4.665  10.312  0.7840 -0.2719  0.5066
  351TMC3    O1 5321   2.415   4.605  10.785 -0.5886 -0.3617  0.0506
  351TMC3    O2 5322   2.665   4.613  10.240  0.0078 -0.6489 -0.5104
  352MPD2     C 5323   0.899   2.224   0.807 -0.0092  0.4442 -0.1945
  352MPD2    C1 5324   0.767   2.226   0.847  0.2551  0.3135 -0.5508
  352MPD2    C2 5325   0.733   2.148   0.952 -0.2431  0.1033 -0.4801
  352MPD2    C3 5326   0.829   2.082   1.024 -0.8280  0.7442  0.0636
  352MPD2    C4 5327   0.962   2.086   0.989 -0.2217 -0.1037 -0.1225
  352MPD2    C5 5328   0.999   2.161   0.879 -0.2565  0.4655  0.2799
  352MPD2     H 5329   0.627   2.138   0.972 -0.2144 -1.3981 -1.1531
  352MPD2    H1 5330   1.041   2.046   1.051 -0.1669  2.2834  1.3604
  352MPD2    H2 5331   0.938   2.283   0.724 -1.0020 -0.3902 -1.2512
  352MPD2    H3 5332   1.105   2.160   0.856 -0.2382 -1.2564  0.4085
  352MPD2     N 5333   0.791   1.996   1.133 -0.5691  0.0922 -0.7635
  352MPD2    H5 5334   0.862   1.931   1.164 -0.1301  0.5068 -0.8903
  352MPD2    N1 5335   0.668   2.270   0.755 -0.2972  0.3321 -0.0878
  352MPD2    H7 5336   0.575   2.243   0.785  0.5945  0.4176  2.8030
  353TMC3    C1 5337   0.657   1.857   1.261 -1.6536 -0.1299 -0.4067
  353TMC3    C2 5338   0.763   1.790   1.313  0.5429  0.2788  0.1950
  353TMC3    C3 5339   0.737   1.664   1.357  0.4456 -0.2359  0.7156
  353TMC3    C4 5340   0.528   1.812   1.249 -0.4317 -0.4354 -0.7366
  353TMC3    C5 5341   0.505   1.687   1.298  0.3058 -0.0076 -0.1944
  353TMC3    C6 5342   0.612   1.614   1.352 -0.6415 -0.0863  0.0358
  353TMC3     C 5343   0.674   1.982   1.195  0.5541  0.1247  0.3892
  353TMC3     O 5344   0.570   2.042   1.174  0.2211 -0.1764  0.0996
  353TMC3     H 5345   0.867   1.821   1.318  0.6045 -0.2176  1.6948
  353TMC3    H1 5346   0.445   1.867   1.206 -1.0887 -0.1058  0.9584
  353TMC3    H2 5347   0.598   1.524   1.411 -1.4310  1.5213  2.3037
  353TMC3    C7 5348   0.408   1.609   1.230  0.4012 -1.0279 -0.3021
  353TMC3    C8 5349   0.852   1.598   1.418 -0.3476  0.1409  0.1719
  353TMC3    O1 5350   0.436   1.488   1.230 -0.1683  0.6031 -0.6688
  353TMC3    O2 5351   0.944   1.674   1.456 -0.5373 -1.1272 -0.9319
  354TMC3    C1 5352   3.400   3.127  13.543 -0.1886  0.0614 -0.0556
  354TMC3    C2 5353   3.399   3.227  13.451  0.1806 -0.5824 -0.3264
  354TMC3    C3 5354   3.469   3.202  13.340 -0.5782  0.2610  0.0816
  354TMC3    C4 5355   3.454   3.003  13.514 -0.3510  0.7490  0.7438
  354TMC3    C5 5356   3.511   2.985  13.392  0.0424  0.3575  0.0618
  354TMC3    C6 5357   3.523   3.088  13.303 -0.2370  0.4835  0.5135
  354TMC3     C 5358   3.298   3.127  13.641 -0.0458  0.3421  0.2050
  354TMC3     O 5359   3.316   3.070  13.752  0.3583  0.5411 -0.1017
  354TMC3     H 5360   3.346   3.318  13.475  3.2110  1.1382 -0.0529
  354TMC3    H1 5361   3.427   2.923  13.583  0.5165  0.0322  0.2610
  354TMC3    H2 5362   3.565   3.090  13.203 -1.9360 -2.4689 -0.2285
  354TMC3    C7 5363   3.461   2.856  13.335 -0.1543  0.4630 -0.8036
  354TMC3    C8 5364   3.440   3.292  13.231 -0.3262 -0.3390  0.5768
  354TMC3    O1 5365   3.440   2.767  13.418 -0.1070  0.1021  0.5897
  354TMC3    O2 5366   3.429   3.253  13.115  0.3610 -0.0962 -0.1069
  355MPD2     C 5367   2.818   3.925  11.503  0.2643  0.1357  0.5831
  355MPD2    C1 5368   2.945   3.974  11.505 -0.2880  0.2635  0.4239
  355MPD2    C2 5369   3.030   3.945  11.608 -0.3643 -0.3992  0.5608
  355MPD2    C3 5370   2.989   3.864  11.706  0.4250  0.1690  0.5072
  355MPD2    C4 5371   2.859   3.832  11.713  0.6613 -0.4668 -0.2519
  355MPD2    C5 5372   2.777   3.842  11.606 -0.4252 -0.0885 -0.4714
  355MPD2     H 5373   3.133   3.975  11.590 -0.3266 -2.3079 -2.2935
  355MPD2    H1 5374   2.820   3.778  11.798 -0.6563  1.7797  0.5939
  355MPD2    H2 5375   2.746   3.954  11.427  0.4231  0.9355  0.7350
  355MPD2    H3 5376   2.680   3.797  11.624  1.1018 -2.6822  1.3592
  355MPD2     N 5377   3.093   3.811  11.790  0.4700  0.6354  0.1749
  355MPD2    H5 5378   3.188   3.833  11.762 -0.4013  1.4911 -2.1141
  355MPD2    N1 5379   3.000   4.062  11.404  0.0582 -0.3919  0.0070
  355MPD2    H7 5380   3.094   4.098  11.416 -0.0054 -0.2621  0.1251
  356TMC3    C1 5381   3.207   3.756  11.981 -0.6075 -0.1238  0.7954
  356TMC3    C2 5382   3.298   3.765  11.878  0.0574 -0.4957 -0.2509
  356TMC3    C3 5383   3.394   3.862  11.890  0.1198 -0.8877 -0.0297
  356TMC3    C4 5384   3.204   3.850  12.086  0.2673  0.0052 -0.8493
  356TMC3    C5 5385   3.292   3.955  12.085 -0.2635 -0.5204 -0.4524
  356TMC3    C6 5386   3.392   3.961  11.992  1.1770 -0.0798 -0.0812
  356TMC3     C 5387   3.077   3.743  11.913  0.8143  0.6257  0.6479
  356TMC3     O 5388   2.974   3.721  11.975 -0.4023  0.0707 -0.5663
  356TMC3     H 5389   3.302   3.686  11.804 -1.4615  0.3845 -1.2560
  356TMC3    H1 5390   3.119   3.848  12.153  0.9706  1.6804  0.1151
  356TMC3    H2 5391   3.478   4.025  12.007 -0.6491  2.1519  0.8401
  356TMC3    C7 5392   3.300   4.034  12.207  0.4964 -0.5222 -0.6980
  356TMC3    C8 5393   3.466   3.887  11.764 -0.6118 -0.1259  0.3688
  356TMC3    O1 5394   3.220   4.004  12.295 -0.6060 -0.4738  0.5298
  356TMC3    O2 5395   3.438   3.812  11.669 -0.0998 -0.4739 -0.3848
  357MPD2     C 5396   3.286   3.853   0.662  0.5842 -0.2955  0.4250
  357MPD2    C1 5397   3.207   3.828   0.774 -0.1952  0.0094  0.3615
  357MPD2    C2 5398   3.071   3.796   0.752 -0.2732 -0.3012  0.7051
  357MPD2    C3 5399   3.023   3.770   0.629 -0.4270 -0.7404 -0.2872
  357MPD2    C4 5400   3.102   3.793   0.517 -0.3103 -0.0940 -1.0683
  357MPD2    C5 5401   3.234   3.827   0.540  0.2750  0.0766 -0.4609
  357MPD2     H 5402   3.015   3.759   0.837 -0.2407 -2.1008 -0.0582
  357MPD2    H1 5403   3.060   3.787   0.417 -0.5086  1.2475 -1.0660
  357MPD2    H2 5404   3.392   3.875   0.663  0.3976  0.6346 -0.6911
  357MPD2    H3 5405   3.300   3.832   0.455  2.8451  0.7248  1.5833
  357MPD2     N 5406   2.885   3.751   0.609 -0.5861  0.4151 -0.4420
  357MPD2    H5 5407   2.856   3.768   0.513  0.3831  0.1646 -0.7867
  357MPD2    N1 5408   3.267   3.832   0.905  0.7063  0.0957  0.2130
  357MPD2    H7 5409   3.213   3.795   0.983  0.0150 -0.5687 -0.5710
  358TMC3    C1 5410   3.435   3.845   1.064  0.1106 -0.2285 -0.3272
  358TMC3    C2 5411   3.408   3.714   1.086 -0.2477 -0.5869  0.1491
  358TMC3    C3 5412   3.363   3.667   1.203 -0.7179 -0.3996  0.1144
  358TMC3    C4 5413   3.419   3.940   1.165  0.4075 -0.0164  0.3747
  358TMC3    C5 5414   3.377   3.896   1.288  0.4964 -0.4330  0.4038
  358TMC3    C6 5415   3.338   3.763   1.304  0.6117  0.6109 -0.4277
  358TMC3     C 5416   3.394   3.881   0.931 -0.0889 -0.2630 -0.5379
  358TMC3     O 5417   3.464   3.960   0.863  0.2262  0.7658  0.7479
  358TMC3     H 5418   3.396   3.652   0.998  1.1855 -1.9221  0.8882
  358TMC3    H1 5419   3.428   4.048   1.151 -3.5572  0.2228 -0.4122
  358TMC3    H2 5420   3.325   3.717   1.401  2.6483 -0.9094 -0.8696
  358TMC3    C7 5421   3.438   3.960   1.396 -0.2999 -0.1943  0.3337
  358TMC3    C8 5422   3.279   3.555   1.194  0.7098  0.7257 -0.8051
  358TMC3    O1 5423   3.485   3.882   1.479  0.3342 -0.2427  0.1729
  358TMC3    O2 5424   3.298   3.478   1.105 -0.1352  0.1617  0.3976
  359MPD2     C 5425   3.335   2.465  12.671 -0.0358  0.2906 -0.1744
  359MPD2    C1 5426   3.255   2.458  12.558  0.7964 -0.6312 -0.3520
  359MPD2    C2 5427   3.161   2.361  12.544  0.0739 -0.0208 -0.6303
  359MPD2    C3 5428   3.157   2.261  12.634 -0.5803 -0.3433 -0.0137
  359MPD2    C4 5429   3.237   2.269  12.752 -0.0723  0.3823  0.4966
  359MPD2    C5 5430   3.335   2.358  12.757  0.6181  0.0300 -0.5079
  359MPD2     H 5431   3.104   2.359  12.451 -1.6196 -0.1906  0.3969
  359MPD2    H1 5432   3.221   2.191  12.825 -1.5171  0.9601  0.7986
  359MPD2    H2 5433   3.415   2.537  12.686 -0.9968  1.0142  1.4756
  359MPD2    H3 5434   3.400   2.368  12.843 -0.3276 -1.2765  0.3543
  359MPD2     N 5435   3.064   2.149  12.635  0.5442  0.1247 -0.4240
  359MPD2    H5 5436   3.078   2.090  12.717 -1.3438  1.6017  0.9473
  359MPD2    N1 5437   3.258   2.569  12.465  0.0510 -0.2349  0.7540
  359MPD2    H7 5438   3.199   2.558  12.382  1.6862  1.0878 -0.5878
  360TMC3    C1 5439   3.331   2.752  12.337 -1.2413  0.1258 -1.0270
  360TMC3    C2 5440   3.387   2.878  12.350  0.7762 -0.5811 -0.0331
  360TMC3    C3 5441   3.423   2.929  12.229 -0.0345 -0.1510 -0.2921
  360TMC3    C4 5442   3.301   2.693  12.218 -0.2911 -0.1451 -0.1520
  360TMC3    C5 5443   3.332   2.748  12.106 -0.0587 -0.0715 -0.2676
  360TMC3    C6 5444   3.393   2.870  12.105 -0.4675  0.4219  0.7287
  360TMC3     C 5445   3.348   2.672  12.458 -0.0761  0.7538  0.7209
  360TMC3     O 5446   3.430   2.702  12.541 -0.2366 -0.2264  0.3887
  360TMC3     H 5447   3.426   2.921  12.441  0.0181 -0.7066  0.3428
  360TMC3    H1 5448   3.276   2.588  12.208  1.8776 -0.4981 -1.6855
  360TMC3    H2 5449   3.414   2.920  12.011 -0.1782 -1.0857 -0.0192
  360TMC3    C7 5450   3.270   2.701  11.983  0.0118  0.3356 -0.0935
  360TMC3    C8 5451   3.539   3.013  12.234 -0.1149 -0.0601  0.2846
  360TMC3    O1 5452   3.304   2.753  11.877  0.2869  0.7050  0.0310
  360TMC3    O2 5453   3.541   3.099  12.320  0.3232 -0.4865  0.1451
  361MPD2     C 5454   4.485   0.949  16.252 -0.5494 -0.3745  0.0470
  361MPD2    C1 5455   4.485   1.001  16.381 -0.1820  0.2751  0.4260
  361MPD2    C2 5456   4.591   0.978  16.476  0.2346  0.0302 -0.0777
  361MPD2    C3 5457   4.695   0.899  16.440  0.0706 -0.5677 -0.4662
  361MPD2    C4 5458   4.689   0.847  16.312  0.0023  0.7828 -0.3694
  361MPD2    C5 5459   4.589   0.864  16.220  0.5391 -0.4382  1.3648
  361MPD2     H 5460   4.584   1.019  16.576  2.4823  0.8060 -0.2352
  361MPD2    H1 5461   0.027   0.778  16.281 -0.4330 -0.1246  0.5874
  361MPD2    H2 5462   4.403   0.964  16.182  0.3542  1.9460 -0.5489
  361MPD2    H3 5463   4.596   0.816  16.123  1.7115  1.0615  0.7120
  361MPD2     N 5464   0.078   0.887  16.515 -0.2402 -0.2140  0.2083
  361MPD2    H5 5465   0.144   0.830  16.462 -0.7424 -0.6317  0.0275
  361MPD2    N1 5466   4.377   1.080  16.428 -0.2081  0.4209 -0.3731
  361MPD2    H7 5467   4.389   1.133  16.514 -0.6229 -0.4716  0.2362
  362TMC3    C1 5468   4.161   1.175  16.430  0.8450 -1.0237  0.4580
  362TMC3    C2 5469   4.167   1.198  16.563 -0.2587  0.2549 -0.3639
  362TMC3    C3 5470   4.071   1.280  16.618  0.7415  0.8009  0.0906
  362TMC3    C4 5471   4.052   1.213  16.355 -0.8940  0.3927  0.3270
  362TMC3    C5 5472   3.964   1.297  16.410  0.1117 -0.5168 -0.1775
  362TMC3    C6 5473   3.990   1.351  16.532  0.3319  0.1316  0.7405
  362TMC3     C 5474   4.261   1.098  16.361  0.2596 -0.3119 -0.0182
  362TMC3     O 5475   4.220   1.056  16.251 -0.3581  0.0013  0.3221
  362TMC3     H 5476   4.236   1.140  16.623  0.2409  0.1300 -1.0567
  362TMC3    H1 5477   4.034   1.182  16.253  0.8105  1.5124 -0.3141
  362TMC3    H2 5478   3.921   1.423  16.574  0.6718  1.5160 -1.1107
  362TMC3    C7 5479   3.900   1.395  16.322 -0.2036 -0.1412  0.5301
  362TMC3    C8 5480   4.128   1.355  16.731 -0.4674 -0.3646  0.5333
  362TMC3    O1 5481   3.890   1.508  16.372 -0.2689  0.3305 -0.0847
  362TMC3    O2 5482   4.249   1.335  16.742  0.2539  0.2741  0.3869
  363TMC3    C1 5483   2.386   3.537   9.176  0.5420  0.4888 -0.0037
  363TMC3    C2 5484   2.524   3.568   9.183 -0.4681  0.6797  0.0722
  363TMC3    C3 5485   2.551   3.695   9.217 -0.4602 -0.1124  0.0309
  363TMC3    C4 5486   2.289   3.616   9.223 -0.0466  0.5306  0.2316
  363TMC3    C5 5487   2.321   3.735   9.270  0.6726  0.4111 -0.5372
  363TMC3    C6 5488   2.452   3.784   9.260  0.1246  0.4023  0.3887
  363TMC3     C 5489   2.344   3.410   9.115  0.0600  0.1892 -0.5886
  363TMC3     O 5490   2.223   3.404   9.091 -0.2891 -0.4971 -0.0860
  363TMC3     H 5491   2.596   3.497   9.145  0.0010  1.9840 -1.4767
  363TMC3    H1 5492   2.186   3.586   9.236 -0.1867  0.9823  0.1477
  363TMC3    H2 5493   2.479   3.885   9.288 -0.0285 -0.0965  2.3529
  363TMC3    C7 5494   2.255   3.782   9.383 -0.3678  0.3954 -0.0566
  363TMC3    C8 5495   2.686   3.739   9.230  0.0083 -0.5993 -0.4528
  363TMC3    O1 5496   2.131   3.782   9.379  0.1591  0.0871  0.1750
  363TMC3    O2 5497   2.691   3.859   9.251  0.4784  0.2834 -0.3982
  364MPD2     C 5498   1.914   3.552  11.173 -0.2808 -0.3320 -0.0179
  364MPD2    C1 5499   1.960   3.551  11.047  0.3392  0.1419  0.2042
  364MPD2    C2 5500   2.039   3.441  11.000  0.2763 -0.0862 -0.5911
  364MPD2    C3 5501   2.045   3.325  11.074  0.7181 -0.7860  0.6099
  364MPD2    C4 5502   1.990   3.334  11.202  0.3360 -0.1765 -0.2519
  364MPD2    C5 5503   1.929   3.444  11.252  0.0248  0.2092 -0.1856
  364MPD2     H 5504   2.089   3.449  10.904 -1.9907  1.6651 -1.6228
  364MPD2    H1 5505   2.007   3.252  11.271  1.1987 -0.1380 -0.4179
  364MPD2    H2 5506   1.850   3.632  11.209  1.1926  1.3621 -1.1356
  364MPD2    H3 5507   1.881   3.439  11.349  0.0910 -2.1004 -0.2637
  364MPD2     N 5508   2.112   3.214  11.023 -0.0086 -0.4500  0.1335
  364MPD2    H5 5509   2.140   3.150  11.097 -1.8700 -0.1632  1.0806
  364MPD2    N1 5510   1.929   3.668  10.971 -0.3559  0.1804  0.3246
  364MPD2    H7 5511   1.873   3.743  11.012 -1.6090 -0.9751  0.7183
  365TMC3    C1 5512   1.961   3.830  10.793  0.9878 -0.0548 -0.2129
  365TMC3    C2 5513   1.982   3.845  10.658 -0.0768  0.6411 -0.1425
  365TMC3    C3 5514   1.998   3.972  10.612  0.0033  0.1677  0.0684
  365TMC3    C4 5515   1.959   3.932  10.882 -0.2593  0.6911  0.5768
  365TMC3    C5 5516   1.985   4.052  10.831  1.1176  0.7528 -0.2588
  365TMC3    C6 5517   2.010   4.079  10.700 -0.1612 -0.2321  0.0249
  365TMC3     C 5518   1.970   3.692  10.845 -0.0489  0.2543  0.1733
  365TMC3     O 5519   2.032   3.616  10.773 -0.1443 -0.0388  0.6875
  365TMC3     H 5520   1.965   3.767  10.585  1.3433 -0.2167  0.4430
  365TMC3    H1 5521   1.953   3.909  10.987 -0.3196  2.8202  1.0356
  365TMC3    H2 5522   2.039   4.179  10.671  0.3456 -0.6310 -0.8551
  365TMC3    C7 5523   2.032   4.159  10.921 -0.3916  0.1169  0.8658
  365TMC3    C8 5524   2.046   3.994  10.474 -0.4232  0.7336  0.3379
  365TMC3    O1 5525   2.138   4.217  10.893 -0.0199 -0.1102  0.1884
  365TMC3    O2 5526   2.043   4.110  10.438  0.1894  0.8197  0.0486
  366MPD2     C 5527   0.425   4.130  15.009  0.8387 -0.1066  0.3742
  366MPD2    C1 5528   0.484   4.248  15.050  0.4482 -0.6212 -0.4494
  366MPD2    C2 5529   0.592   4.297  14.971 -0.0837  0.3852 -0.5715
  366MPD2    C3 5530   0.656   4.211  14.880  0.4190  0.6019 -0.0577
  366MPD2    C4 5531   0.615   4.084  14.858 -0.0071 -0.8909  0.0985
  366MPD2    C5 5532   0.499   4.042  14.923 -0.1067 -0.3614  0.0967
  366MPD2     H 5533   0.643   4.391  14.992 -2.6208  2.0695 -2.0350
  366MPD2    H1 5534   0.664   4.019  14.786  1.0649 -1.0818  0.9978
  366MPD2    H2 5535   0.337   4.089  15.056  1.0530 -1.0661 -0.0461
  366MPD2    H3 5536   0.452   3.947  14.900  3.2918 -1.6396 -1.5003
  366MPD2     N 5537   0.772   4.262  14.819 -0.0504  0.0716  0.0820
  366MPD2    H5 5538   0.792   4.357  14.848 -0.5560  0.8749 -2.2788
  366MPD2    N1 5539   0.420   4.332  15.136  0.6126 -0.0343  0.3307
  366MPD2    H7 5540   0.450   4.429  15.128 -2.9489  1.0587  0.2247
  367TMC3    C1 5541   0.304   4.424  15.309  0.1346  0.3150 -0.1294
  367TMC3    C2 5542   0.419   4.466  15.364 -0.3654 -1.0249  0.6665
  367TMC3    C3 5543   0.427   4.604  15.384  0.4740 -0.1881 -0.1833
  367TMC3    C4 5544   0.201   4.503  15.260  0.1007  0.1433 -0.1560
  367TMC3    C5 5545   0.216   4.635  15.294 -0.3594  0.6036 -0.1745
  367TMC3    C6 5546   0.328   4.692  15.345 -0.0568 -0.6298  0.0594
  367TMC3     C 5547   0.321   4.311  15.228 -0.5428 -0.2532 -0.0941
  367TMC3     O 5548   0.237   4.221  15.243 -0.0473  0.0687  0.3278
  367TMC3     H 5549   0.496   4.397  15.395 -0.2493 -0.9285  0.5945
  367TMC3    H1 5550   0.111   4.456  15.222  0.1741 -0.3383  0.2626
  367TMC3    H2 5551   0.330   0.057  15.374  1.4280  0.0573 -2.5039
  367TMC3    C7 5552   0.124   4.728  15.233 -0.4191 -1.0055  0.3281
  367TMC3    C8 5553   0.564   4.649  15.383 -0.4935  0.3220  0.7641
  367TMC3    O1 5554   0.143   0.109  15.256 -0.7021 -0.0981 -0.6926
  367TMC3    O2 5555   0.650   4.568  15.411  0.0162  0.1963  0.7082
  368MPD2     C 5556   1.343   1.853  13.564  0.5254 -1.0276 -0.0376
  368MPD2    C1 5557   1.368   1.954  13.474 -0.3990 -0.3148 -0.0528
  368MPD2    C2 5558   1.476   1.939  13.384 -0.4319  0.7800 -0.3284
  368MPD2    C3 5559   1.539   1.815  13.380 -0.2987  0.1221  0.0897
  368MPD2    C4 5560   1.523   1.724  13.481  1.0233  0.3088  0.5446
  368MPD2    C5 5561   1.413   1.740  13.559  0.6035  0.4171  0.4457
  368MPD2     H 5562   1.500   2.020  13.315  1.6778  1.7110  1.5313
  368MPD2    H1 5563   1.578   1.631  13.483 -0.1079 -0.2754  3.8387
  368MPD2    H2 5564   1.270   1.867  13.643 -0.1484  1.5989 -1.1348
  368MPD2    H3 5565   1.390   1.663  13.631  0.4400  0.0747  0.0222
  368MPD2     N 5566   1.652   1.790  13.294 -0.6716 -0.8622 -1.0423
  368MPD2    H5 5567   1.709   1.711  13.321 -0.6485  0.1300  1.8190
  368MPD2    N1 5568   1.300   2.077  13.483  0.3348  0.2815 -0.7951
  368MPD2    H7 5569   1.215   2.065  13.537  0.2509 -1.0162 -1.2036
  369TMC3    C1 5570   1.226   2.279  13.382 -0.1680 -0.0786  0.5481
  369TMC3    C2 5571   1.278   2.376  13.293 -0.1505  0.1338 -0.8408
  369TMC3    C3 5572   1.248   2.365  13.167 -0.7190 -0.6409 -0.1358
  369TMC3    C4 5573   1.122   2.202  13.346 -0.1057 -0.3166 -0.0368
  369TMC3    C5 5574   1.084   2.196  13.212 -0.2869 -0.3380 -0.7536
  369TMC3    C6 5575   1.154   2.271  13.120 -0.3780 -0.2997  0.5409
  369TMC3     C 5576   1.333   2.196  13.425  0.8231  0.3104  0.0048
  369TMC3     O 5577   1.437   2.234  13.377  0.5313  0.1306 -0.7106
  369TMC3     H 5578   1.356   2.448  13.315 -0.6428  0.7513 -1.1190
  369TMC3    H1 5579   1.081   2.123  13.407  1.5589 -2.6650 -1.9303
  369TMC3    H2 5580   1.142   2.257  13.013  1.4270  1.8626  0.0579
  369TMC3    C7 5581   0.991   2.085  13.171 -0.7131  0.2098  0.5886
  369TMC3    C8 5582   1.338   2.418  13.067  0.2720 -0.2701 -0.5615
  369TMC3    O1 5583   0.933   2.028  13.262 -0.3445  0.2099  0.1321
  369TMC3    O2 5584   1.289   2.464  12.961 -0.0297  0.5030 -0.0424
  370TMC3    C1 5585   1.176   2.013  15.926  0.1184  0.1455  0.1158
  370TMC3    C2 5586   1.085   1.950  16.007 -0.1746 -0.1229 -0.2244
  370TMC3    C3 5587   1.094   1.817  16.028  0.1243 -0.1348 -0.0328
  370TMC3    C4 5588   1.280   1.947  15.871 -1.2659  0.1717 -0.4267
  370TMC3    C5 5589   1.289   1.814  15.887  0.3842  0.0841 -0.5123
  370TMC3    C6 5590   1.192   1.748  15.962  0.4146  0.0784  0.1200
  370TMC3     C 5591   1.155   2.148  15.887  0.4253  0.0041 -0.2683
  370TMC3     O 5592   1.037   2.175  15.876 -0.1294  0.3214 -0.4810
  370TMC3     H 5593   1.001   2.009  16.042  0.5171  0.0063  1.2561
  370TMC3    H1 5594   1.333   1.991  15.787  0.5769  1.0241  1.1951
  370TMC3    H2 5595   1.184   1.640  15.969 -4.0434  0.3624 -0.2325
  370TMC3    C7 5596   1.331   1.737  15.771 -0.1317 -1.0578 -0.0361
  370TMC3    C8 5597   1.061   1.753  16.153 -0.6077  0.4352  0.0766
  370TMC3    O1 5598   1.337   1.796  15.664 -0.3825  0.1611 -0.1158
  370TMC3    O2 5599   1.061   1.632  16.163  0.2074 -0.0229  0.4198
  371TMC3    C1 5600   2.638   0.382  15.118  0.0708  0.1447  0.3253
  371TMC3    C2 5601   2.548   0.365  15.221 -0.8049  0.0277  0.5230
  371TMC3    C3 5602   2.460   0.467  15.252 -0.2425 -0.0415 -0.3796
  371TMC3    C4 5603   2.670   0.507  15.081  0.1713 -0.2877  0.2907
  371TMC3    C5 5604   2.601   0.615  15.135  0.2514 -0.7146  0.0462
  371TMC3    C6 5605   2.485   0.593  15.207  0.0776 -0.2498 -0.7925
  371TMC3     C 5606   2.724   0.271  15.089  0.5729  0.3933 -0.3773
  371TMC3     O 5607   2.841   0.285  15.055 -0.0915 -0.5312 -0.0943
  371TMC3     H 5608   2.530   0.265  15.259 -0.9828 -0.0715  0.1702
  371TMC3    H1 5609   2.763   0.525  15.028  0.1664  0.4945  0.5499
  371TMC3    H2 5610   2.417   0.673  15.235 -1.0874 -1.0417 -1.3933
  371TMC3    C7 5611   2.638   0.756  15.123  0.2615  0.2111  0.4683
  371TMC3    C8 5612   2.344   0.423  15.326 -0.3661  0.3729  0.2298
  371TMC3    O1 5613   2.550   0.840  15.112  0.3729 -0.0145  0.5182
  371TMC3    O2 5614   2.326   0.301  15.327 -0.2873 -0.1663  0.0069
  372MPD2     C 5615   2.060   2.205  13.207 -0.3876  0.0400 -0.4873
  372MPD2    C1 5616   2.159   2.137  13.274 -0.2087 -0.5566  0.5667
  372MPD2    C2 5617   2.122   2.041  13.360  0.3466 -0.1789  0.1785
  372MPD2    C3 5618   1.988   2.019  13.395 -0.0826  0.3316  0.5018
  372MPD2    C4 5619   1.886   2.085  13.331  0.0279 -1.1038  0.0952
  372MPD2    C5 5620   1.927   2.175  13.239 -0.2595  0.8209 -0.1590
  372MPD2     H 5621   2.194   1.986  13.420  0.6305 -1.5095 -1.3716
  372MPD2    H1 5622   1.782   2.080  13.360 -0.9279 -0.1404 -3.1101
  372MPD2    H2 5623   2.081   2.284  13.136 -0.0115 -1.2663 -1.8205
  372MPD2    H3 5624   1.855   2.228  13.178  1.1210  2.5863 -0.2398
  372MPD2     N 5625   1.970   1.920  13.494  0.5055  0.4602 -0.5408
  372MPD2    H5 5626   2.049   1.859  13.512  0.7263  0.4066 -1.7207
  372MPD2    N1 5627   2.298   2.153  13.248  0.7925 -0.2913 -0.1082
  372MPD2    H7 5628   2.359   2.092  13.302 -0.6688 -0.4187  1.4270
  373TMC3    C1 5629   1.847   1.775  13.636  0.6311  0.2610 -0.3964
  373TMC3    C2 5630   1.749   1.766  13.731 -0.4373  0.1035 -0.2053
  373TMC3    C3 5631   1.736   1.657  13.808  0.5515  0.2861  0.3693
  373TMC3    C4 5632   1.934   1.674  13.618 -0.1456  0.0065 -0.3174
  373TMC3    C5 5633   1.927   1.566  13.705 -0.2441 -1.0126  0.1446
  373TMC3    C6 5634   1.830   1.554  13.803  0.5499 -0.6191  0.5563
  373TMC3     C 5635   1.851   1.900  13.564 -0.3984 -0.6891  0.3202
  373TMC3     O 5636   1.764   1.982  13.582  0.3545  0.0478 -0.2416
  373TMC3     H 5637   1.678   1.844  13.751  0.2274  0.8412 -0.7187
  373TMC3    H1 5638   1.998   1.669  13.531  0.4713  0.1259  0.1310
  373TMC3    H2 5639   1.811   1.473  13.873 -0.4389  0.6399  1.7483
  373TMC3    C7 5640   1.996   1.441  13.664 -0.4596  0.5503 -0.2749
  373TMC3    C8 5641   1.619   1.656  13.900  0.3335 -0.3565  0.0622
  373TMC3    O1 5642   2.058   1.450  13.560  0.4000 -0.3420 -0.3858
  373TMC3    O2 5643   1.517   1.713  13.865 -0.9125 -0.4599  0.4756
  374TMC3    C1 5644   2.272   2.408  10.161  0.4177 -0.3334  0.1620
  374TMC3    C2 5645   2.403   2.396  10.166  0.1829 -0.2147  0.3044
  374TMC3    C3 5646   2.475   2.409  10.046 -0.0314 -0.8575  0.0871
  374TMC3    C4 5647   2.206   2.427  10.048 -0.1262  1.2506  0.4748
  374TMC3    C5 5648   2.273   2.442   9.931 -0.0001 -0.4393  0.6119
  374TMC3    C6 5649   2.411   2.444   9.921  0.3915 -0.4545 -0.3731
  374TMC3     C 5650   2.200   2.351  10.273  0.9210 -0.2337  0.4312
  374TMC3     O 5651   2.264   2.281  10.348  0.3050  0.3834  0.2144
  374TMC3     H 5652   2.457   2.385  10.260  0.9771 -1.4645 -0.2973
  374TMC3    H1 5653   2.099   2.436  10.039  0.1041  1.5990 -2.2095
  374TMC3    H2 5654   2.468   2.432   9.830  1.6619 -4.1967  0.9315
  374TMC3    C7 5655   2.193   2.433   9.812 -0.0475  0.2000  0.1545
  374TMC3    C8 5656   2.619   2.385  10.046 -0.0548  0.2110 -0.1298
  374TMC3    O1 5657   2.080   2.382   9.823  1.0392  0.3268 -0.3241
  374TMC3    O2 5658   2.664   2.413   9.936 -0.6739  0.6881 -0.2001
  375MPD2     C 5659   2.327   2.285  16.898  0.8725 -0.4205  0.5937
  375MPD2    C1 5660   2.263   2.342  16.788 -1.1481  0.1713 -0.4527
  375MPD2    C2 5661   2.271   2.269  16.675  0.2276 -0.3039 -0.6223
  375MPD2    C3 5662   2.328   2.135  16.668 -0.8034  0.3474 -0.3875
  375MPD2    C4 5663   2.379   2.081  16.791 -0.6555  0.7723  0.7428
  375MPD2    C5 5664   2.363   2.153  16.903  0.4052 -0.9724 -0.4774
  375MPD2     H 5665   2.239   2.314  16.581 -0.2554 -0.1440 -0.3793
  375MPD2    H1 5666   2.420   1.981  16.796 -1.0340  0.5015 -1.5464
  375MPD2    H2 5667   2.350   2.344  16.985 -1.0337 -0.2823  1.0012
  375MPD2    H3 5668   2.397   2.114  16.998  0.0647  0.4840  0.2355
  375MPD2     N 5669   2.332   2.061  16.545  0.5127 -0.1364 -0.1036
  375MPD2    H5 5670   2.382   1.973  16.547  3.1872  1.3932  0.0808
  375MPD2    N1 5671   2.212   2.471  16.791  0.1878  0.4889  0.1871
  375MPD2    H7 5672   2.164   2.506  16.709 -0.0691  1.1826  0.6255
  376TMC3    C1 5673   2.338   2.025  16.318 -0.0818  1.3874 -0.1567
  376TMC3    C2 5674   2.459   1.967  16.317 -0.1174 -0.2372  0.2291
  376TMC3    C3 5675   2.488   1.881  16.217  0.3494 -0.2467  0.1057
  376TMC3    C4 5676   2.267   2.020  16.200  0.4954  0.1147  0.4393
  376TMC3    C5 5677   2.304   1.944  16.095  0.1202  0.7828  0.4238
  376TMC3    C6 5678   2.418   1.870  16.098 -0.4549  0.5736 -0.0193
  376TMC3     C 5679   2.284   2.097  16.424  0.0937  0.2592  0.5147
  376TMC3     O 5680   2.193   2.178  16.403 -0.0347  0.4519 -0.5927
  376TMC3     H 5681   2.529   1.985  16.398 -1.4342  0.9818  1.0989
  376TMC3    H1 5682   2.176   2.079  16.194 -0.5091 -1.4591  0.4005
  376TMC3    H2 5683   2.453   1.813  16.013  0.7842  0.4590  0.5862
  376TMC3    C7 5684   2.264   1.986  15.965  0.3320 -0.4943  0.1606
  376TMC3    C8 5685   2.628   1.873  16.198  0.3070  0.6579 -0.0973
  376TMC3    O1 5686   2.163   2.051  15.957  0.2318 -0.1787  0.0747
  376TMC3    O2 5687   2.675   1.913  16.091  0.2286  0.1817  0.2490
  377MPD2     C 5688   0.622   2.283  12.514 -0.5566 -0.7902  0.4291
  377MPD2    C1 5689   0.724   2.276  12.609  0.4689 -0.0741  0.4471
  377MPD2    C2 5690   0.683   2.257  12.740  0.6119 -0.3955 -0.1044
  377MPD2    C3 5691   0.553   2.242  12.775  0.9408  0.1677  0.5667
  377MPD2    C4 5692   0.454   2.230  12.677  0.6711 -0.0737  0.2456
  377MPD2    C5 5693   0.493   2.262  12.547 -0.2618  0.3870 -0.0169
  377MPD2     H 5694   0.762   2.254  12.815 -0.8969 -0.4277  1.5054
  377MPD2    H1 5695   0.349   2.215  12.702  1.5356 -1.4274  2.9816
  377MPD2    H2 5696   0.643   2.302  12.409 -0.6906 -0.7659  0.4067
  377MPD2    H3 5697   0.416   2.275  12.472 -0.9989  2.1600  1.0434
  377MPD2     N 5698   0.519   2.230  12.911  0.7737 -0.3101 -0.4356
  377MPD2    H5 5699   0.428   2.195  12.937 -0.2392  1.5923 -1.3899
  377MPD2    N1 5700   0.854   2.324  12.568  0.1655 -0.2855 -0.1211
  377MPD2    H7 5701   0.872   2.336  12.468 -0.6479  1.4007 -0.0627
  378TMC3    C1 5702   1.230   2.364  12.404 -0.5047  0.7228 -0.6622
  378TMC3    C2 5703   1.101   2.394  12.457  0.2296  0.4520 -0.8023
  378TMC3    C3 5704   1.091   2.365  12.592 -0.4729  0.0197  0.1898
  378TMC3    C4 5705   1.332   2.321  12.482  0.0348 -0.3922 -0.0771
  378TMC3    C5 5706   1.306   2.290  12.613 -0.2684  0.7399  0.5553
  378TMC3    C6 5707   1.193   2.321  12.673  0.5035  0.4057 -0.6750
  378TMC3     C 5708   1.248   2.412  12.265 -0.1357 -0.1605 -0.2169
  378TMC3     O 5709   1.157   2.482  12.220  0.0774  1.0546  0.0167
  378TMC3     H 5710   1.012   2.423  12.402  1.3898  1.4231 -2.1894
  378TMC3    H1 5711   1.427   2.303  12.432  0.8533 -0.3504  1.4806
  378TMC3    H2 5712   1.179   2.307  12.780 -0.1722  0.2782 -0.7802
  378TMC3    C7 5713   1.428   2.253  12.695 -0.2138  0.0876  0.4050
  378TMC3    C8 5714   0.957   2.363  12.655  0.0640  0.5427  0.4412
  378TMC3    O1 5715   1.409   2.217  12.811  0.0726  0.6144 -0.0813
  378TMC3    O2 5716   0.954   2.373  12.776 -0.2541  0.0578 -0.3426
  379MPD2     C 5717   1.070   4.611  15.895  0.0526  0.4285  0.2905
  379MPD2    C1 5718   1.201   4.584  15.859  0.8006  0.1002  0.8152
  379MPD2    C2 5719   1.275   4.507  15.950 -0.4660 -0.5753  0.7982
  379MPD2    C3 5720   1.226   4.451  16.071 -0.2432 -0.3554  0.0005
  379MPD2    C4 5721   1.100   4.484  16.106  0.0084 -0.4041  0.0321
  379MPD2    C5 5722   1.030   4.567  16.018 -0.4584 -0.5569  0.1647
  379MPD2     H 5723   1.373   4.468  15.926  0.3648  1.1242  1.4372
  379MPD2    H1 5724   1.056   4.460  16.202  1.6946  0.6667  1.0767
  379MPD2    H2 5725   1.007   4.669  15.830  0.1804  0.7414  0.4438
  379MPD2    H3 5726   0.929   4.589  16.050 -0.5932  1.1990 -1.3947
  379MPD2     N 5727   1.306   4.381  16.169  0.4135 -0.9249 -0.0924
  379MPD2    H5 5728   1.272   4.359  16.262 -0.9421 -1.7308 -0.7812
  379MPD2    N1 5729   1.241   4.616  15.729  0.1630  0.0793  0.3535
  379MPD2    H7 5730   1.179   4.660  15.661 -0.7459 -0.3195  0.9243
  380TMC3    C1 5731   1.384   4.643  15.537 -0.0399  0.0278  0.0829
  380TMC3    C2 5732   1.514   4.646  15.489 -0.8677 -0.1668 -0.0830
  380TMC3    C3 5733   1.537   4.700  15.370 -0.3160 -0.3071  0.6979
  380TMC3    C4 5734   1.275   4.686  15.465  0.7341  0.2186  0.0905
  380TMC3    C5 5735   1.310   0.014  15.349 -0.2854  0.4056 -0.2890
  380TMC3    C6 5736   1.437   0.023  15.298  0.6180  0.9018  0.3852
  380TMC3     C 5737   1.371   4.602  15.678 -0.1006  0.7256 -0.4481
  380TMC3     O 5738   1.472   4.574  15.738 -0.0539  0.1798 -0.0389
  380TMC3     H 5739   1.595   4.601  15.546 -0.0669  0.6952 -0.5414
  380TMC3    H1 5740   1.172   4.665  15.493  1.9138 -2.6426  2.3377
  380TMC3    H2 5741   1.462   0.085  15.213  0.0236  1.7629  0.8345
  380TMC3    C7 5742   1.200   0.067  15.266 -0.1081 -0.4742 -0.5737
  380TMC3    C8 5743   1.673   0.000  15.327  0.0200  0.0090  0.1253
  380TMC3    O1 5744   1.223   0.103  15.156  0.1561 -0.0053 -0.0312
  380TMC3    O2 5745   1.681   0.057  15.219 -0.3412  0.2570 -0.5108
  381TMC3    C1 5746   1.045   1.045  16.116  0.1238 -0.3007  0.3607
  381TMC3    C2 5747   1.153   1.125  16.081  0.2245  0.3341 -0.8155
  381TMC3    C3 5748   1.154   1.246  16.144 -0.4491 -0.8140 -0.0196
  381TMC3    C4 5749   0.940   1.090  16.198 -0.0440 -0.0214 -0.1384
  381TMC3    C5 5750   0.951   1.212  16.255  0.1818 -0.4685 -0.1553
  381TMC3    C6 5751   1.057   1.293  16.223  0.4219  0.1885 -0.5945
  381TMC3     C 5752   1.056   0.899  16.099  0.1700 -0.6070  0.2572
  381TMC3     O 5753   1.004   0.837  16.193 -0.0506  0.0515 -0.2076
  381TMC3     H 5754   1.236   1.094  16.020  1.0106 -2.2596  1.5621
  381TMC3    H1 5755   0.866   1.020  16.235  0.6145 -0.0088  1.1905
  381TMC3    H2 5756   1.064   1.384  16.281  2.5883  1.5296 -3.0084
  381TMC3    C7 5757   0.921   1.200  16.397 -1.0567  0.0012  0.0623
  381TMC3    C8 5758   1.280   1.317  16.126 -0.0645  0.0468  0.5805
  381TMC3    O1 5759   0.965   1.097  16.450  0.4613  0.3604  0.2594
  381TMC3    O2 5760   1.370   1.262  16.063  0.3416  0.0554 -0.0516
  382MPD2     C 5761   0.594   3.419  16.822 -0.0306 -0.1974 -0.6724
  382MPD2    C1 5762   0.603   3.446  16.957 -0.3896 -0.0644 -0.5005
  382MPD2    C2 5763   0.542   3.354  17.042  0.0746  0.2290  0.9950
  382MPD2    C3 5764   0.476   3.243  16.997 -0.2753  0.3197  0.0023
  382MPD2    C4 5765   0.486   3.212  16.864 -0.1208  0.0754 -0.0941
  382MPD2    C5 5766   0.543   3.301  16.779 -0.4652  0.0033 -0.1829
  382MPD2     H 5767   0.556   3.379  17.147  2.8117  0.8338  0.5029
  382MPD2    H1 5768   0.432   3.129  16.819  2.8152 -0.8158 -1.9429
  382MPD2    H2 5769   0.633   3.489  16.749  1.8065 -0.6470 -0.1406
  382MPD2    H3 5770   0.546   3.278  16.673  1.0127 -2.8587  0.4842
  382MPD2     N 5771   0.382   3.174  17.075 -0.5602  0.0544  0.6569
  382MPD2    H5 5772   0.330   3.095  17.037 -0.1672  0.4726 -0.7698
  382MPD2    N1 5773   0.668   3.565  17.009  0.5327 -0.3425  0.1756
  382MPD2    H7 5774   0.653   3.590  17.106  0.7298 -1.2101  0.4258
  383TMC3    C1 5775   0.219   3.139  17.249  0.1702  0.0558  0.1784
  383TMC3    C2 5776   0.188   3.010  17.213 -0.1264  0.2168 -0.1329
  383TMC3    C3 5777   0.061   2.964  17.225  0.3680  0.1283 -0.1425
  383TMC3    C4 5778   0.120   3.215  17.306  0.3480  0.0602  0.4422
  383TMC3    C5 5779   4.737   3.169  17.314  0.3510  0.0399 -0.5516
  383TMC3    C6 5780   4.698   3.045  17.271 -0.2938  0.5648  0.1421
  383TMC3     C 5781   0.336   3.211  17.197  0.0317  0.8057  0.0820
  383TMC3     O 5782   0.366   3.309  17.259  0.0044  0.0903  0.1634
  383TMC3     H 5783   0.261   2.940  17.175 -2.4371 -1.7327 -1.0022
  383TMC3    H1 5784   0.139   3.319  17.329  1.7196 -0.6058  2.3433
  383TMC3    H2 5785   4.596   3.010  17.280 -0.6171  1.3140 -0.5585
  383TMC3    C7 5786   4.628   3.253  17.369 -0.3320 -0.4546 -0.3352
  383TMC3    C8 5787   0.016   2.829  17.192  0.2647  0.7964  0.4085
  383TMC3    O1 5788   4.519   3.201  17.393 -0.4738  0.1697 -0.5423
  383TMC3    O2 5789   0.083   2.732  17.221  0.3390 -0.4054 -0.5777
  384MPD2     C 5790   1.742   0.629  12.000 -0.1258  0.1931  0.8953
  384MPD2    C1 5791   1.671   0.560  12.095 -0.0351  0.0101 -0.3559
  384MPD2    C2 5792   1.738   0.460  12.170 -0.0572  0.4593  0.0104
  384MPD2    C3 5793   1.874   0.433  12.153 -0.0922 -0.1523  0.6198
  384MPD2    C4 5794   1.937   0.489  12.044 -0.1115  1.0480 -0.0871
  384MPD2    C5 5795   1.876   0.598  11.982 -0.3739  0.8600  0.4348
  384MPD2     H 5796   1.674   0.412  12.243 -1.4658  1.8659 -0.2952
  384MPD2    H1 5797   2.040   0.467  12.021 -0.6429 -0.9839 -0.5316
  384MPD2    H2 5798   1.706   0.704  11.930 -0.5957 -1.2015 -0.3745
  384MPD2    H3 5799   1.924   0.641  11.895  0.4825 -1.0595 -0.0332
  384MPD2     N 5800   1.931   0.349  12.254 -0.1790  0.5465 -0.2376
  384MPD2    H5 5801   1.875   0.329  12.336 -1.3543  1.4571 -0.8362
  384MPD2    N1 5802   1.534   0.594  12.117 -0.7767 -0.6774  0.0126
  384MPD2    H7 5803   1.504   0.691  12.106  0.3676 -0.4727 -1.2687
  385TMC3    C1 5804   2.082   0.217  12.368 -0.2544 -0.0129  0.7266
  385TMC3    C2 5805   2.076   0.085  12.356 -0.3531 -0.3293 -0.7217
  385TMC3    C3 5806   2.035   0.010  12.464 -0.1641 -0.8024  0.4293
  385TMC3    C4 5807   2.035   0.279  12.482  0.5219  0.5517  0.1654
  385TMC3    C5 5808   1.967   0.205  12.576 -0.0442 -0.4807 -0.3666
  385TMC3    C6 5809   1.970   0.069  12.566  0.7029  0.3195 -0.0403
  385TMC3     C 5810   2.051   0.284  12.240 -0.3302  0.3484  0.4409
  385TMC3     O 5811   2.110   0.262  12.135  0.3267 -0.2662  0.0632
  385TMC3     H 5812   2.119   0.037  12.269 -0.4116 -1.2868 -0.2198
  385TMC3    H1 5813   2.047   0.385  12.499 -4.4278  1.7480 -3.9971
  385TMC3    H2 5814   1.941   0.009  12.651 -0.7118  0.6870 -0.2713
  385TMC3    C7 5815   1.832   0.253  12.578  0.1149  0.5526  0.7345
  385TMC3    C8 5816   2.040   4.608  12.459  0.5132  0.5609  0.2847
  385TMC3    O1 5817   1.818   0.351  12.511  0.4171  0.2634  0.6487
  385TMC3    O2 5818   2.061   4.550  12.562  0.0291 -0.3953  0.1824
  386TMC3    C1 5819   2.489   2.389  11.630 -0.3222  0.1616 -0.8523
  386TMC3    C2 5820   2.440   2.448  11.509 -0.6806 -0.5384  0.0155
  386TMC3    C3 5821   2.336   2.537  11.526 -0.5475 -0.5516 -0.8747
  386TMC3    C4 5822   2.446   2.434  11.752  0.4485 -0.3691 -0.5218
  386TMC3    C5 5823   2.345   2.522  11.759  0.2037 -0.5062  0.3413
  386TMC3    C6 5824   2.296   2.581  11.650  0.0941 -0.7227  0.4729
  386TMC3     C 5825   2.574   2.275  11.613 -0.8301  0.0584 -0.2016
  386TMC3     O 5826   2.649   2.266  11.519  0.2410 -0.3980  0.0075
  386TMC3     H 5827   2.480   2.435  11.409 -0.0437  1.0940  0.0674
  386TMC3    H1 5828   2.481   2.385  11.842 -1.8993 -1.4593 -0.1955
  386TMC3    H2 5829   2.220   2.657  11.665  0.5247  0.2200 -2.0463
  386TMC3    C7 5830   2.271   2.557  11.886 -0.6680  0.7556 -0.2029
  386TMC3    C8 5831   2.265   2.595  11.410  0.6112 -0.0830 -0.6995
  386TMC3    O1 5832   2.155   2.586  11.879  0.5059 -0.3094  0.1966
  386TMC3    O2 5833   2.190   2.688  11.438 -0.1943  0.6789 -0.0851
  387MPD2     C 5834   4.383   2.642  10.090 -0.8683  0.2183  0.8489
  387MPD2    C1 5835   4.482   2.585  10.166 -0.0403 -0.4879  0.0093
  387MPD2    C2 5836   4.490   2.449  10.189  0.0608  0.9581  0.2737
  387MPD2    C3 5837   4.409   2.370  10.113 -0.3263  0.7246  0.2042
  387MPD2    C4 5838   4.312   2.424  10.029  0.4038  0.3382 -0.3654
  387MPD2    C5 5839   4.295   2.556  10.022  0.8778  0.6441 -0.4455
  387MPD2     H 5840   4.570   2.400  10.243  1.4234  1.1903 -1.5445
  387MPD2    H1 5841   4.250   2.362   9.965 -0.8397 -1.4870  2.6121
  387MPD2    H2 5842   4.366   2.748  10.076 -1.6357 -0.1439 -1.0487
  387MPD2    H3 5843   4.218   2.601   9.961  0.3539 -0.6745 -0.7449
  387MPD2     N 5844   4.451   2.231  10.103 -0.2365  0.1925 -0.2991
  387MPD2    H5 5845   4.540   2.217  10.149  0.8418 -0.6261 -2.6056
  387MPD2    N1 5846   4.589   2.662  10.214  0.5236 -0.0013  0.0223
  387MPD2    H7 5847   4.673   2.617  10.249  0.2882 -0.9850 -0.6662
  388TMC3    C1 5848   0.009   2.837  10.200 -0.7055  0.2412 -0.3155
  388TMC3    C2 5849   0.042   2.965  10.236  0.0854 -0.1022 -0.0478
  388TMC3    C3 5850   0.174   3.002  10.232  0.3182  0.1089 -0.3643
  388TMC3    C4 5851   0.096   2.747  10.156 -0.2289 -0.7191  0.2615
  388TMC3    C5 5852   0.227   2.787  10.151 -0.1081  0.3325 -0.1085
  388TMC3    C6 5853   0.267   2.911  10.196 -0.3303  0.3747  0.4447
  388TMC3     C 5854   4.609   2.795  10.190  0.6056 -0.0967 -0.1940
  388TMC3     O 5855   4.530   2.885  10.175 -0.3940  0.6685  0.3052
  388TMC3     H 5856   4.698   3.026  10.269  2.0868  1.8703  1.3276
  388TMC3    H1 5857   0.063   2.653  10.113 -2.5687 -0.3386  1.2649
  388TMC3    H2 5858   0.373   2.931  10.199 -0.2230 -0.1932  0.4392
  388TMC3    C7 5859   0.325   2.684  10.127 -0.6071  0.7742 -0.6622
  388TMC3    C8 5860   0.215   3.142  10.245 -0.5608  0.2025 -0.0331
  388TMC3    O1 5861   0.437   2.723  10.093 -0.4593 -0.2266  0.1818
  388TMC3    O2 5862   0.328   3.172  10.209 -0.0986  0.3875  0.5402
  389MPD2     C 5863   3.996   0.932  10.908  0.3689 -0.4299 -0.3049
  389MPD2    C1 5864   3.902   0.838  10.874 -0.1772 -0.2153 -0.2106
  389MPD2    C2 5865   3.867   0.742  10.965  0.2511 -0.0944 -0.7786
  389MPD2    C3 5866   3.924   0.733  11.085  0.3193  0.0108 -0.7202
  389MPD2    C4 5867   4.001   0.833  11.127 -0.0359 -0.0176  0.0641
  389MPD2    C5 5868   4.042   0.927  11.039 -0.4946  0.0172 -0.1486
  389MPD2     H 5869   3.796   0.666  10.932  1.6134 -1.6847 -0.0248
  389MPD2    H1 5870   4.031   0.842  11.230  0.6489  1.2487 -0.2525
  389MPD2    H2 5871   4.021   1.016  10.843 -1.7126 -0.0795 -0.6415
  389MPD2    H3 5872   4.107   1.008  11.070 -0.1041 -0.8082  1.1877
  389MPD2     N 5873   3.881   0.635  11.174  0.0469  0.0057 -0.4917
  389MPD2    H5 5874   3.932   0.629  11.262  0.7949 -0.2394 -0.9387
  389MPD2    N1 5875   3.854   0.846  10.747  0.1800 -0.0419  0.5754
  389MPD2    H7 5876   3.895   0.919  10.689 -3.3651 -0.1885 -2.1018
  390TMC3    C1 5877   3.750   0.487  11.285 -0.2519  0.4147 -0.3827
  390TMC3    C2 5878   3.706   0.356  11.294 -0.1800 -0.1395  0.3939
  390TMC3    C3 5879   3.699   0.297  11.413  0.6196 -0.5131 -0.1890
  390TMC3    C4 5880   3.767   0.562  11.399 -0.6193  0.4231  0.9396
  390TMC3    C5 5881   3.760   0.494  11.519  0.3623  0.2590 -0.1692
  390TMC3    C6 5882   3.721   0.363  11.532 -0.1798 -0.0507  0.3515
  390TMC3     C 5883   3.778   0.546  11.157 -0.1351  0.3849  0.9283
  390TMC3     O 5884   3.699   0.532  11.062  0.0467 -0.2073  0.4774
  390TMC3     H 5885   3.698   0.294  11.206 -0.4982 -2.0946  1.8019
  390TMC3    H1 5886   3.781   0.669  11.397  2.9253 -0.0728 -0.5236
  390TMC3    H2 5887   3.731   0.320  11.631  1.1536 -0.3664  0.0888
  390TMC3    C7 5888   3.722   0.589  11.630  0.5097  0.0187 -0.0367
  390TMC3    C8 5889   3.638   0.168  11.414  0.1064  0.4360  0.1328
  390TMC3    O1 5890   3.719   0.711  11.609  0.5607  0.1403  0.2050
  390TMC3    O2 5891   3.628   0.110  11.306  0.1286 -0.5905  0.0029
  391MPD2     C 5892   3.163   2.124  11.541 -0.4762  0.1289  0.0925
  391MPD2    C1 5893   3.260   2.213  11.502 -0.8775 -0.3268  0.2131
  391MPD2    C2 5894   3.279   2.247  11.363 -0.0782 -0.2482 -0.6129
  391MPD2    C3 5895   3.207   2.183  11.266 -0.0466  0.0223  0.1231
  391MPD2    C4 5896   3.114   2.091  11.311  0.1109  0.5722 -0.1498
  391MPD2    C5 5897   3.084   2.072  11.442 -0.5771  0.6806  0.0902
  391MPD2     H 5898   3.357   2.317  11.334  0.9187 -0.4431  1.5845
  391MPD2    H1 5899   3.056   2.038  11.236 -0.3313  0.5066  0.2334
  391MPD2    H2 5900   3.136   2.106  11.644 -1.2441 -0.1833 -0.1697
  391MPD2    H3 5901   3.011   1.997  11.472 -0.3855  0.8344  0.9462
  391MPD2     N 5902   3.217   2.207  11.125 -0.3416  0.0591 -0.4721
  391MPD2    H5 5903   3.293   2.268  11.099  0.5675 -0.6507  0.5296
  391MPD2    N1 5904   3.329   2.280  11.603  0.2394 -0.4518  0.3990
  391MPD2    H7 5905   3.300   2.258  11.697  2.4714  1.1792  1.4776
  392TMC3    C1 5906   3.176   2.196  10.887 -0.0674 -0.4800  0.4471
  392TMC3    C2 5907   3.104   2.147  10.778  0.2801 -0.3490 -0.3153
  392TMC3    C3 5908   3.104   2.220  10.663 -0.0667  0.5988  0.0323
  392TMC3    C4 5909   3.251   2.315  10.880 -0.1839  0.1481  0.1291
  392TMC3    C5 5910   3.249   2.386  10.760  0.1175 -0.4631 -0.0793
  392TMC3    C6 5911   3.175   2.345  10.652 -0.1304  0.4425 -0.0597
  392TMC3     C 5912   3.150   2.142  11.019  0.4172 -0.0070  0.0167
  392TMC3     O 5913   3.070   2.049  11.021 -0.0908 -0.7131  0.8624
  392TMC3     H 5914   3.048   2.054  10.782  2.8184 -1.8384  0.9085
  392TMC3    H1 5915   3.315   2.358  10.956  2.2974  1.8553 -2.9097
  392TMC3    H2 5916   3.155   2.407  10.566 -2.1171 -1.3604 -0.9011
  392TMC3    C7 5917   3.329   2.506  10.740  0.3767  0.0113  0.4428
  392TMC3    C8 5918   2.997   2.217  10.571  0.5940  0.0104 -0.2805
  392TMC3    O1 5919   3.331   2.587  10.833 -0.0455  0.1632 -0.1703
  392TMC3    O2 5920   2.885   2.210  10.614 -1.1379  0.0624  0.1019
  393TMC3    C1 5921   1.864   0.298  11.187 -0.7063  0.1041  0.5744
  393TMC3    C2 5922   1.766   0.386  11.218 -0.2262 -0.6504 -0.5765
  393TMC3    C3 5923   1.687   0.352  11.319  0.2284 -0.1693 -0.0029
  393TMC3    C4 5924   1.899   0.202  11.275 -0.3379  0.0966  0.4137
  393TMC3    C5 5925   1.833   0.186  11.389  0.0916  0.3687 -0.0476
  393TMC3    C6 5926   1.724   0.265  11.417 -0.4452  0.4482 -0.5824
  393TMC3     C 5927   1.977   0.374  11.124 -0.4109 -0.0727 -0.7686
  393TMC3     O 5928   1.946   0.461  11.044 -0.1819  0.4609  0.3651
  393TMC3     H 5929   1.745   0.451  11.134  1.3849  1.9419  1.0217
  393TMC3    H1 5930   1.965   0.121  11.248 -0.9251 -0.3162  0.2111
  393TMC3    H2 5931   1.669   0.267  11.510 -0.8260  1.9873 -0.8314
  393TMC3    C7 5932   1.869   0.076  11.483  0.4918  0.0886  0.0207
  393TMC3    C8 5933   1.564   0.422  11.338 -0.3947 -0.4568 -0.4218
  393TMC3    O1 5934   1.774   0.025  11.539  0.3328 -0.5028 -0.2216
  393TMC3    O2 5935   1.538   0.532  11.289  0.2600  0.6917 -0.4848
  394TMC3    C1 5936   3.736   0.786  10.540  0.6934  0.5867 -0.4385
  394TMC3    C2 5937   3.620   0.752  10.477  0.1429  0.6165 -0.4243
  394TMC3    C3 5938   3.625   0.741  10.336  0.5536 -0.4544  0.0785
  394TMC3    C4 5939   3.846   0.823  10.469 -0.0319 -0.2403 -0.4687
  394TMC3    C5 5940   3.846   0.816  10.335 -0.2396 -0.2250 -0.3460
  394TMC3    C6 5941   3.737   0.788  10.261  0.2317 -0.7975 -0.1538
  394TMC3     C 5942   3.752   0.772  10.689 -0.0575  0.0606  0.6460
  394TMC3     O 5943   3.677   0.696  10.748  0.8353  0.2376 -0.2782
  394TMC3     H 5944   3.542   0.705  10.536 -0.3365  1.6259 -0.2580
  394TMC3    H1 5945   3.943   0.845  10.514 -0.5025 -0.6202  0.7200
  394TMC3    H2 5946   3.737   0.780  10.153 -0.5703  1.3925 -0.3053
  394TMC3    C7 5947   3.929   0.917  10.272  0.3005  0.4120  0.2466
  394TMC3    C8 5948   3.508   0.672  10.279  0.3024  0.2962  0.2805
  394TMC3    O1 5949   3.876   0.999  10.201 -0.3396  0.5958 -0.4273
  394TMC3    O2 5950   3.414   0.633  10.345  0.0438  0.3652  0.7805
  395TMC3    C1 5951   3.446   2.689  14.372 -0.5051 -0.3909  0.1796
  395TMC3    C2 5952   3.362   2.702  14.484  0.3045 -0.1710  0.6037
  395TMC3    C3 5953   3.410   2.784  14.581  0.3824 -0.4981  0.0975
  395TMC3    C4 5954   3.567   2.753  14.356 -0.0168 -0.1300 -0.5115
  395TMC3    C5 5955   3.617   2.810  14.472  0.4851 -0.4064 -0.5217
  395TMC3    C6 5956   3.537   2.833  14.579  0.3044 -0.5622  0.0933
  395TMC3     C 5957   3.459   2.547  14.344 -0.6028 -0.5095 -0.3227
  395TMC3     O 5958   3.510   2.506  14.241  0.1724  0.0530 -0.2033
  395TMC3     H 5959   3.264   2.656  14.478 -0.8888  2.4639 -0.1469
  395TMC3    H1 5960   3.635   2.721  14.278  1.6257  0.3885  0.6874
  395TMC3    H2 5961   3.574   2.892  14.662  2.5577 -0.2669 -1.1109
  395TMC3    C7 5962   3.747   2.872  14.476  1.2745  0.0701  0.0303
  395TMC3    C8 5963   3.337   2.785  14.709  0.1555 -0.3731  0.0157
  395TMC3    O1 5964   3.794   2.906  14.586 -0.1794  0.2345 -0.1803
  395TMC3    O2 5965   3.404   2.770  14.813  0.4320  0.4365 -0.4376
  396MPD2     C 5966   3.302   3.038  16.846 -0.9101 -0.0397  0.0264
  396MPD2    C1 5967   3.371   3.122  16.932  0.1815  0.4597 -0.1589
  396MPD2    C2 5968   3.451   3.221  16.873 -0.0108 -0.1401 -0.1822
  396MPD2    C3 5969   3.445   3.244  16.732  0.1187 -0.3641 -0.2680
  396MPD2    C4 5970   3.366   3.160  16.656  0.6285  0.4144 -0.4100
  396MPD2    C5 5971   3.305   3.053  16.711  0.4200 -0.3758 -0.1798
  396MPD2     H 5972   3.508   3.290  16.934  0.0576 -0.6608  0.3472
  396MPD2    H1 5973   3.351   3.167  16.549 -1.0131 -0.0042 -0.1967
  396MPD2    H2 5974   3.256   2.951  16.891 -0.1723 -1.4404 -1.9357
  396MPD2    H3 5975   3.242   2.999  16.642  1.4255  0.1279 -1.4881
  396MPD2     N 5976   3.509   3.361  16.682  0.4937 -0.7837 -0.3986
  396MPD2    H5 5977   3.561   3.422  16.744  0.3496 -1.2470  0.1761
  396MPD2    N1 5978   3.380   3.083  17.073 -0.0733 -0.2930  0.1333
  396MPD2    H7 5979   3.346   2.988  17.088 -1.9846  0.4337  0.3836
  397TMC3    C1 5980   3.504   3.057  17.261  0.2835  0.2156 -0.6418
  397TMC3    C2 5981   3.636   3.022  17.241 -0.2391  0.3432 -0.1130
  397TMC3    C3 5982   3.663   2.890  17.205  0.7163 -0.3543 -0.2934
  397TMC3    C4 5983   3.414   2.962  17.282 -0.6222 -0.2092  0.3240
  397TMC3    C5 5984   3.452   2.832  17.290 -0.4032  0.3108  0.0783
  397TMC3    C6 5985   3.574   2.793  17.239 -0.0644  0.5085 -0.3237
  397TMC3     C 5986   3.455   3.153  17.165 -0.1728  0.1696 -0.3656
  397TMC3     O 5987   3.530   3.251  17.155 -0.0987  0.3559  0.7359
  397TMC3     H 5988   3.690   3.110  17.208  0.6161 -0.1598 -0.0650
  397TMC3    H1 5989   3.312   2.987  17.307 -0.8418 -1.2296  0.4424
  397TMC3    H2 5990   3.591   2.688  17.218  2.1645  1.4685 -3.2911
  397TMC3    C7 5991   3.387   2.740  17.390  0.8822  0.4701 -1.5722
  397TMC3    C8 5992   3.705   2.865  17.067 -0.1560 -0.2775  0.2057
  397TMC3    O1 5993   3.417   2.619  17.391 -0.4857 -0.1101 -0.5851
  397TMC3    O2 5994   3.629   2.800  16.997 -0.1578 -0.3268  0.3840
  398MPD2     C 5995   1.384   4.446   0.072  0.6754 -0.0461  0.8435
  398MPD2    C1 5996   1.482   4.451   0.166 -1.2924 -0.2718 -0.2081
  398MPD2    C2 5997   1.603   4.519   0.136 -0.0197 -0.0378 -0.4013
  398MPD2    C3 5998   1.624   4.589   0.025  0.2642 -0.3330  0.1301
  398MPD2    C4 5999   1.519   4.593  17.695 -0.1007  0.2854  0.3134
  398MPD2    C5 6000   1.403   4.525  17.719 -0.0935  0.2532  0.0820
  398MPD2     H 6001   1.685   4.507   0.205  0.2557 -0.8083 -0.8613
  398MPD2    H1 6002   1.524   4.645  17.600 -1.3598 -2.8052 -1.4338
  398MPD2    H2 6003   1.289   4.394   0.078  0.5397  0.1073 -0.0508
  398MPD2    H3 6004   1.321   4.535  17.649  1.0431  0.5256 -1.2006
  398MPD2     N 6005   1.752   4.649  17.750 -0.0248  0.3480  0.6310
  398MPD2    H5 6006   1.821   4.648   0.070  0.5217 -0.2990  0.1226
  398MPD2    N1 6007   1.469   4.375   0.289  0.0727 -0.7477  0.6181
  398MPD2    H7 6008   1.547   4.369   0.355  0.0578 -0.6397  0.6454
  399TMC3    C1 6009   1.357   4.207   0.444 -0.5910 -0.1791 -0.2045
  399TMC3    C2 6010   1.475   4.183   0.501 -0.2060 -0.3544  0.2948
  399TMC3    C3 6011   1.489   4.069   0.566  1.0570  0.0611  0.2085
  399TMC3    C4 6012   1.245   4.120   0.443  0.0826  0.1618 -0.2574
  399TMC3    C5 6013   1.278   4.000   0.499 -0.2468 -0.0422 -0.3492
  399TMC3    C6 6014   1.392   3.971   0.559 -0.7913  0.1482 -0.2893
  399TMC3     C 6015   1.359   4.303   0.327 -0.2529 -0.1223  0.5717
  399TMC3     O 6016   1.243   4.321   0.289 -0.4295 -0.0609  0.0274
  399TMC3     H 6017   1.555   4.256   0.506 -0.1664 -0.4356  0.8171
  399TMC3    H1 6018   1.150   4.135   0.393 -1.1162  0.4340  2.0953
  399TMC3    H2 6019   1.414   3.868   0.580  1.9284  0.9917  1.0305
  399TMC3    C7 6020   1.205   3.884   0.453 -0.3383 -0.0989 -1.0302
  399TMC3    C8 6021   1.625   4.025   0.596  0.3200  0.1561  0.0288
  399TMC3    O1 6022   1.189   3.797   0.539  0.3799  0.2319  0.8442
  399TMC3    O2 6023   1.720   4.073   0.535  0.1523  0.2078 -0.2155
  400TMC3    C1 6024   4.590   2.237  16.576  0.4365  0.2483 -0.0789
  400TMC3    C2 6025   4.456   2.231  16.589  0.0224 -0.7582 -0.1178
  400TMC3    C3 6026   4.400   2.339  16.651  0.0741 -0.3311 -0.0008
  400TMC3    C4 6027   4.672   2.342  16.625  0.2314  1.1015 -0.0270
  400TMC3    C5 6028   4.612   2.447  16.689  0.2074  0.4146 -0.3520
  400TMC3    C6 6029   4.475   2.439  16.705  0.4602 -0.0829 -0.4480
  400TMC3     C 6030   4.657   2.152  16.487 -0.2022  0.1700  0.3801
  400TMC3     O 6031   0.029   2.116  16.522 -0.5488  0.2047 -0.3323
  400TMC3     H 6032   4.398   2.140  16.580  1.4885 -1.8238  1.3500
  400TMC3    H1 6033   0.035   2.344  16.588  0.1921 -1.0191 -0.2627
  400TMC3    H2 6034   4.427   2.512  16.770  1.0494 -0.9095  0.9202
  400TMC3    C7 6035   4.676   2.575  16.675 -0.0839  0.0152  0.1891
  400TMC3    C8 6036   4.257   2.344  16.674 -0.1645  0.0601 -0.2777
  400TMC3    O1 6037   0.029   2.579  16.596  0.0032  0.1398 -0.1538
  400TMC3    O2 6038   4.212   2.378  16.784 -0.0784  0.4948 -0.0084
  401MPD2     C 6039   2.256   1.517   0.246 -0.8710  0.5782 -1.1350
  401MPD2    C1 6040   2.341   1.454   0.332  0.3172  0.0250 -0.3440
  401MPD2    C2 6041   2.313   1.321   0.371  0.4638 -0.6403  0.1391
  401MPD2    C3 6042   2.210   1.252   0.321 -0.1584 -0.0674  0.7393
  401MPD2    C4 6043   2.119   1.315   0.235  0.3727 -0.6217 -0.1046
  401MPD2    C5 6044   2.148   1.442   0.193  0.4741 -0.3196 -0.9753
  401MPD2     H 6045   2.393   1.270   0.425  2.1290  2.2918  0.4470
  401MPD2    H1 6046   2.047   1.257   0.177  0.5789  0.5784 -1.5489
  401MPD2    H2 6047   2.280   1.615   0.206 -2.0629  1.4220  0.2055
  401MPD2    H3 6048   2.086   1.487   0.117 -1.1793 -0.5581  0.2325
  401MPD2     N 6049   2.209   1.114   0.351  0.6950 -0.1131 -0.1630
  401MPD2    H5 6050   2.282   1.068   0.404  0.8856  1.3858  0.8553
  401MPD2    N1 6051   2.462   1.511   0.382 -0.3929 -0.7772 -0.4749
  401MPD2    H7 6052   2.519   1.461   0.449 -1.1228 -4.0264 -2.3029
  402TMC3    C1 6053   2.135   0.904   0.386 -0.2625  0.2978  0.3230
  402TMC3    C2 6054   2.230   0.913   0.486  0.4966 -0.4429 -1.1216
  402TMC3    C3 6055   2.318   0.811   0.503 -0.5491  0.8185  0.3609
  402TMC3    C4 6056   2.133   0.806   0.294  0.3015 -0.3298 -0.1590
  402TMC3    C5 6057   2.221   0.701   0.315 -0.2055  0.1984  0.2954
  402TMC3    C6 6058   2.312   0.702   0.418 -0.0985 -0.0369  0.3073
  402TMC3     C 6059   2.111   1.029   0.321  0.5836 -1.2559 -0.0264
  402TMC3     O 6060   2.003   1.050   0.263  0.5566 -0.0783  0.5830
  402TMC3     H 6061   2.213   0.986   0.565  1.1853  0.7446 -2.0703
  402TMC3    H1 6062   2.072   0.808   0.204  0.4807 -0.1473 -0.2768
  402TMC3    H2 6063   2.377   0.617   0.436 -1.1811 -0.5136  1.9323
  402TMC3    C7 6064   2.230   0.596   0.217 -0.4793 -0.3231  0.1273
  402TMC3    C8 6065   2.420   0.831   0.605 -1.0664  0.4065  0.2857
  402TMC3    O1 6066   2.127   0.601   0.143  0.3943  0.0781  0.4944
  402TMC3    O2 6067   2.513   0.757   0.588 -0.0063 -0.5647 -0.0419
  403MPD2     C 6068   1.546   4.352  13.082  0.3283 -1.2231 -0.5688
  403MPD2    C1 6069   1.556   4.264  13.193  0.0726  0.1032  0.5011
  403MPD2    C2 6070   1.671   4.266  13.273 -0.9399  0.7927 -0.3393
  403MPD2    C3 6071   1.773   4.354  13.251  0.1669 -0.2116  0.1876
  403MPD2    C4 6072   1.756   4.443  13.149  0.3673  0.2772 -0.3527
  403MPD2    C5 6073   1.646   4.444  13.066  0.5494  0.0193  0.9712
  403MPD2     H 6074   1.673   4.195  13.355  0.2368 -0.4999 -1.4958
  403MPD2    H1 6075   1.836   4.516  13.143 -0.3631  1.1788  0.7316
  403MPD2    H2 6076   1.463   4.352  13.013 -2.4833 -1.0226  2.8282
  403MPD2    H3 6077   1.641   4.515  12.984 -1.6340  0.9174  1.8576
  403MPD2     N 6078   1.885   4.361  13.333 -0.0731 -1.2782  0.0442
  403MPD2    H5 6079   1.952   4.431  13.302 -1.3727  0.0702  0.2975
  403MPD2    N1 6080   1.455   4.168  13.222 -0.0371 -0.3098  0.1058
  403MPD2    H7 6081   1.484   4.098  13.289 -0.0782  1.0402  1.5466
  404TMC3    C1 6082   1.243   4.073  13.250  0.2347 -0.6010 -0.1752
  404TMC3    C2 6083   1.255   4.070  13.384  0.1329 -0.2029  0.2756
  404TMC3    C3 6084   1.162   4.012  13.461 -0.0511 -0.0905 -0.3768
  404TMC3    C4 6085   1.128   4.025  13.180 -0.5177  0.3761  0.3840
  404TMC3    C5 6086   1.046   3.962  13.269 -0.1809 -0.5184  0.2688
  404TMC3    C6 6087   1.061   3.944  13.403  1.7785  0.2012  0.2400
  404TMC3     C 6088   1.325   4.172  13.177 -0.1462 -0.2483  0.4511
  404TMC3     O 6089   1.280   4.242  13.087 -0.1172 -0.3072 -0.3187
  404TMC3     H 6090   1.331   4.128  13.434  1.8099 -1.2122 -1.1162
  404TMC3    H1 6091   1.108   4.054  13.077  3.1358  0.6158 -0.2330
  404TMC3    H2 6092   0.986   3.898  13.466 -2.0592  1.4080 -3.4796
  404TMC3    C7 6093   0.913   3.925  13.226  0.1663 -0.6231 -0.4874
  404TMC3    C8 6094   1.180   3.981  13.601  0.3006  0.2980  0.4897
  404TMC3    O1 6095   0.856   3.843  13.296  0.2956 -0.5889 -0.1636
  404TMC3    O2 6096   1.095   3.929  13.669 -0.4141 -0.3296 -0.1128
  405MPD2     C 6097   1.932   0.609  14.494  0.0775  0.3377  0.0130
  405MPD2    C1 6098   1.848   0.533  14.418  0.5679  0.1031 -0.6685
  405MPD2    C2 6099   1.717   0.582  14.395  0.1110  0.7154  0.1762
  405MPD2    C3 6100   1.664   0.683  14.470  0.3641  0.3269  0.9423
  405MPD2    C4 6101   1.744   0.761  14.553  0.8348  0.2658 -0.1426
  405MPD2    C5 6102   1.881   0.726  14.558 -0.5707  0.4956  0.3910
  405MPD2     H 6103   1.645   0.543  14.325  2.6773  2.0506 -3.1928
  405MPD2    H1 6104   1.697   0.834  14.617 -0.0443  0.4001 -0.9228
  405MPD2    H2 6105   2.035   0.585  14.515  0.1978  1.3328  0.6037
  405MPD2    H3 6106   1.950   0.786  14.618  3.0361 -1.3028 -1.9637
  405MPD2     N 6107   1.524   0.706  14.444  0.2698 -0.4043 -0.1844
  405MPD2    H5 6108   1.479   0.632  14.390 -0.9228  0.0473  0.1825
  405MPD2    N1 6109   1.897   0.413  14.365  0.3504 -0.2521  0.2191
  405MPD2    H7 6110   1.995   0.389  14.379  0.1823 -1.0207  0.1009
  406TMC3    C1 6111   1.096   0.848  14.448  0.2568 -0.0682 -0.1108
  406TMC3    C2 6112   1.054   0.719  14.441  0.2109 -0.2455 -0.7871
  406TMC3    C3 6113   1.144   0.625  14.475 -1.0194  0.3951  0.2025
  406TMC3    C4 6114   1.227   0.881  14.463  0.0583  0.4423 -0.0699
  406TMC3    C5 6115   1.312   0.779  14.482 -0.3832 -0.0496  0.0517
  406TMC3    C6 6116   1.275   0.655  14.498 -0.1261 -0.2838 -0.3693
  406TMC3     C 6117   1.006   0.950  14.424  0.2540 -0.0560  0.3016
  406TMC3     O 6118   1.021   1.058  14.478 -0.5724 -0.1092 -0.6780
  406TMC3     H 6119   0.952   0.687  14.424  0.1406 -0.4230 -0.0502
  406TMC3    H1 6120   1.254   0.985  14.457 -0.5295  0.5150 -1.3435
  406TMC3    H2 6121   1.350   0.580  14.522 -1.2801 -1.3765 -0.1397
  406TMC3    C7 6122   1.453   0.814  14.491  0.2073  0.1705  0.4214
  406TMC3    C8 6123   1.117   0.492  14.427  0.9198  0.3047 -0.3214
  406TMC3    O1 6124   1.494   0.919  14.536 -0.4566  0.0948  0.0199
  406TMC3    O2 6125   1.021   0.436  14.477 -0.2920 -0.3204 -0.0852
  407MPD2     C 6126   4.100   2.249   9.498  0.2348  0.5568 -0.4433
  407MPD2    C1 6127   4.154   2.261   9.625 -0.1354  1.0091  0.0973
  407MPD2    C2 6128   4.075   2.283   9.732  0.2288 -0.3765 -0.2257
  407MPD2    C3 6129   3.941   2.302   9.721 -0.0793  1.2688  0.4384
  407MPD2    C4 6130   3.879   2.283   9.604  0.2145 -0.1565 -0.7196
  407MPD2    C5 6131   3.963   2.252   9.496 -0.0674 -0.1368  0.0830
  407MPD2     H 6132   4.123   2.291   9.829  2.7418 -1.7749 -1.3640
  407MPD2    H1 6133   3.771   2.284   9.596  0.1835  1.9954 -0.0732
  407MPD2    H2 6134   4.164   2.212   9.419  0.8572 -1.6916  1.1038
  407MPD2    H3 6135   3.915   2.219   9.404  0.6062 -1.0644  0.0730
  407MPD2     N 6136   3.868   2.345   9.828 -0.0446 -0.0724  0.3189
  407MPD2    H5 6137   3.778   2.385   9.805 -0.4622 -2.3941 -2.0660
  407MPD2    N1 6138   4.291   2.265   9.662 -0.2773  0.1922 -0.4460
  407MPD2    H7 6139   4.311   2.282   9.760  0.6056  3.1617 -1.1443
  408TMC3    C1 6140   4.538   2.266   9.654  0.6621  0.3033 -0.2977
  408TMC3    C2 6141   4.648   2.204   9.619 -0.0660  0.5329 -0.3285
  408TMC3    C3 6142   0.020   2.217   9.702  0.3798  0.6500  0.1924
  408TMC3    C4 6143   4.535   2.361   9.753  0.6356 -0.2775  0.3588
  408TMC3    C5 6144   4.650   2.378   9.826 -0.1807 -1.0722 -0.6711
  408TMC3    C6 6145   0.020   2.303   9.809  0.2360 -0.0730 -0.4555
  408TMC3     C 6146   4.408   2.242   9.586 -0.3056  1.0239  0.0277
  408TMC3     O 6147   4.412   2.180   9.483  0.0547  0.2795 -0.0869
  408TMC3     H 6148   4.654   2.135   9.536  0.0467  0.2792 -0.1094
  408TMC3    H1 6149   4.441   2.403   9.786  0.4975  0.4029 -0.8797
  408TMC3    H2 6150   0.106   2.316   9.874  0.7503 -3.8571 -0.3551
  408TMC3    C7 6151   4.674   2.514   9.874  0.3168  0.5727  0.5170
  408TMC3    C8 6152   0.133   2.147   9.661  0.3231 -0.0758 -0.4315
  408TMC3    O1 6153   0.037   2.525   9.944  0.0482  0.3414 -0.6357
  408TMC3    O2 6154   0.116   2.038   9.599  0.2546  0.8177  0.2351
  409MPD2     C 6155   3.353   2.253  16.866 -0.4013  0.5978  0.1351
  409MPD2    C1 6156   3.459   2.246  16.944  0.0552 -0.9641 -0.3577
  409MPD2    C2 6157   3.567   2.325  16.911 -0.5770  0.1230  0.1515
  409MPD2    C3 6158   3.564   2.414  16.802 -0.6408 -0.4746  0.3029
  409MPD2    C4 6159   3.461   2.407  16.712 -0.5523 -0.0845 -0.8665
  409MPD2    C5 6160   3.353   2.332  16.750  0.1940  0.1463 -0.1353
  409MPD2     H 6161   3.651   2.333  16.978 -0.6060 -0.3953  0.2492
  409MPD2    H1 6162   3.458   2.463  16.620  0.2774 -0.6362 -1.2272
  409MPD2    H2 6163   3.262   2.193  16.875 -0.0543  0.0650  0.0946
  409MPD2    H3 6164   3.268   2.318  16.684 -0.3344  0.3883  0.4977
  409MPD2     N 6165   3.662   2.510  16.777 -0.1727  0.1496 -0.3999
  409MPD2    H5 6166   3.655   2.573  16.698 -0.9277  1.5765  0.8087
  409MPD2    N1 6167   3.472   2.156  17.058 -0.2469  0.4173  0.0905
  409MPD2    H7 6168   3.561   2.155  17.107  0.5272  1.2835 -1.3059
  410TMC3    C1 6169   3.852   2.625  16.804 -0.0620 -0.2086 -0.2207
  410TMC3    C2 6170   3.961   2.657  16.878  0.1231 -0.2871  0.1198
  410TMC3    C3 6171   4.041   2.755  16.829  0.7807 -0.2687 -0.3255
  410TMC3    C4 6172   3.849   2.651  16.672 -0.0627  0.5774 -0.4478
  410TMC3    C5 6173   3.947   2.730  16.621 -0.4016 -0.2637 -0.2145
  410TMC3    C6 6174   4.040   2.794  16.699 -0.1660 -0.3911  0.8405
  410TMC3     C 6175   3.767   2.535  16.867  0.8212 -0.2000  0.2235
  410TMC3     O 6176   3.795   2.489  16.975  0.0696  0.2272 -0.3171
  410TMC3     H 6177   3.961   2.635  16.985  0.1929  0.5422  0.2942
  410TMC3    H1 6178   3.784   2.596  16.605 -1.3706  0.0029  1.3075
  410TMC3    H2 6179   4.115   2.863  16.662 -2.4723  1.6614  0.0020
  410TMC3    C7 6180   3.944   2.753  16.473  0.3205  1.0272 -0.6721
  410TMC3    C8 6181   4.159   2.773  16.912  0.2290 -0.2316  0.1447
  410TMC3    O1 6182   3.874   2.680  16.404 -0.4384  0.2597 -0.6932
  410TMC3    O2 6183   4.210   2.881  16.904  0.4147  0.4047 -0.1547
  411MPD2     C 6184   4.114   3.618  14.386  0.3301  0.4117 -0.0890
  411MPD2    C1 6185   4.063   3.574  14.503 -0.7804 -0.3571 -0.1293
  411MPD2    C2 6186   3.946   3.504  14.520  0.4647 -0.0930 -0.6205
  411MPD2    C3 6187   3.875   3.468  14.411  0.3282 -0.1434  0.0162
  411MPD2    C4 6188   3.928   3.505  14.284  0.3715 -0.3194  0.6636
  411MPD2    C5 6189   4.043   3.580  14.275  0.3594  0.2471  0.6909
  411MPD2     H 6190   3.895   3.482  14.614 -2.0534  0.0045 -1.9499
  411MPD2    H1 6191   3.877   3.491  14.189  0.4036  2.8610  0.1722
  411MPD2    H2 6192   4.214   3.660  14.382  0.9876 -1.1083  0.2884
  411MPD2    H3 6193   4.085   3.622  14.184 -0.0476  3.7284  2.1166
  411MPD2     N 6194   3.750   3.414  14.419  0.1550  0.2047 -0.4196
  411MPD2    H5 6195   3.693   3.427  14.335 -1.2646  0.0107  0.5138
  411MPD2    N1 6196   4.124   3.627  14.618  0.7961  0.4683 -0.4006
  411MPD2    H7 6197   4.202   3.686  14.593  1.0449  1.2604  2.2501
  412TMC3    C1 6198   3.555   3.324  14.502  1.1177 -0.8344  0.2694
  412TMC3    C2 6199   3.492   3.416  14.434  0.2747 -1.0676  0.0560
  412TMC3    C3 6200   3.401   3.383  14.340  0.9908 -0.3783  0.3339
  412TMC3    C4 6201   3.523   3.193  14.480 -0.2130  0.3161  0.5623
  412TMC3    C5 6202   3.414   3.169  14.402  0.0007 -0.1891  0.0421
  412TMC3    C6 6203   3.338   3.264  14.346  0.0021 -0.0499  0.4990
  412TMC3     C 6204   3.691   3.354  14.532 -0.4309  0.7056  0.3337
  412TMC3     O 6205   3.745   3.300  14.630 -0.2889  0.2735  0.6083
  412TMC3     H 6206   3.529   3.518  14.433 -0.2807 -0.8574  1.1229
  412TMC3    H1 6207   3.575   3.108  14.520 -0.7498  0.1579  0.9251
  412TMC3    H2 6208   3.268   3.243  14.266  0.3548  0.3107  0.1001
  412TMC3    C7 6209   3.434   3.072  14.292  0.1741  0.1804 -0.0171
  412TMC3    C8 6210   3.445   3.417  14.207  0.2042 -0.6314 -0.0285
  412TMC3    O1 6211   3.340   2.999  14.265 -0.4665 -0.2464 -0.2474
  412TMC3    O2 6212   3.569   3.420  14.203 -0.3082 -0.1595  0.5129
  413MPD2     C 6213   0.746   1.073  15.788 -0.0253  0.3522 -0.0810
  413MPD2    C1 6214   0.713   1.098  15.654  0.3244 -0.0569 -1.0571
  413MPD2    C2 6215   0.802   1.061  15.555  0.4855  0.1789  0.3101
  413MPD2    C3 6216   0.917   0.993  15.588 -0.1836  0.7992 -0.5795
  413MPD2    C4 6217   0.950   0.956  15.721 -0.1723 -0.2630  0.3906
  413MPD2    C5 6218   0.866   1.006  15.824  0.1152 -0.0006  0.0557
  413MPD2     H 6219   0.787   1.083  15.450  0.1931 -1.2474  0.0430
  413MPD2    H1 6220   1.037   0.899  15.752 -0.9915 -1.2478  0.8936
  413MPD2    H2 6221   0.682   1.127  15.857 -0.1374 -0.3906  0.3945
  413MPD2    H3 6222   0.886   0.977  15.926  0.0691  0.9800  0.3398
  413MPD2     N 6223   1.001   0.958  15.481 -0.4284 -0.4747  0.0238
  413MPD2    H5 6224   0.964   0.988  15.391  0.4178  0.3400 -0.0519
  413MPD2    N1 6225   0.595   1.177  15.624 -0.2540  0.2554  0.2450
  413MPD2    H7 6226   0.547   1.216  15.704  0.9165 -1.7335  1.9117
  414TMC3    C1 6227   1.168   0.856  15.365  0.2518  0.2502  0.1182
  414TMC3    C2 6228   1.269   0.761  15.363 -0.2468  0.2056 -0.1178
  414TMC3    C3 6229   1.320   0.726  15.243  0.4858  0.1758 -0.4518
  414TMC3    C4 6230   1.134   0.934  15.254 -0.8054 -0.3971  0.6784
  414TMC3    C5 6231   1.225   0.916  15.153 -0.3752  0.9697 -0.2003
  414TMC3    C6 6232   1.292   0.801  15.136 -0.6597 -0.0350  0.3728
  414TMC3     C 6233   1.112   0.878  15.492 -0.0973 -0.3003 -0.3656
  414TMC3     O 6234   1.158   0.825  15.594  0.0940 -0.1952 -0.0047
  414TMC3     H 6235   1.302   0.713  15.454 -0.1826  1.3292  0.4509
  414TMC3    H1 6236   1.067   1.020  15.253 -1.2508 -0.7344  1.2708
  414TMC3    H2 6237   1.362   0.794  15.053 -2.1163  0.6625 -0.9138
  414TMC3    C7 6238   1.301   1.036  15.136 -0.0264 -1.1106  0.2318
  414TMC3    C8 6239   1.448   0.669  15.236 -0.0923 -0.1096  0.4670
  414TMC3    O1 6240   1.273   1.132  15.206  0.5376 -0.0680 -0.0517
  414TMC3    O2 6241   1.465   0.591  15.141  0.0833 -0.5773  0.0178
  415TMC3    C1 6242   2.008   0.172  10.708  0.2648 -0.2921 -0.2304
  415TMC3    C2 6243   2.141   0.180  10.750 -0.7594 -0.7470 -0.3558
  415TMC3    C3 6244   2.233   0.226  10.661  0.4066 -0.0021 -0.0706
  415TMC3    C4 6245   1.971   0.200  10.577  0.3395  0.3393 -0.6050
  415TMC3    C5 6246   2.071   0.241  10.494  0.3130  0.4648 -0.5172
  415TMC3    C6 6247   2.199   0.254  10.531 -0.5199 -0.3234 -0.5237
  415TMC3     C 6248   1.898   0.176  10.803  0.4830 -0.9238 -0.3298
  415TMC3     O 6249   1.799   0.246  10.775  0.4592 -0.4527 -0.6471
  415TMC3     H 6250   2.177   0.161  10.851 -0.4299  2.2595  0.0925
  415TMC3    H1 6251   1.870   0.184  10.541  0.5233 -0.4282 -0.7759
  415TMC3    H2 6252   2.272   0.285  10.458  1.4615 -0.3708  1.4324
  415TMC3    C7 6253   2.041   0.245  10.355  0.1707 -0.2529  0.2204
  415TMC3    C8 6254   2.358   0.271  10.719 -0.3830 -0.0533 -0.2868
  415TMC3    O1 6255   2.110   0.180  10.279  0.5039 -0.0953  0.4807
  415TMC3    O2 6256   2.396   0.215  10.819 -0.3882 -0.0577  0.1749
  416MPD2     C 6257   3.075   3.301  11.247  1.1260  0.4369  0.3543
  416MPD2    C1 6258   3.060   3.219  11.352 -0.0214  0.5900  0.2786
  416MPD2    C2 6259   3.098   3.084  11.338 -0.0199 -0.1066  0.7683
  416MPD2    C3 6260   3.180   3.038  11.229  0.8236 -0.9165 -0.1194
  416MPD2    C4 6261   3.216   3.136  11.136  0.4393 -0.7205 -0.0239
  416MPD2    C5 6262   3.154   3.257  11.143 -0.3610 -0.7615  0.3370
  416MPD2     H 6263   3.076   3.012  11.416 -0.0565 -1.3409 -0.3623
  416MPD2    H1 6264   3.281   3.106  11.055  2.9125  0.7673  1.4044
  416MPD2    H2 6265   3.028   3.399  11.244 -2.0798 -1.0720  0.7469
  416MPD2    H3 6266   3.173   3.336  11.071  0.5905 -2.8243 -1.6672
  416MPD2     N 6267   3.204   2.900  11.206  0.0287  0.0562 -0.1857
  416MPD2    H5 6268   3.250   2.876  11.119 -2.1736  2.0517 -1.8950
  416MPD2    N1 6269   2.987   3.269  11.461 -0.0609 -0.3350 -0.4473
  416MPD2    H7 6270   2.962   3.367  11.454 -0.6544 -0.1174  4.4368
  417TMC3    C1 6271   2.840   3.276  11.643  0.1051 -0.0258  0.5242
  417TMC3    C2 6272   2.804   3.238  11.769  0.4404  0.0605 -0.4714
  417TMC3    C3 6273   2.716   3.320  11.845  0.5982  0.5337  0.0486
  417TMC3    C4 6274   2.763   3.370  11.573  0.0572  0.4814  0.1023
  417TMC3    C5 6275   2.661   3.435  11.651  0.2951 -0.4864  0.2607
  417TMC3    C6 6276   2.640   3.423  11.781  0.5659 -0.6374 -0.4171
  417TMC3     C 6277   2.939   3.199  11.570  0.2440 -0.0518 -0.5718
  417TMC3     O 6278   2.970   3.088  11.618 -0.3855  1.0522  0.0017
  417TMC3     H 6279   2.865   3.164  11.820 -2.0046 -1.2388  0.5532
  417TMC3    H1 6280   2.771   3.387  11.466 -0.9335 -1.8789 -0.3456
  417TMC3    H2 6281   2.573   3.494  11.829 -0.4070 -1.7328 -0.1397
  417TMC3    C7 6282   2.582   3.536  11.584 -0.3769 -0.5990 -0.2991
  417TMC3    C8 6283   2.730   3.330  11.987  0.3391  0.2183  0.5441
  417TMC3    O1 6284   2.646   3.584  11.491 -0.7141 -0.2201 -0.2945
  417TMC3    O2 6285   2.698   3.434  12.040 -0.7254 -0.3498  0.2983
  418TMC3    C1 6286   2.134   0.007  17.561 -0.6930 -0.9322 -0.3122
  418TMC3    C2 6287   2.006   0.004  17.524 -0.0362 -0.6602  0.0089
  418TMC3    C3 6288   1.923   0.020  17.633  0.6017 -1.1146  0.2499
  418TMC3    C4 6289   2.191   0.027  17.684 -0.2567  0.9216 -0.8266
  418TMC3    C5 6290   2.103   0.058   0.026 -0.0902  0.1683  0.1775
  418TMC3    C6 6291   1.968   0.048   0.005 -0.7976  0.0534  0.0667
  418TMC3     C 6292   2.220   4.699  17.459  0.1039 -0.7703  0.5615
  418TMC3     O 6293   2.194   4.722  17.341  0.1522 -0.2611  0.0914
  418TMC3     H 6294   1.959   4.718  17.429  1.3838  0.2110 -0.9199
  418TMC3    H1 6295   2.297   0.051  17.685  0.3039 -1.6184  0.2706
  418TMC3    H2 6296   1.894   0.092   0.071 -1.3791  1.5718 -1.5872
  418TMC3    C7 6297   2.134   0.064   0.163 -0.2262  0.4819 -0.0800
  418TMC3    C8 6298   1.799   4.698  17.629  1.0604 -0.6653 -0.4319
  418TMC3    O1 6299   2.040   0.050   0.244 -0.4713  0.2432  0.1757
  418TMC3    O2 6300   1.742   4.694  17.522  0.4539 -0.0565  0.9345
  419MPD2     C 6301   0.123   2.886  12.349 -0.4230 -0.2471 -0.2240
  419MPD2    C1 6302   0.155   3.021  12.351  0.5212 -0.1433  0.5010
  419MPD2    C2 6303   0.111   3.101  12.458  0.2869  1.3310  1.0597
  419MPD2    C3 6304   0.054   3.043  12.568  0.2766  1.0417  0.4549
  419MPD2    C4 6305   0.036   2.906  12.569  0.2282  0.2409  0.0132
  419MPD2    C5 6306   0.072   2.830  12.459 -0.3790 -0.4960  0.7008
  419MPD2     H 6307   0.128   3.207  12.442 -2.1712  1.2837 -1.8550
  419MPD2    H1 6308   0.001   2.855  12.658  0.4277 -1.4259 -0.8721
  419MPD2    H2 6309   0.156   2.823  12.267 -0.4598  2.7181 -2.4995
  419MPD2    H3 6310   0.048   2.724  12.456 -0.6580 -0.3816 -1.2833
  419MPD2     N 6311   0.017   3.125  12.674 -0.3037  0.0148  0.8038
  419MPD2    H5 6312   0.006   3.225  12.663  1.7943  0.0887 -0.7073
  419MPD2    N1 6313   0.214   3.093  12.244 -0.0977  0.2991 -0.8644
  419MPD2    H7 6314   0.242   3.189  12.261 -0.4794  0.5520 -1.6658
  420TMC3    C1 6315   4.705   3.181  12.897  0.6561 -0.3135  0.1379
  420TMC3    C2 6316   4.614   3.276  12.856 -0.1325 -0.0345 -0.1402
  420TMC3    C3 6317   4.595   3.374  12.950  0.0410 -0.1098  0.1004
  420TMC3    C4 6318   0.029   3.178  13.016 -0.4311 -0.0314  0.0049
  420TMC3    C5 6319   4.735   3.266  13.109  0.2648  0.2798 -0.7201
  420TMC3    C6 6320   4.647   3.368  13.077 -0.8563 -0.1195 -0.3576
  420TMC3     C 6321   4.729   3.077  12.800 -0.0487  0.2101  0.0066
  420TMC3     O 6322   0.007   2.962  12.847 -0.2873 -0.7121 -0.1917
  420TMC3     H 6323   4.581   3.303  12.757  2.6148  1.7595 -0.5580
  420TMC3    H1 6324   0.092   3.091  13.028 -2.1636 -1.6135 -2.4780
  420TMC3    H2 6325   4.627   3.442  13.152  2.3554 -0.1868  0.5654
  420TMC3    C7 6326   0.049   3.252  13.240 -0.6400 -0.4880  0.0189
  420TMC3    C8 6327   4.489   3.476  12.936  0.1033 -0.3008  0.0403
  420TMC3    O1 6328   0.084   3.143  13.285 -0.4349 -0.8885 -0.2272
  420TMC3    O2 6329   4.489   3.582  13.001  0.1285  0.2005 -0.1905
  421TMC3    C1 6330   2.026   4.343  13.522  0.1876  0.0759 -0.3707
  421TMC3    C2 6331   2.060   4.475  13.536 -0.0002  0.5344 -0.2979
  421TMC3    C3 6332   2.174   4.506  13.608  0.4362 -0.2399  0.2016
  421TMC3    C4 6333   2.097   4.243  13.581  0.3427  0.5214 -0.0247
  421TMC3    C5 6334   2.207   4.280  13.653  0.4715  0.3580  0.0246
  421TMC3    C6 6335   2.246   4.412  13.662  0.2370 -0.9655  0.0631
  421TMC3     C 6336   1.915   4.286  13.445 -0.4932  0.1948  0.5337
  421TMC3     O 6337   1.870   4.178  13.474 -1.0944  0.7438 -0.3525
  421TMC3     H 6338   2.001   4.550  13.485 -2.2271  0.0604  1.6062
  421TMC3    H1 6339   2.077   4.136  13.574  0.0562  0.6381 -0.9408
  421TMC3    H2 6340   2.336   4.440  13.717  0.7575 -0.2895 -1.1252
  421TMC3    C7 6341   2.314   4.181  13.692  0.0794 -1.0319 -0.3252
  421TMC3    C8 6342   2.213   4.641  13.642  0.4575 -0.7777  0.3468
  421TMC3    O1 6343   2.422   4.231  13.714 -0.7612 -0.3245 -0.0607
  421TMC3    O2 6344   2.331   4.666  13.650  0.3054 -0.6703  0.0917
  422TMC3    C1 6345   3.988   1.245  12.706 -0.0004  0.3377  0.6196
  422TMC3    C2 6346   3.943   1.365  12.771  0.2473 -0.3116 -0.2896
  422TMC3    C3 6347   3.813   1.371  12.810  0.5966  0.2806  0.0333
  422TMC3    C4 6348   3.900   1.141  12.690 -0.1985  0.2367 -0.1091
  422TMC3    C5 6349   3.776   1.152  12.743  0.2726  0.3969  0.3301
  422TMC3    C6 6350   3.731   1.260  12.816 -0.2254 -0.0028 -0.1269
  422TMC3     C 6351   4.057   1.278  12.581 -1.1851  0.2441  0.2863
  422TMC3     O 6352   4.139   1.369  12.597 -0.3313  0.8502 -0.5612
  422TMC3     H 6353   4.009   1.450  12.757  0.4159 -0.5332 -0.8672
  422TMC3    H1 6354   3.936   1.045  12.655  0.5333  0.9521 -1.3172
  422TMC3    H2 6355   3.628   1.272  12.848 -0.8310  0.5279 -2.2739
  422TMC3    C7 6356   3.691   1.039  12.695 -0.1441  0.7613  0.3424
  422TMC3    C8 6357   3.747   1.483  12.741 -0.8025 -0.9102  0.0790
  422TMC3    O1 6358   3.738   0.962  12.607  0.0300 -0.0190 -0.3551
  422TMC3    O2 6359   3.632   1.471  12.703 -0.2366 -0.3276 -0.0088
  423MPD2     C 6360   0.353   1.838   0.286 -0.8131 -0.0982 -0.1226
  423MPD2    C1 6361   0.422   1.942   0.232 -0.6328 -0.0115  0.2514
  423MPD2    C2 6362   0.486   1.923   0.114  0.4800  0.4395 -0.2539
  423MPD2    C3 6363   0.488   1.802   0.051 -0.5217  0.1414  0.6443
  423MPD2    C4 6364   0.432   1.699   0.116 -0.0886  0.2096  0.6574
  423MPD2    C5 6365   0.361   1.712   0.233 -0.1826  0.3523 -0.4584
  423MPD2     H 6366   0.541   2.006   0.071  1.0668  0.2787  0.1795
  423MPD2    H1 6367   0.439   1.595   0.086  1.0197  0.8128 -1.1850
  423MPD2    H2 6368   0.305   1.845   0.383 -1.5710  1.0515 -0.5885
  423MPD2    H3 6369   0.310   1.626   0.274 -0.4388  0.1815 -1.1420
  423MPD2     N 6370   0.562   1.767  17.690  0.3293  0.1700 -0.3147
  423MPD2    H5 6371   0.541   1.674  17.654 -0.0446  0.8910 -1.9607
  423MPD2    N1 6372   0.436   2.069   0.295 -0.1384  0.0607 -0.0187
  423MPD2    H7 6373   0.511   2.129   0.262  0.3919 -1.6093 -1.8510
  424TMC3    C1 6374   0.407   2.240   0.459  0.3646 -0.2852 -0.8510
  424TMC3    C2 6375   0.543   2.265   0.477 -0.4786 -0.5503  0.4947
  424TMC3    C3 6376   0.574   2.364   0.570  0.5173 -0.2505 -0.3656
  424TMC3    C4 6377   0.308   2.284   0.547  0.2163 -0.1952 -0.8042
  424TMC3    C5 6378   0.342   2.375   0.639 -0.1080  0.6267  0.0978
  424TMC3    C6 6379   0.478   2.414   0.650 -0.5201 -0.4289 -0.6694
  424TMC3     C 6380   0.365   2.116   0.405 -0.1163  0.5596  0.5312
  424TMC3     O 6381   0.273   2.053   0.460  0.0147  0.3387 -0.2150
  424TMC3     H 6382   0.620   2.211   0.424 -1.0767 -2.6043  1.7152
  424TMC3    H1 6383   0.205   2.271   0.518  0.0466  0.5717 -0.5443
  424TMC3    H2 6384   0.490   2.489   0.727 -0.6652  0.0371 -1.0993
  424TMC3    C7 6385   0.269   2.388   0.762 -0.3099  0.4621  0.4827
  424TMC3    C8 6386   0.693   2.332   0.635  0.1818 -0.4955  0.3233
  424TMC3    O1 6387   0.291   2.479   0.839  0.0217 -0.3213  0.7822
  424TMC3    O2 6388   0.794   2.380   0.585  0.8646  0.0649  0.1406
  425MPD2     C 6389   4.685   1.284  17.468  0.0145  0.4080  0.0702
  425MPD2    C1 6390   4.657   1.214  17.350  0.5920 -1.2650 -0.5050
  425MPD2    C2 6391   4.538   1.230  17.287 -0.4170  0.0898  0.0046
  425MPD2    C3 6392   4.449   1.323  17.325  0.2233 -0.4165 -0.3143
  425MPD2    C4 6393   4.480   1.396  17.440  1.0577  0.1897  0.1598
  425MPD2    C5 6394   4.595   1.379  17.514  0.1175  0.2469 -0.1493
  425MPD2     H 6395   4.509   1.169  17.202  1.4669 -0.2685 -0.3776
  425MPD2    H1 6396   4.406   1.468  17.474  2.2919  2.0324 -1.0378
  425MPD2    H2 6397   0.043   1.271  17.515 -0.8172 -1.7605  1.2187
  425MPD2    H3 6398   4.609   1.441  17.601 -1.6487 -1.2540  1.2060
  425MPD2     N 6399   4.323   1.327  17.259 -0.1825 -0.1707 -0.1301
  425MPD2    H5 6400   4.312   1.277  17.172  0.5884  0.5469 -0.6430
  425MPD2    N1 6401   0.011   1.125  17.318 -0.0995 -0.1748  0.1106
  425MPD2    H7 6402   0.100   1.119  17.365 -1.1596  1.2608  2.2646
  426TMC3    C1 6403   0.109   0.941  17.208  0.0881 -0.1988 -0.2288
  426TMC3    C2 6404   0.136   0.909  17.078 -0.1337  0.1383 -0.0331
  426TMC3    C3 6405   0.186   0.793  17.041  0.0226  0.1053  0.5115
  426TMC3    C4 6406   0.136   0.856  17.306  0.1267 -0.0495 -0.5363
  426TMC3    C5 6407   0.190   0.732  17.266  0.5260  0.5490 -0.1567
  426TMC3    C6 6408   0.223   0.709  17.137 -1.1977 -0.2372  0.0109
  426TMC3     C 6409   4.730   1.033  17.221 -0.4665  1.0149 -0.1176
  426TMC3     O 6410   4.661   1.034  17.122  0.3153 -0.1661  0.2139
  426TMC3     H 6411   0.140   0.990  17.005  0.4992  0.3690  0.2528
  426TMC3    H1 6412   0.106   0.878  17.408  0.9443 -1.1532 -0.0578
  426TMC3    H2 6413   0.257   0.610  17.110 -3.2653 -0.5827 -1.3066
  426TMC3    C7 6414   0.187   0.613  17.346 -0.1970  0.1822  0.1603
  426TMC3    C8 6415   0.092   0.733  16.950  0.0705  0.1755  0.4582
  426TMC3    O1 6416   0.287   0.545  17.331  0.3066  0.3091  0.2234
  426TMC3    O2 6417   0.111   0.621  16.903 -0.3784  0.6439 -0.2895
  427MPD2     C 6418   3.030   3.709  15.036 -0.2183 -0.5465 -0.4588
  427MPD2    C1 6419   3.011   3.575  14.998 -0.4359 -0.3826  0.0714
  427MPD2    C2 6420   2.896   3.532  14.929  0.4276 -0.5094  0.2584
  427MPD2    C3 6421   2.803   3.628  14.886  0.1445 -0.3949  0.6878
  427MPD2    C4 6422   2.820   3.756  14.930 -0.2299  0.3870 -0.1492
  427MPD2    C5 6423   2.935   3.798  14.989  0.5439 -0.2497  0.3118
  427MPD2     H 6424   2.882   3.429  14.901  2.9935 -1.3358  1.9766
  427MPD2    H1 6425   2.746   3.833  14.908 -1.0132 -0.2820  0.1394
  427MPD2    H2 6426   3.115   3.745  15.092 -0.5097  1.5637 -1.3735
  427MPD2    H3 6427   2.936   3.904  15.014 -1.4389 -0.2466  0.3763
  427MPD2     N 6428   2.679   3.598  14.819  0.3531  0.2874  0.4647
  427MPD2    H5 6429   2.627   3.684  14.805  0.9678  0.2839 -1.7834
  427MPD2    N1 6430   3.099   3.472  15.037 -0.1038 -0.0535 -0.4577
  427MPD2    H7 6431   3.089   3.384  14.988  2.1567 -0.9343  0.6512
  428TMC3    C1 6432   3.261   3.343  15.156 -0.6565  0.6690  0.5604
  428TMC3    C2 6433   3.178   3.235  15.170  0.3782  0.4054 -0.1525
  428TMC3    C3 6434   3.230   3.122  15.221 -0.6129 -1.1081 -0.8291
  428TMC3    C4 6435   3.391   3.337  15.187  0.9382 -0.1305 -0.6776
  428TMC3    C5 6436   3.436   3.226  15.253 -0.0905  0.0814  0.1587
  428TMC3    C6 6437   3.355   3.118  15.272  0.4411 -0.4893  0.5699
  428TMC3     C 6438   3.207   3.477  15.120 -0.4377  0.6905 -0.2855
  428TMC3     O 6439   3.244   3.569  15.195 -0.7624  0.0346 -0.2797
  428TMC3     H 6440   3.077   3.223  15.132  0.9127  0.1407 -1.4902
  428TMC3    H1 6441   3.463   3.416  15.171 -1.0603  1.9190  0.3982
  428TMC3    H2 6442   3.391   3.030  15.325 -2.3025 -3.2046 -2.0065
  428TMC3    C7 6443   3.577   3.213  15.299  0.3023  0.1249  0.5234
  428TMC3    C8 6444   3.143   2.998  15.223  0.1422 -0.4329 -0.5157
  428TMC3    O1 6445   3.599   3.142  15.393  0.0013 -0.3187 -0.0807
  428TMC3    O2 6446   3.023   3.013  15.201 -0.1252 -0.0149 -0.1315
  429MPD2     C 6447   4.023   3.215  17.630  0.3570  0.2065 -0.8892
  429MPD2    C1 6448   4.130   3.135  17.594  0.6288 -0.2509 -0.2774
  429MPD2    C2 6449   4.206   3.175  17.487  0.5031  0.3442 -0.4125
  429MPD2    C3 6450   4.184   3.296  17.419  0.4544  0.3892 -0.3107
  429MPD2    C4 6451   4.072   3.372  17.458  0.0284  0.2678  0.2770
  429MPD2    C5 6452   3.991   3.326  17.557  0.3603 -0.4656  0.3321
  429MPD2     H 6453   4.288   3.115  17.448 -0.7685 -1.2906 -0.6074
  429MPD2    H1 6454   4.044   3.463  17.407  0.3310  0.2212  0.0284
  429MPD2    H2 6455   3.958   3.180  17.709 -2.3275  2.2211 -2.1854
  429MPD2    H3 6456   3.894   3.374  17.566  0.9597  0.8523 -0.3565
  429MPD2     N 6457   4.274   3.325  17.320  0.0122 -0.3678  0.3101
  429MPD2    H5 6458   4.364   3.277  17.320  0.7009  0.9299 -0.1385
  429MPD2    N1 6459   4.162   3.010  17.660  0.3358  0.0071 -0.3092
  429MPD2    H7 6460   4.238   2.953  17.624  2.6893  2.4508  0.8165
  430TMC3    C1 6461   4.376   3.432  17.141  0.1627  0.0898 -0.0698
  430TMC3    C2 6462   4.395   3.538  17.067  0.1539 -0.7517  0.0060
  430TMC3    C3 6463   4.474   3.529  16.956 -0.4023  0.1435 -0.4759
  430TMC3    C4 6464   4.424   3.309  17.102  0.3368 -0.2811  0.2195
  430TMC3    C5 6465   4.496   3.296  16.986 -0.4345  0.1475  0.4340
  430TMC3    C6 6466   4.529   3.412  16.914 -0.2490  0.6569  0.3487
  430TMC3     C 6467   4.271   3.435  17.242 -0.0731  0.1325  0.0689
  430TMC3     O 6468   4.174   3.511  17.226 -0.3651  0.1208  0.1017
  430TMC3     H 6469   4.345   3.626  17.105  0.9161 -1.1877  2.0625
  430TMC3    H1 6470   4.397   3.214  17.146  1.7265 -0.4111  0.7858
  430TMC3    H2 6471   4.590   3.405  16.825  0.2906 -1.4258  0.8849
  430TMC3    C7 6472   4.532   3.163  16.944  0.1287 -0.3880 -0.1637
  430TMC3    C8 6473   4.436   3.619  16.845  0.1852 -0.2001  0.3082
  430TMC3    O1 6474   4.535   3.076  17.033  0.1040  0.6589  0.1586
  430TMC3    O2 6475   4.474   3.585  16.733 -0.4398  0.0774 -0.2123
  431MPD2     C 6476   0.080   3.871  12.327  0.6458 -0.0879  0.0127
  431MPD2    C1 6477   0.199   3.876  12.258 -0.0883 -0.3765  1.2461
  431MPD2    C2 6478   0.231   3.760  12.186 -0.0449 -0.3924  0.4383
  431MPD2    C3 6479   0.160   3.639  12.200 -0.7945  0.9956 -0.2104
  431MPD2    C4 6480   0.043   3.645  12.274 -0.7039  0.2766 -0.5257
  431MPD2    C5 6481   0.006   3.755  12.338  0.3782 -0.7627  0.5642
  431MPD2     H 6482   0.322   3.755  12.128 -1.0941 -0.5524 -1.2102
  431MPD2    H1 6483   4.730   3.552  12.296 -1.3659  0.7198 -0.2004
  431MPD2    H2 6484   0.042   3.947  12.394  1.4304 -0.2432  0.6348
  431MPD2    H3 6485   4.654   3.765  12.396  0.0243 -0.9627  0.0502
  431MPD2     N 6486   0.200   3.520  12.133 -0.1396  0.3803 -0.6624
  431MPD2    H5 6487   0.135   3.442  12.131  1.8819 -1.3250 -0.0477
  431MPD2    N1 6488   0.282   3.989  12.263  0.6199  0.2325 -0.1227
  431MPD2    H7 6489   0.358   3.991  12.196  2.5244  0.5883  2.0740
  432TMC3    C1 6490   0.319   3.376  11.989  0.5821 -0.2074  0.6260
  432TMC3    C2 6491   0.445   3.362  11.928  0.0411  0.6220  0.1096
  432TMC3    C3 6492   0.495   3.235  11.931 -0.2767  0.1580 -0.0453
  432TMC3    C4 6493   0.265   3.270  12.058 -0.0604  0.3548 -1.1307
  432TMC3    C5 6494   0.328   3.148  12.054  1.1852 -0.4314 -0.7818
  432TMC3    C6 6495   0.443   3.123  11.991  0.1257 -0.2796  0.1698
  432TMC3     C 6496   0.310   3.507  12.048  0.2822 -0.0529 -0.4605
  432TMC3     O 6497   0.402   3.585  12.028  0.0841 -0.3253 -0.4273
  432TMC3     H 6498   0.486   3.436  11.861 -0.5448 -1.3414 -2.4271
  432TMC3    H1 6499   0.160   3.264  12.087 -0.5724 -0.4170 -3.1475
  432TMC3    H2 6500   0.490   3.026  11.988 -0.1144 -0.3004 -2.8105
  432TMC3    C7 6501   0.276   3.038  12.133 -0.4421 -0.2490 -0.1510
  432TMC3    C8 6502   0.624   3.220  11.870 -0.0682  0.1238  0.0045
  432TMC3    O1 6503   0.282   2.923  12.095 -0.3282  0.5714 -0.0588
  432TMC3    O2 6504   0.647   3.299  11.785 -0.1020 -0.0282  0.4347
  433MPD2     C 6505   3.647   2.554  10.986 -0.6171 -0.1343  0.1655
  433MPD2    C1 6506   3.769   2.501  10.977 -0.0229  0.1006 -0.0604
  433MPD2    C2 6507   3.868   2.548  11.060  0.3524 -0.1915 -0.5093
  433MPD2    C3 6508   3.839   2.644  11.149  0.4074 -0.3077  0.8541
  433MPD2    C4 6509   3.711   2.707  11.151 -0.0842  1.1954  0.7196
  433MPD2    C5 6510   3.616   2.661  11.068 -0.0836  0.2608 -0.3417
  433MPD2     H 6511   3.966   2.502  11.057  0.7777  0.6488  0.4164
  433MPD2    H1 6512   3.681   2.775  11.230 -2.3992  0.4277  0.5107
  433MPD2    H2 6513   3.557   2.531  10.930 -1.5239 -1.6545  2.2588
  433MPD2    H3 6514   3.519   2.706  11.080 -0.0667 -0.0934  1.0435
  433MPD2     N 6515   3.938   2.686  11.234 -0.8145  0.2089  0.5900
  433MPD2    H5 6516   4.020   2.626  11.228 -1.0665 -0.1038  0.1900
  433MPD2    N1 6517   3.798   2.397  10.881  0.4741  0.7869 -0.1007
  433MPD2    H7 6518   3.897   2.380  10.868  0.2705 -1.9693  1.8032
  434TMC3    C1 6519   3.770   2.204  10.749  0.9616  0.2606 -0.3111
  434TMC3    C2 6520   3.875   2.140  10.812 -0.0054  0.7363 -0.4755
  434TMC3    C3 6521   3.965   2.072  10.734 -0.6209  0.2358  0.9051
  434TMC3    C4 6522   3.749   2.198  10.615 -0.2209 -0.6953  0.1741
  434TMC3    C5 6523   3.842   2.128  10.542  1.0206 -0.5591  0.1603
  434TMC3    C6 6524   3.953   2.073  10.596 -0.8153 -0.2306  0.7421
  434TMC3     C 6525   3.705   2.317  10.815 -0.4228 -0.3654 -0.4413
  434TMC3     O 6526   3.583   2.304  10.820 -0.5016  0.1363  0.1778
  434TMC3     H 6527   3.867   2.134  10.920  1.3912  0.7914 -0.3694
  434TMC3    H1 6528   3.663   2.243  10.566  0.2708 -1.3361 -1.2656
  434TMC3    H2 6529   4.022   2.026  10.528 -0.3666 -0.5609  1.4347
  434TMC3    C7 6530   3.823   2.112  10.393  0.6586 -0.1053  0.0837
  434TMC3    C8 6531   4.066   1.996  10.805 -0.0201  0.3159 -0.0837
  434TMC3    O1 6532   3.774   2.207  10.337 -0.1407 -0.1893  0.5244
  434TMC3    O2 6533   4.054   2.004  10.926 -0.7386  0.0373  0.0295
  435MPD2     C 6534   1.506   1.855  15.204 -0.3816  0.1260  0.6329
  435MPD2    C1 6535   1.476   1.864  15.340 -0.6283  0.0446  0.4770
  435MPD2    C2 6536   1.564   1.802  15.434  0.0716 -0.1790  0.2671
  435MPD2    C3 6537   1.672   1.727  15.394 -0.3620 -0.0375  0.0137
  435MPD2    C4 6538   1.699   1.723  15.260  0.5719 -0.1039  0.1050
  435MPD2    C5 6539   1.618   1.786  15.169 -0.6766  0.1813  0.0907
  435MPD2     H 6540   1.528   1.792  15.536 -1.6238 -0.0181 -0.3321
  435MPD2    H1 6541   1.783   1.667  15.219 -0.1722 -0.4984 -0.8861
  435MPD2    H2 6542   1.448   1.894  15.121  1.4904 -1.2053 -1.3018
  435MPD2    H3 6543   1.653   1.773  15.067  0.1463  0.5060  0.3378
  435MPD2     N 6544   1.740   1.651  15.493 -0.2557  0.2534  0.5468
  435MPD2    H5 6545   1.688   1.659  15.579 -0.8545 -3.6512  0.5644
  435MPD2    N1 6546   1.349   1.911  15.387  0.9349 -0.2566  0.0486
  435MPD2    H7 6547   1.325   1.886  15.482  1.8176 -2.0852 -0.1987
  436TMC3    C1 6548   0.971   2.143  15.467  0.0904 -0.7011 -0.3000
  436TMC3    C2 6549   1.068   2.119  15.375  0.7390 -0.2163  0.2590
  436TMC3    C3 6550   1.142   2.005  15.398 -0.7464  0.6531 -1.0120
  436TMC3    C4 6551   0.938   2.053  15.568 -0.3145  0.3496  0.2934
  436TMC3    C5 6552   1.005   1.934  15.567  0.0243  0.4025 -0.1722
  436TMC3    C6 6553   1.110   1.905  15.491  0.5734 -0.4485  0.0146
  436TMC3     C 6554   0.899   2.269  15.452  0.5529  0.7299  0.1014
  436TMC3     O 6555   0.937   2.341  15.358 -0.1123 -0.3984  0.0181
  436TMC3     H 6556   1.089   2.188  15.295  1.0778 -0.7384 -0.0986
  436TMC3    H1 6557   0.881   2.084  15.656  0.3386  1.4907  0.3064
  436TMC3    H2 6558   1.156   1.807  15.488  2.1756  0.3815 -2.7535
  436TMC3    C7 6559   0.956   1.846  15.667 -0.5675 -0.2742 -0.0823
  436TMC3    C8 6560   1.259   1.981  15.315 -0.2495 -0.1861  1.0390
  436TMC3    O1 6561   0.878   1.888  15.752  0.0073 -0.2920  0.2915
  436TMC3    O2 6562   1.259   2.020  15.197  0.1549 -0.4747  0.4930
  437TMC3    C1 6563   4.524   3.941  12.874 -0.6153  0.3267  0.2644
  437TMC3    C2 6564   4.482   3.919  12.998 -0.3949  0.3014  0.3169
  437TMC3    C3 6565   4.416   4.017  13.068 -0.2354  0.2638 -0.9876
  437TMC3    C4 6566   4.508   4.062  12.808 -0.6226  0.9740 -0.0541
  437TMC3    C5 6567   4.450   4.162  12.886  1.1280  0.1269 -0.0746
  437TMC3    C6 6568   4.409   4.142  13.016  0.5084 -0.4799  0.5035
  437TMC3     C 6569   4.561   3.822  12.798 -0.0921 -0.1372 -0.2663
  437TMC3     O 6570   4.518   3.811  12.685  0.1538 -0.3171 -0.1757
  437TMC3     H 6571   4.480   3.819  13.039 -2.1446  0.7092  1.2432
  437TMC3    H1 6572   4.521   4.069  12.701 -1.4487 -2.0666 -0.3537
  437TMC3    H2 6573   4.361   4.224  13.069  0.4317 -0.4459  0.3798
  437TMC3    C7 6574   4.490   4.296  12.856  0.1946  0.4167  0.4450
  437TMC3    C8 6575   4.364   3.985  13.199 -0.6213  0.5555  0.1382
  437TMC3    O1 6576   4.407   4.381  12.890 -0.0380  0.1679  0.4968
  437TMC3    O2 6577   4.392   3.870  13.233 -0.4593 -0.3232 -0.0932
  438MPD2     C 6578   2.120   4.629  16.393  0.3752  0.2227  0.4494
  438MPD2    C1 6579   2.162   4.520  16.469 -0.5059 -0.0434  0.6950
  438MPD2    C2 6580   2.149   4.527  16.608 -0.3179  0.1646  0.4936
  438MPD2    C3 6581   2.084   4.634  16.669  0.0102  0.3007  0.3318
  438MPD2    C4 6582   2.022   4.727  16.585  0.5633 -0.0529 -0.6648
  438MPD2    C5 6583   2.043   4.725  16.451  0.7025 -0.1086  0.4895
  438MPD2     H 6584   2.188   4.439  16.658 -1.3377 -1.9596 -2.4194
  438MPD2    H1 6585   1.964   0.071  16.621 -0.3197 -1.5940  1.4306
  438MPD2    H2 6586   2.123   4.625  16.285 -2.9157 -1.1833  0.4281
  438MPD2    H3 6587   1.989   0.050  16.383  0.5073 -0.1560  0.6004
  438MPD2     N 6588   2.062   4.653  16.808 -0.2827 -1.0543 -0.1890
  438MPD2    H5 6589   2.022   0.002  16.836  0.5263 -0.9319  0.5840
  438MPD2    N1 6590   2.215   4.399  16.410 -0.2008  0.1121  0.5172
  438MPD2    H7 6591   2.247   4.321  16.467  1.6337  0.4548 -0.0545
  439TMC3    C1 6592   2.291   4.258  16.255 -0.1362  0.5607 -0.2032
  439TMC3    C2 6593   2.269   4.203  16.132 -0.8519 -0.2063  1.0675
  439TMC3    C3 6594   2.355   4.103  16.099 -0.1942 -0.2284 -0.1393
  439TMC3    C4 6595   2.390   4.210  16.337 -0.3475  0.4542 -0.5331
  439TMC3    C5 6596   2.478   4.107  16.304 -0.3429  0.2085 -0.5284
  439TMC3    C6 6597   2.456   4.053  16.181 -0.0658  0.1205  0.8776
  439TMC3     C 6598   2.230   4.379  16.281  0.4348 -0.2105 -0.1593
  439TMC3     O 6599   2.215   4.445  16.178 -0.4549 -0.1855  0.0464
  439TMC3     H 6600   2.189   4.234  16.065 -0.7811 -2.3764 -0.0204
  439TMC3    H1 6601   2.420   4.265  16.426  1.3707  0.8436 -1.3574
  439TMC3    H2 6602   2.520   3.982  16.131 -0.4280  2.0574 -2.3533
  439TMC3    C7 6603   2.624   4.142  16.324 -0.5233 -0.8321  0.4059
  439TMC3    C8 6604   2.404   4.106  15.965 -0.5725 -0.0800  0.3673
  439TMC3    O1 6605   2.679   4.108  16.427  0.1599  0.2292 -0.1620
  439TMC3    O2 6606   2.490   4.030  15.935 -0.4226  0.3030 -0.3685
  440MPD2     C 6607   1.357   0.323  14.713 -0.0144  0.5463  0.2105
  440MPD2    C1 6608   1.415   0.396  14.815  0.1474 -1.1124 -0.2221
  440MPD2    C2 6609   1.550   0.410  14.820  0.1956  0.0733 -0.2864
  440MPD2    C3 6610   1.631   0.343  14.733 -0.3312  0.2638 -0.2212
  440MPD2    C4 6611   1.575   0.272  14.631  0.0654  0.4294  0.0844
  440MPD2    C5 6612   1.436   0.261  14.622 -0.1303  0.1970 -0.0025
  440MPD2     H 6613   1.608   0.446  14.905  0.1130  0.4057 -0.3722
  440MPD2    H1 6614   1.633   0.205  14.570 -2.1006  1.0977 -2.7030
  440MPD2    H2 6615   1.251   0.314  14.692  0.2362 -1.3806 -0.2019
  440MPD2    H3 6616   1.398   0.203  14.539 -0.1620 -1.8004  1.4238
  440MPD2     N 6617   1.773   0.356  14.735  0.1631 -0.0864  0.2862
  440MPD2    H5 6618   1.818   0.291  14.671 -0.1412 -0.2936  0.2859
  440MPD2    N1 6619   1.340   0.443  14.931  0.3281 -0.9295  0.1170
  440MPD2    H7 6620   1.394   0.498  14.997  1.1849 -3.9326  1.9151
  441TMC3    C1 6621   1.984   0.424  14.817 -0.1344  0.7325  0.4695
  441TMC3    C2 6622   2.040   0.530  14.879  0.0504  0.1496  0.5712
  441TMC3    C3 6623   2.117   0.507  14.985 -0.4644  0.5658  0.5226
  441TMC3    C4 6624   2.011   0.296  14.853  0.4653  0.2828 -0.5201
  441TMC3    C5 6625   2.091   0.275  14.960  0.2312 -0.1372  0.2340
  441TMC3    C6 6626   2.141   0.381  15.028 -0.2342  0.4025 -0.2240
  441TMC3     C 6627   1.841   0.446  14.812 -0.7133  0.7163 -0.8896
  441TMC3     O 6628   1.805   0.549  14.869 -0.0871  0.4480  0.3393
  441TMC3     H 6629   2.002   0.631  14.864  2.7280  1.2333  1.2129
  441TMC3    H1 6630   1.968   0.216  14.793  1.4250 -0.1064 -0.6910
  441TMC3    H2 6631   2.197   0.372  15.120  0.6939 -2.0557 -1.0335
  441TMC3    C7 6632   2.052   0.162  15.038 -0.6346  0.0131  0.4477
  441TMC3    C8 6633   2.094   0.606  15.083 -0.0619  0.2000 -0.1569
  441TMC3    O1 6634   1.960   0.089  14.997 -1.1226 -0.0255  0.2409
  441TMC3    O2 6635   2.192   0.670  15.122 -0.2294  0.5847 -0.0168
  442MPD2     C 6636   4.169   0.733  16.456 -0.4989  0.5726  0.1021
  442MPD2    C1 6637   4.080   0.634  16.508  1.1081 -0.6597 -0.8438
  442MPD2    C2 6638   4.083   0.510  16.449 -0.0138  0.3679 -0.0385
  442MPD2    C3 6639   4.150   0.493  16.333  0.3679 -0.1188 -0.0603
  442MPD2    C4 6640   4.239   0.585  16.287 -1.1964 -0.7849  0.4519
  442MPD2    C5 6641   4.256   0.699  16.358 -0.7497  0.0147  0.9043
  442MPD2     H 6642   4.018   0.429  16.482 -0.7078  0.5052 -1.0547
  442MPD2    H1 6643   4.295   0.578  16.194  0.9076  2.0131  1.4995
  442MPD2    H2 6644   4.175   0.835  16.494 -1.4721  0.9042 -0.6244
  442MPD2    H3 6645   4.327   0.772  16.320 -1.5543 -0.0812 -0.8036
  442MPD2     N 6646   4.123   0.389  16.245  0.2157 -0.3433 -0.0602
  442MPD2    H5 6647   4.193   0.372  16.174 -0.5261  1.6869 -1.2862
  442MPD2    N1 6648   4.000   0.651  16.617 -0.1201 -0.3340 -0.4103
  442MPD2    H7 6649   3.926   0.582  16.619  1.1655 -1.7210 -1.3523
  443TMC3    C1 6650   3.872   0.762  16.774  0.4727 -0.5153  0.0475
  443TMC3    C2 6651   3.814   0.886  16.795 -0.4133 -0.4609  0.1098
  443TMC3    C3 6652   3.679   0.900  16.814  0.1731 -0.1876  0.4645
  443TMC3    C4 6653   3.805   0.649  16.805  0.5648  1.0807  0.8075
  443TMC3    C5 6654   3.673   0.661  16.844  0.4168  0.5970  0.0422
  443TMC3    C6 6655   3.612   0.783  16.841 -0.5006  0.8755 -0.3439
  443TMC3     C 6656   3.993   0.757  16.696  0.6623 -0.3159  0.3274
  443TMC3     O 6657   4.074   0.841  16.708 -0.4905  0.2754 -0.1487
  443TMC3     H 6658   3.863   0.975  16.756  0.4834 -1.6454 -1.4426
  443TMC3    H1 6659   3.854   0.553  16.818  2.0291  1.6124 -0.8754
  443TMC3    H2 6660   3.506   0.792  16.862 -0.3024  0.9136  0.6028
  443TMC3    C7 6661   3.607   0.543  16.885  0.5121  0.2308 -0.5325
  443TMC3    C8 6662   3.610   0.993  16.722  0.2195  0.5161  0.1930
  443TMC3    O1 6663   3.654   0.436  16.843 -0.5465 -0.0232 -0.0386
  443TMC3    O2 6664   3.644   1.109  16.710 -0.0408 -0.5195 -0.1369
  444MPD2     C 6665   4.311   0.284  16.710  0.9224  0.2912  0.1266
  444MPD2    C1 6666   4.194   0.221  16.673  0.3922  0.1431 -0.1375
  444MPD2    C2 6667   4.201   0.121  16.575 -0.7376  0.4154  0.2080
  444MPD2    C3 6668   4.330   0.092  16.519 -0.2205 -0.7712 -0.6570
  444MPD2    C4 6669   4.441   0.170  16.551 -0.2865 -0.0066  0.4817
  444MPD2    C5 6670   4.429   0.273  16.641 -0.3607 -0.2576 -0.4686
  444MPD2     H 6671   4.113   0.060  16.563 -0.6712  0.5793 -1.1159
  444MPD2    H1 6672   4.541   0.145  16.520  0.0841  0.4121  1.3342
  444MPD2    H2 6673   4.316   0.359  16.787  0.4493  0.5234 -0.0724
  444MPD2    H3 6674   4.512   0.327  16.683  0.1160 -1.8899  0.7128
  444MPD2     N 6675   4.344   4.730  16.426 -0.1096 -0.1120  0.0565
  444MPD2    H5 6676   4.251   4.694  16.409 -0.3841  1.1223 -1.1263
  444MPD2    N1 6677   4.076   0.233  16.748 -0.1220 -0.3225  0.5882
  444MPD2    H7 6678   3.995   0.188  16.707  0.8703 -2.6879  1.2525
  445TMC3    C1 6679   4.429   4.576  16.270  0.8004 -0.5813  0.2264
  445TMC3    C2 6680   4.316   4.576  16.189 -0.8307 -0.6542 -0.7696
  445TMC3    C3 6681   4.291   4.462  16.124 -0.3074 -0.0664  0.2625
  445TMC3    C4 6682   4.518   4.466  16.267 -0.8935  1.0977  0.0912
  445TMC3    C5 6683   4.485   4.356  16.202  0.1193 -0.1294  0.2013
  445TMC3    C6 6684   4.371   4.350  16.127 -0.1960 -0.2534  0.7312
  445TMC3     C 6685   4.453   4.671  16.374 -0.4758 -0.1343  0.1699
  445TMC3     O 6686   4.566   4.682  16.413  0.3373 -0.1490 -0.8094
  445TMC3     H 6687   4.254   4.665  16.187  0.0495  0.0147  2.6432
  445TMC3    H1 6688   4.600   4.459  16.337  0.6949  0.9662 -1.8008
  445TMC3    H2 6689   4.345   4.257  16.078 -2.1365 -0.1050  1.4693
  445TMC3    C7 6690   4.573   4.247  16.199 -0.3970  0.1826 -0.3476
  445TMC3    C8 6691   4.186   4.469  16.024 -0.0738 -0.4878 -0.4024
  445TMC3    O1 6692   4.530   4.135  16.182 -0.6970 -0.1852  0.4174
  445TMC3    O2 6693   4.148   4.575  15.981  0.1965  0.4020  0.1294
  446MPD2     C 6694   3.771   1.760  11.347 -0.4546 -0.4512  0.1397
  446MPD2    C1 6695   3.772   1.768  11.211 -0.0652  0.4333  0.0207
  446MPD2    C2 6696   3.839   1.880  11.154  0.2248  0.2857  0.2127
  446MPD2    C3 6697   3.914   1.961  11.237 -0.5931 -0.2852  0.4150
  446MPD2    C4 6698   3.903   1.945  11.375 -0.6714 -0.9236 -0.1347
  446MPD2    C5 6699   3.840   1.840  11.428 -0.4099  0.8438 -0.8964
  446MPD2     H 6700   3.854   1.889  11.047  1.6015  0.2712  0.4012
  446MPD2    H1 6701   3.964   2.010  11.437 -1.2264 -1.5551  1.0744
  446MPD2    H2 6702   3.730   1.680  11.408 -2.4283  0.4653  0.0059
  446MPD2    H3 6703   3.856   1.813  11.531  2.1240  0.6971 -1.3351
  446MPD2     N 6704   3.995   2.066  11.178 -0.1173  0.6931  0.6627
  446MPD2    H5 6705   4.016   2.052  11.079  0.5895  0.3155  0.8646
  446MPD2    N1 6706   3.703   1.682  11.126 -0.0428  0.0658  0.0974
  446MPD2    H7 6707   3.704   1.704  11.027  0.1088  0.2856  0.1473
  447TMC3    C1 6708   4.154   2.236  11.158 -0.2615  0.1175 -0.1513
  447TMC3    C2 6709   4.121   2.280  11.033  0.9279 -0.5515  0.4526
  447TMC3    C3 6710   4.220   2.332  10.957 -0.4952 -0.3886  0.4454
  447TMC3    C4 6711   4.283   2.234  11.212  0.5901 -0.1687 -0.5156
  447TMC3    C5 6712   4.373   2.293  11.123 -0.1875  0.1660 -0.0967
  447TMC3    C6 6713   4.348   2.338  10.997  0.4040  0.8535 -0.2326
  447TMC3     C 6714   4.056   2.170  11.233  0.0704 -0.2141  0.0352
  447TMC3     O 6715   4.038   2.207  11.349  0.4453  0.4173 -0.1910
  447TMC3     H 6716   4.022   2.282  10.989  1.2081  1.5954 -0.0541
  447TMC3    H1 6717   4.300   2.190  11.309 -0.9226  1.7713  0.6303
  447TMC3    H2 6718   4.436   2.374  10.945  0.4204  0.4186 -0.5100
  447TMC3    C7 6719   4.512   2.299  11.163  0.6747  0.7683  0.3908
  447TMC3    C8 6720   4.172   2.407  10.835  0.5735 -0.7832  0.3081
  447TMC3    O1 6721   4.602   2.266  11.082  0.4185 -0.4274 -0.4050
  447TMC3    O2 6722   4.060   2.388  10.786  0.1977 -0.1717 -0.3262
  448TMC3    C1 6723   1.960   1.157  16.932 -0.0636  0.2765  0.0598
  448TMC3    C2 6724   2.011   1.129  16.812 -0.2802  0.2642  0.4200
  448TMC3    C3 6725   2.012   1.002  16.775  0.2850 -0.7304 -0.0307
  448TMC3    C4 6726   1.900   1.062  17.007 -0.7356  0.3314  0.0329
  448TMC3    C5 6727   1.904   0.927  16.977  0.9544  0.4656 -0.1858
  448TMC3    C6 6728   1.969   0.897  16.858  0.3819  0.0024 -0.2728
  448TMC3     C 6729   1.938   1.292  16.971 -0.3539  0.4462 -0.1624
  448TMC3     O 6730   1.923   1.309  17.094 -0.1823  0.3703  0.4975
  448TMC3     H 6731   2.062   1.205  16.753 -0.0496 -0.2260 -0.0148
  448TMC3    H1 6732   1.863   1.087  17.106  2.1144  0.8953  0.9573
  448TMC3    H2 6733   1.980   0.793  16.828  0.5997 -0.0764  0.0752
  448TMC3    C7 6734   1.901   0.831  17.089 -0.5801 -0.0192 -0.3104
  448TMC3    C8 6735   2.055   0.964  16.644  0.1712  0.1154  0.0059
  448TMC3    O1 6736   1.883   0.888  17.196 -0.1706 -0.1947  0.3475
  448TMC3    O2 6737   2.085   0.847  16.630  0.1315 -0.5748 -0.1754
  449MPD2     C 6738   3.775   0.350  13.429  0.0222 -0.1034  0.6712
  449MPD2    C1 6739   3.656   0.295  13.388  0.8049 -0.3567  0.4880
  449MPD2    C2 6740   3.610   0.176  13.443 -0.1136  1.1111  0.1186
  449MPD2    C3 6741   3.679   0.126  13.552 -0.3700 -0.1602 -0.5521
  449MPD2    C4 6742   3.794   0.187  13.602 -1.2684 -0.2494  0.4971
  449MPD2    C5 6743   3.847   0.296  13.532  0.1221 -0.2098 -0.9087
  449MPD2     H 6744   3.518   0.129  13.411 -0.4389  1.1190  1.0375
  449MPD2    H1 6745   3.852   0.142  13.682 -1.4590 -0.4826  0.5054
  449MPD2    H2 6746   3.813   0.440  13.383  1.6628 -1.6651 -1.0091
  449MPD2    H3 6747   3.933   0.345  13.578 -0.7020  0.1954  0.1785
  449MPD2     N 6748   3.620   0.014  13.608  0.4777 -0.3029 -0.3678
  449MPD2    H5 6749   3.528   4.729  13.572  0.6989  0.7360 -1.6583
  449MPD2    N1 6750   3.575   0.344  13.292  0.0855 -0.3117  0.1575
  449MPD2    H7 6751   3.491   0.289  13.280 -1.6275  2.3045  0.1761
  450TMC3    C1 6752   3.481   0.475  13.117  0.1211  0.1023  0.3959
  450TMC3    C2 6753   3.529   0.460  12.991  0.3165 -0.4457 -0.3967
  450TMC3    C3 6754   3.484   0.361  12.904  0.5343 -0.5276  0.9177
  450TMC3    C4 6755   3.366   0.405  13.146  0.0156  1.1137  0.5531
  450TMC3    C5 6756   3.318   0.306  13.066 -0.0274 -0.0234 -0.4194
  450TMC3    C6 6757   3.374   0.286  12.943  0.0895 -0.0830  0.1813
  450TMC3     C 6758   3.587   0.461  13.222  0.6133  0.0319 -0.5587
  450TMC3     O 6759   3.670   0.548  13.228 -0.5840  0.2993  0.1647
  450TMC3     H 6760   3.602   0.533  12.958 -2.5260  2.4084 -0.2839
  450TMC3    H1 6761   3.332   0.417  13.248 -1.6105  0.5594  0.0721
  450TMC3    H2 6762   3.339   0.202  12.884  1.3668 -0.9565  0.6553
  450TMC3    C7 6763   3.275   0.186  13.142 -0.1964  0.0407  0.3379
  450TMC3    C8 6764   3.555   0.314  12.786 -0.3467  0.5670 -0.0671
  450TMC3    O1 6765   3.333   0.174  13.249  0.3397  0.2342 -0.3664
  450TMC3    O2 6766   3.499   0.238  12.710  0.0011  0.4111 -0.1258
  451MPD2     C 6767   0.153   3.942   1.490 -0.2950 -0.4993 -0.2106
  451MPD2    C1 6768   0.258   3.976   1.414 -0.3179  0.9833 -0.2805
  451MPD2    C2 6769   0.360   3.884   1.384  0.0102  0.5212 -0.3242
  451MPD2    C3 6770   0.357   3.755   1.438 -0.5718 -0.4203  0.1096
  451MPD2    C4 6771   0.253   3.723   1.530 -0.4521  0.2396 -0.0229
  451MPD2    C5 6772   0.153   3.819   1.556  0.0706  0.7915 -0.1368
  451MPD2     H 6773   0.452   3.900   1.329  0.0422  1.4278 -0.0014
  451MPD2    H1 6774   0.254   3.626   1.577  1.0783 -0.4662 -1.5301
  451MPD2    H2 6775   0.072   4.011   1.511  0.0431  0.1728 -1.1435
  451MPD2    H3 6776   0.075   3.791   1.625  1.2593  0.4740  1.0866
  451MPD2     N 6777   0.454   3.662   1.421  0.0425 -0.3822 -0.0693
  451MPD2    H5 6778   0.444   3.577   1.475  0.7000  0.6224  1.6148
  451MPD2    N1 6779   0.246   4.109   1.373  0.0835  0.2849  0.8597
  451MPD2    H7 6780   0.154   4.153   1.367  0.7497  1.6910  1.1671
  452TMC3    C1 6781   0.640   3.562   1.343 -0.3969  0.5886  0.5059
  452TMC3    C2 6782   0.670   3.516   1.469  0.4381 -0.4498 -0.0405
  452TMC3    C3 6783   0.760   3.415   1.483 -0.3989  0.1537  0.4039
  452TMC3    C4 6784   0.702   3.513   1.236  0.1685  0.5859  0.0991
  452TMC3    C5 6785   0.785   3.406   1.255  0.0283 -0.0393  0.1298
  452TMC3    C6 6786   0.812   3.350   1.376  0.1165  0.0779 -0.7982
  452TMC3     C 6787   0.557   3.671   1.334  0.1568  0.6308  0.2610
  452TMC3     O 6788   0.577   3.749   1.244  0.8212  1.0043 -0.0659
  452TMC3     H 6789   0.619   3.557   1.555  0.5196  0.0869 -0.2500
  452TMC3    H1 6790   0.678   3.550   1.137  0.9702  0.2837 -0.2098
  452TMC3    H2 6791   0.889   3.274   1.383 -1.7399 -1.7766 -0.4114
  452TMC3    C7 6792   0.812   3.331   1.134  0.0721 -0.2302  0.5702
  452TMC3    C8 6793   0.773   3.351   1.611  0.0764 -0.6323  0.5915
  452TMC3    O1 6794   0.822   3.393   1.032  0.1952  0.1360 -0.7507
  452TMC3    O2 6795   0.815   3.235   1.608 -0.2640 -0.8068  0.1851
  453TMC3    C1 6796   0.947   0.881  12.320  0.1612  0.5985 -0.3445
  453TMC3    C2 6797   0.928   0.815  12.199 -0.0723  0.2522  0.1128
  453TMC3    C3 6798   0.849   0.878  12.107  0.8792  0.4956 -0.0641
  453TMC3    C4 6799   0.867   0.991  12.357 -0.4214  0.8485 -0.2302
  453TMC3    C5 6800   0.775   1.040  12.265  0.3082 -0.2538 -0.3285
  453TMC3    C6 6801   0.772   0.987  12.136 -0.8955 -0.3795 -0.0485
  453TMC3     C 6802   1.088   0.905  12.349 -0.2111  0.4253 -0.4829
  453TMC3     O 6803   1.171   0.863  12.269 -0.1865  0.2168  0.6580
  453TMC3     H 6804   0.993   0.731  12.178  0.0914  0.3926  0.0623
  453TMC3    H1 6805   0.892   1.050  12.444  0.7803  0.3396 -0.2329
  453TMC3    H2 6806   0.699   1.019  12.063  2.0569 -2.1950 -3.7525
  453TMC3    C7 6807   0.683   1.146  12.299  0.3512 -0.6438  0.0636
  453TMC3    C8 6808   0.922   0.902  11.981  0.6603 -0.0092  0.0726
  453TMC3    O1 6809   0.636   1.217  12.208 -0.0302  0.0167  0.2825
  453TMC3    O2 6810   0.899   1.002  11.910  0.1742 -0.6113  0.1869
  454MPD2     C 6811   0.315   4.694  16.079 -0.9289 -0.1950 -0.1064
  454MPD2    C1 6812   0.298   0.052  15.975  0.0324 -0.0883 -0.0441
  454MPD2    C2 6813   0.277   0.184  16.007  0.0188  0.1237 -0.7433
  454MPD2    C3 6814   0.285   0.235  16.139 -0.4350 -1.1023  0.0951
  454MPD2    C4 6815   0.312   0.144  16.235  0.8613  0.0416  0.4217
  454MPD2    C5 6816   0.326   0.010  16.206 -0.3815  0.4539  0.3667
  454MPD2     H 6817   0.255   0.248  15.922  1.2546  0.6875 -0.6419
  454MPD2    H1 6818   0.303   0.168  16.340  1.1314 -0.1051  0.4788
  454MPD2    H2 6819   0.330   4.588  16.063 -1.2402  0.1074 -2.3041
  454MPD2    H3 6820   0.340   4.678  16.286 -0.0702 -0.9126 -0.9031
  454MPD2     N 6821   0.214   0.345  16.185 -0.3246 -0.1837 -0.6823
  454MPD2    H5 6822   0.190   0.343  16.283  1.2638  1.2229 -0.2504
  454MPD2    N1 6823   0.278   0.020  15.838  0.3922  0.5914 -0.3150
  454MPD2    H7 6824   0.259   0.101  15.780 -0.9178 -1.1817 -2.3552
  455TMC3    C1 6825   0.020   0.475  16.166 -0.2172  0.2224  0.2585
  455TMC3    C2 6826   0.020   0.493  16.305 -0.1441 -0.4864  0.3762
  455TMC3    C3 6827   4.649   0.462  16.375  0.1523 -0.1044 -0.0537
  455TMC3    C4 6828   4.646   0.431  16.113 -0.1846  0.0336 -0.1444
  455TMC3    C5 6829   4.532   0.407  16.186  0.3873 -0.3073 -0.4793
  455TMC3    C6 6830   4.533   0.423  16.320 -0.0448 -0.5281 -0.8528
  455TMC3     C 6831   0.142   0.427  16.100  0.1887  0.1533  0.9546
  455TMC3     O 6832   0.163   0.449  15.984  0.2252  0.3831  0.3470
  455TMC3     H 6833   0.114   0.528  16.345  0.1893 -0.3115 -0.5592
  455TMC3    H1 6834   4.654   0.420  16.005 -0.1802  1.0001 -0.2453
  455TMC3    H2 6835   4.447   0.402  16.382 -0.3270  0.8316 -0.7820
  455TMC3    C7 6836   4.477   0.282  16.138 -0.3367  0.1067  0.1801
  455TMC3    C8 6837   4.656   0.530  16.507  0.0098 -0.1739 -0.4634
  455TMC3    O1 6838   4.368   0.279  16.080  0.1984 -0.4721 -0.3036
  455TMC3    O2 6839   0.027   0.534  16.565 -0.2386  0.3365 -0.2533
  456MPD2     C 6840   2.776   0.523  15.437 -1.1240  0.0905 -0.9183
  456MPD2    C1 6841   2.756   0.396  15.500  0.0940 -0.5762 -0.3934
  456MPD2    C2 6842   2.657   0.381  15.594 -0.7531 -0.0819  0.1595
  456MPD2    C3 6843   2.581   0.486  15.638 -0.0690  0.1755  0.7841
  456MPD2    C4 6844   2.604   0.607  15.586 -0.4291 -0.0158 -0.0171
  456MPD2    C5 6845   2.697   0.628  15.486 -0.2994 -0.3478 -0.1857
  456MPD2     H 6846   2.655   0.282  15.638 -2.0098  0.4564  1.3059
  456MPD2    H1 6847   2.541   0.692  15.610  1.7751  1.4864  0.4949
  456MPD2    H2 6848   2.850   0.544  15.361  2.8001 -3.8900  1.7810
  456MPD2    H3 6849   2.699   0.722  15.432 -0.7261 -0.2191  0.0246
  456MPD2     N 6850   2.499   0.466  15.754 -0.0558  0.2508  0.2371
  456MPD2    H5 6851   2.483   0.373  15.790 -2.7385  1.9117  3.2966
  456MPD2    N1 6852   2.842   0.290  15.459  0.2128 -0.2004 -0.1120
  456MPD2    H7 6853   2.919   0.313  15.397  1.4342 -0.2258  1.3987
  457TMC3    C1 6854   2.353   0.510  15.934 -0.4450 -0.2515 -0.2199
  457TMC3    C2 6855   2.274   0.604  15.994 -0.0701  0.7896  0.3984
  457TMC3    C3 6856   2.236   0.585  16.124 -0.0746 -0.4398 -0.3941
  457TMC3    C4 6857   2.399   0.395  16.004  1.1073  0.3749  0.7133
  457TMC3    C5 6858   2.368   0.397  16.139  0.2838  0.5792  0.0555
  457TMC3    C6 6859   2.278   0.484  16.193  0.1096 -0.1744 -0.3061
  457TMC3     C 6860   2.410   0.550  15.807  0.3914 -0.2909 -0.4311
  457TMC3     O 6861   2.389   0.667  15.777 -0.3902  0.0077  0.1717
  457TMC3     H 6862   2.231   0.690  15.943  2.9107  1.9512 -0.1923
  457TMC3    H1 6863   2.480   0.333  15.966  0.0819 -1.2929  1.2238
  457TMC3    H2 6864   2.262   0.485  16.300  2.1212 -0.1176 -0.0024
  457TMC3    C7 6865   2.415   0.294  16.217  0.1455 -0.7438  0.8862
  457TMC3    C8 6866   2.181   0.691  16.205 -0.1264  0.4236  0.6122
  457TMC3    O1 6867   2.422   0.310  16.339 -0.2941  0.1275 -0.2110
  457TMC3    O2 6868   2.125   0.652  16.310  0.1692  0.4453 -0.3589
  458MPD2     C 6869   0.080   4.605  12.622 -0.1110 -0.2127  0.6757
  458MPD2    C1 6870   0.157   4.500  12.677  0.1844  0.7215  0.2997
  458MPD2    C2 6871   0.079   4.401  12.730  0.1143 -0.4158 -0.4444
  458MPD2    C3 6872   4.680   4.404  12.744  0.1292 -0.0874 -0.2701
  458MPD2    C4 6873   4.605   4.516  12.704  0.7460  0.5092 -0.4965
  458MPD2    C5 6874   4.676   4.610  12.637  0.1163 -0.4830  0.2383
  458MPD2     H 6875   0.123   4.307  12.762  2.1266  0.5995 -0.2613
  458MPD2    H1 6876   4.500   4.534  12.721  0.8236  2.0115 -1.6468
  458MPD2    H2 6877   0.126   4.689  12.571 -0.2532 -0.7969 -0.3876
  458MPD2    H3 6878   4.613   4.687  12.593  0.5489  0.2158  0.8393
  458MPD2     N 6879   4.614   4.291  12.802  0.2799  0.2553 -0.5532
  458MPD2    H5 6880   4.660   4.201  12.810  0.7428  0.4916 -0.5119
  458MPD2    N1 6881   0.299   4.503  12.677 -0.5211 -0.2217  0.1539
  458MPD2    H7 6882   0.348   4.579  12.631 -2.4992  2.1384  1.8779
  459TMC3    C1 6883   0.523   4.470  12.762 -0.2528  0.7945 -0.3081
  459TMC3    C2 6884   0.572   4.540  12.653 -0.2067 -0.0975  0.0179
  459TMC3    C3 6885   0.707   4.563  12.654 -0.4217  0.8099 -0.5242
  459TMC3    C4 6886   0.605   4.418  12.861 -0.2235  0.5607 -0.0464
  459TMC3    C5 6887   0.740   4.449  12.858  0.5292  0.2749  0.3458
  459TMC3    C6 6888   0.792   4.524  12.758 -0.2497  0.7159 -0.0687
  459TMC3     C 6889   0.382   4.421  12.755 -0.2545  0.2201 -0.3340
  459TMC3     O 6890   0.354   4.322  12.824  0.4557 -0.2689  0.2339
  459TMC3     H 6891   0.506   4.566  12.571  0.4871 -0.1746 -0.5659
  459TMC3    H1 6892   0.561   4.357  12.939  1.7626  0.2336  0.8196
  459TMC3    H2 6893   0.900   4.527  12.747 -0.1996 -2.4642 -0.4588
  459TMC3    C7 6894   0.827   4.408  12.965 -0.0256  0.3084 -0.3310
  459TMC3    C8 6895   0.775   4.634  12.545 -0.0141  0.1409 -0.2164
  459TMC3    O1 6896   0.942   4.451  12.964  0.1914  0.3133  0.0887
  459TMC3    O2 6897   0.893   4.658  12.554  0.5088  0.2146 -0.0675
  460MPD2     C 6898   4.376   2.642  10.647  0.0202  0.3723 -0.1413
  460MPD2    C1 6899   4.269   2.563  10.670 -0.0577  0.0118 -0.1649
  460MPD2    C2 6900   4.164   2.575  10.583 -0.3677  0.5265  0.3322
  460MPD2    C3 6901   4.174   2.642  10.458 -0.1467 -0.1486 -0.4161
  460MPD2    C4 6902   4.293   2.710  10.435  0.1781  0.3611 -0.0975
  460MPD2    C5 6903   4.392   2.709  10.531 -0.0893 -0.3567 -0.0848
  460MPD2     H 6904   4.070   2.524  10.597  0.2501 -1.1832 -1.8912
  460MPD2    H1 6905   4.318   2.742  10.335  1.0018  1.6929  0.5353
  460MPD2    H2 6906   4.459   2.644  10.715 -2.0735  0.8217  2.4128
  460MPD2    H3 6907   4.488   2.758  10.519  0.1576 -0.8942 -0.2917
  460MPD2     N 6908   4.071   2.624  10.362  0.9911 -0.1331  0.4596
  460MPD2    H5 6909   3.992   2.571  10.396 -1.8416  2.7540 -1.6870
  460MPD2    N1 6910   4.267   2.487  10.791 -0.0844  0.7423  0.8198
  460MPD2    H7 6911   4.351   2.500  10.847  1.5752 -0.8699 -1.2924
  461TMC3    C1 6912   3.941   2.655  10.168 -0.0674  0.0931 -0.2488
  461TMC3    C2 6913   3.915   2.522  10.135 -0.5818  0.1259 -0.0804
  461TMC3    C3 6914   3.857   2.495  10.011 -0.9498  0.0294 -1.1160
  461TMC3    C4 6915   3.891   2.755  10.098  0.0960 -0.5771 -0.3677
  461TMC3    C5 6916   3.821   2.727   9.981  0.3756  0.7787  0.1919
  461TMC3    C6 6917   3.813   2.601   9.931  0.4122  0.5781  0.4454
  461TMC3     C 6918   4.056   2.695  10.243  0.2317 -0.8339 -0.6483
  461TMC3     O 6919   4.122   2.788  10.202  0.0018 -0.0843  0.0169
  461TMC3     H 6920   3.962   2.447  10.197 -1.9145 -0.6786 -0.0499
  461TMC3    H1 6921   3.912   2.856  10.129 -1.7848 -1.0848  2.5492
  461TMC3    H2 6922   3.771   2.585   9.833 -0.5424  1.4976  0.7053
  461TMC3    C7 6923   3.778   2.838   9.892 -0.1516 -0.4232 -1.1043
  461TMC3    C8 6924   3.911   2.371   9.950  0.0102  0.2493 -0.0093
  461TMC3    O1 6925   3.727   2.801   9.785  0.5531 -0.5148 -0.3182
  461TMC3    O2 6926   3.997   2.307  10.013  0.4444 -0.3249 -0.1983
  462TMC3    C1 6927   0.010   2.107  17.345 -0.1707 -0.1026 -0.2653
  462TMC3    C2 6928   0.053   1.976  17.320  0.8827  0.0323  0.3817
  462TMC3    C3 6929   4.727   1.874  17.386 -0.5224 -0.0130 -0.0482
  462TMC3    C4 6930   4.657   2.135  17.442  0.1855  0.4915 -0.0649
  462TMC3    C5 6931   4.600   2.032  17.508  0.2381 -0.0767 -0.3724
  462TMC3    C6 6932   4.621   1.897  17.467 -0.4736 -0.2465  0.4019
  462TMC3     C 6933   0.061   2.222  17.270  1.0570 -0.0125  0.6912
  462TMC3     O 6934   0.043   2.333  17.318  0.0793 -0.3084 -0.0412
  462TMC3     H 6935   0.143   1.961  17.262  0.3846  3.7927 -1.3545
  462TMC3    H1 6936   4.636   2.239  17.462  1.0025  0.1364  2.6376
  462TMC3    H2 6937   4.594   1.813  17.530 -1.3579 -1.6976 -1.9167
  462TMC3    C7 6938   4.501   2.064  17.612  1.0167 -0.0425 -0.2759
  462TMC3    C8 6939   0.025   1.738  17.360 -0.2765  0.6724  0.4007
  462TMC3    O1 6940   4.418   1.974  17.640  0.1402  0.0437 -0.4342
  462TMC3    O2 6941   4.727   1.651  17.440 -0.3930 -0.2799  0.1424
  463MPD2     C 6942   0.567   1.717   1.731  0.2503  0.4604 -0.2551
  463MPD2    C1 6943   0.487   1.777   1.638 -0.2681 -0.2164 -0.2424
  463MPD2    C2 6944   0.521   1.909   1.595  0.7736 -0.4694 -0.5321
  463MPD2    C3 6945   0.637   1.976   1.641  0.2948 -0.0358 -0.4873
  463MPD2    C4 6946   0.720   1.910   1.730 -0.3302 -0.2537 -0.1223
  463MPD2    C5 6947   0.683   1.783   1.768  0.0016 -0.3327  0.7777
  463MPD2     H 6948   0.453   1.951   1.521 -1.2866  0.9107  2.1064
  463MPD2    H1 6949   0.805   1.957   1.779 -0.6389 -0.1874  0.3458
  463MPD2    H2 6950   0.549   1.617   1.769  0.4944  0.3995 -0.2997
  463MPD2    H3 6951   0.747   1.735   1.841 -0.5180 -0.2891  1.2603
  463MPD2     N 6952   0.685   2.105   1.604  0.4387 -0.1398 -0.7419
  463MPD2    H5 6953   0.775   2.140   1.633 -0.8664  1.9474  0.7791
  463MPD2    N1 6954   0.369   1.718   1.582  0.2775 -0.4382  0.0205
  463MPD2    H7 6955   0.311   1.769   1.516  1.7008  1.7164  0.4416
  464TMC3    C1 6956   0.204   1.559   1.541 -0.8315 -0.2407  0.1077
  464TMC3    C2 6957   0.118   1.656   1.504  0.2532 -0.2668  0.0515
  464TMC3    C3 6958   0.013   1.622   1.426 -0.3238  0.6593  0.2698
  464TMC3    C4 6959   0.182   1.432   1.503  0.2328 -0.1627 -0.3851
  464TMC3    C5 6960   0.079   1.405   1.414 -0.4923 -0.6882 -0.0455
  464TMC3    C6 6961   4.725   1.494   1.381  0.4170 -0.4467  0.2877
  464TMC3     C 6962   0.328   1.589   1.616  0.1784 -0.4735  0.0837
  464TMC3     O 6963   0.393   1.492   1.654  0.1720  0.7845  0.2800
  464TMC3     H 6964   0.127   1.759   1.537 -0.7352 -0.8360  2.0966
  464TMC3    H1 6965   0.253   1.353   1.526 -0.7619 -1.1255 -0.5906
  464TMC3    H2 6966   4.636   1.460   1.328  2.5595  1.2992 -4.3763
  464TMC3    C7 6967   0.067   1.264   1.376  0.7566 -0.2058  0.2001
  464TMC3    C8 6968   4.664   1.737   1.396 -0.1504 -0.7273 -0.0501
  464TMC3    O1 6969   0.126   1.178   1.440  0.0652  0.5149 -0.5842
  464TMC3    O2 6970   4.712   1.850   1.398 -0.1962 -0.6166  0.0742
  465MPD2     C 6971   1.855   4.420  16.280  0.1889 -0.2259 -0.5306
  465MPD2    C1 6972   1.775   4.479  16.376  0.1701  0.1659 -0.4932
  465MPD2    C2 6973   1.673   4.565  16.343 -0.0541  0.2531 -0.4014
  465MPD2    C3 6974   1.662   4.606  16.210  0.0759  0.0605 -0.3893
  465MPD2    C4 6975   1.757   4.561  16.118  0.3866 -0.4714  0.0550
  465MPD2    C5 6976   1.846   4.462  16.150 -0.7542 -0.5863  0.1486
  465MPD2     H 6977   1.602   4.610  16.411  0.0585 -0.2446  0.0384
  465MPD2    H1 6978   1.749   4.596  16.016  1.0095  1.5719  0.6902
  465MPD2    H2 6979   1.940   4.355  16.295  0.0199 -0.6348 -1.3710
  465MPD2    H3 6980   1.901   4.417  16.069  0.4311  0.2086  0.5048
  465MPD2     N 6981   1.552   4.694  16.173  0.5047 -0.0620  0.0121
  465MPD2    H5 6982   1.483   4.707  16.245  0.6222 -0.8123  0.2616
  465MPD2    N1 6983   1.786   4.444  16.512  0.2828 -0.3496  0.0347
  465MPD2    H7 6984   1.720   4.485  16.578 -1.0739  2.2375 -2.9440
  466TMC3    C1 6985   1.241   0.209  16.189 -0.0865 -0.4060  0.7101
  466TMC3    C2 6986   1.279   0.340  16.161  0.7543 -0.0961  0.6968
  466TMC3    C3 6987   1.394   0.369  16.094  0.0125  0.8747  0.1294
  466TMC3    C4 6988   1.323   0.103  16.157  0.5185 -0.2817  0.2410
  466TMC3    C5 6989   1.435   0.141  16.085  0.0186 -0.0790 -0.0209
  466TMC3    C6 6990   1.482   0.267  16.058 -0.0972  0.8187 -0.0790
  466TMC3     C 6991   1.130   0.186  16.280 -0.0382 -0.3414 -0.1330
  466TMC3     O 6992   1.151   0.111  16.375 -0.2128 -0.4815  1.0956
  466TMC3     H 6993   1.218   0.424  16.190 -0.4691 -0.4100 -0.9894
  466TMC3    H1 6994   1.292   4.739  16.160  0.5813 -0.3141 -0.2620
  466TMC3    H2 6995   1.581   0.292  16.023 -0.4650  2.6132  0.1841
  466TMC3    C7 6996   1.537   0.038  16.067 -0.5646 -0.4310 -0.0306
  466TMC3    C8 6997   1.440   0.505  16.082 -0.2291 -0.3855 -0.0131
  466TMC3    O1 6998   1.606   0.047  15.970  0.2667 -0.3676  0.1651
  466TMC3    O2 6999   1.535   0.531  16.007 -0.0164 -0.1372  0.3146
  467TMC3    C1 7000   2.821   3.622  13.595  0.4124  0.4072 -0.1370
  467TMC3    C2 7001   2.764   3.709  13.503 -0.7683  0.2184  1.4044
  467TMC3    C3 7002   2.626   3.708  13.483 -0.2101  0.4478  0.1989
  467TMC3    C4 7003   2.735   3.540  13.659 -0.3602  0.2279  0.6091
  467TMC3    C5 7004   2.595   3.541  13.629  0.2210 -0.6379 -0.3944
  467TMC3    C6 7005   2.535   3.626  13.542 -0.0176  0.2502  0.3046
  467TMC3     C 7006   2.944   3.660  13.665  0.0152  0.5884 -0.8072
  467TMC3     O 7007   2.969   3.602  13.770  1.0750  0.1892  0.6847
  467TMC3     H 7008   2.824   3.777  13.444 -0.6277 -1.0841  0.0387
  467TMC3    H1 7009   2.777   3.468  13.728  1.0829 -0.9356 -1.4946
  467TMC3    H2 7010   2.428   3.632  13.527  0.0917 -0.4026 -0.7498
  467TMC3    C7 7011   2.519   3.439  13.697 -0.1394 -0.4814  0.2234
  467TMC3    C8 7012   2.583   3.845  13.443 -0.0990 -0.3489 -0.3352
  467TMC3    O1 7013   2.576   3.356  13.766 -0.7886 -0.0884 -0.6090
  467TMC3    O2 7014   2.664   3.938  13.443  0.3028  0.5660 -0.8711
  468MPD2     C 7015   1.154   2.754  10.980 -0.7129 -0.0647 -0.7642
  468MPD2    C1 7016   1.284   2.711  10.965  0.3217  0.6721  0.1250
  468MPD2    C2 7017   1.301   2.582  10.928  0.0940 -0.3886 -0.5140
  468MPD2    C3 7018   1.190   2.493  10.922  0.8352  0.6043  0.2635
  468MPD2    C4 7019   1.067   2.534  10.955  0.0127 -0.6200 -0.3684
  468MPD2    C5 7020   1.050   2.667  10.976 -0.7031  0.1668  0.4565
  468MPD2     H 7021   1.397   2.544  10.895  0.4546  1.2598 -1.3568
  468MPD2    H1 7022   0.980   2.469  10.948  0.0168 -0.5244 -1.2899
  468MPD2    H2 7023   1.122   2.855  11.006  0.7772  0.4896 -1.0685
  468MPD2    H3 7024   0.949   2.704  10.992 -1.0621 -0.7398  0.3306
  468MPD2     N 7025   1.207   2.355  10.879  0.3620 -0.0913  0.7527
  468MPD2    H5 7026   1.129   2.296  10.904  2.5798 -2.4579  2.0624
  468MPD2    N1 7027   1.399   2.789  10.976 -0.5914  0.0406 -0.0417
  468MPD2    H7 7028   1.488   2.742  10.963 -0.6731  0.3740 -1.7753
  469TMC3    C1 7029   1.534   2.967  11.041 -0.5900 -0.2502 -0.4384
  469TMC3    C2 7030   1.636   2.917  10.964 -0.1345 -0.5671 -0.4165
  469TMC3    C3 7031   1.761   2.926  11.017 -0.6713  0.3311  0.3230
  469TMC3    C4 7032   1.553   3.009  11.167 -0.0295 -0.0194 -0.2793
  469TMC3    C5 7033   1.678   3.015  11.213  0.0726  0.9056 -0.0739
  469TMC3    C6 7034   1.791   2.985  11.137  0.1674 -0.3014 -0.4163
  469TMC3     C 7035   1.398   2.918  11.020 -0.7143  0.0997  0.6672
  469TMC3     O 7036   1.303   2.982  11.057 -0.2668  0.2004  0.5178
  469TMC3     H 7037   1.620   2.883  10.862  0.0070 -1.4178 -0.1521
  469TMC3    H1 7038   1.468   3.035  11.228  1.9521  1.9051  1.6502
  469TMC3    H2 7039   1.886   3.004  11.186 -0.2641 -0.1837  0.3777
  469TMC3    C7 7040   1.698   3.026  11.357 -0.9596 -0.5388 -0.3858
  469TMC3    C8 7041   1.866   2.839  10.966  0.2590  0.2509  0.6971
  469TMC3    O1 7042   1.813   3.055  11.388  0.3721 -0.0711 -0.2981
  469TMC3    O2 7043   1.847   2.788  10.855 -0.1026  0.5838  0.5468
  470TMC3    C1 7044   3.748   3.296   0.473  0.0731  0.0522 -0.4127
  470TMC3    C2 7045   3.811   3.412   0.495 -0.0229  0.0659 -0.4704
  470TMC3    C3 7046   3.862   3.434   0.616  0.2972 -1.0559  0.9546
  470TMC3    C4 7047   3.712   3.208   0.576 -0.4271 -0.4240  0.0697
  470TMC3    C5 7048   3.750   3.249   0.702 -0.3140 -0.1873 -0.2295
  470TMC3    C6 7049   3.837   3.348   0.725  0.7764 -1.5776 -0.0638
  470TMC3     C 7050   3.702   3.278   0.335 -1.3027 -0.2557 -0.1947
  470TMC3     O 7051   3.719   3.374   0.253  0.4748 -0.6152 -0.6683
  470TMC3     H 7052   3.834   3.482   0.416  2.2011 -0.1910 -0.0658
  470TMC3    H1 7053   3.648   3.123   0.556  2.0260 -1.6047 -2.7066
  470TMC3    H2 7054   3.867   3.377   0.825 -1.6394  4.3896 -1.0535
  470TMC3    C7 7055   3.701   3.163   0.812 -0.8015  0.5698 -0.2077
  470TMC3    C8 7056   3.929   3.565   0.639 -0.3309 -0.0488  0.1202
  470TMC3    O1 7057   3.688   3.049   0.781  0.3338 -0.2936 -0.8674
  470TMC3    O2 7058   3.900   3.663   0.568  0.5836 -0.0028  0.1307
  471MPD2     C 7059   4.066   3.884  16.610  0.7235  0.1480  0.1050
  471MPD2    C1 7060   4.163   3.791  16.567  0.5392 -0.6145 -0.1825
  471MPD2    C2 7061   4.255   3.740  16.658 -0.1428 -0.1794 -0.8477
  471MPD2    C3 7062   4.256   3.775  16.787  0.0046 -0.5545  0.5190
  471MPD2    C4 7063   4.167   3.870  16.829 -0.0296  0.0172  0.3663
  471MPD2    C5 7064   4.076   3.924  16.741  0.2588 -0.2934  0.0066
  471MPD2     H 7065   4.308   3.655  16.618  0.0046  0.5829 -2.2838
  471MPD2    H1 7066   4.168   3.899  16.933 -1.0680  0.5701  0.2247
  471MPD2    H2 7067   3.994   3.925  16.541 -0.8048 -1.4275  0.7442
  471MPD2    H3 7068   3.997   3.989  16.778  2.2870  1.1535  1.7679
  471MPD2     N 7069   4.342   3.711  16.875 -0.5369  0.3403 -0.0042
  471MPD2    H5 7070   4.349   3.759  16.964  0.5714  0.2318 -0.0384
  471MPD2    N1 7071   4.160   3.730  16.431  0.4310 -0.5094 -0.5306
  471MPD2    H7 7072   4.247   3.680  16.415 -0.0015 -1.4328  0.0003
  472TMC3    C1 7073   4.100   3.648  16.233  0.4155 -0.5067  0.0543
  472TMC3    C2 7074   4.031   3.651  16.117 -0.4024  0.4356  0.1509
  472TMC3    C3 7075   4.057   3.551  16.023 -0.0432  0.0761  0.0286
  472TMC3    C4 7076   4.188   3.548  16.268 -0.2567 -0.6458  0.3912
  472TMC3    C5 7077   4.208   3.451  16.177 -0.3501 -0.5151 -0.0016
  472TMC3    C6 7078   4.153   3.457  16.050  0.0122  0.3192  0.2946
  472TMC3     C 7079   4.073   3.752  16.334 -0.0559  0.2490 -0.3483
  472TMC3     O 7080   3.976   3.820  16.313 -0.1502  0.0988 -0.1307
  472TMC3     H 7081   3.965   3.732  16.090 -0.3510 -0.1232 -1.6853
  472TMC3    H1 7082   4.250   3.537  16.356 -1.0855  1.4113  1.2338
  472TMC3    H2 7083   4.183   3.391  15.969 -0.3288 -2.0995  2.1619
  472TMC3    C7 7084   4.193   3.324  16.235 -0.4592 -0.1344  0.1393
  472TMC3    C8 7085   3.946   3.488  15.965  0.1361  0.0920  0.6520
  472TMC3    O1 7086   4.226   3.307  16.352  0.1736 -0.5780 -0.2707
  472TMC3    O2 7087   3.942   3.367  15.962  0.0287 -0.7766 -0.0451
  473MPD2     C 7088   4.336   1.707  13.668 -0.2508 -0.4108 -0.4795
  473MPD2    C1 7089   4.214   1.742  13.720  0.3895 -1.1227 -0.1269
  473MPD2    C2 7090   4.193   1.730  13.856 -0.0667  0.5569 -0.5370
  473MPD2    C3 7091   4.285   1.682  13.940 -0.4283  0.3615  0.4788
  473MPD2    C4 7092   4.398   1.630  13.885 -0.4413 -0.1089  0.5620
  473MPD2    C5 7093   4.429   1.651  13.756  0.3089  0.5864  0.3574
  473MPD2     H 7094   4.093   1.763  13.884 -0.4509  1.2202 -2.6765
  473MPD2    H1 7095   4.474   1.594  13.953 -0.1572  1.1167  0.8966
  473MPD2    H2 7096   4.368   1.707  13.564  0.7246  2.2038 -0.1728
  473MPD2    H3 7097   4.526   1.617  13.725  0.6632  0.3247  1.7339
  473MPD2     N 7098   4.267   1.656  14.078 -0.4831  1.0844 -0.8401
  473MPD2    H5 7099   4.333   1.599  14.131 -1.6514  1.5499  1.1397
  473MPD2    N1 7100   4.099   1.766  13.638  0.6466  0.0370  0.1227
  473MPD2    H7 7101   4.008   1.764  13.684  0.6862 -3.1141  0.0419
  474TMC3    C1 7102   4.183   1.686  14.290 -0.6623  0.3358  0.4565
  474TMC3    C2 7103   4.081   1.753  14.363  0.5552 -0.2436 -0.3424
  474TMC3    C3 7104   4.102   1.812  14.484 -0.1429  0.2825  0.4626
  474TMC3    C4 7105   4.313   1.701  14.336 -0.0536  0.0072  0.4874
  474TMC3    C5 7106   4.327   1.769  14.460  0.5184 -0.1193  0.3656
  474TMC3    C6 7107   4.229   1.824  14.536  0.3362  0.6699 -0.3549
  474TMC3     C 7108   4.162   1.698  14.148  0.1385 -0.4247 -0.4368
  474TMC3     O 7109   4.063   1.757  14.111 -0.5069  0.3907 -0.9681
  474TMC3     H 7110   3.983   1.749  14.318  0.2604 -0.4606  0.3320
  474TMC3    H1 7111   4.402   1.659  14.291 -0.9542 -0.3872 -0.9190
  474TMC3    H2 7112   4.247   1.884  14.624  1.1346  0.1614 -0.1746
  474TMC3    C7 7113   4.465   1.773  14.510  1.3439  0.3369  0.4252
  474TMC3    C8 7114   4.004   1.913  14.507  0.0791 -0.3413 -0.0448
  474TMC3    O1 7115   4.550   1.753  14.428 -0.0700  0.0331 -0.0337
  474TMC3    O2 7116   3.887   1.891  14.476 -0.6120  0.7399 -0.0636
  475MPD2     C 7117   2.227   4.625  11.795 -0.5521  0.1324 -0.9255
  475MPD2    C1 7118   2.289   4.678  11.686 -0.2417  0.6214 -0.0156
  475MPD2    C2 7119   2.212   4.718  11.582 -0.2880  0.5475  0.1337
  475MPD2    C3 7120   2.076   4.725  11.593  0.3925  0.2074  0.2936
  475MPD2    C4 7121   2.019   4.688  11.714 -0.6979 -0.4994 -0.0420
  475MPD2    C5 7122   2.094   4.640  11.813 -0.3968  0.4762 -0.3091
  475MPD2     H 7123   2.261   0.013  11.492 -0.2720  0.4329  0.0991
  475MPD2    H1 7124   1.914   4.705  11.733 -0.1133  1.5132  1.3675
  475MPD2    H2 7125   2.275   4.576  11.878  0.9893  3.0980 -0.0729
  475MPD2    H3 7126   2.042   4.606  11.902  0.4664 -1.2852 -0.4735
  475MPD2     N 7127   2.005   0.049  11.487  0.2379  1.0336  0.2606
  475MPD2    H5 7128   2.066   0.097  11.421 -0.9406  0.3200 -1.3529
  475MPD2    N1 7129   2.432   4.701  11.695  0.2077 -0.3950  0.3945
  475MPD2    H7 7130   2.475   4.689  11.786  0.7409  0.6059  0.2871
  476TMC3    C1 7131   2.633   0.083  11.666 -0.1584  0.2562 -0.5417
  476TMC3    C2 7132   2.706   0.134  11.562 -0.0777  0.6001 -0.7344
  476TMC3    C3 7133   2.776   0.246  11.586  0.1635  0.2701 -0.1183
  476TMC3    C4 7134   2.611   0.151  11.785  0.8024  0.3110 -0.6043
  476TMC3    C5 7135   2.676   0.274  11.800  1.5103  0.5057 -0.2322
  476TMC3    C6 7136   2.766   0.309  11.704  0.0543 -0.0401 -0.4342
  476TMC3     C 7137   2.511   0.031  11.608  0.0037  0.1764  0.2362
  476TMC3     O 7138   2.483   0.065  11.494 -0.0795 -0.3256  0.1710
  476TMC3     H 7139   2.731   0.071  11.478  0.4007 -0.6489  0.3321
  476TMC3    H1 7140   2.521   0.133  11.842 -0.0166 -1.4101 -2.4517
  476TMC3    H2 7141   2.832   0.395  11.711 -3.0038  2.0825  2.1666
  476TMC3    C7 7142   2.583   0.375  11.857 -0.1186 -0.5275 -0.3573
  476TMC3    C8 7143   2.809   0.326  11.467 -0.0300 -0.3315  0.3613
  476TMC3    O1 7144   2.491   0.337  11.922  0.8889  0.0512 -0.8057
  476TMC3    O2 7145   2.871   0.431  11.486  0.4747  0.5201 -0.5095
  477MPD2     C 7146   0.251   1.792  11.816  0.0165 -0.5811 -0.2901
  477MPD2    C1 7147   0.197   1.690  11.743  0.3378  0.1697 -0.2429
  477MPD2    C2 7148   0.195   1.560  11.791 -0.0123 -0.2918 -0.1389
  477MPD2    C3 7149   0.255   1.531  11.911  0.0646 -0.0108  0.1448
  477MPD2    C4 7150   0.300   1.635  11.987 -0.5082 -0.1993  0.0065
  477MPD2    C5 7151   0.298   1.766  11.939  0.1585  0.2465 -0.2023
  477MPD2     H 7152   0.148   1.485  11.729 -1.6481 -1.0888  2.0909
  477MPD2    H1 7153   0.344   1.627  12.085 -2.9983  3.7471  1.4704
  477MPD2    H2 7154   0.251   1.897  11.789 -1.9369 -0.2608  0.9925
  477MPD2    H3 7155   0.339   1.840  12.007  1.6705 -1.5882  0.8997
  477MPD2     N 7156   0.253   1.393  11.949  1.4486 -0.0357  0.1085
  477MPD2    H5 7157   0.224   1.319  11.886  3.2342  0.0319 -0.7817
  477MPD2    N1 7158   0.143   1.732  11.623 -0.2737 -0.0381  0.1338
  477MPD2    H7 7159   0.123   1.831  11.623  1.4238  0.3019  0.8408
  478TMC3    C1 7160   0.001   1.743  11.445 -0.6516 -0.4166 -0.6535
  478TMC3    C2 7161   4.652   1.814  11.518  0.8239 -0.5250  0.5689
  478TMC3    C3 7162   4.549   1.872  11.458 -0.5386  0.0732  0.3721
  478TMC3    C4 7163   4.721   1.720  11.313 -0.4721 -0.4489  0.1810
  478TMC3    C5 7164   4.626   1.796  11.250 -0.1306  0.0698  0.2223
  478TMC3    C6 7165   4.535   1.867  11.320  0.6995  0.1543  0.0138
  478TMC3     C 7166   0.081   1.654  11.526  0.7670  0.0325 -0.3290
  478TMC3     O 7167   0.089   1.536  11.499  0.1723  0.2288 -0.5061
  478TMC3     H 7168   4.658   1.823  11.626 -1.6780 -0.2415  0.6803
  478TMC3    H1 7169   0.040   1.651  11.253 -1.1193 -0.7168 -0.1424
  478TMC3    H2 7170   4.444   1.913  11.282 -0.0280 -0.9010  0.4853
  478TMC3    C7 7171   4.588   1.736  11.121  0.0722 -0.3026  0.3860
  478TMC3    C8 7172   4.439   1.895  11.547 -0.8034  0.2474 -0.6057
  478TMC3    O1 7173   4.665   1.653  11.071  0.6697 -0.2868  0.2271
  478TMC3    O2 7174   4.412   1.812  11.634 -0.2244  0.1176 -0.2966
  479MPD2     C 7175   3.891   3.332  15.133  1.1045  0.7842 -0.1856
  479MPD2    C1 7176   3.809   3.270  15.227 -0.0357 -0.9540  0.4265
  479MPD2    C2 7177   3.871   3.211  15.342  0.0429  0.2858 -1.1927
  479MPD2    C3 7178   4.011   3.224  15.357 -0.2230 -0.9130  0.3217
  479MPD2    C4 7179   4.087   3.273  15.253  0.2487 -0.5765  0.1652
  479MPD2    C5 7180   4.032   3.322  15.147 -0.1520  0.7716  0.1572
  479MPD2     H 7181   3.814   3.163  15.420  1.5482 -0.8943 -0.8297
  479MPD2    H1 7182   4.195   3.273  15.255  0.2335 -1.3930  1.2391
  479MPD2    H2 7183   3.855   3.375  15.040 -1.6191 -1.9536 -0.3919
  479MPD2    H3 7184   4.101   3.349  15.068 -0.2825 -1.9691 -0.8671
  479MPD2     N 7185   4.080   3.161  15.463 -0.0761 -0.7237 -0.0043
  479MPD2    H5 7186   4.180   3.151  15.445 -0.3591 -1.5246 -1.0446
  479MPD2    N1 7187   3.667   3.272  15.210  0.1170  0.0017  0.0764
  479MPD2    H7 7188   3.632   3.331  15.135  2.2769  1.9355  0.5848
  480TMC3    C1 7189   3.716   3.091  15.747 -0.4030 -0.8244  0.2426
  480TMC3    C2 7190   3.690   3.221  15.767  0.3643 -0.5054  0.6815
  480TMC3    C3 7191   3.771   3.308  15.702  0.2702 -0.3628 -0.0623
  480TMC3    C4 7192   3.832   3.052  15.686 -0.2670 -0.3331  0.5174
  480TMC3    C5 7193   3.918   3.137  15.638 -0.6280 -0.0469 -0.4566
  480TMC3    C6 7194   3.892   3.272  15.643 -0.4440 -0.1288  0.2715
  480TMC3     C 7195   3.642   2.984  15.812 -0.4035  0.3855 -0.2515
  480TMC3     O 7196   3.677   2.867  15.798 -0.1968 -0.1243 -0.3051
  480TMC3     H 7197   3.606   3.258  15.825  1.3337 -0.9483  2.3597
  480TMC3    H1 7198   3.858   2.947  15.677  1.2254  0.2673 -1.9923
  480TMC3    H2 7199   3.964   3.350  15.622  1.1778 -1.3409  1.2932
  480TMC3    C7 7200   4.038   3.090  15.573  0.0007 -0.4980 -0.2234
  480TMC3    C8 7201   3.696   3.401  15.623  0.4094 -0.2035 -0.0635
  480TMC3    O1 7202   4.103   3.017  15.645 -0.3069 -0.2739 -0.3743
  480TMC3    O2 7203   3.576   3.412  15.651 -0.2879  0.4566 -0.7151
  481MPD2     C 7204   0.699   3.009  14.134  0.4931 -0.1870  0.2722
  481MPD2    C1 7205   0.594   2.949  14.191 -0.5093 -0.3396  0.5203
  481MPD2    C2 7206   0.613   2.872  14.307 -0.3734  0.1112  0.0537
  481MPD2    C3 7207   0.734   2.878  14.372  0.4235 -0.2596  0.0209
  481MPD2    C4 7208   0.835   2.953  14.316  0.1206 -0.1956 -0.1980
  481MPD2    C5 7209   0.824   3.017  14.196  0.3261 -0.2416 -0.1034
  481MPD2     H 7210   0.529   2.822  14.354 -0.3135  1.3663  1.4760
  481MPD2    H1 7211   0.929   2.966  14.369 -1.6335  1.9910  2.4018
  481MPD2    H2 7212   0.688   3.057  14.037 -2.7224 -0.7300  0.3641
  481MPD2    H3 7213   0.904   3.069  14.144 -0.2926  0.6556 -0.1510
  481MPD2     N 7214   0.758   2.831  14.500 -0.1267 -0.0076 -0.2829
  481MPD2    H5 7215   0.836   2.873  14.551 -1.2938  3.8820 -1.6838
  481MPD2    N1 7216   0.468   2.951  14.122  0.1640 -0.2171 -0.0838
  481MPD2    H7 7217   0.463   3.006  14.037  2.3327  0.7484  0.4393
  482TMC3    C1 7218   0.235   2.903  14.079 -1.0279 -0.1322  0.1950
  482TMC3    C2 7219   0.128   2.818  14.082 -0.0414  0.0836 -0.1379
  482TMC3    C3 7220   0.027   2.833  13.992  0.0020  0.0377  0.0154
  482TMC3    C4 7221   0.218   3.022  14.020 -1.1325 -0.8357  0.2105
  482TMC3    C5 7222   0.113   3.042  13.939 -0.3755 -0.3970  0.6381
  482TMC3    C6 7223   0.019   2.947  13.913  0.6802  0.0579  0.1213
  482TMC3     C 7224   0.359   2.878  14.149 -0.2944  0.0038 -0.5385
  482TMC3     O 7225   0.342   2.795  14.236  0.5210 -0.0394 -0.0585
  482TMC3     H 7226   0.140   2.720  14.126 -0.7070 -0.1266 -0.4227
  482TMC3    H1 7227   0.294   3.099  14.030 -1.5749 -0.2260 -1.1773
  482TMC3    H2 7228   4.667   2.969  13.859  0.2932 -1.4752  0.1518
  482TMC3    C7 7229   0.102   3.175  13.887 -1.0319  0.0509  0.4384
  482TMC3    C8 7230   4.664   2.728  13.997 -0.8803  0.9925  0.3945
  482TMC3    O1 7231   0.149   3.262  13.962  0.5593 -0.4638 -0.2841
  482TMC3    O2 7232   4.676   2.653  14.097 -0.3880 -0.0388  0.1195
  483TMC3    C1 7233   2.660   1.633   0.385 -0.4886  0.0360 -0.3055
  483TMC3    C2 7234   2.728   1.738   0.423 -0.4300  0.3366  0.2552
  483TMC3    C3 7235   2.868   1.733   0.433  0.2783 -0.1480  0.6008
  483TMC3    C4 7236   2.726   1.519   0.350  0.4235  0.5719  0.3399
  483TMC3    C5 7237   2.860   1.516   0.366  0.1469 -0.6788  0.4619
  483TMC3    C6 7238   2.938   1.626   0.396 -0.4332 -0.1018  0.6502
  483TMC3     C 7239   2.518   1.632   0.353 -0.4914  0.2753  0.1894
  483TMC3     O 7240   2.465   1.727   0.292 -0.0851  0.3641 -0.6314
  483TMC3     H 7241   2.679   1.828   0.460  1.8167  1.7071 -0.0816
  483TMC3    H1 7242   2.667   1.430   0.333 -0.2832  0.8026  1.5867
  483TMC3    H2 7243   3.041   1.622   0.428 -0.0817 -0.4995 -0.5310
  483TMC3    C7 7244   2.940   1.391   0.339 -0.1250  0.4220 -0.8375
  483TMC3    C8 7245   2.930   1.852   0.492 -0.1606  0.2536 -0.9502
  483TMC3    O1 7246   3.060   1.403   0.319  0.0262 -0.2480 -0.3520
  483TMC3    O2 7247   2.859   1.915   0.572  0.0917 -0.1540  0.1095
  484MPD2     C 7248   0.652   0.030  12.223 -0.1991 -0.2355 -0.2420
  484MPD2    C1 7249   0.731   0.025  12.333  0.4424 -0.0805  0.8473
  484MPD2    C2 7250   0.833   0.122  12.350  0.5322  0.1410 -0.3081
  484MPD2    C3 7251   0.868   0.209  12.250  0.3477  0.0355  0.2261
  484MPD2    C4 7252   0.790   0.204  12.143 -0.5113  0.0029  0.2880
  484MPD2    C5 7253   0.687   0.116  12.124 -0.3687 -0.7054  0.6724
  484MPD2     H 7254   0.885   0.136  12.444  1.5231  1.4119 -1.0457
  484MPD2    H1 7255   0.791   0.283  12.070  3.5347 -0.2590  0.0680
  484MPD2    H2 7256   0.563   4.710  12.208 -1.0895  0.8009  0.9816
  484MPD2    H3 7257   0.615   0.129  12.044 -0.7999 -2.2681  0.7995
  484MPD2     N 7258   0.962   0.316  12.244  0.5324  0.0761 -0.0775
  484MPD2    H5 7259   0.964   0.371  12.159 -0.8155  0.0884 -0.1000
  484MPD2    N1 7260   0.696   4.668  12.438 -0.3258  0.0230  0.2460
  484MPD2    H7 7261   0.604   4.626  12.431 -0.2999 -0.1978  1.2418
  485TMC3    C1 7262   1.128   0.467  12.318  0.7509  0.4696 -0.2043
  485TMC3    C2 7263   1.162   0.521  12.436 -0.1115  0.6867  0.1474
  485TMC3    C3 7264   1.279   0.589  12.444  0.6625 -0.0260  0.1573
  485TMC3    C4 7265   1.213   0.478  12.212  0.3184  0.0835  0.1136
  485TMC3    C5 7266   1.318   0.566  12.213 -0.6857 -0.2239 -0.1811
  485TMC3    C6 7267   1.348   0.622  12.330  0.0027  0.5693 -0.2578
  485TMC3     C 7268   1.060   0.342  12.342  0.8345 -0.1408  0.2667
  485TMC3     O 7269   1.099   0.285  12.445  0.0193 -0.1525  0.0976
  485TMC3     H 7270   1.090   0.507  12.516  1.4667 -0.0523  1.4404
  485TMC3    H1 7271   1.205   0.413  12.126 -1.5982  0.5417 -0.0529
  485TMC3    H2 7272   1.438   0.681  12.346  1.6480 -2.5108  1.8195
  485TMC3    C7 7273   1.437   0.505  12.161  0.7524 -0.9555  0.0540
  485TMC3    C8 7274   1.374   0.540  12.549 -0.8234 -0.2074 -0.0304
  485TMC3    O1 7275   1.439   0.380  12.154  0.3766 -0.1525  1.0937
  485TMC3    O2 7276   1.489   0.585  12.547  0.5202 -0.5762 -0.1352
  486MPD2     C 7277   3.455   3.636  12.757 -0.4794  0.3212  0.2460
  486MPD2    C1 7278   3.376   3.555  12.678 -0.4414  0.3538  0.8392
  486MPD2    C2 7279   3.281   3.619  12.593  0.5022  0.5846  0.0853
  486MPD2    C3 7280   3.256   3.754  12.599  0.0552  0.0489 -0.4815
  486MPD2    C4 7281   3.343   3.826  12.679 -0.0319 -0.4841  0.1862
  486MPD2    C5 7282   3.440   3.770  12.757  0.0770  0.3456  0.3077
  486MPD2     H 7283   3.224   3.561  12.521  3.2671 -1.0320 -0.8119
  486MPD2    H1 7284   3.324   3.932  12.691  0.8715 -0.3655  0.5472
  486MPD2    H2 7285   3.530   3.605  12.829  1.0770  0.7646 -1.1866
  486MPD2    H3 7286   3.506   3.830  12.819 -0.1380 -0.0732  0.9408
  486MPD2     N 7287   3.151   3.809  12.519  0.1535 -0.3399 -0.0909
  486MPD2    H5 7288   3.107   3.755  12.446 -2.1894  2.2365 -0.5813
  486MPD2    N1 7289   3.393   3.409  12.687  0.5806 -0.3370  0.5040
  486MPD2    H7 7290   3.450   3.374  12.762  0.5086  1.0093  1.1939
  487TMC3    C1 7291   3.360   3.181  12.659  0.9740 -0.3882 -0.5843
  487TMC3    C2 7292   3.271   3.081  12.648 -0.6948 -0.0028 -0.3284
  487TMC3    C3 7293   3.295   2.960  12.710  0.2609 -0.5082  0.0246
  487TMC3    C4 7294   3.478   3.158  12.722 -0.1476  0.5771 -0.8188
  487TMC3    C5 7295   3.508   3.027  12.764  0.2398  0.5162 -0.3142
  487TMC3    C6 7296   3.420   2.925  12.749 -0.0107 -0.2057  0.1989
  487TMC3     C 7297   3.335   3.316  12.611  0.1874  0.7197  0.2838
  487TMC3     O 7298   3.252   3.342  12.524  0.1464  0.6607  0.3573
  487TMC3     H 7299   3.173   3.113  12.617 -1.9973 -1.8524  1.9124
  487TMC3    H1 7300   3.561   3.227  12.713 -1.1270  1.7831 -0.6627
  487TMC3    H2 7301   3.422   2.837  12.812  1.0182  0.5509  1.2145
  487TMC3    C7 7302   3.625   3.025  12.856 -0.2917  0.0548  0.5592
  487TMC3    C8 7303   3.175   2.881  12.728  0.4381 -0.1031 -0.8817
  487TMC3    O1 7304   3.647   3.136  12.908 -0.3053 -0.3057  0.0615
  487TMC3    O2 7305   3.090   2.914  12.646 -0.0098  0.1981 -0.1976
  488MPD2     C 7306   3.277   0.158  15.951 -0.3752 -0.0212  0.6413
  488MPD2    C1 7307   3.392   0.171  16.027 -0.0457 -0.3282 -0.2086
  488MPD2    C2 7308   3.406   0.112  16.148  0.8050 -0.3756  0.1945
  488MPD2    C3 7309   3.313   0.016  16.183  0.1203  0.2580 -0.3569
  488MPD2    C4 7310   3.206   4.727  16.103 -0.0728  0.2702  0.6291
  488MPD2    C5 7311   3.177   0.070  15.997  0.7563 -0.5744  0.1658
  488MPD2     H 7312   3.497   0.140  16.200 -0.0186 -1.1597  2.0673
  488MPD2    H1 7313   3.154   4.632  16.107  0.2252  0.1025  0.4822
  488MPD2    H2 7314   3.267   0.203  15.853  0.3019  0.1232  0.6321
  488MPD2    H3 7315   3.096   0.046  15.929  1.4038  0.0549 -0.8376
  488MPD2     N 7316   3.337   4.691  16.310 -0.5092  0.2088  0.2304
  488MPD2    H5 7317   3.421   4.712  16.363 -1.6695  0.3429  1.9910
  488MPD2    N1 7318   3.496   0.258  15.991 -0.1209 -0.4177  0.2499
  488MPD2    H7 7319   3.578   0.264  16.050  0.2840  1.2332 -0.4876
  489TMC3    C1 7320   3.284   4.589  16.508 -0.0669 -0.7032  0.3239
  489TMC3    C2 7321   3.350   4.683  16.581  0.0201  0.0725  0.0836
  489TMC3    C3 7322   3.331   4.692  16.717  0.1782 -0.1589  0.5145
  489TMC3    C4 7323   3.207   4.501  16.585  0.1370 -0.1963  0.4921
  489TMC3    C5 7324   3.199   4.511  16.723 -0.3705 -0.0469 -0.1606
  489TMC3    C6 7325   3.256   4.611  16.797  0.4099  0.4803 -0.7467
  489TMC3     C 7326   3.239   4.608  16.371 -0.1301  0.1569 -0.3858
  489TMC3     O 7327   3.129   4.567  16.334  0.6215 -0.0342  0.2985
  489TMC3     H 7328   3.408   0.020  16.529  0.7557 -1.8234 -1.8804
  489TMC3    H1 7329   3.146   4.432  16.527  0.5096 -0.7658  0.7813
  489TMC3    H2 7330   3.250   4.615  16.905  1.9976 -1.7943 -0.5617
  489TMC3    C7 7331   3.121   4.416  16.796  0.0212 -0.4040  0.1413
  489TMC3    C8 7332   3.360   0.086  16.770  0.1109 -0.2244  0.7162
  489TMC3    O1 7333   3.150   4.405  16.914 -0.8588  0.0092  0.1234
  489TMC3    O2 7334   3.424   0.161  16.696 -0.4897  0.4147  0.3711
  490MPD2     C 7335   4.301   0.082  17.006 -0.4043  0.1548  0.2198
  490MPD2    C1 7336   4.270   0.002  17.109  0.5653 -0.1657  0.7426
  490MPD2    C2 7337   4.355   4.717  17.216 -0.6629 -0.4891 -0.8381
  490MPD2    C3 7338   4.483   0.033  17.210 -0.1749 -0.3999 -0.5073
  490MPD2    C4 7339   4.522   0.101  17.095 -0.4039  0.1503 -0.0676
  490MPD2    C5 7340   4.433   0.126  16.993  0.0728 -1.1023  0.1478
  490MPD2     H 7341   4.344   4.639  17.289 -2.4466 -0.3571 -0.9838
  490MPD2    H1 7342   4.624   0.137  17.084 -0.3905  0.4139  0.9693
  490MPD2    H2 7343   4.238   0.098  16.920  0.6449  1.6770 -0.2786
  490MPD2    H3 7344   4.468   0.176  16.903 -0.6857  0.4027  0.6795
  490MPD2     N 7345   4.580   0.004  17.309 -0.1211  0.3905 -0.3941
  490MPD2    H5 7346   4.675   0.010  17.274  0.3112 -1.3042  0.4766
  490MPD2    N1 7347   4.148   4.673  17.116  0.1197  0.0138 -0.0492
  490MPD2    H7 7348   4.120   4.642  17.208  1.3758 -0.1426  0.2733
  491TMC3    C1 7349   3.940   4.582  17.057  0.4803 -0.3550 -0.3321
  491TMC3    C2 7350   3.877   4.628  17.167  0.0546 -0.4531 -0.1583
  491TMC3    C3 7351   3.799   4.534  17.230 -0.2630  0.5993 -0.3872
  491TMC3    C4 7352   3.909   4.465  16.991 -0.8651 -0.1372 -0.4040
  491TMC3    C5 7353   3.837   4.375  17.058  0.4588  0.8374  0.4358
  491TMC3    C6 7354   3.773   4.406  17.177  0.4369  0.6243 -0.6207
  491TMC3     C 7355   4.062   4.649  17.009  0.5623  0.5922 -0.1691
  491TMC3     O 7356   4.085   4.646  16.891 -0.3434  0.2740 -0.2926
  491TMC3     H 7357   3.909   4.714  17.225  1.1666 -0.4619 -0.7608
  491TMC3    H1 7358   3.957   4.435  16.899 -0.8422 -0.2723 -0.3473
  491TMC3    H2 7359   3.694   4.340  17.213  0.7242  0.9539  0.6122
  491TMC3    C7 7360   3.821   4.243  17.006 -0.9100 -0.1158  0.7980
  491TMC3    C8 7361   3.718   4.556  17.347 -0.1558  0.4128 -0.1938
  491TMC3    O1 7362   3.832   4.230  16.886 -0.5308  0.5309  0.7529
  491TMC3    O2 7363   3.670   4.460  17.399  0.0247  0.4754  0.1050
  492MPD2     C 7364   4.356   0.109  11.583 -0.1901 -0.1565  0.4318
  492MPD2    C1 7365   4.311   0.016  11.490 -0.4437 -0.2647 -0.7134
  492MPD2    C2 7366   4.257   4.640  11.536  0.5565  0.3726  0.1240
  492MPD2    C3 7367   4.249   4.618  11.673  0.3090 -0.6036  0.1138
  492MPD2    C4 7368   4.305   4.703  11.767 -0.0160  0.1353  0.2131
  492MPD2    C5 7369   4.356   0.084  11.717  0.1211 -0.0492  0.1700
  492MPD2     H 7370   4.203   4.576  11.467  0.6322 -1.1337  1.4445
  492MPD2    H1 7371   4.310   4.689  11.874  0.0423  0.2998  0.2313
  492MPD2    H2 7372   4.404   0.195  11.537  0.8322 -0.8402  0.2266
  492MPD2    H3 7373   4.383   0.165  11.784  1.0968 -0.6328  0.4914
  492MPD2     N 7374   4.177   4.509  11.734 -0.3613 -0.8148 -0.6411
  492MPD2    H5 7375   4.190   4.493  11.834  1.6738  0.4734 -0.7094
  492MPD2    N1 7376   4.312   0.043  11.353 -0.0865  0.0638 -0.5458
  492MPD2    H7 7377   4.357   0.130  11.324 -0.5195  0.5531  0.2361
  493TMC3    C1 7378   4.293   0.031  11.130 -0.5552  0.1288  0.0967
  493TMC3    C2 7379   4.394   0.122  11.120 -0.5105  0.2443 -0.1769
  493TMC3    C3 7380   4.415   0.182  10.995  0.0753  0.3465 -0.2097
  493TMC3    C4 7381   4.207   0.007  11.024  0.2997 -0.8350  0.3398
  493TMC3    C5 7382   4.241   0.058  10.900 -0.6709 -0.2132  0.0692
  493TMC3    C6 7383   4.340   0.148  10.887 -0.6912 -0.6366  0.0552
  493TMC3     C 7384   4.254   4.713  11.254  0.1908  0.3022 -0.3163
  493TMC3     O 7385   4.198   4.605  11.246 -0.3067 -0.8622  0.4699
  493TMC3     H 7386   4.460   0.143  11.204 -2.9519  0.3203  1.7265
  493TMC3    H1 7387   4.128   4.672  11.025 -0.6639  0.1410 -2.4478
  493TMC3    H2 7388   4.378   0.185  10.792  1.1907 -2.0675  0.2445
  493TMC3    C7 7389   4.145   0.033  10.792 -0.1168 -0.5560  0.1470
  493TMC3    C8 7390   4.507   0.301  10.990 -0.3458 -0.7216 -0.0029
  493TMC3    O1 7391   4.048   4.699  10.804  0.3947  0.0471 -0.0695
  493TMC3    O2 7392   4.561   0.339  11.091  0.3295 -0.4046 -0.3030
  494TMC3    C1 7393   0.033   2.033   0.174 -0.1049  0.3018  0.6993
  494TMC3    C2 7394   4.717   1.907   0.183 -0.0835 -0.3181  0.9163
  494TMC3    C3 7395   0.006   1.810   0.080 -0.0711 -0.0255  0.1843
  494TMC3    C4 7396   0.095   2.080   0.060 -0.7861  0.1892 -0.3055
  494TMC3    C5 7397   0.131   1.981  17.720 -0.0634 -0.0455 -1.0232
  494TMC3    C6 7398   0.093   1.848  17.731  0.6178 -0.3540 -1.1022
  494TMC3     C 7399   4.730   2.134   0.276 -0.0219  0.2129 -0.3306
  494TMC3     O 7400   4.662   2.092   0.370  0.1105 -0.5493 -0.1196
  494TMC3     H 7401   4.653   1.886   0.268  0.4084 -0.9976  1.1191
  494TMC3    H1 7402   0.126   2.183   0.053  0.3797 -0.0119  1.9393
  494TMC3    H2 7403   0.128   1.777  17.656 -2.7981 -2.3852 -0.7338
  494TMC3    C7 7404   0.227   2.017  17.615 -1.2186  0.1232  0.1757
  494TMC3    C8 7405   0.005   1.671   0.134  0.0538  0.7980  0.4121
  494TMC3    O1 7406   0.240   1.924  17.542 -0.0540  0.3257 -0.7033
  494TMC3    O2 7407   4.692   1.667   0.246 -0.3020  0.2028 -0.9745
  495TMC3    C1 7408   4.186   3.686  14.837 -0.3359  0.3219 -0.6556
  495TMC3    C2 7409   4.163   3.816  14.805  0.4554 -0.9703  0.4154
  495TMC3    C3 7410   4.141   3.910  14.905 -0.2566 -0.8242  0.4714
  495TMC3    C4 7411   4.185   3.652  14.971  0.0046  0.3267 -0.8059
  495TMC3    C5 7412   4.151   3.745  15.064 -0.2722 -0.6223 -0.6609
  495TMC3    C6 7413   4.120   3.867  15.032  0.2057 -0.0846 -0.6441
  495TMC3     C 7414   4.111   3.603  14.752 -0.3491  0.1941  0.6878
  495TMC3     O 7415   4.042   3.513  14.802  0.1707 -0.3659  0.2134
  495TMC3     H 7416   4.162   3.850  14.702  0.1504 -1.7360  0.1672
  495TMC3    H1 7417   4.193   3.548  15.002 -2.5341  0.0323 -1.1964
  495TMC3    H2 7418   4.082   3.930  15.111  0.1525 -0.1893 -0.5861
  495TMC3    C7 7419   4.066   3.702  15.175 -0.2401  0.1407  0.7285
  495TMC3    C8 7420   4.019   3.984  14.867  0.2609  0.4314  0.4915
  495TMC3    O1 7421   4.121   3.623  15.250 -0.0813 -0.2553 -0.4525
  495TMC3    O2 7422   3.924   3.954  14.943  0.0035 -0.6989 -0.2584
  496MPD2     C 7423   0.897   4.125  15.162 -0.1566 -0.4233 -0.5087
  496MPD2    C1 7424   0.878   4.012  15.087 -0.0392  0.0243 -0.1198
  496MPD2    C2 7425   0.767   3.933  15.115 -0.1095 -0.2667  0.2658
  496MPD2    C3 7426   0.674   3.969  15.222 -0.4192 -0.0844  0.1372
  496MPD2    C4 7427   0.697   4.086  15.292  0.4484 -0.0316 -0.8108
  496MPD2    C5 7428   0.807   4.164  15.258 -0.2236  0.4415 -0.2022
  496MPD2     H 7429   0.738   3.840  15.067  2.2411 -0.0598 -1.5852
  496MPD2    H1 7430   0.637   4.132  15.370  0.7513 -2.5282  0.8836
  496MPD2    H2 7431   0.981   4.192  15.145 -0.3019  0.1416  0.9947
  496MPD2    H3 7432   0.823   4.252  15.320 -0.3791  1.2272 -1.2770
  496MPD2     N 7433   0.567   3.886  15.262 -0.1261 -0.3966 -0.2706
  496MPD2    H5 7434   0.531   3.913  15.353 -1.5819 -1.9846 -0.3733
  496MPD2    N1 7435   0.970   3.987  14.989  0.4489  0.4705  0.6376
  496MPD2    H7 7436   1.047   4.052  14.986  0.4825  0.3657 -0.6045
  497TMC3    C1 7437   0.427   3.694  15.267 -0.8598 -0.9203 -0.8384
  497TMC3    C2 7438   0.322   3.622  15.204  0.0810 -0.1531 -0.4546
  497TMC3    C3 7439   0.264   3.532  15.284  0.0422 -0.4834  0.4729
  497TMC3    C4 7440   0.470   3.676  15.393  0.4533  0.6161 -0.0922
  497TMC3    C5 7441   0.418   3.570  15.461 -0.2054 -0.2023 -0.5301
  497TMC3    C6 7442   0.312   3.499  15.408 -0.7390  0.3505 -0.5037
  497TMC3     C 7443   0.516   3.778  15.187 -0.0733 -0.1511 -0.0356
  497TMC3     O 7444   0.518   3.758  15.067  0.1379 -0.5409  0.1332
  497TMC3     H 7445   0.283   3.660  15.111 -2.1100  1.0963  0.9729
  497TMC3    H1 7446   0.554   3.732  15.432  1.4543 -0.3816 -0.8386
  497TMC3    H2 7447   0.271   3.411  15.458  3.0127 -1.2487 -0.2520
  497TMC3    C7 7448   0.492   3.523  15.576 -0.2939  0.3718  0.2907
  497TMC3    C8 7449   0.124   3.510  15.254  0.1396  0.0164  0.1477
  497TMC3    O1 7450   0.451   3.413  15.618  0.3320 -0.0478  0.4209
  497TMC3    O2 7451   0.090   3.513  15.134  0.3230  0.6753  0.1911
  498MPD2     C 7452   2.711   0.656  10.738 -0.5327  0.0706 -0.8041
  498MPD2    C1 7453   2.630   0.670  10.626  0.1915  0.1079  0.2435
  498MPD2    C2 7454   2.530   0.578  10.607 -0.2457 -0.3109  0.0116
  498MPD2    C3 7455   2.509   0.467  10.688 -0.5586 -0.0509  0.0627
  498MPD2    C4 7456   2.595   0.441  10.788 -0.4015 -0.3518 -0.0933
  498MPD2    C5 7457   2.697   0.539  10.809 -0.3242  0.1486 -0.2185
  498MPD2     H 7458   2.463   0.595  10.523  0.3060 -1.7612 -0.7237
  498MPD2    H1 7459   2.588   0.354  10.852 -0.8234 -0.6702 -0.5661
  498MPD2    H2 7460   2.796   0.718  10.762  0.2528 -2.2684  2.5433
  498MPD2    H3 7461   2.766   0.526  10.892 -1.3678  0.5273  0.7198
  498MPD2     N 7462   2.402   0.384  10.655 -0.0450  0.2564 -0.0175
  498MPD2    H5 7463   2.352   0.414  10.572  0.9809  0.7167 -0.4705
  498MPD2    N1 7464   2.642   0.788  10.545 -0.2530 -0.0358  0.2122
  498MPD2    H7 7465   2.580   0.790  10.465  0.3367 -0.2138 -0.2427
  499TMC3    C1 7466   2.717   0.998  10.459  0.7837 -0.2882  0.0635
  499TMC3    C2 7467   2.834   1.073  10.439 -0.3422  0.9324  0.2042
  499TMC3    C3 7468   2.839   1.164  10.326  0.3005  0.7436  0.2036
  499TMC3    C4 7469   2.613   1.001  10.376  0.0433 -0.1388  0.6587
  499TMC3    C5 7470   2.625   1.093  10.269  0.2691  0.7092  0.7015
  499TMC3    C6 7471   2.729   1.180  10.245  0.3701  0.4525  0.2751
  499TMC3     C 7472   2.731   0.890  10.561 -0.0853  0.0079 -0.2038
  499TMC3     O 7473   2.823   0.894  10.636 -0.3706  0.0051  0.3634
  499TMC3     H 7474   2.919   1.051  10.502 -1.2050  0.3746  1.1791
  499TMC3    H1 7475   2.518   0.959  10.406  0.2132 -0.1471  1.1872
  499TMC3    H2 7476   2.724   1.255  10.167  1.0720  0.0930 -0.1147
  499TMC3    C7 7477   2.503   1.112  10.182  0.1949  0.1886 -0.1064
  499TMC3    C8 7478   2.967   1.209  10.275  0.0394 -0.2699  0.1125
  499TMC3    O1 7479   2.493   1.220  10.126  0.5519  0.7014  0.8905
  499TMC3    O2 7480   2.964   1.311  10.207 -0.8338 -0.0987  0.1761
  500MPD2     C 7481   3.276   1.218  10.732  0.3610  0.1141 -0.5250
  500MPD2    C1 7482   3.296   1.289  10.616  0.6293 -0.0397 -0.8837
  500MPD2    C2 7483   3.192   1.369  10.567  0.0081  0.1389  0.3632
  500MPD2    C3 7484   3.070   1.378  10.636  0.2769  0.0304 -1.1608
  500MPD2    C4 7485   3.051   1.299  10.745 -1.0788  0.6489 -0.3155
  500MPD2    C5 7486   3.154   1.219  10.792  0.5736 -0.0286 -0.3311
  500MPD2     H 7487   3.213   1.411  10.469 -4.1489 -0.1906 -0.6852
  500MPD2    H1 7488   2.958   1.308  10.799 -1.3067 -0.9104 -0.4536
  500MPD2    H2 7489   3.351   1.153  10.775  1.1366 -0.5858 -2.9401
  500MPD2    H3 7490   3.140   1.159  10.881  0.4169  0.8515  0.2352
  500MPD2     N 7491   2.959   1.448  10.585 -0.4433  0.4262  0.2006
  500MPD2    H5 7492   2.873   1.449  10.639 -0.6776 -1.5497 -0.1217
  500MPD2    N1 7493   3.424   1.301  10.545  0.0282  0.6950 -0.0034
  500MPD2    H7 7494   3.422   1.372  10.473 -0.1397  0.1562 -0.5321
  501TMC3    C1 7495   3.664   1.273  10.509  0.1570  0.0955  0.2310
  501TMC3    C2 7496   3.672   1.348  10.396  0.6475 -0.1341  0.3098
  501TMC3    C3 7497   3.798   1.366  10.338  0.1412  0.1456 -0.4739
  501TMC3    C4 7498   3.769   1.195  10.550  0.1416 -0.0797  0.0659
  501TMC3    C5 7499   3.893   1.212  10.490  0.4806  0.5175  0.0694
  501TMC3    C6 7500   3.908   1.304  10.386  0.4176 -0.1179 -0.6416
  501TMC3     C 7501   3.537   1.225  10.567 -0.5371  0.8697 -0.4979
  501TMC3     O 7502   3.546   1.131  10.643  0.3854  0.4352 -0.0769
  501TMC3     H 7503   3.589   1.414  10.374  1.7475  1.2905  0.3745
  501TMC3    H1 7504   3.761   1.124  10.631 -0.9673 -1.1331 -0.9686
  501TMC3    H2 7505   4.004   1.303  10.334 -0.0507  1.2086 -1.5273
  501TMC3    C7 7506   4.003   1.156  10.564 -0.0435 -0.0917  0.1363
  501TMC3    C8 7507   3.829   1.492  10.271 -0.3640 -0.0970  0.1556
  501TMC3    O1 7508   3.984   1.053  10.625 -0.2577  0.1314  0.4191
  501TMC3    O2 7509   3.944   1.530  10.293 -0.3328 -0.0926  0.6059
  502TMC3    C1 7510   3.365   4.692  14.829 -0.3038  0.6449 -0.4760
  502TMC3    C2 7511   3.396   0.055  14.749  0.9730  0.3289 -0.6315
  502TMC3    C3 7512   3.297   0.099  14.663 -0.1582 -0.4345  0.0905
  502TMC3    C4 7513   3.239   4.639  14.830 -0.0139  0.6377 -0.1837
  502TMC3    C5 7514   3.139   4.685  14.750 -0.7696  1.0876 -0.7122
  502TMC3    C6 7515   3.169   0.046  14.663  0.0394 -0.1346 -0.4865
  502TMC3     C 7516   3.461   4.654  14.934 -0.2703 -0.1590 -0.1022
  502TMC3     O 7517   3.578   4.689  14.915 -0.3358 -0.3813  0.2644
  502TMC3     H 7518   3.493   0.102  14.752 -0.4306  3.2976 -2.4878
  502TMC3    H1 7519   3.212   4.572  14.910 -1.7034  1.2868 -0.2025
  502TMC3    H2 7520   3.087   0.083  14.602  0.4331  0.5561 -0.5930
  502TMC3    C7 7521   2.998   4.640  14.774 -0.6320  0.3486 -0.2393
  502TMC3    C8 7522   3.335   0.197  14.567  0.4797 -0.2563 -0.0831
  502TMC3    O1 7523   2.908   4.710  14.723 -0.1191 -0.1937 -0.1470
  502TMC3    O2 7524   3.429   0.274  14.597  0.1392  0.7008 -0.1873
  503MPD2     C 7525   0.489   0.276  16.574 -0.2806 -0.0122 -0.0169
  503MPD2    C1 7526   0.503   0.336  16.700  0.1173 -0.5539  0.1283
  503MPD2    C2 7527   0.564   0.263  16.798 -0.1940 -0.0717  0.0062
  503MPD2    C3 7528   0.613   0.130  16.774 -0.3346  0.3403 -0.8809
  503MPD2    C4 7529   0.585   0.065  16.651  0.4922 -0.1751  0.4206
  503MPD2    C5 7530   0.529   0.145  16.554  0.2530 -0.1527  0.0163
  503MPD2     H 7531   0.570   0.302  16.899 -3.1196  0.7254 -0.1249
  503MPD2    H1 7532   0.627   4.706  16.630 -0.8274 -0.4943 -0.7426
  503MPD2    H2 7533   0.444   0.324  16.488  0.7035 -1.3723 -1.2966
  503MPD2    H3 7534   0.514   0.118  16.450 -0.5594  1.8190 -0.3897
  503MPD2     N 7535   0.678   0.061  16.881 -0.2064  0.4649 -0.2007
  503MPD2    H5 7536   0.688   0.116  16.966  1.8554 -0.4131  0.1329
  503MPD2    N1 7537   0.454   0.469  16.728  0.5569  0.2456  0.4601
  503MPD2    H7 7538   0.455   0.495  16.826  0.0977 -0.4738  0.6545
  504TMC3    C1 7539   0.839   4.662  16.966  0.3010 -0.0685  0.1325
  504TMC3    C2 7540   0.809   4.649  17.096 -0.2564  0.0322 -0.0133
  504TMC3    C3 7541   0.912   4.627  17.184 -0.6124 -0.1563 -0.3670
  504TMC3    C4 7542   0.968   4.647  16.916 -0.1115 -0.3027  0.2176
  504TMC3    C5 7543   1.066   4.623  17.009  0.2442  0.7538 -0.1671
  504TMC3    C6 7544   1.045   4.625  17.143 -0.3185  0.6009 -0.1040
  504TMC3     C 7545   0.728   4.673  16.873 -0.1522  0.0069  0.1162
  504TMC3     O 7546   0.728   4.580  16.792 -0.9258  0.0103  0.2325
  504TMC3     H 7547   0.705   4.643  17.128 -0.5367 -0.7001 -1.0744
  504TMC3    H1 7548   0.983   4.638  16.809 -0.3108  1.7537  0.0089
  504TMC3    H2 7549   1.126   4.622  17.216 -0.2190  0.1271 -0.2362
  504TMC3    C7 7550   1.165   4.552  16.943  0.2576 -0.8012 -0.1209
  504TMC3    C8 7551   0.874   4.575  17.313  0.3200 -0.6451 -0.4481
  504TMC3    O1 7552   1.207   4.597  16.839 -0.0902  0.1809  0.3509
  504TMC3    O2 7553   0.769   4.517  17.323 -0.4280 -0.3172  0.1722
  505MPD2     C 7554   1.283   0.966  10.696  0.0679  0.0048 -0.5117
  505MPD2    C1 7555   1.221   0.849  10.649 -0.0324 -0.5602 -0.9250
  505MPD2    C2 7556   1.176   0.755  10.740 -0.8781  0.0136  0.6419
  505MPD2    C3 7557   1.211   0.770  10.875 -0.4062 -0.1365  0.5389
  505MPD2    C4 7558   1.290   0.879  10.917  0.6538 -0.2517  0.8722
  505MPD2    C5 7559   1.316   0.983  10.825 -0.4558  0.5729 -0.4640
  505MPD2     H 7560   1.139   0.656  10.716 -0.3782  0.1034 -0.4884
  505MPD2    H1 7561   1.313   0.887  11.022  1.6441  1.6281  0.5069
  505MPD2    H2 7562   1.316   1.043  10.628 -1.7095  0.1114 -1.2593
  505MPD2    H3 7563   1.363   1.075  10.859 -0.5823 -0.5438  2.7264
  505MPD2     N 7564   1.200   0.661  10.964  0.0488  0.6711  0.3484
  505MPD2    H5 7565   1.256   0.664  11.049 -0.5776 -3.2717  0.8787
  505MPD2    N1 7566   1.225   0.827  10.507 -0.7145 -0.0846 -0.4023
  505MPD2    H7 7567   1.285   0.882  10.446 -0.0642 -0.3643 -0.0205
  506TMC3    C1 7568   1.185   0.718  10.296 -0.5142  0.3878 -0.2488
  506TMC3    C2 7569   1.315   0.697  10.266  0.1180  1.3166  0.3790
  506TMC3    C3 7570   1.349   0.591  10.186 -0.3071  0.1816  0.5786
  506TMC3    C4 7571   1.094   0.634  10.238  0.0670 -0.3204 -0.0180
  506TMC3    C5 7572   1.129   0.531  10.161  0.1921  0.0356  0.2863
  506TMC3    C6 7573   1.258   0.506  10.133  0.1237 -0.0206 -0.4421
  506TMC3     C 7574   1.157   0.727  10.438 -0.1567 -0.3900  0.2558
  506TMC3     O 7575   1.074   0.643  10.480  0.0760 -0.1655  0.2851
  506TMC3     H 7576   1.393   0.749  10.321  0.3323  0.2014  1.1134
  506TMC3    H1 7577   0.988   0.647  10.253 -0.0780 -1.2308 -0.2187
  506TMC3    H2 7578   1.280   0.427  10.062 -3.2365 -2.4574  1.2681
  506TMC3    C7 7579   1.053   0.411  10.193  0.0153 -0.0177 -0.4215
  506TMC3    C8 7580   1.481   0.541  10.208 -0.2317  0.1324 -0.9378
  506TMC3    O1 7581   1.060   0.323  10.105 -0.1176 -0.2894 -0.4528
  506TMC3    O2 7582   1.540   0.578  10.308 -0.3524 -0.3226  0.4046
  507TMC3    C1 7583   1.916   0.034  14.397  0.0077 -0.3749  0.7209
  507TMC3    C2 7584   1.831   4.695  14.322 -0.0608 -0.3732 -0.5628
  507TMC3    C3 7585   1.761   0.020  14.228  0.7284  0.6548  0.2347
  507TMC3    C4 7586   1.961   0.157  14.351  0.2266  0.8583 -0.5940
  507TMC3    C5 7587   1.892   0.215  14.242 -0.1700  0.5035  0.3524
  507TMC3    C6 7588   1.804   0.138  14.171 -0.1868 -0.4881 -0.0829
  507TMC3     C 7589   1.863   0.047  14.531 -0.4757  0.0650  0.0066
  507TMC3     O 7590   1.912   0.133  14.603 -0.6327 -0.7528 -0.8046
  507TMC3     H 7591   1.798   4.597  14.354  0.9861 -0.7739 -0.7169
  507TMC3    H1 7592   2.035   0.212  14.409 -0.2580  0.3587  0.4866
  507TMC3    H2 7593   1.734   0.184  14.102  0.1270 -1.6635 -1.1755
  507TMC3    C7 7594   1.818   0.323  14.297  0.5048 -0.4790  0.7094
  507TMC3    C8 7595   1.611   4.731  14.242 -0.4694  0.2299  0.3524
  507TMC3    O1 7596   1.694   0.309  14.292 -0.1099  0.2298 -0.2296
  507TMC3    O2 7597   1.584   4.620  14.298  0.0964  0.2900 -0.3064
  508MPD2     C 7598   2.370   1.901  15.617 -0.6154 -0.0307 -0.6100
  508MPD2    C1 7599   2.318   1.976  15.718  0.3530  0.8016 -0.1895
  508MPD2    C2 7600   2.254   2.093  15.683 -0.0423  0.8605  0.4320
  508MPD2    C3 7601   2.235   2.128  15.552  0.1764  0.6378 -1.1987
  508MPD2    C4 7602   2.286   2.051  15.454  0.2253  0.4591 -0.3248
  508MPD2    C5 7603   2.350   1.936  15.487 -0.0641  0.5864 -0.4482
  508MPD2     H 7604   2.223   2.163  15.760 -2.2721 -0.0977  0.3948
  508MPD2    H1 7605   2.272   2.078  15.350  0.4099 -1.0940 -0.7525
  508MPD2    H2 7606   2.420   1.807  15.641 -0.9085  0.7113  2.9002
  508MPD2    H3 7607   2.395   1.888  15.400  1.4703  0.0082  0.6699
  508MPD2     N 7608   2.169   2.252  15.532 -0.2615  0.3514  0.5736
  508MPD2    H5 7609   2.151   2.297  15.621  0.9512  2.2682 -0.1610
  508MPD2    N1 7610   2.342   1.937  15.857  0.1775  0.5807 -0.5250
  508MPD2    H7 7611   2.418   1.871  15.866 -0.5972 -0.0666  1.2629
  509TMC3    C1 7612   2.158   2.658  15.312  0.4271  0.3507  0.0213
  509TMC3    C2 7613   2.262   2.702  15.389 -0.1623 -0.4833  0.1863
  509TMC3    C3 7614   2.310   2.619  15.489 -0.8169  0.5306 -0.5855
  509TMC3    C4 7615   2.108   2.532  15.333  0.8375  0.5052  0.3864
  509TMC3    C5 7616   2.155   2.456  15.439  0.9295 -0.0867  0.2843
  509TMC3    C6 7617   2.263   2.494  15.505  0.1261 -0.0749  0.1507
  509TMC3     C 7618   2.076   2.750  15.243  0.8343  0.5432  0.6980
  509TMC3     O 7619   1.967   2.709  15.209  0.0503  0.2946  0.1223
  509TMC3     H 7620   2.284   2.807  15.399 -0.1305 -0.5495  0.7832
  509TMC3    H1 7621   2.035   2.487  15.266  1.5061  0.8290 -0.5410
  509TMC3    H2 7622   2.330   2.426  15.557  0.5008 -0.3278 -0.6529
  509TMC3    C7 7623   2.152   2.314  15.411  0.6516  0.2101 -0.2114
  509TMC3    C8 7624   2.432   2.652  15.560  0.1510 -0.1016 -0.0433
  509TMC3    O1 7625   2.171   2.277  15.295 -0.2246  0.1221  0.3579
  509TMC3    O2 7626   2.445   2.586  15.662 -0.0077 -0.4842  0.1942
  510MPD2     C 7627   0.419   4.243  14.453  0.4607 -1.0123  0.2584
  510MPD2    C1 7628   0.447   4.122  14.514 -0.4516  1.2351 -0.2137
  510MPD2    C2 7629   0.581   4.067  14.491 -0.1088  0.4141 -0.5086
  510MPD2    C3 7630   0.674   4.133  14.418  0.2349 -0.6392 -0.6495
  510MPD2    C4 7631   0.645   4.248  14.345  0.0812 -0.7440  0.2581
  510MPD2    C5 7632   0.520   4.290  14.370  0.5701  0.1752 -0.2474
  510MPD2     H 7633   0.615   3.989  14.558  2.6655 -0.9869 -3.5886
  510MPD2    H1 7634   0.711   4.300  14.276  1.9092  0.8228  3.1378
  510MPD2    H2 7635   0.316   4.274  14.447  0.7692  0.0039  0.3270
  510MPD2    H3 7636   0.493   4.366  14.297  0.1023 -0.3525 -0.6284
  510MPD2     N 7637   0.797   4.064  14.412  0.4138 -0.0388  0.1480
  510MPD2    H5 7638   0.803   3.979  14.467  0.1031 -0.1889 -0.0497
  510MPD2    N1 7639   0.357   4.049  14.596 -0.6087 -0.4086 -0.2053
  510MPD2    H7 7640   0.275   4.100  14.626  0.3214  0.8217  0.2117
  511TMC3    C1 7641   0.276   3.850  14.714  0.5470 -0.3942  0.1714
  511TMC3    C2 7642   0.192   3.933  14.779  0.1436 -0.3077 -0.1160
  511TMC3    C3 7643   0.109   3.863  14.861 -0.0401  0.3691 -0.0650
  511TMC3    C4 7644   0.292   3.721  14.732 -0.2587  0.4518 -0.2171
  511TMC3    C5 7645   0.210   3.657  14.819 -0.1099  0.4754  0.1372
  511TMC3    C6 7646   0.110   3.727  14.881 -0.0355  0.0233 -0.3167
  511TMC3     C 7647   0.354   3.911  14.604  0.3179 -0.9840 -0.6566
  511TMC3     O 7648   0.405   3.835  14.522 -0.2411 -0.2027 -0.1958
  511TMC3     H 7649   0.172   4.038  14.758  1.3988  0.1296  0.8960
  511TMC3    H1 7650   0.371   3.667  14.681 -0.0379  1.6539 -1.1445
  511TMC3    H2 7651   0.052   3.678  14.958  1.2407  1.1720  1.3833
  511TMC3    C7 7652   0.179   3.521  14.767  0.2282  0.3861 -0.7398
  511TMC3    C8 7653   0.019   3.942  14.937 -0.1805  0.8741  0.1464
  511TMC3    O1 7654   0.214   3.490  14.658  0.4393 -0.2844  0.7156
  511TMC3    O2 7655   0.021   4.065  14.942  0.0151  0.5046  0.7482
  512TMC3    C1 7656   3.865   3.564  12.865 -0.1409 -0.3914 -0.5736
  512TMC3    C2 7657   3.944   3.534  12.969  0.6559  0.6650 -0.1383
  512TMC3    C3 7658   3.991   3.401  12.977  0.4754  0.0958  0.5491
  512TMC3    C4 7659   3.843   3.481  12.764 -0.1063  0.0993 -0.3013
  512TMC3    C5 7660   3.889   3.349  12.776  0.1671 -0.0725  0.0731
  512TMC3    C6 7661   3.957   3.303  12.886  0.2091 -0.6919  1.5227
  512TMC3     C 7662   3.798   3.692  12.851  0.0558  0.8016 -0.3180
  512TMC3     O 7663   3.774   3.735  12.735  0.7953 -0.5651 -0.1094
  512TMC3     H 7664   3.971   3.613  13.038  1.2397 -1.3774  1.9633
  512TMC3    H1 7665   3.782   3.514  12.680 -0.6860  0.9364  0.4424
  512TMC3    H2 7666   3.988   3.202  12.908  0.6946 -0.8847 -0.0138
  512TMC3    C7 7667   3.843   3.251  12.676 -0.7995  0.0733 -0.3960
  512TMC3    C8 7668   4.072   3.358  13.090 -0.0533 -0.3941 -0.2904
  512TMC3    O1 7669   3.770   3.291  12.587  0.7770  0.4953 -0.3787
  512TMC3    O2 7670   4.066   3.242  13.124  0.4518 -0.2897 -0.0412
  513MPD2     C 7671   1.199   3.614  13.393 -0.4329 -0.0660  0.2821
  513MPD2    C1 7672   1.191   3.492  13.463 -0.0185  0.0919  0.1850
  513MPD2    C2 7673   1.315   3.439  13.502  0.4787  0.3557  0.3197
  513MPD2    C3 7674   1.436   3.502  13.489  0.0236 -0.4727  0.4361
  513MPD2    C4 7675   1.432   3.623  13.423  0.0581 -1.3193  0.3958
  513MPD2    C5 7676   1.320   3.679  13.380 -0.9909  0.3841  0.3895
  513MPD2     H 7677   1.320   3.349  13.562 -1.9926  0.5328  0.7798
  513MPD2    H1 7678   1.525   3.675  13.403  0.2272 -1.7187  0.1331
  513MPD2    H2 7679   1.109   3.657  13.350 -0.9891 -0.5445  0.9800
  513MPD2    H3 7680   1.324   3.770  13.320 -0.5182  0.9980  1.3613
  513MPD2     N 7681   1.555   3.441  13.533  0.1325  0.3293  0.1831
  513MPD2    H5 7682   1.547   3.347  13.571 -2.0953  0.6181  0.4838
  513MPD2    N1 7683   1.074   3.420  13.480 -0.2354  0.5084  0.1105
  513MPD2    H7 7684   0.986   3.460  13.448 -0.1903  0.8813  0.4543
  514TMC3    C1 7685   0.944   3.221  13.453  0.3908 -0.5008 -0.4179
  514TMC3    C2 7686   0.904   3.295  13.345  0.2702 -0.2045 -0.0459
  514TMC3    C3 7687   0.898   3.228  13.225  0.0772 -0.6085 -0.2040
  514TMC3    C4 7688   0.952   3.088  13.452  0.3615  0.1808  0.8919
  514TMC3    C5 7689   0.942   3.024  13.329 -0.2270  0.6253  0.0943
  514TMC3    C6 7690   0.916   3.095  13.213  1.0090  0.8107 -0.2350
  514TMC3     C 7691   1.064   3.286  13.512 -0.9314  0.3032 -0.1967
  514TMC3     O 7692   1.156   3.206  13.524 -0.0618  0.5192  0.3135
  514TMC3     H 7693   0.876   3.399  13.353 -2.6270 -0.9460 -0.6531
  514TMC3    H1 7694   0.974   3.043  13.548 -1.8162  1.2146  1.9019
  514TMC3    H2 7695   0.907   3.044  13.118 -0.9279 -0.6334  0.7312
  514TMC3    C7 7696   1.034   2.915  13.318  0.1653 -0.1014  0.0229
  514TMC3    C8 7697   0.875   3.309  13.112  0.2428 -0.6981 -0.6746
  514TMC3    O1 7698   1.037   2.858  13.210  0.4704  0.2867 -0.1509
  514TMC3    O2 7699   0.811   3.408  13.141 -0.0677 -0.2714  0.2615
  515MPD2     C 7700   3.757   0.638  14.675  0.0396  0.4295  0.4748
  515MPD2    C1 7701   3.852   0.546  14.657  0.1778  0.4608 -0.8993
  515MPD2    C2 7702   3.970   0.556  14.724 -0.1411 -0.5283  1.0258
  515MPD2    C3 7703   3.999   0.669  14.804 -0.2323 -0.0680 -0.7038
  515MPD2    C4 7704   3.904   0.769  14.815  0.4057 -0.0789 -0.6240
  515MPD2    C5 7705   3.788   0.752  14.745  0.2331  0.1396 -0.4633
  515MPD2     H 7706   4.036   0.470  14.730 -0.5162 -0.8074  1.1498
  515MPD2    H1 7707   3.923   0.851  14.884  1.6252 -2.0171  1.3562
  515MPD2    H2 7708   3.660   0.623  14.627  1.0731  0.5611 -1.6636
  515MPD2    H3 7709   3.709   0.827  14.743 -1.0013 -1.1718 -0.2494
  515MPD2     N 7710   4.126   0.682  14.873 -0.1548 -0.3715 -0.2166
  515MPD2    H5 7711   4.134   0.772  14.918 -0.1177 -0.8371  0.7015
  515MPD2    N1 7712   3.830   0.434  14.571 -0.0398  0.3494  0.0773
  515MPD2    H7 7713   3.905   0.367  14.584 -0.5439  0.1666  2.0001
  516TMC3    C1 7714   3.758   0.317  14.391  0.3874  0.3159  0.7139
  516TMC3    C2 7715   3.744   0.304  14.263  0.7147 -0.0630 -0.1271
  516TMC3    C3 7716   3.696   0.186  14.207  0.3540 -0.0344  0.1119
  516TMC3    C4 7717   3.733   0.210  14.480  0.2023 -0.1213  0.3334
  516TMC3    C5 7718   3.696   0.092  14.423  0.2079  0.5743 -0.4879
  516TMC3    C6 7719   3.674   0.079  14.286  0.1187 -0.0945 -0.1894
  516TMC3     C 7720   3.754   0.438  14.451 -0.3122 -0.2438 -0.6530
  516TMC3     O 7721   3.683   0.524  14.400 -0.6161  0.1676  0.3338
  516TMC3     H 7722   3.738   0.399  14.210 -0.5405 -0.7627 -1.2744
  516TMC3    H1 7723   3.719   0.226  14.586 -2.3503 -0.5082  0.0767
  516TMC3    H2 7724   3.650   4.719  14.249  0.9256 -0.5788  0.5967
  516TMC3    C7 7725   3.660   4.723  14.509  0.7253  0.0953 -0.4884
  516TMC3    C8 7726   3.637   0.191  14.077 -0.8505  0.1217 -0.4261
  516TMC3    O1 7727   3.730   4.709  14.609 -0.0472  0.0758 -0.0515
  516TMC3    O2 7728   3.550   0.115  14.042 -0.3102  0.1253  0.4486
  517MPD2     C 7729   3.547   1.553  17.460  0.2601 -0.1754  0.7490
  517MPD2    C1 7730   3.669   1.615  17.453 -0.0745  0.4386 -0.1234
  517MPD2    C2 7731   3.706   1.698  17.560 -0.6197  0.5945 -0.0680
  517MPD2    C3 7732   3.605   1.739  17.654  0.1100 -0.3641  0.5785
  517MPD2    C4 7733   3.481   1.678  17.651  0.1455  0.4519  1.1784
  517MPD2    C5 7734   3.456   1.581  17.559 -0.3018 -0.2679 -0.1142
  517MPD2     H 7735   3.805   1.743  17.562 -0.5201  0.2918  2.5534
  517MPD2    H1 7736   3.409   1.706  17.727  0.0662  0.1806  1.2013
  517MPD2    H2 7737   3.516   1.489  17.379 -1.9116  1.1245  0.5594
  517MPD2    H3 7738   3.369   1.515  17.558 -1.2994  1.0836 -1.3534
  517MPD2     N 7739   3.629   1.837   0.005  0.8073  0.4604  0.6148
  517MPD2    H5 7740   3.552   1.865   0.064 -1.1874 -3.4776 -0.1591
  517MPD2    N1 7741   3.765   1.580  17.349 -0.3940 -0.1248 -0.3943
  517MPD2    H7 7742   3.864   1.604  17.353  0.0201 -1.7666 -0.5974
  518TMC3    C1 7743   3.870   1.432  17.183 -0.7985  0.2794  0.6458
  518TMC3    C2 7744   3.856   1.307  17.131 -0.5607 -0.4569 -0.1619
  518TMC3    C3 7745   3.946   1.216  17.128  0.1956  0.5587 -0.5660
  518TMC3    C4 7746   3.994   1.466  17.234  1.0106  0.4424 -0.1562
  518TMC3    C5 7747   4.096   1.373  17.215 -0.0023 -0.3057  0.4725
  518TMC3    C6 7748   4.073   1.248  17.164  0.0741  0.3161 -0.2218
  518TMC3     C 7749   3.747   1.493  17.244  0.2327 -0.3384 -0.0143
  518TMC3     O 7750   3.645   1.447  17.195  0.3874  0.0026 -0.0304
  518TMC3     H 7751   3.758   1.285  17.088  0.8278 -2.7019 -2.1420
  518TMC3    H1 7752   4.017   1.558  17.286  1.6807  0.8221 -1.1244
  518TMC3    H2 7753   4.140   1.165  17.181  0.9171  0.9623 -0.3698
  518TMC3    C7 7754   4.215   1.403  17.298 -0.5473 -0.3798 -0.0170
  518TMC3    C8 7755   3.910   1.074  17.129  0.4395  0.3026  0.4996
  518TMC3    O1 7756   4.198   1.479  17.395 -0.2566  0.1105  0.5692
  518TMC3    O2 7757   4.010   0.999  17.127  0.9721  0.9032  0.7446
  519MPD2     C 7758   0.629   0.306  14.337 -0.6710 -0.1174  0.4070
  519MPD2    C1 7759   0.550   0.302  14.226 -0.6494 -0.0397  0.1211
  519MPD2    C2 7760   0.615   0.266  14.112  0.1131  0.2959 -0.5730
  519MPD2    C3 7761   0.752   0.226  14.108  0.4098  0.6901 -1.1781
  519MPD2    C4 7762   0.823   0.230  14.227  0.2832  0.7212  0.4623
  519MPD2    C5 7763   0.763   0.276  14.341  0.2843  0.4208  0.1030
  519MPD2     H 7764   0.563   0.267  14.017  0.3964  1.0106 -0.7205
  519MPD2    H1 7765   0.924   0.190  14.225 -0.1318 -0.3238  0.3019
  519MPD2    H2 7766   0.580   0.336  14.430 -0.2125  0.8271  0.3356
  519MPD2    H3 7767   0.815   0.284  14.435  1.1668 -0.9317 -0.2856
  519MPD2     N 7768   0.812   0.171  13.986 -0.3384 -0.0452 -0.1202
  519MPD2    H5 7769   0.911   0.147  13.993 -0.5139 -0.1259  2.1617
  519MPD2    N1 7770   0.413   0.341  14.233  0.1237  0.3805  0.5197
  519MPD2    H7 7771   0.366   0.353  14.322 -0.6427  0.8118  0.0633
  520TMC3    C1 7772   0.833   0.090  13.764  0.1101 -0.3986  0.7455
  520TMC3    C2 7773   0.779   0.088  13.634 -0.3577  0.1377 -0.1554
  520TMC3    C3 7774   0.815   4.722  13.556  0.4384 -0.0223  0.5689
  520TMC3    C4 7775   0.923   4.735  13.817  0.0597  0.0403  0.3665
  520TMC3    C5 7776   0.974   4.655  13.715  0.3752 -0.2608 -0.0464
  520TMC3    C6 7777   0.923   4.647  13.590 -0.1956 -1.0320 -0.5427
  520TMC3     C 7778   0.750   0.162  13.863 -0.4254  0.6303  0.6780
  520TMC3     O 7779   0.644   0.205  13.820 -0.5270  0.0561  0.1189
  520TMC3     H 7780   0.697   0.157  13.617  0.8454  1.5022 -0.4118
  520TMC3    H1 7781   0.955   4.728  13.920  1.0116 -1.5060 -0.0391
  520TMC3    H2 7782   0.949   4.567  13.522 -0.5593 -0.6756 -1.1027
  520TMC3    C7 7783   1.106   4.594  13.746 -0.1868  0.1263  0.1468
  520TMC3    C8 7784   0.744   4.680  13.438 -0.6911  0.2261  0.0200
  520TMC3    O1 7785   1.126   4.572  13.866  0.0545 -0.4071  0.3849
  520TMC3    O2 7786   0.804   4.649  13.334  0.3490  0.6147 -0.5684
  521MPD2     C 7787   1.472   3.047  17.229 -0.4843 -0.0740  0.5725
  521MPD2    C1 7788   1.456   3.036  17.090  0.7258  0.3598 -0.6966
  521MPD2    C2 7789   1.570   3.008  17.011 -0.1067  0.3769 -0.8904
  521MPD2    C3 7790   1.699   3.003  17.073 -1.1781 -0.6883  0.3373
  521MPD2    C4 7791   1.711   3.028  17.207 -0.2938 -0.2463  0.2364
  521MPD2    C5 7792   1.596   3.055  17.286 -0.6387  0.5092  0.1244
  521MPD2     H 7793   1.561   2.990  16.904 -1.1027  0.1162 -0.7646
  521MPD2    H1 7794   1.805   3.032  17.260 -0.2553  0.1367  0.1363
  521MPD2    H2 7795   1.391   3.052  17.300 -1.0201  0.8695 -0.1129
  521MPD2    H3 7796   1.603   3.071  17.393  0.6296  0.5311  0.0434
  521MPD2     N 7797   1.802   2.950  16.992 -0.0472  0.2198  0.3985
  521MPD2    H5 7798   1.777   2.927  16.897 -0.5016  1.7914  0.1397
  521MPD2    N1 7799   1.322   3.037  17.048  0.0610  1.1985  0.5100
  521MPD2    H7 7800   1.251   3.025  17.120 -0.5544  0.0791 -0.2716
  522TMC3    C1 7801   1.997   2.849  16.934 -0.2716 -0.3154  0.4951
  522TMC3    C2 7802   2.066   2.737  16.972 -0.4086  0.2588 -0.4247
  522TMC3    C3 7803   2.118   2.664  16.864 -0.4324 -0.0720 -0.6532
  522TMC3    C4 7804   1.980   2.890  16.805  0.6921  0.0221  0.3865
  522TMC3    C5 7805   2.053   2.830  16.712 -0.2162  0.7453  0.0294
  522TMC3    C6 7806   2.132   2.717  16.737  0.1903 -0.1168  0.1835
  522TMC3     C 7807   1.925   2.920  17.033 -0.2249  0.3275 -0.4014
  522TMC3     O 7808   1.963   2.906  17.150 -0.2433 -0.5966  0.0103
  522TMC3     H 7809   2.063   2.695  17.072  0.2057  0.1423 -0.4545
  522TMC3    H1 7810   1.942   2.990  16.785  0.4028  0.2909  2.2794
  522TMC3    H2 7811   2.201   2.673  16.666  1.6271  1.2805  0.6772
  522TMC3    C7 7812   2.049   2.874  16.577  0.2100  0.0479 -0.2013
  522TMC3    C8 7813   2.201   2.552  16.900  0.4585 -0.6376 -0.2889
  522TMC3    O1 7814   2.136   2.837  16.499 -0.0487  0.6812  0.6713
  522TMC3    O2 7815   2.224   2.540  17.021 -1.0191  0.0726 -0.1586
  523MPD2     C 7816   3.886   3.183   9.927 -0.1261 -0.2256 -0.0326
  523MPD2    C1 7817   3.814   3.083   9.872  0.5983  0.0489 -0.0067
  523MPD2    C2 7818   3.737   3.099   9.756 -0.1018  0.5056 -0.1278
  523MPD2    C3 7819   3.779   3.200   9.673  0.2991 -0.1407  0.0345
  523MPD2    C4 7820   3.873   3.293   9.718 -0.7874  0.1064 -0.0253
  523MPD2    C5 7821   3.928   3.286   9.846 -0.7189  0.2277 -0.1176
  523MPD2     H 7822   3.679   3.017   9.716 -0.0383  1.3565 -1.9547
  523MPD2    H1 7823   3.906   3.373   9.653  0.9807 -1.0987 -0.6213
  523MPD2    H2 7824   3.925   3.174  10.028 -1.4346 -0.9073  0.4073
  523MPD2    H3 7825   4.007   3.349   9.886  1.3447 -1.4940 -1.4600
  523MPD2     N 7826   3.719   3.220   9.544  0.0934 -0.6625 -0.4586
  523MPD2    H5 7827   3.749   3.297   9.486 -2.7679  2.3140  2.0410
  523MPD2    N1 7828   3.800   2.963   9.946 -0.0273 -0.1028  0.4626
  523MPD2    H7 7829   3.852   2.966  10.033 -0.2910  2.9769  0.4901
  524TMC3    C1 7830   3.594   3.179   9.352  0.2507  0.1916  0.2548
  524TMC3    C2 7831   3.569   3.075   9.261 -0.1179 -0.2016  0.1557
  524TMC3    C3 7832   3.464   3.091   9.170 -0.1603  0.1225 -0.3402
  524TMC3    C4 7833   3.527   3.298   9.342  0.1673  0.9278 -0.1068
  524TMC3    C5 7834   3.436   3.317   9.244  0.3438  0.3740  0.1346
  524TMC3    C6 7835   3.395   3.212   9.160  0.1903  0.3711  0.2467
  524TMC3     C 7836   3.636   3.132   9.485 -0.1048 -0.1796  0.4945
  524TMC3     O 7837   3.596   3.018   9.514 -0.1178  0.7174 -0.1637
  524TMC3     H 7838   3.607   2.975   9.282  1.6751  1.3321  4.0577
  524TMC3    H1 7839   3.528   3.358   9.432 -0.1302 -2.0960  1.9234
  524TMC3    H2 7840   3.306   3.214   9.098 -0.5893  2.3909  1.4170
  524TMC3    C7 7841   3.362   3.439   9.256 -0.2041  0.0475 -0.2522
  524TMC3    C8 7842   3.419   2.974   9.093 -0.5886 -0.3487 -0.2842
  524TMC3    O1 7843   3.435   3.531   9.293 -0.0394 -0.0498 -0.5786
  524TMC3    O2 7844   3.449   2.863   9.141  0.5669  0.1570 -0.0570
  525MPD2     C 7845   2.094   4.535  14.150  0.2441  0.4119 -0.1153
  525MPD2    C1 7846   2.218   4.542  14.213  0.5448  0.5983  0.2063
  525MPD2    C2 7847   2.286   4.658  14.194  0.2530  0.6201  0.6196
  525MPD2    C3 7848   2.239   0.016  14.105 -0.2570  0.5644  0.9614
  525MPD2    C4 7849   2.116   0.006  14.048  0.1204 -0.1678 -0.6893
  525MPD2    C5 7850   2.041   4.639  14.078 -0.2528 -0.2153 -0.0314
  525MPD2     H 7851   2.384   4.674  14.238  0.6644  0.6506 -0.3163
  525MPD2    H1 7852   2.095   0.086  13.978  0.1376  0.7703  0.3717
  525MPD2    H2 7853   2.033   4.446  14.149  0.9638 -0.1135  2.3243
  525MPD2    H3 7854   1.942   4.632  14.035  0.0377 -2.1722 -0.4129
  525MPD2     N 7855   2.303   0.140  14.086 -0.5727  0.5470  0.9376
  525MPD2    H5 7856   2.255   0.212  14.033 -0.2256 -0.2952 -0.4897
  525MPD2    N1 7857   2.266   4.439  14.299  0.2189 -0.4469 -0.4824
  525MPD2    H7 7858   2.358   4.458  14.337  1.6018 -1.4643 -3.3363
  526TMC3    C1 7859   2.273   4.253  14.439  0.0740 -0.9034  0.2782
  526TMC3    C2 7860   2.212   4.189  14.545  0.3014  0.0305 -0.3231
  526TMC3    C3 7861   2.284   4.115  14.639 -0.3907  0.1501 -0.8787
  526TMC3    C4 7862   2.412   4.232  14.424 -0.1036  0.5202  0.0610
  526TMC3    C5 7863   2.484   4.161  14.517 -0.0977 -0.7956  0.2615
  526TMC3    C6 7864   2.423   4.114  14.631  0.2993  0.4540 -0.6424
  526TMC3     C 7865   2.194   4.329  14.343  0.0792  0.6024  0.1779
  526TMC3     O 7866   2.078   4.298  14.336 -0.6369  0.0987 -0.2406
  526TMC3     H 7867   2.104   4.193  14.534  0.1827 -1.1992  0.3780
  526TMC3    H1 7868   2.467   4.283  14.346 -0.4006 -1.2186 -1.2761
  526TMC3    H2 7869   2.484   4.077  14.713  0.9254 -0.5049 -1.5449
  526TMC3    C7 7870   2.618   4.115  14.493  0.0415  0.7887  0.1063
  526TMC3    C8 7871   2.226   4.078  14.766  0.1562 -0.1547 -0.2060
  526TMC3    O1 7872   2.650   4.008  14.533 -0.1096  0.1690  0.4192
  526TMC3    O2 7873   2.289   4.009  14.847 -0.0445  0.3293 -0.3007
  527MPD2     C 7874   4.701   2.140   1.087  0.5113 -0.4225  0.0978
  527MPD2    C1 7875   0.038   2.252   1.112  0.2119  0.0090  0.0902
  527MPD2    C2 7876   0.110   2.305   1.005  0.5729 -0.1652  0.3516
  527MPD2    C3 7877   0.107   2.250   0.875 -1.0138  0.6763 -0.6984
  527MPD2    C4 7878   0.019   2.145   0.854 -0.2044  0.1672  0.2003
  527MPD2    C5 7879   4.691   2.090   0.963 -0.5188  0.2193 -0.0950
  527MPD2     H 7880   0.177   2.389   1.022  0.6159  0.0564 -0.9185
  527MPD2    H1 7881   0.011   2.080   0.767 -1.5099  0.5441  0.0282
  527MPD2    H2 7882   4.645   2.088   1.164  0.5424 -1.2282 -0.4228
  527MPD2    H3 7883   4.628   2.002   0.954 -0.9541  0.8479 -3.1516
  527MPD2     N 7884   0.186   2.284   0.762 -0.0270 -0.2829  0.1078
  527MPD2    H5 7885   0.182   2.221   0.683  2.5118 -0.0647 -0.1831
  527MPD2    N1 7886   0.028   2.329   1.230  0.0089 -0.5414 -1.1218
  527MPD2    H7 7887   0.087   2.410   1.240 -0.4665 -0.3858  0.3969
  528TMC3    C1 7888   4.692   2.395   1.440 -0.3479 -0.3051  0.3754
  528TMC3    C2 7889   0.078   2.440   1.479 -0.2459 -0.0287 -0.2195
  528TMC3    C3 7890   0.079   2.529   1.587  0.4129  0.0362  0.0044
  528TMC3    C4 7891   4.576   2.419   1.509  0.1726 -0.6270  0.5811
  528TMC3    C5 7892   4.576   2.512   1.608  1.0039 -0.1082 -0.4670
  528TMC3    C6 7893   4.698   2.574   1.641 -0.0918 -0.0773  0.2470
  528TMC3     C 7894   4.681   2.290   1.332  0.7724 -0.1337 -0.5005
  528TMC3     O 7895   4.586   2.219   1.336 -0.0870 -0.1056 -0.4338
  528TMC3     H 7896   0.166   2.418   1.418  0.7587  1.7672  0.5914
  528TMC3    H1 7897   4.486   2.364   1.482 -1.6469  2.7430 -0.2447
  528TMC3    H2 7898   4.700   2.643   1.724  1.7614  0.4531 -0.2523
  528TMC3    C7 7899   4.458   2.590   1.642  0.1123 -0.6111 -0.5631
  528TMC3    C8 7900   0.193   2.546   1.668  0.5799  0.8155  0.4603
  528TMC3    O1 7901   4.476   2.704   1.683 -0.3140  0.3083  0.1069
  528TMC3    O2 7902   0.205   2.654   1.733  0.1973 -0.5532  0.0408
  529MPD2     C 7903   1.948   0.824   0.738  0.6885 -0.3325  0.1397
  529MPD2    C1 7904   2.017   0.710   0.690  0.2237  0.3778  0.4570
  529MPD2    C2 7905   1.962   0.660   0.571  0.0063 -0.4616  0.3025
  529MPD2    C3 7906   1.859   0.722   0.496 -0.6628 -0.0115  0.5049
  529MPD2    C4 7907   1.800   0.836   0.555 -0.0542  0.2575  0.2961
  529MPD2    C5 7908   1.851   0.886   0.670 -1.0548 -0.0935 -0.1882
  529MPD2     H 7909   2.007   0.568   0.535  1.6138  0.7089 -0.6946
  529MPD2    H1 7910   1.729   0.903   0.507 -1.1847 -1.5553 -0.5546
  529MPD2    H2 7911   1.983   0.874   0.828 -0.7354 -0.0607  0.5337
  529MPD2    H3 7912   1.813   0.981   0.706 -1.1190  0.4870 -1.7715
  529MPD2     N 7913   1.797   0.669   0.382  0.4274 -0.0518 -0.3585
  529MPD2    H5 7914   1.722   0.721   0.339 -1.1725 -2.1229 -0.0889
  529MPD2    N1 7915   2.132   0.657   0.757  0.3097 -0.5858 -0.1579
  529MPD2    H7 7916   2.161   0.717   0.834  1.9469  0.0370 -1.2657
  530TMC3    C1 7917   2.302   0.505   0.827 -0.4974 -0.3562  0.2371
  530TMC3    C2 7918   2.392   0.595   0.862 -0.2185  0.0000 -0.6305
  530TMC3    C3 7919   2.495   0.551   0.943 -0.1681  0.2000  0.2076
  530TMC3    C4 7920   2.309   0.377   0.862 -0.0760 -0.1961  0.2467
  530TMC3    C5 7921   2.417   0.335   0.942 -0.4742 -0.1052  0.2183
  530TMC3    C6 7922   2.513   0.421   0.973  1.2521  0.3282 -0.1919
  530TMC3     C 7923   2.192   0.536   0.736  0.1660  0.0619 -1.0771
  530TMC3     O 7924   2.152   0.447   0.663  0.0028  0.3334  0.3353
  530TMC3     H 7925   2.398   0.700   0.835  0.7260  0.3500  0.9694
  530TMC3    H1 7926   2.238   0.305   0.824 -0.2242  0.4983 -0.7771
  530TMC3    H2 7927   2.593   0.387   1.038 -0.0651 -0.2608  1.1318
  530TMC3    C7 7928   2.395   0.221   1.029 -0.4744  0.5277 -0.2182
  530TMC3    C8 7929   2.585   0.652   0.988  0.0101 -0.2608 -0.8522
  530TMC3    O1 7930   2.490   0.166   1.077  0.4944 -0.2388 -0.0700
  530TMC3    O2 7931   2.527   0.753   1.031 -0.3090 -0.0332 -0.1221
  531MPD2     C 7932   1.538   2.815  13.379  0.2518  0.1076 -0.4750
  531MPD2    C1 7933   1.502   2.919  13.471 -0.0291 -0.6585  0.0413
  531MPD2    C2 7934   1.370   2.954  13.486 -0.4100 -0.5508  0.3014
  531MPD2    C3 7935   1.273   2.894  13.397 -0.2598  0.7408 -0.0539
  531MPD2    C4 7936   1.310   2.794  13.310 -0.2167 -0.5135  0.2722
  531MPD2    C5 7937   1.441   2.756  13.303  0.1333  0.6143 -0.0765
  531MPD2     H 7938   1.339   3.027  13.560  1.2222  1.1990 -0.7464
  531MPD2    H1 7939   1.238   2.748  13.245  0.7443 -1.8238  0.1377
  531MPD2    H2 7940   1.639   2.781  13.361  0.7382  1.0459  0.4414
  531MPD2    H3 7941   1.477   2.680  13.234  0.5659  0.2053  0.5957
  531MPD2     N 7942   1.141   2.952  13.395 -0.2915  0.0822 -0.0441
  531MPD2    H5 7943   1.119   3.034  13.452  0.5667 -0.1600  0.6418
  531MPD2    N1 7944   1.614   2.993  13.520 -0.2693  0.0283  0.0803
  531MPD2    H7 7945   1.701   2.958  13.482  0.3643 -1.0807  2.5661
  532TMC3    C1 7946   1.724   3.167  13.637  0.0796 -0.9559  0.4112
  532TMC3    C2 7947   1.696   3.297  13.662  0.9123  0.1592  0.2807
  532TMC3    C3 7948   1.764   3.397  13.592 -0.1348  0.1690 -0.1109
  532TMC3    C4 7949   1.837   3.131  13.575 -0.3190  0.1578 -0.0330
  532TMC3    C5 7950   1.912   3.238  13.517  0.1186  0.6297 -0.4328
  532TMC3    C6 7951   1.869   3.370  13.515  0.1617 -0.1385  0.1543
  532TMC3     C 7952   1.602   3.100  13.603  0.9283 -0.1692  0.6939
  532TMC3     O 7953   1.503   3.167  13.626 -0.3212  0.2503  0.1950
  532TMC3     H 7954   1.625   3.326  13.739 -1.2758  2.6820 -2.6722
  532TMC3    H1 7955   1.856   3.025  13.581 -0.2676  0.2146  0.7455
  532TMC3    H2 7956   1.922   3.445  13.458 -0.9241  0.9407  0.5637
  532TMC3    C7 7957   2.052   3.202  13.502 -0.6788 -0.0593 -0.0494
  532TMC3    C8 7958   1.681   3.496  13.540  0.4742  0.7950 -0.4522
  532TMC3    O1 7959   2.138   3.295  13.506 -0.1383  0.8884  0.2636
  532TMC3    O2 7960   1.726   3.599  13.493 -0.0153  0.0317  0.2947
  533TMC3    C1 7961   2.423   0.337  14.127 -0.1820  0.2449  0.1393
  533TMC3    C2 7962   2.546   0.403  14.126  0.3890 -0.0026 -0.4332
  533TMC3    C3 7963   2.545   0.528  14.181 -0.4925  0.0486 -0.0752
  533TMC3    C4 7964   2.305   0.396  14.162  0.2890 -0.3098  0.3758
  533TMC3    C5 7965   2.318   0.516  14.227  0.7572 -0.2586 -0.2257
  533TMC3    C6 7966   2.440   0.591  14.237 -0.4490 -0.3099 -0.0216
  533TMC3     C 7967   2.423   0.187  14.119  0.1049  0.0761 -0.3331
  533TMC3     O 7968   2.512   0.124  14.173  0.4996  0.0706  0.6080
  533TMC3     H 7969   2.636   0.365  14.078  0.2384  0.2221 -0.8883
  533TMC3    H1 7970   2.207   0.352  14.154  0.6070 -1.4043  2.4459
  533TMC3    H2 7971   2.452   0.683  14.293 -1.1321 -1.0902  1.4160
  533TMC3    C7 7972   2.248   0.507  14.354  0.6820  0.1053 -0.6067
  533TMC3    C8 7973   2.668   0.603  14.157 -0.0473  0.3220  0.1114
  533TMC3    O1 7974   2.178   0.409  14.360  0.5357 -0.1983  0.3039
  533TMC3    O2 7975   2.776   0.547  14.141  0.2022 -0.1383  0.1763
  534MPD2     C 7976   4.726   1.007   1.255  1.0279  0.4253 -0.2627
  534MPD2    C1 7977   4.681   1.130   1.212  0.0194 -0.1411 -0.5073
  534MPD2    C2 7978   4.595   1.134   1.100 -0.4528  0.8417 -0.2987
  534MPD2    C3 7979   4.558   1.010   1.043  0.0988 -0.4584  0.4938
  534MPD2    C4 7980   4.614   0.891   1.082  0.2591 -0.0158  0.2024
  534MPD2    C5 7981   4.691   0.890   1.196 -0.3928  1.0221 -0.1737
  534MPD2     H 7982   4.555   1.229   1.066  2.0826  1.2962 -2.0044
  534MPD2    H1 7983   4.586   0.795   1.043 -1.6470 -0.1509  1.9438
  534MPD2    H2 7984   0.044   0.988   1.345  0.3394 -0.3839  0.0002
  534MPD2    H3 7985   4.735   0.797   1.231 -1.5617  0.7034  0.4605
  534MPD2     N 7986   4.472   1.003   0.934 -0.0436 -0.5806 -0.0454
  534MPD2    H5 7987   4.476   0.916   0.882 -2.3828  0.8106 -2.5444
  534MPD2    N1 7988   4.724   1.248   1.266  0.4670  0.0366 -0.0157
  534MPD2    H7 7989   4.694   1.340   1.234 -2.3536 -1.2449 -1.0335
  535TMC3    C1 7990   4.349   1.081   0.750 -0.6639  0.0890  0.4155
  535TMC3    C2 7991   4.224   1.116   0.725  0.0494  0.1515  0.2080
  535TMC3    C3 7992   4.178   1.094   0.596  0.1084 -0.0205  0.2212
  535TMC3    C4 7993   4.439   1.041   0.647  0.1715  0.3402 -0.0739
  535TMC3    C5 7994   4.387   1.008   0.521  0.9491  0.3142 -0.1079
  535TMC3    C6 7995   4.256   1.041   0.490  0.0388  0.0990 -0.3086
  535TMC3     C 7996   4.394   1.107   0.885  0.1736 -0.5126 -0.1850
  535TMC3     O 7997   4.343   1.206   0.937  0.1783 -0.1168  0.0627
  535TMC3     H 7998   4.156   1.147   0.804 -1.1862 -0.3236 -0.6641
  535TMC3    H1 7999   4.541   1.012   0.670 -0.3142 -1.6035 -0.3851
  535TMC3    H2 8000   4.222   1.013   0.391 -1.6369  0.8677  0.0491
  535TMC3    C7 8001   4.477   0.956   0.422  0.7261  0.1033 -0.5796
  535TMC3    C8 8002   4.039   1.112   0.559  0.3492 -0.5393 -0.5382
  535TMC3    O1 8003   4.538   0.856   0.460  0.1696  0.6279  0.1469
  535TMC3    O2 8004   3.982   1.036   0.484  0.0265 -0.1787 -0.0664
  536MPD2     C 8005   3.809   4.039  16.115 -0.4449  0.2147  0.0704
  536MPD2    C1 8006   3.699   3.963  16.129 -0.2061  0.2507  0.5070
  536MPD2    C2 8007   3.586   3.991  16.060  0.2207 -0.8987 -0.0518
  536MPD2    C3 8008   3.580   4.102  15.979 -0.0204  0.1524  0.2863
  536MPD2    C4 8009   3.691   4.176  15.965 -0.0556  0.4602  0.1424
  536MPD2    C5 8010   3.799   4.153  16.043  0.0084 -0.1939 -0.0312
  536MPD2     H 8011   3.499   3.928  16.074 -0.2174 -0.1874  0.3963
  536MPD2    H1 8012   3.689   4.252  15.888  2.7059  1.6545  1.2231
  536MPD2    H2 8013   3.894   4.007  16.176 -0.7986 -1.0756 -0.1112
  536MPD2    H3 8014   3.883   4.221  16.036 -0.6517  0.9956  3.3222
  536MPD2     N 8015   3.473   4.133  15.895  0.1648 -0.4844 -0.3885
  536MPD2    H5 8016   3.495   4.197  15.819 -0.4500  0.4796  0.2489
  536MPD2    N1 8017   3.707   3.863  16.229  0.1076 -0.4163 -0.1712
  536MPD2    H7 8018   3.799   3.854  16.272  0.1335 -0.2942 -0.2028
  537TMC3    C1 8019   3.655   3.691  16.380  0.3451  0.3347  0.0679
  537TMC3    C2 8020   3.717   3.760  16.482 -0.7368  0.1718 -0.2050
  537TMC3    C3 8021   3.708   3.713  16.608 -0.0730  1.0113  0.5434
  537TMC3    C4 8022   3.592   3.574  16.404 -0.1918 -0.2117 -0.2335
  537TMC3    C5 8023   3.578   3.534  16.529 -0.4816  0.5441  0.2412
  537TMC3    C6 8024   3.629   3.606  16.635  0.1841  0.0554  0.0660
  537TMC3     C 8025   3.608   3.783  16.278  0.3365 -0.3561 -0.6048
  537TMC3     O 8026   3.492   3.781  16.248  0.6920  0.1423  0.1704
  537TMC3     H 8027   3.784   3.843  16.465  0.4422 -0.9142 -0.9059
  537TMC3    H1 8028   3.536   3.517  16.330  0.4451  1.3397 -1.9319
  537TMC3    H2 8029   3.597   3.586  16.737  1.1693 -1.4476  0.0808
  537TMC3    C7 8030   3.501   3.409  16.550  0.3246 -0.6458 -0.7543
  537TMC3    C8 8031   3.720   3.811  16.711  0.8338  1.0019  0.0936
  537TMC3    O1 8032   3.432   3.365  16.460  0.5563  0.3939 -0.2551
  537TMC3    O2 8033   3.726   3.927  16.674  0.5200  0.7519  0.5946
  538TMC3    C1 8034   0.123   2.568  11.142 -0.3467  0.4611  0.4637
  538TMC3    C2 8035   0.176   2.538  11.025 -0.0126  0.1713 -0.0383
  538TMC3    C3 8036   0.098   2.567  10.916 -0.2101 -0.4351  0.6051
  538TMC3    C4 8037   4.736   2.631  11.168 -1.2234  0.3114 -0.2216
  538TMC3    C5 8038   4.676   2.668  11.050  0.3295 -0.7986  0.0667
  538TMC3    C6 8039   4.718   2.623  10.929 -0.2999  0.7521  0.2985
  538TMC3     C 8040   0.186   2.516  11.266  0.4110  0.0741 -0.1156
  538TMC3     O 8041   0.117   2.523  11.364  0.0392 -0.8050 -0.0087
  538TMC3     H 8042   0.267   2.481  11.018  0.2588  0.4721  1.0303
  538TMC3    H1 8043   4.712   2.665  11.268 -0.6464  0.7151 -0.2219
  538TMC3    H2 8044   4.664   2.643  10.838 -0.7207  0.9733  0.5953
  538TMC3    C7 8045   4.549   2.730  11.056  0.5894  0.0198  0.3893
  538TMC3    C8 8046   0.154   2.544  10.787 -0.4193  0.0147  0.3312
  538TMC3    O1 8047   4.474   2.715  10.961  0.4365 -0.1760 -0.3620
  538TMC3    O2 8048   0.092   2.476  10.707  0.0404 -0.1181  0.1994
  539MPD2     C 8049   4.265   2.038  11.740 -0.1498 -0.5394  0.0166
  539MPD2    C1 8050   4.291   2.091  11.614  1.2023  0.2338  0.1514
  539MPD2    C2 8051   4.271   2.221  11.595 -0.5921  0.4358  0.5101
  539MPD2    C3 8052   4.229   2.308  11.694 -0.6143  0.2252 -0.2414
  539MPD2    C4 8053   4.203   2.253  11.820 -0.0216  0.1969  0.2903
  539MPD2    C5 8054   4.227   2.118  11.841  0.4222  0.6111  0.3224
  539MPD2     H 8055   4.272   2.258  11.493 -0.0987  2.5166  1.2610
  539MPD2    H1 8056   4.168   2.317  11.900 -2.3440 -0.7372  0.0232
  539MPD2    H2 8057   4.281   1.932  11.760 -0.4097 -1.0784 -2.6460
  539MPD2    H3 8058   4.224   2.079  11.942  0.4810 -0.7657 -0.1993
  539MPD2     N 8059   4.196   2.443  11.669 -0.0886 -0.2990  0.5146
  539MPD2    H5 8060   4.148   2.484  11.748 -2.8596  1.3752 -2.0432
  539MPD2    N1 8061   4.358   2.011  11.516  0.1452  0.3321  0.8095
  539MPD2    H7 8062   4.388   2.065  11.436  1.2600 -1.3794  0.0750
  540TMC3    C1 8063   4.181   2.655  11.558  0.0410  0.5390  0.2428
  540TMC3    C2 8064   4.132   2.696  11.435  0.0016  0.1667  0.7084
  540TMC3    C3 8065   4.038   2.792  11.434  0.0679  0.3539  0.3304
  540TMC3    C4 8066   4.148   2.716  11.670  0.6273 -0.3000 -0.3932
  540TMC3    C5 8067   4.060   2.823  11.661 -0.8061 -0.7437 -0.0105
  540TMC3    C6 8068   4.009   2.864  11.544  0.0652 -0.1692 -1.2174
  540TMC3     C 8069   4.236   2.513  11.557  0.0861  0.5761 -0.5629
  540TMC3     O 8070   4.305   2.483  11.461 -0.1996  0.5091 -1.1874
  540TMC3     H 8071   4.154   2.627  11.354 -1.6494  1.8201 -1.1458
  540TMC3    H1 8072   4.170   2.683  11.771 -0.1858 -2.2656 -0.8493
  540TMC3    H2 8073   3.927   2.934  11.547 -0.1800 -0.4558 -1.2693
  540TMC3    C7 8074   3.984   2.855  11.785 -0.2338 -0.1388 -0.3822
  540TMC3    C8 8075   3.931   2.782  11.332 -0.0040 -0.7426 -0.6792
  540TMC3    O1 8076   3.988   2.774  11.876  0.2765 -0.0268  0.0716
  540TMC3    O2 8077   3.853   2.875  11.330  0.7021  0.5258  0.1178
  541MPD2     C 8078   3.441   3.664  13.255 -0.3458 -0.4747 -0.0213
  541MPD2    C1 8079   3.393   3.546  13.216 -0.6254 -0.4761 -0.5379
  541MPD2    C2 8080   3.302   3.536  13.112  0.0682  0.2896  0.7013
  541MPD2    C3 8081   3.247   3.650  13.053  0.2820 -0.2956  0.0873
  541MPD2    C4 8082   3.300   3.771  13.094  0.1197 -0.3941  0.0349
  541MPD2    C5 8083   3.396   3.773  13.197 -0.1916  0.2732 -0.6258
  541MPD2     H 8084   3.272   3.437  13.079  2.1146 -0.6342  1.5877
  541MPD2    H1 8085   3.258   3.862  13.053  0.4482 -0.3373 -0.1700
  541MPD2    H2 8086   3.506   3.684  13.340 -1.3241  1.7256  0.2185
  541MPD2    H3 8087   3.436   3.866  13.235 -1.1438  0.5356 -0.2686
  541MPD2     N 8088   3.154   3.655  12.950  0.3458 -0.7429  0.7562
  541MPD2    H5 8089   3.128   3.750  12.924  1.9824 -0.4757  0.1244
  541MPD2    N1 8090   3.445   3.426  13.274 -0.1958 -0.2089  0.0654
  541MPD2    H7 8091   3.499   3.439  13.359 -1.6478  0.0520  0.9345
  542TMC3    C1 8092   2.956   3.582  12.840 -0.6014 -0.5014  0.1056
  542TMC3    C2 8093   2.942   3.511  12.722  0.2110 -0.0608 -0.0472
  542TMC3    C3 8094   2.858   3.565  12.630  1.1163 -0.5364 -0.1276
  542TMC3    C4 8095   2.911   3.705  12.862  0.1130  0.3656 -0.2476
  542TMC3    C5 8096   2.843   3.761  12.760  0.6681  0.1528 -0.2690
  542TMC3    C6 8097   2.796   3.689  12.651 -0.4535 -0.4736  0.6658
  542TMC3     C 8098   3.083   3.550  12.898 -0.1868  0.3300 -0.2393
  542TMC3     O 8099   3.117   3.432  12.896  0.3786 -0.0096  0.2105
  542TMC3     H 8100   3.013   3.433  12.700  0.9662  0.6424 -0.0903
  542TMC3    H1 8101   2.933   3.761  12.952  1.4476 -3.2373  1.6582
  542TMC3    H2 8102   2.742   3.727  12.565  0.6501 -0.4480 -0.0101
  542TMC3    C7 8103   2.785   3.884  12.794  0.4840  1.1099 -0.1525
  542TMC3    C8 8104   2.819   3.494  12.508  0.0745  0.0891 -0.7213
  542TMC3    O1 8105   2.856   3.965  12.851 -0.0171 -0.1056  0.3248
  542TMC3    O2 8106   2.768   3.557  12.417  0.2689 -0.4109  0.1310
  543TMC3    C1 8107   2.041   4.596  17.033 -0.6512 -0.0257 -1.3186
  543TMC3    C2 8108   2.000   4.483  17.101  0.3365  0.7501  0.2073
  543TMC3    C3 8109   1.901   4.487  17.195  0.1904 -0.3108 -0.4067
  543TMC3    C4 8110   1.981   4.711  17.067  0.2106 -0.0589  0.9234
  543TMC3    C5 8111   1.887   4.716  17.163 -0.5818  1.1061 -0.8361
  543TMC3    C6 8112   1.851   4.603  17.241 -0.2972 -0.0867  0.6254
  543TMC3     C 8113   2.101   4.572  16.907  0.1150  0.1531  0.5075
  543TMC3     O 8114   2.165   4.471  16.897 -0.1261  0.3491 -0.4111
  543TMC3     H 8115   2.048   4.389  17.078  0.4520  0.5034  1.4871
  543TMC3    H1 8116   2.015   0.066  17.025  1.1185 -1.3830 -1.3121
  543TMC3    H2 8117   1.768   4.598  17.310 -0.2617  1.4685  0.7960
  543TMC3    C7 8118   1.808   0.102  17.169 -0.4425  0.2229 -0.0071
  543TMC3    C8 8119   1.879   4.361  17.277  0.4298 -0.1790 -0.0055
  543TMC3    O1 8120   1.821   0.179  17.077 -0.1173  0.7992  0.4612
  543TMC3    O2 8121   1.945   4.265  17.242  0.0622  0.8533 -0.0914
  544MPD2     C 8122   1.686   4.081  17.659  0.8377 -0.3849 -0.1081
  544MPD2    C1 8123   1.770   4.040  17.558  0.2332  0.2207  0.3732
  544MPD2    C2 8124   1.798   4.130  17.459  0.2162  1.1917 -0.9997
  544MPD2    C3 8125   1.745   4.259  17.459  0.1718  0.2184 -0.1120
  544MPD2    C4 8126   1.653   4.292  17.560 -0.6443 -0.6150  0.4040
  544MPD2    C5 8127   1.619   4.196  17.652  0.8262 -0.1506 -0.5607
  544MPD2     H 8128   1.863   4.098  17.378  1.2747  3.4890 -1.0581
  544MPD2    H1 8129   1.605   4.388  17.574 -0.0549 -0.3415  0.5535
  544MPD2    H2 8130   1.663   4.008  17.735  2.0940 -2.3801 -1.6152
  544MPD2    H3 8131   1.555   4.223  17.736  1.4922 -2.3157  0.6401
  544MPD2     N 8132   1.779   4.366  17.370 -0.4964  0.2356  0.5145
  544MPD2    H5 8133   1.723   4.450  17.379 -2.5874 -0.8218 -2.5827
  544MPD2    N1 8134   1.832   3.916  17.569  0.7441 -0.1325 -0.4094
  544MPD2    H7 8135   1.800   3.862  17.648  1.4588 -0.0444 -0.0644
  545TMC3    C1 8136   1.957   3.720  17.538 -0.5289 -0.3256 -0.5246
  545TMC3    C2 8137   2.046   3.650  17.458  0.3229 -0.3463 -0.5777
  545TMC3    C3 8138   2.126   3.556  17.511 -0.8408  0.2277  0.3723
  545TMC3    C4 8139   1.953   3.698  17.668  0.1955 -0.2776  0.4031
  545TMC3    C5 8140   2.040   3.612  17.724 -0.0364  0.3318  0.0835
  545TMC3    C6 8141   2.123   3.535  17.643  0.0283 -0.4183 -0.0393
  545TMC3     C 8142   1.905   3.843  17.478  0.4384 -1.1508 -0.4698
  545TMC3     O 8143   1.950   3.881  17.368 -0.4610  0.1192  0.0470
  545TMC3     H 8144   2.064   3.663  17.352  1.6415  1.4640 -0.1470
  545TMC3    H1 8145   1.896   3.764  17.732  1.9072  1.3648  0.2481
  545TMC3    H2 8146   2.193   3.461  17.681  1.3247  1.3171  0.9583
  545TMC3    C7 8147   2.040   3.612   0.116  0.5709  0.2258 -0.0178
  545TMC3    C8 8148   2.249   3.513  17.436 -0.8519 -0.0707  0.4234
  545TMC3    O1 8149   1.960   3.681   0.184 -0.2393  0.2186  0.0244
  545TMC3    O2 8150   2.351   3.536  17.497 -0.1509  0.1906 -0.3964
  546MPD2     C 8151   3.401   4.348  17.084  0.2817  0.4795 -0.7640
  546MPD2    C1 8152   3.459   4.381  16.964  1.0235 -0.7325 -0.1944
  546MPD2    C2 8153   3.522   4.503  16.955 -0.2227 -0.0936 -0.4439
  546MPD2    C3 8154   3.516   4.598  17.056 -0.7709 -0.3709  0.4727
  546MPD2    C4 8155   3.465   4.555  17.175 -0.4951  0.4607  0.4670
  546MPD2    C5 8156   3.416   4.433  17.186 -1.0794 -0.1179  0.1869
  546MPD2     H 8157   3.568   4.524  16.860  0.2470  0.4763 -0.0908
  546MPD2    H1 8158   3.452   4.632  17.250 -0.2487 -1.1593  2.1696
  546MPD2    H2 8159   3.347   4.255  17.095  0.4238  0.3313 -1.3305
  546MPD2    H3 8160   3.363   4.405  17.277  0.2599 -1.7964  0.4474
  546MPD2     N 8161   3.573   4.730  17.048  0.4367 -0.2795  0.0846
  546MPD2    H5 8162   3.545   0.048  17.128  0.9209 -1.4586  1.0862
  546MPD2    N1 8163   3.442   4.285  16.861 -0.4429 -0.1635  0.4910
  546MPD2    H7 8164   3.412   4.196  16.900 -0.1774  1.0395  3.3888
  547TMC3    C1 8165   3.429   4.169  16.661 -0.3395 -0.0181 -0.3011
  547TMC3    C2 8166   3.332   4.189  16.566  0.4634 -0.0679 -0.0186
  547TMC3    C3 8167   3.251   4.090  16.539  0.3492 -0.3413 -0.3148
  547TMC3    C4 8168   3.442   4.049  16.730  0.0610  0.0522 -0.1469
  547TMC3    C5 8169   3.365   3.948  16.691  0.4023 -0.2173 -0.5223
  547TMC3    C6 8170   3.257   3.970  16.607  0.3887 -0.2135  0.0675
  547TMC3     C 8171   3.459   4.295  16.729  0.0108  0.1946 -0.5528
  547TMC3     O 8172   3.476   4.393  16.659 -0.1840  0.0336 -0.5060
  547TMC3     H 8173   3.337   4.287  16.520 -1.1547 -0.0249 -0.1026
  547TMC3    H1 8174   3.522   4.038  16.802 -0.2346  0.6659  0.2731
  547TMC3    H2 8175   3.189   3.888  16.584 -2.1492  1.7718  0.4961
  547TMC3    C7 8176   3.350   3.846  16.794  0.1622 -0.5152  0.3127
  547TMC3    C8 8177   3.134   4.108  16.455  0.0221 -0.0512  0.0116
  547TMC3    O1 8178   3.388   3.875  16.910  0.2485  0.0385  0.4775
  547TMC3    O2 8179   3.047   4.020  16.472  0.1285 -0.6165 -0.2894
  548MPD2     C 8180   3.177   0.579  12.708 -0.1919 -0.5352  0.2222
  548MPD2    C1 8181   3.121   0.471  12.667 -0.1060  0.6325  0.2109
  548MPD2    C2 8182   3.191   0.389  12.569 -0.1464  0.2430 -0.0839
  548MPD2    C3 8183   3.319   0.424  12.526  0.2458  0.0209 -0.3602
  548MPD2    C4 8184   3.376   0.536  12.582 -0.0715 -0.0557  0.4971
  548MPD2    C5 8185   3.295   0.615  12.654  0.7707  0.4554  0.4882
  548MPD2     H 8186   3.156   0.292  12.535  0.6866 -1.1357  3.0341
  548MPD2    H1 8187   3.473   0.569  12.546  0.0337  1.7099  2.3592
  548MPD2    H2 8188   3.124   0.641  12.779 -2.3301 -0.5312 -1.3619
  548MPD2    H3 8189   3.343   0.705  12.690 -1.0811  1.1665  1.1541
  548MPD2     N 8190   3.386   0.335  12.439 -0.5152  0.0110 -0.0858
  548MPD2    H5 8191   3.352   0.240  12.428  1.1208 -0.6619  0.6943
  548MPD2    N1 8192   2.983   0.442  12.707  0.6194 -0.0777  0.1949
  548MPD2    H7 8193   2.947   0.504  12.779  0.8886  0.2131  0.0755
  549TMC3    C1 8194   2.767   0.329  12.716  0.3477 -0.0185  0.2621
  549TMC3    C2 8195   2.694   0.444  12.711 -0.4830 -0.6897  0.5124
  549TMC3    C3 8196   2.560   0.449  12.693  0.0470 -0.1852  0.5159
  549TMC3    C4 8197   2.693   0.209  12.697 -0.2935  0.7442  0.1724
  549TMC3    C5 8198   2.558   0.214  12.689 -0.0822 -0.9432 -0.3133
  549TMC3    C6 8199   2.485   0.334  12.693 -0.4171 -0.0940  0.2064
  549TMC3     C 8200   2.909   0.326  12.681 -0.3529 -0.3342  0.1245
  549TMC3     O 8201   2.946   0.221  12.636  0.4059  0.1252 -0.1405
  549TMC3     H 8202   2.738   0.542  12.721  1.9615 -1.7864  0.4975
  549TMC3    H1 8203   2.747   0.114  12.699  0.5163  1.1066 -3.0590
  549TMC3    H2 8204   2.379   0.345  12.678 -0.8461 -3.1750  0.8777
  549TMC3    C7 8205   2.496   0.097  12.641  0.2793 -0.5807 -0.5928
  549TMC3    C8 8206   2.502   0.570  12.623 -0.0817 -0.7211  0.1519
  549TMC3    O1 8207   2.369   0.105  12.630 -0.1258  0.5427 -0.2380
  549TMC3    O2 8208   2.387   0.545  12.586 -0.1872  0.5412  0.2470
  550TMC3    C1 8209   1.573   3.315  13.215 -0.9015  0.7451 -0.3419
  550TMC3    C2 8210   1.519   3.429  13.159 -0.6679  0.4128  0.1180
  550TMC3    C3 8211   1.389   3.435  13.143  0.0244  0.1844 -0.2789
  550TMC3    C4 8212   1.483   3.214  13.241  0.2069 -0.3298 -0.3501
  550TMC3    C5 8213   1.350   3.216  13.216  0.1360 -0.6561 -0.3399
  550TMC3    C6 8214   1.295   3.332  13.161 -0.3173  0.4017 -0.8274
  550TMC3     C 8215   1.695   3.269  13.153 -0.2070 -0.5035  0.0434
  550TMC3     O 8216   1.765   3.189  13.215  0.3875  0.1970 -0.3530
  550TMC3     H 8217   1.581   3.512  13.126  0.1889  0.4951  1.9789
  550TMC3    H1 8218   1.530   3.126  13.283 -0.7817 -1.3869 -1.4561
  550TMC3    H2 8219   1.191   3.345  13.137 -0.6231 -0.2627  0.1180
  550TMC3    C7 8220   1.312   3.117  13.123 -0.2493 -0.7283  0.0210
  550TMC3    C8 8221   1.340   3.558  13.074  0.8195  0.4865 -0.2041
  550TMC3    O1 8222   1.231   3.154  13.042 -1.0093 -0.2710 -0.4448
  550TMC3    O2 8223   1.425   3.641  13.047 -0.3014 -0.8126 -0.4210
  551TMC3    C1 8224   4.648   1.076  13.256  0.2966  0.1320  0.6253
  551TMC3    C2 8225   0.023   1.112  13.186  0.3374 -0.8022  0.0480
  551TMC3    C3 8226   0.092   1.213  13.245 -0.3611 -0.8997  0.5632
  551TMC3    C4 8227   4.615   1.118  13.381  0.0494 -0.1123  0.1340
  551TMC3    C5 8228   4.690   1.217  13.436 -0.0580 -0.0105 -0.2367
  551TMC3    C6 8229   0.058   1.271  13.371 -0.0715  0.1915  0.4748
  551TMC3     C 8230   4.574   0.969  13.200  0.2514  0.1815 -0.0383
  551TMC3     O 8231   4.453   0.970  13.212  0.0403  0.0614  0.3352
  551TMC3     H 8232   0.051   1.069  13.091  0.3451 -1.3443  0.2929
  551TMC3    H1 8233   4.533   1.075  13.436 -1.7398  0.9477 -1.7022
  551TMC3    H2 8234   0.115   1.344  13.429 -1.0398 -1.1934  3.1649
  551TMC3    C7 8235   4.673   1.254  13.580  0.5852  0.2028 -0.8915
  551TMC3    C8 8236   0.201   1.275  13.169  0.5771 -0.3136  0.0596
  551TMC3    O1 8237   0.021   1.314  13.635 -0.3621 -0.1602 -0.3953
  551TMC3    O2 8238   0.252   1.205  13.084 -0.1607  0.1413 -0.6721
  552MPD2     C 8239   2.009   3.435  14.237  0.1350  0.1486 -0.9779
  552MPD2    C1 8240   1.990   3.314  14.294 -0.5888 -0.3211  0.3178
  552MPD2    C2 8241   2.084   3.258  14.379 -0.6305 -0.4734 -0.2075
  552MPD2    C3 8242   2.206   3.320  14.400 -0.2826  0.1289 -0.0144
  552MPD2    C4 8243   2.224   3.442  14.336 -0.0982 -0.6187  0.1661
  552MPD2    C5 8244   2.134   3.491  14.253  0.5902 -0.1016 -0.1219
  552MPD2     H 8245   2.073   3.160  14.423  2.0102 -0.5057  0.3794
  552MPD2    H1 8246   2.316   3.495  14.356 -1.5802  2.6623 -1.7095
  552MPD2    H2 8247   1.927   3.487  14.189  0.3824  0.6445 -0.8643
  552MPD2    H3 8248   2.158   3.587  14.207 -1.0329  0.8924  1.1149
  552MPD2     N 8249   2.303   3.265  14.488  0.5843 -0.0683  0.3069
  552MPD2    H5 8250   2.396   3.296  14.461 -0.1587  0.1150 -1.9951
  552MPD2    N1 8251   1.881   3.226  14.260  0.6681 -0.0189  0.8195
  552MPD2    H7 8252   1.884   3.138  14.311 -0.8303  0.4202  1.6746
  553TMC3    C1 8253   1.728   3.105  14.125  0.3146 -0.3809  0.3074
  553TMC3    C2 8254   1.769   3.080  13.997  0.1471 -0.1859  0.3488
  553TMC3    C3 8255   1.848   2.964  13.974 -0.3345  0.5090 -0.1082
  553TMC3    C4 8256   1.753   3.014  14.231  0.0447  0.1080 -0.4648
  553TMC3    C5 8257   1.810   2.897  14.204 -0.1601 -1.1780  0.7890
  553TMC3    C6 8258   1.864   2.872  14.080  0.0448  1.0670 -0.0293
  553TMC3     C 8259   1.789   3.236  14.156  1.2306 -0.3488  0.2626
  553TMC3     O 8260   1.780   3.328  14.072 -0.4557  0.2545  0.8002
  553TMC3     H 8261   1.747   3.153  13.920 -0.5782 -0.3592  0.3922
  553TMC3    H1 8262   1.709   3.048  14.325  2.5676  1.1055  0.3600
  553TMC3    H2 8263   1.898   2.772  14.055  0.0916  0.7511  1.2936
  553TMC3    C7 8264   1.897   2.860  14.313 -0.5769  0.7034 -0.7587
  553TMC3    C8 8265   1.842   2.889  13.851  0.3332  0.1570 -0.3594
  553TMC3    O1 8266   1.844   2.866  14.424 -0.1967  0.4706 -0.1038
  553TMC3    O2 8267   1.946   2.827  13.821  0.5199  0.3456 -0.0155
  554TMC3    C1 8268   3.658   2.408  11.835  0.3005  0.1546 -0.2634
  554TMC3    C2 8269   3.549   2.352  11.780 -0.2856  0.7472  0.6472
  554TMC3    C3 8270   3.470   2.438  11.715 -0.5808  0.7797  1.1702
  554TMC3    C4 8271   3.688   2.539  11.815 -0.2040 -0.1888  0.4932
  554TMC3    C5 8272   3.589   2.625  11.769 -0.2891 -1.1059  0.4101
  554TMC3    C6 8273   3.475   2.573  11.714 -0.3833  0.0701 -0.1130
  554TMC3     C 8274   3.751   2.330  11.921  0.4898  0.2628 -0.0089
  554TMC3     O 8275   3.851   2.390  11.957 -0.6231  0.5093  0.3953
  554TMC3     H 8276   3.543   2.245  11.768 -1.1223  1.0624 -1.8066
  554TMC3    H1 8277   3.783   2.582  11.846  0.1631 -0.8910  0.3548
  554TMC3    H2 8278   3.414   2.648  11.666 -1.6691 -1.4680 -0.8608
  554TMC3    C7 8279   3.629   2.747  11.715 -0.1628 -0.1993  0.3153
  554TMC3    C8 8280   3.412   2.386  11.591  0.0325  0.7107 -0.4270
  554TMC3    O1 8281   3.720   2.737  11.638 -0.2001  0.2640  0.6066
  554TMC3    O2 8282   3.428   2.458  11.495 -0.0744  0.2232  0.4180
  555TMC3    C1 8283   2.500   1.573  14.836  0.2957 -1.1654 -0.1283
  555TMC3    C2 8284   2.580   1.671  14.896 -0.6989  0.3109 -0.5158
  555TMC3    C3 8285   2.642   1.644  15.013 -0.4567 -0.6261  0.8323
  555TMC3    C4 8286   2.479   1.452  14.902  0.5445 -0.6591  0.6735
  555TMC3    C5 8287   2.556   1.425  15.019  0.0572 -0.1860 -0.0667
  555TMC3    C6 8288   2.637   1.525  15.076 -0.6007 -0.3447  0.0952
  555TMC3     C 8289   2.400   1.615  14.735  0.5737  0.3987  0.2227
  555TMC3     O 8290   2.306   1.537  14.719  0.2039 -0.0053  0.0090
  555TMC3     H 8291   2.582   1.773  14.859  2.7178  0.2242 -0.5400
  555TMC3    H1 8292   2.421   1.380  14.846 -0.6724 -1.5111  2.9982
  555TMC3    H2 8293   2.685   1.503  15.171  1.1990  1.2075 -0.4625
  555TMC3    C7 8294   2.602   1.290  15.027 -0.3394 -1.2913  1.1378
  555TMC3    C8 8295   2.710   1.750  15.079 -0.4105 -0.0162  0.0146
  555TMC3    O1 8296   2.521   1.206  14.988 -0.3057 -0.3726 -0.1774
  555TMC3    O2 8297   2.731   1.850  15.008  0.3974  0.3856 -0.1036
  556MPD2     C 8298   0.512   3.969  10.603  0.1229 -0.4384  1.2768
  556MPD2    C1 8299   0.478   3.861  10.680 -0.4497  0.1155  0.8699
  556MPD2    C2 8300   0.484   3.736  10.620 -0.5598 -0.1559 -0.1113
  556MPD2    C3 8301   0.507   3.713  10.487 -0.0774  0.4776 -0.2372
  556MPD2    C4 8302   0.546   3.824  10.416  0.8493  0.1791  0.6709
  556MPD2    C5 8303   0.555   3.950  10.477  0.4336  0.2903 -0.4023
  556MPD2     H 8304   0.470   3.652  10.687  1.5197 -1.3889 -1.2137
  556MPD2    H1 8305   0.573   3.809  10.312 -2.4022  1.8796 -0.4219
  556MPD2    H2 8306   0.508   4.074  10.631  1.1174 -0.1419  0.2951
  556MPD2    H3 8307   0.579   4.034  10.413 -0.7473  0.4519 -0.6388
  556MPD2     N 8308   0.510   3.584  10.435  0.0982  0.0081 -0.2367
  556MPD2    H5 8309   0.548   3.574  10.341 -1.2057 -1.2683 -0.6290
  556MPD2    N1 8310   0.442   3.883  10.818  0.1197  0.0798  0.1284
  556MPD2    H7 8311   0.444   3.807  10.885  2.0739 -0.0030 -0.0271
  557TMC3    C1 8312   0.487   3.350  10.429 -0.0485  0.8230  0.6854
  557TMC3    C2 8313   0.588   3.349  10.345 -0.0452  0.2480 -0.1734
  557TMC3    C3 8314   0.666   3.238  10.339 -0.6765 -0.3919 -0.0695
  557TMC3    C4 8315   0.473   3.248  10.519 -0.7954  0.2382 -0.2269
  557TMC3    C5 8316   0.564   3.149  10.513 -0.0871  0.0250  0.9244
  557TMC3    C6 8317   0.660   3.133  10.421  0.2407  0.0157 -0.2031
  557TMC3     C 8318   0.473   3.472  10.501  0.1016 -0.9311 -0.0449
  557TMC3     O 8319   0.405   3.465  10.600 -0.1492  1.0100 -0.0788
  557TMC3     H 8320   0.587   3.422  10.264  1.7889 -0.6510 -1.0082
  557TMC3    H1 8321   0.387   3.245  10.585 -0.1446  0.5891  0.6342
  557TMC3    H2 8322   0.739   3.058  10.418 -0.6904 -0.9027 -1.7326
  557TMC3    C7 8323   0.525   3.032  10.587 -0.1481 -0.1852  0.1764
  557TMC3    C8 8324   0.777   3.253  10.242  0.0394 -0.0360  0.0604
  557TMC3    O1 8325   0.474   3.050  10.696  0.9944 -0.1782  0.8531
  557TMC3    O2 8326   0.803   3.368  10.205  0.0365 -0.5400 -0.3334
  558TMC3    C1 8327   2.829   1.569  10.428  0.7518 -0.1298 -0.1133
  558TMC3    C2 8328   2.710   1.521  10.490 -0.1137 -0.7574  0.0452
  558TMC3    C3 8329   2.591   1.577  10.446 -0.2011 -0.4727  0.1066
  558TMC3    C4 8330   2.825   1.655  10.325 -0.1776 -0.1183  0.4358
  558TMC3    C5 8331   2.708   1.703  10.282  0.0573 -0.5540  0.4956
  558TMC3    C6 8332   2.587   1.664  10.334 -0.0937 -0.3307 -0.9254
  558TMC3     C 8333   2.959   1.514  10.464 -0.1516 -0.4273 -0.0767
  558TMC3     O 8334   3.054   1.542  10.387  0.0811  0.1074 -0.3154
  558TMC3     H 8335   2.710   1.437  10.557  2.4406 -1.2751 -0.6116
  558TMC3    H1 8336   2.915   1.694  10.280 -0.5411  0.9377  0.6271
  558TMC3    H2 8337   2.491   1.709  10.308 -1.4976 -2.4423  0.5649
  558TMC3    C7 8338   2.698   1.741  10.147  0.4646  0.7365 -0.0355
  558TMC3    C8 8339   2.471   1.556  10.523 -0.3558 -0.2275  0.3020
  558TMC3    O1 8340   2.773   1.827  10.104  0.7278  0.3958 -0.7351
  558TMC3    O2 8341   2.366   1.566  10.469 -0.3391 -0.0727  0.2284
  559MPD2     C 8342   2.941   1.879  10.563 -0.5459 -0.4081 -0.1203
  559MPD2    C1 8343   2.888   1.832  10.685 -0.0815 -0.8242  0.0987
  559MPD2    C2 8344   2.973   1.759  10.771  0.2944  0.4467  0.0376
  559MPD2    C3 8345   3.105   1.748  10.742 -0.2205  0.4047  0.5049
  559MPD2    C4 8346   3.151   1.784  10.621  0.1088  0.4282  0.0856
  559MPD2    C5 8347   3.067   1.850  10.530  0.7363 -0.2013  0.3347
  559MPD2     H 8348   2.935   1.704  10.856 -1.0651  0.6070 -0.4530
  559MPD2    H1 8349   3.252   1.769  10.584 -0.2677 -3.4066  0.6643
  559MPD2    H2 8350   2.875   1.928  10.493 -0.6350  0.8266  0.8340
  559MPD2    H3 8351   3.109   1.863  10.431 -0.7144  0.6823 -0.1598
  559MPD2     N 8352   3.195   1.673  10.832  0.0290 -0.2107  0.0191
  559MPD2    H5 8353   3.154   1.628  10.913 -2.6043 -0.2403 -1.3321
  559MPD2    N1 8354   2.751   1.855  10.700  0.6086 -0.2005  0.0653
  559MPD2    H7 8355   2.697   1.902  10.629 -0.0320 -0.9391  0.0724
  560TMC3    C1 8356   3.382   1.556  10.905  0.3837  0.4572  0.7260
  560TMC3    C2 8357   3.292   1.484  10.977 -0.1357  0.5226 -0.1753
  560TMC3    C3 8358   3.324   1.411  11.091 -0.1301  0.6454  0.0926
  560TMC3    C4 8359   3.510   1.569  10.958 -0.6584 -0.2373  0.1371
  560TMC3    C5 8360   3.549   1.506  11.077 -0.6693 -0.1164  0.5860
  560TMC3    C6 8361   3.451   1.439  11.147 -0.3766  0.3300 -0.5006
  560TMC3     C 8362   3.329   1.648  10.808 -0.1756  0.0811 -0.4531
  560TMC3     O 8363   3.405   1.696  10.722  0.1397  0.5645  0.6728
  560TMC3     H 8364   3.206   1.455  10.918 -1.8010 -0.1305  2.5618
  560TMC3    H1 8365   3.584   1.621  10.898  0.2174 -1.2137  0.3610
  560TMC3    H2 8366   3.475   1.401  11.245 -0.4416  0.7014 -0.3394
  560TMC3    C7 8367   3.645   1.561  11.166 -0.6187  0.4907 -0.1469
  560TMC3    C8 8368   3.214   1.374  11.177 -0.0834 -0.1859 -0.1379
  560TMC3    O1 8369   3.671   1.505  11.271  0.1930  0.3792  0.1293
  560TMC3    O2 8370   3.107   1.411  11.132  0.1099 -0.7231 -0.0638
  561TMC3    C1 8371   0.619   1.202  10.935 -0.0931 -0.1627  0.0562
  561TMC3    C2 8372   0.583   1.093  11.015 -0.1705 -0.7112 -0.0329
  561TMC3    C3 8373   0.571   1.109  11.147  0.4028  0.1524 -0.3933
  561TMC3    C4 8374   0.647   1.320  10.994 -0.3436  0.2481 -0.5731
  561TMC3    C5 8375   0.655   1.336  11.132  0.2730  0.1939  0.3268
  561TMC3    C6 8376   0.616   1.221  11.205 -0.4347  0.3084  0.7211
  561TMC3     C 8377   0.589   1.190  10.796  0.1763  0.0415 -0.6217
  561TMC3     O 8378   0.512   1.098  10.760  0.4643  0.1922 -0.1499
  561TMC3     H 8379   0.534   1.005  10.973  2.3612 -2.0455 -0.1755
  561TMC3    H1 8380   0.668   1.406  10.931 -0.5740  1.3388  0.8510
  561TMC3    H2 8381   0.621   1.231  11.313 -0.4512  1.2241  0.6411
  561TMC3    C7 8382   0.700   1.449  11.204  0.1976 -0.2697  0.3243
  561TMC3    C8 8383   0.566   0.987  11.232 -0.7465 -0.1643  0.0335
  561TMC3    O1 8384   0.667   1.463  11.322 -0.1936 -0.3088 -0.0492
  561TMC3    O2 8385   0.584   0.880  11.179 -0.1389  0.0163  0.0711
  562TMC3    C1 8386   2.184   1.583  15.987 -0.1418 -0.2318 -0.4251
  562TMC3    C2 8387   2.098   1.688  15.966  0.3273 -0.3759  0.2758
  562TMC3    C3 8388   2.085   1.735  15.836 -0.0588 -0.4343 -0.4027
  562TMC3    C4 8389   2.260   1.527  15.887  0.0419  0.2824 -0.0244
  562TMC3    C5 8390   2.251   1.582  15.764  0.4304  0.0380 -0.7538
  562TMC3    C6 8391   2.162   1.679  15.733  0.0340 -0.1729  0.3596
  562TMC3     C 8392   2.214   1.550  16.124 -0.2637 -0.0334  0.1775
  562TMC3     O 8393   2.297   1.457  16.135 -0.0510  0.3931 -0.8801
  562TMC3     H 8394   2.033   1.725  16.045  0.3561 -1.3821  0.7803
  562TMC3    H1 8395   2.318   1.438  15.910  0.6292  0.2801 -1.4692
  562TMC3    H2 8396   2.131   1.691  15.630  0.5522 -1.7620  0.0181
  562TMC3    C7 8397   2.326   1.516  15.662  0.1006 -0.9797  0.4022
  562TMC3    C8 8398   1.967   1.817  15.821  0.2703 -0.1569 -0.0793
  562TMC3    O1 8399   2.288   1.539  15.552 -0.3444  0.0570  0.9269
  562TMC3    O2 8400   1.879   1.802  15.907  0.0830  0.3710 -0.5775
  563MPD2     C 8401   4.615   3.148  15.409  0.7459  0.9452 -0.0179
  563MPD2    C1 8402   4.663   3.100  15.534 -0.4647 -0.2251 -0.6564
  563MPD2    C2 8403   0.063   3.084  15.541  0.0941 -0.4730 -0.5902
  563MPD2    C3 8404   0.149   3.103  15.437  1.1902  0.2796 -0.5028
  563MPD2    C4 8405   0.097   3.149  15.317 -0.1135 -0.2182 -0.6770
  563MPD2    C5 8406   4.700   3.174  15.304 -0.2405 -0.2495 -0.2294
  563MPD2     H 8407   0.114   3.045  15.629 -0.5611  0.9838  0.4315
  563MPD2    H1 8408   0.163   3.174  15.235  1.4632  1.9740  1.2655
  563MPD2    H2 8409   4.509   3.163  15.393  0.8610  2.6570  0.8424
  563MPD2    H3 8410   4.662   3.213  15.210  1.4811  0.0656 -0.7822
  563MPD2     N 8411   0.290   3.083  15.458 -0.5671 -0.1865  0.3256
  563MPD2    H5 8412   0.320   3.054  15.551 -0.3547 -0.4534  0.1738
  563MPD2    N1 8413   4.576   3.075  15.638 -0.9527 -0.0705  0.1749
  563MPD2    H7 8414   4.482   3.111  15.630 -0.7320  0.4807  0.0598
  564TMC3    C1 8415   4.506   3.037  15.855 -0.3320  0.4717  0.8439
  564TMC3    C2 8416   4.383   2.984  15.828  0.2025  0.6072  0.0527
  564TMC3    C3 8417   4.308   2.936  15.936 -0.2633 -0.5782 -0.9485
  564TMC3    C4 8418   4.554   3.034  15.982 -0.2671  0.6570  0.9981
  564TMC3    C5 8419   4.479   2.983  16.082 -0.5943 -0.7200  0.1466
  564TMC3    C6 8420   4.350   2.942  16.064  0.1786  1.2363  0.5960
  564TMC3     C 8421   4.611   3.016  15.762 -0.1313 -0.1574 -0.8649
  564TMC3     O 8422   4.701   2.937  15.781  0.1246  0.1252 -0.2677
  564TMC3     H 8423   4.353   2.964  15.726 -0.2286  0.2227  0.2562
  564TMC3    H1 8424   4.658   3.059  15.996 -0.9784  2.5569  2.9533
  564TMC3    H2 8425   4.289   2.902  16.144  1.1653  1.6416  1.5481
  564TMC3    C7 8426   4.564   2.895  16.161 -0.0227 -0.3372  0.0064
  564TMC3    C8 8427   4.236   2.818  15.921 -0.0638 -0.1207 -0.2923
  564TMC3    O1 8428   4.678   2.929  16.177 -0.1397  0.4875 -0.0240
  564TMC3    O2 8429   4.242   2.738  16.014  0.2221 -0.1404 -0.2146
  565TMC3    C1 8430   0.127   0.348  10.469  0.0881  0.0346  0.1198
  565TMC3    C2 8431   0.108   0.252  10.562  0.6540 -0.6004 -0.2915
  565TMC3    C3 8432   4.723   0.183  10.559  0.0642 -0.2607  0.9300
  565TMC3    C4 8433   0.026   0.401  10.393  0.2198 -0.4320  0.2907
  565TMC3    C5 8434   4.651   0.325  10.391  0.3624  0.4888  0.4433
  565TMC3    C6 8435   4.625   0.214  10.458  0.1688 -0.8651  0.2969
  565TMC3     C 8436   0.242   0.434  10.497 -0.4312 -0.7385  0.0856
  565TMC3     O 8437   0.294   0.433  10.607  0.5638  0.3593  0.3819
  565TMC3     H 8438   0.187   0.227  10.631  2.0377  1.2606 -1.1886
  565TMC3    H1 8439   0.026   0.497  10.342 -0.7028  0.1249  1.3416
  565TMC3    H2 8440   4.524   0.177  10.474  0.7802 -2.5222  0.3267
  565TMC3    C7 8441   4.577   0.326  10.264 -0.1139 -0.2828  0.5468
  565TMC3    C8 8442   4.691   0.095  10.668  0.1569 -0.2790 -0.9228
  565TMC3    O1 8443   4.555   0.438  10.221 -0.4864 -0.0566  0.3971
  565TMC3    O2 8444   0.016   0.112  10.774 -0.4605  0.7814  0.1312
  566MPD2     C 8445   1.923   1.445  14.257 -0.3285 -0.8032  0.2459
  566MPD2    C1 8446   1.959   1.554  14.177  0.1354  0.5725 -0.5755
  566MPD2    C2 8447   1.853   1.598  14.098  0.1401 -0.0684  0.4933
  566MPD2    C3 8448   1.726   1.549  14.102 -0.0698  0.1744  0.3212
  566MPD2    C4 8449   1.696   1.446  14.195  0.4423  0.2466  0.0965
  566MPD2    C5 8450   1.799   1.389  14.268 -0.1192 -0.2290 -0.1287
  566MPD2     H 8451   1.862   1.690  14.042  0.2541  0.7641  1.8807
  566MPD2    H1 8452   1.600   1.396  14.195  1.3534 -1.4824  0.5136
  566MPD2    H2 8453   1.991   1.385  14.317  1.9704  2.7209  1.1808
  566MPD2    H3 8454   1.773   1.310  14.337 -1.2790 -0.3633 -0.7222
  566MPD2     N 8455   1.621   1.573  14.008  0.8864 -0.0792  0.1104
  566MPD2    H5 8456   1.531   1.541  14.041 -0.3646  0.5594 -2.6695
  566MPD2    N1 8457   2.099   1.591  14.169 -0.5227  0.1845  0.3750
  566MPD2    H7 8458   2.167   1.533  14.217  2.3361  1.5848 -1.9730
  567TMC3    C1 8459   2.280   1.724  14.113  0.7075  0.5194 -0.4824
  567TMC3    C2 8460   2.333   1.787  13.999 -0.1092  0.0163 -0.0404
  567TMC3    C3 8461   2.470   1.802  13.991 -0.7103  0.1786 -0.7243
  567TMC3    C4 8462   2.358   1.681  14.214  0.4617 -0.2022  0.4215
  567TMC3    C5 8463   2.495   1.689  14.199  0.5984  0.4150 -0.0774
  567TMC3    C6 8464   2.554   1.759  14.093 -0.3583  0.4633 -0.0100
  567TMC3     C 8465   2.140   1.709  14.111 -0.1508 -0.0715 -0.3201
  567TMC3     O 8466   2.070   1.799  14.054  0.2403  0.0446  0.5879
  567TMC3     H 8467   2.272   1.818  13.915 -0.7273 -0.3882  0.2597
  567TMC3    H1 8468   2.313   1.626  14.296  1.0612 -2.0840 -0.5233
  567TMC3    H2 8469   2.663   1.763  14.088 -0.4057 -0.1608 -1.4732
  567TMC3    C7 8470   2.582   1.596  14.269  0.5127 -0.3647 -0.0334
  567TMC3    C8 8471   2.526   1.872  13.882  0.4825  0.3479 -0.1931
  567TMC3    O1 8472   2.704   1.609  14.265 -0.2028 -0.8807  0.1060
  567TMC3    O2 8473   2.456   1.950  13.822 -0.8492 -0.5635 -0.1031
  568MPD2     C 8474   3.712   1.348  16.005  0.1405 -0.3083 -0.3883
  568MPD2    C1 8475   3.783   1.411  16.109  0.3352 -0.0056 -0.2216
  568MPD2    C2 8476   3.788   1.550  16.103  0.5205  0.5218 -0.7390
  568MPD2    C3 8477   3.731   1.619  15.999 -0.4336 -0.6144  0.3134
  568MPD2    C4 8478   3.676   1.557  15.894  0.3133  0.5594 -0.3935
  568MPD2    C5 8479   3.660   1.421  15.897  0.4614 -0.3031  0.0087
  568MPD2     H 8480   3.843   1.608  16.177 -0.3333  0.3410  0.0323
  568MPD2    H1 8481   3.631   1.598  15.804  1.8638  1.2316 -0.8638
  568MPD2    H2 8482   3.698   1.240  16.011  2.2174 -0.5494  0.2316
  568MPD2    H3 8483   3.600   1.379  15.817 -0.7148  0.1225  0.6613
  568MPD2     N 8484   3.742   1.758  15.992  0.3822  0.4480 -0.3967
  568MPD2    H5 8485   3.763   1.806  16.079  0.4984 -1.7642  0.7946
  568MPD2    N1 8486   3.843   1.336  16.209 -0.3801 -0.7633  0.3453
  568MPD2    H7 8487   3.842   1.235  16.198  0.8126 -0.3713 -3.5837
  569TMC3    C1 8488   3.720   1.975  15.904  0.1426 -0.2123  0.4132
  569TMC3    C2 8489   3.675   2.025  16.031  0.3644 -0.4030  0.4286
  569TMC3    C3 8490   3.712   2.141  16.069  0.3907  0.3982  0.6270
  569TMC3    C4 8491   3.786   2.058  15.816  0.6769  0.2024 -0.8197
  569TMC3    C5 8492   3.818   2.177  15.866 -0.3601  0.4916  0.2226
  569TMC3    C6 8493   3.790   2.220  15.991 -0.4072  0.6804 -0.5748
  569TMC3     C 8494   3.730   1.836  15.878  0.2021 -0.0618 -0.2856
  569TMC3     O 8495   3.753   1.815  15.762  0.1961  0.2980 -0.1922
  569TMC3     H 8496   3.617   1.958  16.094  2.7159 -1.7689  1.1406
  569TMC3    H1 8497   3.821   2.035  15.715 -1.0790  1.4542 -1.7068
  569TMC3    H2 8498   3.802   2.323  16.021 -0.8361  0.5441  0.0578
  569TMC3    C7 8499   3.879   2.269  15.767 -0.1973 -0.2337  1.5006
  569TMC3    C8 8500   3.707   2.171  16.211 -0.6325 -0.6185  0.1976
  569TMC3    O1 8501   3.886   2.241  15.650 -0.7189 -0.3309 -0.5088
  569TMC3    O2 8502   3.633   2.102  16.282  0.3866 -0.2461  0.1420
  570TMC3    C1 8503   3.596   0.450  15.890 -0.2168  0.4149 -0.6988
  570TMC3    C2 8504   3.639   0.518  15.782 -0.0676 -0.0365 -0.4162
  570TMC3    C3 8505   3.677   0.649  15.798 -0.4217 -0.6569  0.6912
  570TMC3    C4 8506   3.607   0.504  16.016  0.3581  0.1308 -0.5666
  570TMC3    C5 8507   3.639   0.639  16.021 -0.2907 -0.0064 -0.3926
  570TMC3    C6 8508   3.686   0.708  15.916 -0.3452  0.3058  0.5918
  570TMC3     C 8509   3.505   0.338  15.877 -0.3537  0.3792 -0.0129
  570TMC3     O 8510   3.432   0.348  15.778  0.2095 -0.3051 -0.2626
  570TMC3     H 8511   3.629   0.466  15.687  1.6560  1.1439 -1.2187
  570TMC3    H1 8512   3.572   0.459  16.108  1.6442  0.6125  0.1568
  570TMC3    H2 8513   3.712   0.813  15.919 -1.6082  0.6181  0.6772
  570TMC3    C7 8514   3.622   0.703  16.147 -0.7903  0.2608  0.6685
  570TMC3    C8 8515   3.720   0.713  15.676  0.1631  0.0325  0.1375
  570TMC3    O1 8516   3.643   0.633  16.246  0.1782  0.7781 -0.1006
  570TMC3    O2 8517   3.737   0.834  15.674 -0.1833  0.3728  0.1912
  571MPD2     C 8518   1.347   2.682   0.992 -0.0028 -0.3152  0.5638
  571MPD2    C1 8519   1.296   2.783   1.076 -0.4930  0.0133 -0.7840
  571MPD2    C2 8520   1.252   2.901   1.014  0.5750  0.3790 -0.4736
  571MPD2    C3 8521   1.269   2.917   0.878  0.5075 -0.1743 -0.4957
  571MPD2    C4 8522   1.319   2.824   0.800 -0.6592  0.5472 -0.5040
  571MPD2    C5 8523   1.354   2.707   0.859 -0.8714 -0.8231 -0.4459
  571MPD2     H 8524   1.194   2.969   1.075  1.3298 -1.6655  2.5254
  571MPD2    H1 8525   1.333   2.829   0.692 -0.3264 -2.5160 -0.5960
  571MPD2    H2 8526   1.373   2.584   1.029 -1.0902 -0.4606  0.9355
  571MPD2    H3 8527   1.400   2.640   0.787 -0.3896 -2.4197  1.3200
  571MPD2     N 8528   1.235   3.040   0.810 -0.2658 -0.0129 -0.3203
  571MPD2    H5 8529   1.228   3.037   0.709  1.9653  0.2553 -0.4941
  571MPD2    N1 8530   1.283   2.758   1.214 -0.3529  0.3903 -0.3856
  571MPD2    H7 8531   1.326   2.677   1.257  0.5838  1.4794  0.7218
  572TMC3    C1 8532   1.148   3.265   0.797 -0.2268  0.4108  0.0023
  572TMC3    C2 8533   1.120   3.364   0.884 -0.1668  0.6989 -0.8606
  572TMC3    C3 8534   1.131   3.496   0.850 -0.3729 -0.0706 -0.6553
  572TMC3    C4 8535   1.197   3.291   0.673 -0.4753 -0.1349 -0.0987
  572TMC3    C5 8536   1.216   3.420   0.650  0.2435 -0.4541  0.3499
  572TMC3    C6 8537   1.191   3.522   0.738 -0.3653  0.1119 -0.0730
  572TMC3     C 8538   1.183   3.153   0.878  0.3811 -0.1536  0.0463
  572TMC3     O 8539   1.178   3.171   0.998 -0.9626 -0.3283  0.0594
  572TMC3     H 8540   1.040   3.342   0.954 -0.8288 -0.1062 -1.8597
  572TMC3    H1 8541   1.224   3.218   0.599 -0.0105  1.1623 -1.2090
  572TMC3    H2 8542   1.203   3.627   0.715  1.9680 -0.3403 -0.8973
  572TMC3    C7 8543   1.287   3.446   0.525  1.1188 -0.1064 -0.8863
  572TMC3    C8 8544   1.111   3.603   0.948 -0.2968  0.3561 -0.4114
  572TMC3    O1 8545   1.249   3.404   0.414  0.2690 -0.3958 -0.5522
  572TMC3    O2 8546   1.104   3.717   0.907  0.0566  0.5918  0.7780
  573MPD2     C 8547   2.949   3.521   1.352 -1.2902 -0.8214 -0.0546
  573MPD2    C1 8548   3.048   3.492   1.259  0.1250 -0.0475 -0.0383
  573MPD2    C2 8549   3.018   3.420   1.140  0.6923 -0.4492  0.1380
  573MPD2    C3 8550   2.885   3.380   1.114 -0.5265 -0.9442  0.7632
  573MPD2    C4 8551   2.788   3.420   1.203 -0.4257 -0.0387  0.3460
  573MPD2    C5 8552   2.824   3.484   1.324 -0.5783  0.1970 -0.0856
  573MPD2     H 8553   3.088   3.392   1.062  1.9698  2.1941  0.3352
  573MPD2    H1 8554   2.684   3.397   1.183 -0.1829 -0.0634 -0.8831
  573MPD2    H2 8555   2.959   3.592   1.433 -0.6511  1.4813 -2.1499
  573MPD2    H3 8556   2.738   3.511   1.384 -0.1044 -0.7005  0.9780
  573MPD2     N 8557   2.833   3.320   1.000 -0.2123 -0.0345  0.2487
  573MPD2    H5 8558   2.733   3.302   1.001  0.1665 -2.0803 -0.3127
  573MPD2    N1 8559   3.169   3.568   1.271 -0.4091 -0.4574  0.5292
  573MPD2    H7 8560   3.175   3.627   1.354 -1.6899 -2.7453  2.2559
  574TMC3    C1 8561   2.825   3.273   0.768  0.1665  0.8992  0.1049
  574TMC3    C2 8562   2.697   3.319   0.768  0.7972  0.3926  0.6712
  574TMC3    C3 8563   2.637   3.321   0.641  0.8052 -0.8743  0.5273
  574TMC3    C4 8564   2.892   3.231   0.658 -0.4010  0.3396  0.0541
  574TMC3    C5 8565   2.827   3.238   0.538 -0.5264 -0.4892  1.1454
  574TMC3    C6 8566   2.701   3.278   0.522 -0.0147  0.0467  0.9265
  574TMC3     C 8567   2.911   3.290   0.888 -0.2172  0.2231 -0.0714
  574TMC3     O 8568   3.028   3.294   0.865  0.1701  0.5158 -0.4488
  574TMC3     H 8569   2.639   3.348   0.855  0.1881  0.7498  0.1404
  574TMC3    H1 8570   2.987   3.180   0.672 -0.5493  0.0644  0.0504
  574TMC3    H2 8571   2.657   3.275   0.423 -1.1060 -1.3002  1.4551
  574TMC3    C7 8572   2.892   3.177   0.422  0.4278 -0.1488 -0.3014
  574TMC3    C8 8573   2.505   3.380   0.640 -0.2258 -0.6334  0.8004
  574TMC3    O1 8574   2.941   3.069   0.431 -0.6960  0.0884  0.4949
  574TMC3    O2 8575   2.456   3.406   0.752  0.6623  0.3305  0.2612
  575TMC3    C1 8576   4.723   4.555  11.499 -0.4494  0.5371 -0.0178
  575TMC3    C2 8577   0.013   4.421  11.507 -0.2682 -0.4828 -0.5536
  575TMC3    C3 8578   4.708   4.343  11.405  0.1987 -0.9463 -0.1759
  575TMC3    C4 8579   4.665   4.605  11.383  0.0988  0.2928  0.7607
  575TMC3    C5 8580   4.626   4.528  11.276  0.3399  0.1466  0.2757
  575TMC3    C6 8581   4.638   4.391  11.287 -0.3003 -0.8203 -0.3865
  575TMC3     C 8582   0.049   4.645  11.591 -0.1514 -0.6002  0.0225
  575TMC3     O 8583   0.027   0.023  11.570  0.2457  0.3802  1.0046
  575TMC3     H 8584   0.071   4.375  11.585  1.2084  3.6508  0.8219
  575TMC3    H1 8585   4.647   4.711  11.372  3.0666  0.7848  0.8118
  575TMC3    H2 8586   4.623   4.336  11.195  1.4836 -2.9987  0.6024
  575TMC3    C7 8587   4.601   4.593  11.152 -0.6525 -0.1530  0.1599
  575TMC3    C8 8588   4.708   4.202  11.429 -1.0611 -0.1439  0.3455
  575TMC3    O1 8589   4.637   4.710  11.137  0.0090  0.0163 -0.2652
  575TMC3    O2 8590   4.726   4.166  11.546 -0.1628 -0.4707  0.4895
  576MPD2     C 8591   0.037   0.956  12.627 -0.1780 -0.2615  0.1079
  576MPD2    C1 8592   0.086   1.071  12.579 -0.3725 -0.6104 -0.0075
  576MPD2    C2 8593   0.057   1.189  12.646  0.3510 -0.1263 -0.0300
  576MPD2    C3 8594   4.716   1.183  12.759  0.6105 -0.6700  0.0234
  576MPD2    C4 8595   4.667   1.058  12.811  0.2042 -0.6849  0.1685
  576MPD2    C5 8596   4.722   0.945  12.750  0.2768  0.2935 -0.1462
  576MPD2     H 8597   0.087   1.283  12.602 -1.1691  1.1848  1.7519
  576MPD2    H1 8598   4.614   1.042  12.905  0.0903 -0.4189  0.1495
  576MPD2    H2 8599   0.066   0.863  12.578 -1.5311 -0.1221 -0.9612
  576MPD2    H3 8600   4.718   0.843  12.787 -2.0888 -0.5144 -2.6612
  576MPD2     N 8601   4.687   1.312  12.819  0.4235  0.3629 -0.2156
  576MPD2    H5 8602   0.007   1.386  12.784  1.3235 -0.6831 -0.9136
  576MPD2    N1 8603   0.170   1.079  12.468 -0.3998 -0.4191 -0.1594
  576MPD2    H7 8604   0.226   1.162  12.451 -0.8395  0.4041  2.5022
  577TMC3    C1 8605   0.276   1.033  12.267 -0.2445  0.3118 -0.2744
  577TMC3    C2 8606   0.332   0.943  12.175  0.0210 -0.3313 -0.1127
  577TMC3    C3 8607   0.370   0.996  12.057 -0.5555 -0.0292  0.1730
  577TMC3    C4 8608   0.241   1.160  12.223  0.1369 -0.3921  0.1197
  577TMC3    C5 8609   0.278   1.201  12.097  0.1927  0.1854  0.1675
  577TMC3    C6 8610   0.348   1.122  12.014 -0.0611 -0.8515 -0.0810
  577TMC3     C 8611   0.197   0.982  12.378 -0.0140 -0.4398  0.4898
  577TMC3     O 8612   0.172   0.862  12.375 -0.5251  0.1438 -0.3207
  577TMC3     H 8613   0.352   0.838  12.192 -2.4358 -0.4134  2.2595
  577TMC3    H1 8614   0.188   1.234  12.282 -2.8241 -1.2890 -1.4264
  577TMC3    H2 8615   0.385   1.167  11.922  1.0321 -2.1051 -0.2571
  577TMC3    C7 8616   0.276   1.348  12.081  0.0077  0.2375 -0.3751
  577TMC3    C8 8617   0.428   0.901  11.954  0.2260 -0.1296 -0.1864
  577TMC3    O1 8618   0.283   1.416  12.183 -0.2685 -0.0897 -0.1905
  577TMC3    O2 8619   0.469   0.794  11.994  0.0425 -0.1004 -0.0228
  578MPD2     C 8620   2.510   1.116   0.815 -0.3990  0.4349 -0.2125
  578MPD2    C1 8621   2.533   1.010   0.727 -0.2383  0.6240  0.0838
  578MPD2    C2 8622   2.665   0.977   0.693  0.6813  0.3519  0.1111
  578MPD2    C3 8623   2.775   1.049   0.742 -0.3128  0.3137  0.0476
  578MPD2    C4 8624   2.745   1.154   0.829 -0.2635  1.2154 -0.2027
  578MPD2    C5 8625   2.619   1.177   0.869 -0.2871 -0.4482 -0.2527
  578MPD2     H 8626   2.682   0.888   0.633 -2.3975  0.4696 -0.9237
  578MPD2    H1 8627   2.824   1.223   0.856 -1.4020  2.6382 -0.5335
  578MPD2    H2 8628   2.415   1.129   0.865 -0.0089  0.1698  0.6104
  578MPD2    H3 8629   2.601   1.260   0.936 -0.5270 -1.4931  0.9765
  578MPD2     N 8630   2.910   1.022   0.702  0.2775  0.5027 -0.3446
  578MPD2    H5 8631   2.971   1.100   0.724 -0.3191  0.4014  1.5921
  578MPD2    N1 8632   2.420   0.944   0.681 -0.2973  0.2191 -0.0437
  578MPD2    H7 8633   2.333   0.995   0.694  0.1801  0.7341  1.0726
  579TMC3    C1 8634   3.093   0.911   0.610  0.5653 -0.2885  0.0541
  579TMC3    C2 8635   3.166   1.028   0.619  0.3070  0.6156 -0.2229
  579TMC3    C3 8636   3.294   1.018   0.565 -0.5194  1.3594  0.1694
  579TMC3    C4 8637   3.145   0.802   0.547 -0.0704 -0.0448 -0.4755
  579TMC3    C5 8638   3.258   0.811   0.477 -0.2781  0.0208 -0.1544
  579TMC3    C6 8639   3.331   0.924   0.476  0.1772  0.1647 -0.0482
  579TMC3     C 8640   2.953   0.906   0.641  0.2132 -0.2728 -0.2897
  579TMC3     O 8641   2.896   0.801   0.628  0.1790  0.2814 -0.6480
  579TMC3     H 8642   3.130   1.107   0.684  3.1376  2.3692 -0.7620
  579TMC3    H1 8643   3.086   0.711   0.542  1.1395 -0.8792  0.5302
  579TMC3    H2 8644   3.401   0.950   0.397 -1.5672 -0.6950 -1.8629
  579TMC3    C7 8645   3.287   0.729   0.358  0.6046 -0.2728  0.0150
  579TMC3    C8 8646   3.377   1.135   0.588  0.6334  0.3065 -0.3990
  579TMC3    O1 8647   3.376   0.773   0.283  0.1190 -0.4218 -0.2086
  579TMC3    O2 8648   3.316   1.238   0.608  0.1725  0.3600 -0.3372
  580TMC3    C1 8649   3.051   0.208  12.290  0.0117  0.8037  0.6006
  580TMC3    C2 8650   3.129   0.278  12.205  0.0805 -0.3302  0.3561
  580TMC3    C3 8651   3.200   0.212  12.100 -0.0806  0.4966 -0.0891
  580TMC3    C4 8652   3.041   0.070  12.274 -0.4011  0.6229  0.0123
  580TMC3    C5 8653   3.131   0.005  12.186 -0.4901  0.5897  0.2144
  580TMC3    C6 8654   3.218   0.072  12.103 -0.1377  0.2569 -0.7073
  580TMC3     C 8655   2.943   0.282  12.338 -0.8507  0.0140 -0.1690
  580TMC3     O 8656   2.970   0.399  12.371 -0.0582  0.6550  0.5365
  580TMC3     H 8657   3.124   0.385  12.215 -1.1359 -0.4424  0.9423
  580TMC3    H1 8658   2.970   0.007  12.326 -0.3883 -0.0144 -0.7407
  580TMC3    H2 8659   3.289   0.008  12.053  0.3933 -0.5882  1.1408
  580TMC3    C7 8660   3.120   4.598  12.171 -0.4537  0.0331 -0.0626
  580TMC3    C8 8661   3.278   0.281  12.001  0.5777 -0.5031 -0.2109
  580TMC3    O1 8662   3.048   4.550  12.256  0.1747 -0.0004  0.2926
  580TMC3    O2 8663   3.350   0.200  11.937 -0.6458 -0.2009  0.4122
  581MPD2     C 8664   0.740   4.609  14.250  0.3284  0.0945  0.1973
  581MPD2    C1 8665   0.729   4.624  14.386 -0.1289  0.1784 -0.3726
  581MPD2    C2 8666   0.607   4.665  14.434 -0.7028 -0.0499  0.0610
  581MPD2    C3 8667   0.502   4.673  14.345 -0.0830 -0.0965 -0.3598
  581MPD2    C4 8668   0.513   4.658  14.209  0.2252 -0.1080  0.3596
  581MPD2    C5 8669   0.634   4.627  14.162  0.3293 -0.7525 -0.1455
  581MPD2     H 8670   0.595   4.676  14.541  1.4541  2.1296  0.0727
  581MPD2    H1 8671   0.435   4.657  14.134 -0.6290  2.4939  1.2509
  581MPD2    H2 8672   0.827   4.579  14.193  0.0360  2.3855 -1.4602
  581MPD2    H3 8673   0.645   4.601  14.057 -0.7253 -2.9937  0.3053
  581MPD2     N 8674   0.381   4.702  14.403 -0.5665 -0.1558  0.2091
  581MPD2    H5 8675   0.380   4.714  14.504 -0.4388 -1.4538  0.3641
  581MPD2    N1 8676   0.838   4.586  14.467  0.3905 -0.3889 -0.1030
  581MPD2    H7 8677   0.911   4.540  14.415 -0.1086  1.0224 -2.0554
  582TMC3    C1 8678   0.963   4.531  14.654  0.0847 -0.3697 -0.0110
  582TMC3    C2 8679   0.994   4.573  14.777 -0.1523  0.1785  0.2255
  582TMC3    C3 8680   1.011   4.477  14.876 -0.4985 -0.0124  0.1646
  582TMC3    C4 8681   0.946   4.389  14.630  0.3956  0.2211 -0.3568
  582TMC3    C5 8682   0.965   4.299  14.725  0.6035 -0.5435  0.7401
  582TMC3    C6 8683   0.997   4.341  14.854 -0.5668 -1.1887 -0.3221
  582TMC3     C 8684   0.857   4.610  14.599 -0.2244  0.7372  0.4823
  582TMC3     O 8685   0.787   4.675  14.668 -0.4096  0.8389 -0.0523
  582TMC3     H 8686   0.998   4.678  14.803 -2.1113  0.1737  0.5998
  582TMC3    H1 8687   0.896   4.353  14.541 -1.5394  0.3238  0.7005
  582TMC3    H2 8688   0.986   4.273  14.938 -0.3939  0.1435  0.7714
  582TMC3    C7 8689   0.859   4.203  14.737  0.4515 -0.9218 -0.4860
  582TMC3    C8 8690   1.002   4.519  15.015  0.5350 -0.3107 -0.1278
  582TMC3    O1 8691   0.868   4.085  14.695 -0.1432 -0.1430 -0.5876
  582TMC3    O2 8692   0.889   4.547  15.050 -0.6976  0.3941 -0.2030
  583MPD2     C 8693   0.843   1.244  16.676  0.1139 -0.7439  0.4575
  583MPD2    C1 8694   0.821   1.328  16.574 -0.4543  0.4933 -0.2620
  583MPD2    C2 8695   0.750   1.444  16.598  0.1246  0.0992  0.6704
  583MPD2    C3 8696   0.710   1.474  16.726  0.7169  0.1721  0.4909
  583MPD2    C4 8697   0.734   1.382  16.824 -0.0418 -0.0844 -0.0896
  583MPD2    C5 8698   0.784   1.257  16.800 -0.4223 -0.2999 -0.0941
  583MPD2     H 8699   0.743   1.519  16.520 -0.2473  0.3576  0.9531
  583MPD2    H1 8700   0.693   1.394  16.924  1.2001  0.9927  0.2977
  583MPD2    H2 8701   0.904   1.156  16.664  0.3777 -0.3077 -1.4450
  583MPD2    H3 8702   0.779   1.189  16.884 -0.3206  0.4488  0.5225
  583MPD2     N 8703   0.658   1.605  16.748 -0.1469  0.0339 -0.5965
  583MPD2    H5 8704   0.663   1.660  16.664 -1.6737  1.6243  0.3615
  583MPD2    N1 8705   0.874   1.313  16.449 -0.0088  0.2365  0.6251
  583MPD2    H7 8706   0.854   1.382  16.377 -0.4919 -0.6972 -0.1327
  584TMC3    C1 8707   0.550   1.782  16.862 -0.0110  0.3682 -0.4023
  584TMC3    C2 8708   0.595   1.879  16.778  0.1353  0.1168 -0.0966
  584TMC3    C3 8709   0.567   2.010  16.800 -0.6296 -0.2093 -0.0671
  584TMC3    C4 8710   0.483   1.822  16.977 -0.0179 -0.3601  0.3815
  584TMC3    C5 8711   0.471   1.958  17.000  0.0318 -0.2089 -0.0153
  584TMC3    C6 8712   0.516   2.057  16.914 -0.6480 -0.4490 -0.5118
  584TMC3     C 8713   0.609   1.653  16.869  0.5516 -0.1396 -0.3564
  584TMC3     O 8714   0.592   1.585  16.968 -0.0061 -0.4241  0.4201
  584TMC3     H 8715   0.659   1.848  16.696 -1.0280  0.7748 -1.2514
  584TMC3    H1 8716   0.432   1.750  17.040 -0.5776 -0.5306 -0.2712
  584TMC3    H2 8717   0.498   2.164  16.926  0.4124 -0.4484  0.9852
  584TMC3    C7 8718   0.427   1.998  17.133 -0.2781  0.4624 -0.3628
  584TMC3    C8 8719   0.613   2.099  16.701  0.4624  0.1193  0.1441
  584TMC3    O1 8720   0.373   1.916  17.208 -0.1297 -0.2324  0.3655
  584TMC3    O2 8721   0.620   2.059  16.585  0.0600 -0.0156 -0.1714
  585MPD2     C 8722   4.705   0.298   0.410  0.0141  0.1555 -0.2678
  585MPD2    C1 8723   0.078   0.271   0.335 -0.7418  0.0771 -0.3067
  585MPD2    C2 8724   0.081   0.153   0.258 -0.0265  0.0906 -0.0955
  585MPD2    C3 8725   4.705   0.080   0.240 -0.9584  0.7781 -0.6996
  585MPD2    C4 8726   4.594   0.112   0.313 -0.4989 -0.0254 -0.2770
  585MPD2    C5 8727   4.601   0.219   0.396 -0.4034  0.3924  0.3241
  585MPD2     H 8728   0.169   0.123   0.201  1.8700  0.7829  2.4750
  585MPD2    H1 8729   4.502   0.054   0.308 -0.5398  0.2121 -2.5588
  585MPD2    H2 8730   4.687   0.380   0.478 -1.4690  0.5428 -1.1240
  585MPD2    H3 8731   4.510   0.219   0.455 -2.2026 -2.8917 -2.4423
  585MPD2     N 8732   4.696   4.705   0.161  0.3306 -0.2937 -0.3856
  585MPD2    H5 8733   4.604   4.683   0.123 -0.6744  0.5446  1.5927
  585MPD2    N1 8734   0.181   0.369   0.340  0.1719 -0.1136  0.1679
  585MPD2    H7 8735   0.168   0.459   0.384 -0.6861 -0.6217  0.9634
  586TMC3    C1 8736   0.035   4.586  17.720  0.4801  0.1795 -0.7734
  586TMC3    C2 8737   0.139   4.541  17.651  0.3856  0.5611  0.2034
  586TMC3    C3 8738   0.137   4.542  17.515  0.5468 -0.3161 -0.5433
  586TMC3    C4 8739   4.675   4.650  17.651  1.1560 -0.0693  1.0940
  586TMC3    C5 8740   4.670   4.649  17.514  0.1460  0.4195  0.1108
  586TMC3    C6 8741   0.032   4.589  17.443  0.5969 -1.0168  0.7000
  586TMC3     C 8742   0.064   4.646   0.098 -0.2691  0.6250 -0.1473
  586TMC3     O 8743   0.185   4.656   0.123 -0.1729  0.5713 -0.3581
  586TMC3     H 8744   0.221   4.485  17.696 -1.4714 -0.4829  2.2545
  586TMC3    H1 8745   4.585   4.684  17.700  0.2330  0.5299 -1.0241
  586TMC3    H2 8746   0.027   4.575  17.335 -0.9718 -0.3218  0.6835
  586TMC3    C7 8747   4.552   4.691  17.439 -0.1774  0.1288  0.5212
  586TMC3    C8 8748   0.251   4.481  17.448  0.3536  0.1120  0.1377
  586TMC3    O1 8749   4.447   4.676  17.495  0.0216  0.5839 -0.2024
  586TMC3    O2 8750   0.300   4.381  17.498  0.0333 -0.1299  0.3593
  587TMC3    C1 8751   2.215   3.687  15.582 -0.7687  0.7195 -0.1876
  587TMC3    C2 8752   2.230   3.749  15.704 -0.1942 -0.2010  0.5061
  587TMC3    C3 8753   2.346   3.735  15.775  0.5856  0.3446 -0.5485
  587TMC3    C4 8754   2.318   3.614  15.524 -0.0754 -0.9810  0.1917
  587TMC3    C5 8755   2.430   3.595  15.606 -0.0689  0.8912 -0.4731
  587TMC3    C6 8756   2.451   3.658  15.725 -0.7598  0.1776  0.8503
  587TMC3     C 8757   2.109   3.731  15.490 -0.2769 -0.4996 -0.8727
  587TMC3     O 8758   2.135   3.772  15.377 -1.1346 -0.1503 -0.3399
  587TMC3     H 8759   2.145   3.807  15.739 -0.1951  0.5227 -0.6623
  587TMC3    H1 8760   2.311   3.571  15.424 -1.0576  1.4722 -0.7839
  587TMC3    H2 8761   2.535   3.630  15.787  2.5887  2.8545 -2.4311
  587TMC3    C7 8762   2.521   3.488  15.566  1.0853 -0.1681  0.0861
  587TMC3    C8 8763   2.321   3.721  15.924  0.5768 -0.5856 -0.2751
  587TMC3    O1 8764   2.465   3.391  15.517 -0.0437  0.1061  0.2031
  587TMC3    O2 8765   2.394   3.644  15.984 -0.3181  0.3142 -0.1610
  588TMC3    C1 8766   4.511   2.039   9.975  0.3509 -0.1408  0.1605
  588TMC3    C2 8767   4.474   1.932   9.900 -0.4644 -0.2764 -0.4105
  588TMC3    C3 8768   4.568   1.840   9.876  0.2067  0.0933 -0.4728
  588TMC3    C4 8769   4.637   2.055  10.012  0.7087 -0.4129  0.4535
  588TMC3    C5 8770   4.733   1.964   9.983  1.0383  0.4996 -0.2371
  588TMC3    C6 8771   4.696   1.851   9.914  0.6831 -0.8445 -0.1124
  588TMC3     C 8772   4.411   2.151  10.000 -0.0636  0.5208  0.2912
  588TMC3     O 8773   4.321   2.162   9.920 -0.1387 -0.2745 -0.1325
  588TMC3     H 8774   4.369   1.928   9.873 -1.0049 -0.4490  1.7118
  588TMC3    H1 8775   4.658   2.152  10.055 -1.1442 -0.8362  2.3125
  588TMC3    H2 8776   0.036   1.784   9.886  1.5169  0.8324 -1.7870
  588TMC3    C7 8777   0.135   2.003   9.988 -0.3310 -1.0148  0.0944
  588TMC3    C8 8778   4.526   1.706   9.846 -0.1177 -0.3268  0.4095
  588TMC3    O1 8779   0.204   1.963   9.893 -0.6200  0.4807 -0.1918
  588TMC3    O2 8780   4.417   1.698   9.786 -0.4311  0.7377  0.8108
  589TMC3    C1 8781   3.786   4.423   0.843  0.3226 -0.5625 -0.1261
  589TMC3    C2 8782   3.869   4.487   0.930  0.3033  0.0283  0.2874
  589TMC3    C3 8783   3.975   4.421   0.984 -0.1762  0.5497  0.1890
  589TMC3    C4 8784   3.820   4.303   0.793 -0.6684  0.2644  0.0026
  589TMC3    C5 8785   3.924   4.235   0.846  0.2239 -0.8353  0.7231
  589TMC3    C6 8786   4.005   4.292   0.945 -0.3574 -0.2274  0.7884
  589TMC3     C 8787   3.659   4.481   0.803  0.2681  0.1274 -0.1595
  589TMC3     O 8788   3.585   4.387   0.762  0.1218  0.5241  0.2950
  589TMC3     H 8789   3.847   4.590   0.956  1.0454  0.7710 -2.0822
  589TMC3    H1 8790   3.756   4.251   0.722 -1.1767 -1.4057  1.6699
  589TMC3    H2 8791   4.069   4.232   1.009  0.2841 -0.0975  0.2660
  589TMC3    C7 8792   3.939   4.097   0.807 -1.2202 -0.8393 -0.3529
  589TMC3    C8 8793   4.051   4.486   1.098  0.1609  0.0923  0.1586
  589TMC3    O1 8794   3.860   4.043   0.732  0.5178  0.0500  0.0055
  589TMC3    O2 8795   4.008   4.595   1.134 -0.0073  0.2145 -0.2614
  590MPD2     C 8796   2.888   1.773  16.425 -0.9818  0.2978  0.2210
  590MPD2    C1 8797   2.834   1.843  16.326  0.0998 -0.4240 -0.1683
  590MPD2    C2 8798   2.908   1.945  16.256  0.1104 -0.7176 -0.4027
  590MPD2    C3 8799   3.040   1.949  16.269 -0.5162  0.1611  0.6898
  590MPD2    C4 8800   3.097   1.863  16.365 -0.1784  0.0298  0.5269
  590MPD2    C5 8801   3.024   1.774  16.441 -0.6329 -0.7322  0.3403
  590MPD2     H 8802   2.857   2.013  16.189 -1.7827 -0.3924  1.3883
  590MPD2    H1 8803   3.204   1.857  16.382 -0.3787 -2.4902  0.8700
  590MPD2    H2 8804   2.829   1.721  16.498 -1.4265 -0.1300 -0.4474
  590MPD2    H3 8805   3.073   1.720  16.520  0.2212  1.5023  1.3569
  590MPD2     N 8806   3.114   2.027  16.174 -0.2353  0.0053  0.5439
  590MPD2    H5 8807   3.071   2.087  16.104 -0.0792 -0.2174  0.2585
  590MPD2    N1 8808   2.700   1.813  16.302 -0.4154 -0.4086 -0.5056
  590MPD2    H7 8809   2.657   1.752  16.371 -1.7294  1.5521  0.4104
  591TMC3    C1 8810   3.313   2.128  16.091  0.1107  0.2224 -0.1491
  591TMC3    C2 8811   3.383   2.095  15.983 -0.0759  0.1286  0.0433
  591TMC3    C3 8812   3.413   2.197  15.894  0.5341  1.1165 -0.2067
  591TMC3    C4 8813   3.260   2.254  16.116 -0.2283  0.1852  0.0740
  591TMC3    C5 8814   3.327   2.355  16.047  0.7428  0.0795 -0.4307
  591TMC3    C6 8815   3.414   2.326  15.939  0.5385 -0.0045 -0.3221
  591TMC3     C 8816   3.254   2.019  16.169  0.8617 -0.3712  0.0407
  591TMC3     O 8817   3.329   1.926  16.186  0.3260 -0.4042 -0.1661
  591TMC3     H 8818   3.398   1.992  15.954 -1.1818  0.1505 -0.6048
  591TMC3    H1 8819   3.202   2.283  16.203 -2.9442  0.5242 -1.8489
  591TMC3    H2 8820   3.427   2.406  15.867  1.4218  0.1253 -0.0266
  591TMC3    C7 8821   3.274   2.495  16.053  0.2126  0.1684  0.1433
  591TMC3    C8 8822   3.447   2.153  15.762 -0.2562  0.3520 -0.2149
  591TMC3    O1 8823   3.158   2.504  16.084  0.2232 -0.1355  0.0275
  591TMC3    O2 8824   3.446   2.032  15.747  0.3298 -0.2473 -0.3225
  592MPD2     C 8825   3.713   4.209  11.437 -0.3583 -0.9167  0.5112
  592MPD2    C1 8826   3.697   4.273  11.563 -0.2824 -0.7812  0.2216
  592MPD2    C2 8827   3.638   4.207  11.667 -0.4734 -0.4527 -0.1351
  592MPD2    C3 8828   3.599   4.076  11.654 -0.2341  0.3562 -0.4909
  592MPD2    C4 8829   3.624   4.007  11.533 -0.6419 -0.2228 -0.3668
  592MPD2    C5 8830   3.680   4.078  11.429  0.1727 -1.1165  0.7656
  592MPD2     H 8831   3.619   4.258  11.761 -0.3545 -0.2647 -0.2140
  592MPD2    H1 8832   3.613   3.901  11.512 -1.2461 -0.5425  1.6576
  592MPD2    H2 8833   3.762   4.269  11.361  0.1232  1.6185  2.8147
  592MPD2    H3 8834   3.698   4.032  11.333 -1.5026  1.8881 -0.9902
  592MPD2     N 8835   3.522   4.017  11.764 -0.0739  0.4027  0.0275
  592MPD2    H5 8836   3.520   4.071  11.850 -1.8167  0.0238  0.2056
  592MPD2    N1 8837   3.749   4.406  11.571  0.5396  0.3951  0.7562
  592MPD2    H7 8838   3.776   4.449  11.484 -0.3688 -0.5316  0.0084
  593TMC3    C1 8839   3.834   4.604  11.681  0.0493  0.0853 -0.7472
  593TMC3    C2 8840   3.865   4.649  11.809  1.4398  0.5056 -0.8505
  593TMC3    C3 8841   3.947   0.014  11.813 -0.3698  0.1049  0.4522
  593TMC3    C4 8842   3.880   4.661  11.565  0.3113 -0.5015 -0.7899
  593TMC3    C5 8843   3.956   0.037  11.587  0.2108 -0.0018  0.9549
  593TMC3    C6 8844   3.998   0.080  11.706 -0.9533 -0.0253  0.1075
  593TMC3     C 8845   3.760   4.477  11.688  0.9334 -0.8424  0.1715
  593TMC3     O 8846   3.740   4.437  11.803 -0.4733 -0.5641 -0.0435
  593TMC3     H 8847   3.828   4.606  11.901  0.1045  2.9101 -0.2644
  593TMC3    H1 8848   3.845   4.629  11.468  0.9479  1.2190 -1.5819
  593TMC3    H2 8849   4.063   0.166  11.719 -0.8040 -0.2419  0.8222
  593TMC3    C7 8850   3.984   0.125  11.475  0.0018 -0.5828 -0.0046
  593TMC3    C8 8851   4.004   0.040  11.947  0.0878 -0.3253 -0.0625
  593TMC3    O1 8852   4.019   0.236  11.509 -0.2306  0.4291 -0.3520
  593TMC3    O2 8853   3.986   4.696  12.033 -0.4181  0.0261 -0.1502
  594MPD2     C 8854   3.059   3.054  14.815 -0.3033 -0.1497 -0.8295
  594MPD2    C1 8855   2.983   3.134  14.730  0.5108  0.8279 -0.4077
  594MPD2    C2 8856   3.019   3.262  14.692  0.9874  0.7192  0.0286
  594MPD2    C3 8857   3.146   3.310  14.727 -0.2152 -0.1747 -0.2024
  594MPD2    C4 8858   3.232   3.220  14.787  0.4592  0.6213  0.0227
  594MPD2    C5 8859   3.190   3.100  14.829  0.4228  0.2694  0.2724
  594MPD2     H 8860   2.952   3.319  14.628 -1.8690 -0.3696  2.0670
  594MPD2    H1 8861   3.335   3.242  14.815 -0.2931  2.6506  1.1976
  594MPD2    H2 8862   3.035   2.950  14.831  0.9680 -0.8896 -3.6698
  594MPD2    H3 8863   3.260   3.031  14.875  0.4290 -0.0511 -0.2205
  594MPD2     N 8864   3.181   3.443  14.687  0.3149 -0.1843  0.2725
  594MPD2    H5 8865   3.111   3.503  14.644 -0.4284 -0.5264  1.0129
  594MPD2    N1 8866   2.855   3.086  14.709  0.6211 -0.4811 -0.6463
  594MPD2    H7 8867   2.817   3.005  14.756 -0.4679 -1.6861 -3.5594
  595TMC3    C1 8868   3.413   3.844  14.673  0.1614  0.5563  0.5005
  595TMC3    C2 8869   3.405   3.715  14.715 -0.4333  0.0154 -0.2223
  595TMC3    C3 8870   3.301   3.642  14.668  0.1004  0.0236 -0.0445
  595TMC3    C4 8871   3.325   3.895  14.585 -0.1133  0.2736 -0.2936
  595TMC3    C5 8872   3.225   3.823  14.535 -0.4425  0.0804 -0.8144
  595TMC3    C6 8873   3.219   3.692  14.566  0.1955 -0.6345 -0.0313
  595TMC3     C 8874   3.526   3.919  14.720 -0.5632 -0.3946  0.1636
  595TMC3     O 8875   3.578   3.888  14.829 -0.1661  0.2850 -0.3942
  595TMC3     H 8876   3.484   3.677  14.779 -1.2009  1.6893  1.7166
  595TMC3    H1 8877   3.333   4.003  14.576 -1.4261  0.6516  3.4479
  595TMC3    H2 8878   3.143   3.633  14.516 -2.2944  4.0140 -1.7231
  595TMC3    C7 8879   3.109   3.888  14.484 -0.2728  0.6066  0.2931
  595TMC3    C8 8880   3.303   3.505  14.709  0.1728 -0.2894  0.7910
  595TMC3    O1 8881   3.001   3.832  14.488 -0.2045  0.7310 -0.0847
  595TMC3    O2 8882   3.386   3.468  14.791 -0.0775  0.1125 -0.2816
  596MPD2     C 8883   1.692   0.962  16.673  0.5252 -0.2237  1.1117
  596MPD2    C1 8884   1.682   1.077  16.594 -0.4019  0.2360 -0.1281
  596MPD2    C2 8885   1.716   1.073  16.462  0.3600  0.3630 -0.1727
  596MPD2    C3 8886   1.746   0.954  16.403  0.6945 -0.2230 -0.1378
  596MPD2    C4 8887   1.757   0.836  16.476 -0.1559  0.1793 -0.6292
  596MPD2    C5 8888   1.728   0.843  16.607 -0.1997  0.2428 -0.3601
  596MPD2     H 8889   1.728   1.169  16.414  0.0736  0.5495  0.1287
  596MPD2    H1 8890   1.779   0.740  16.431  0.4031  0.0897 -0.1592
  596MPD2    H2 8891   1.657   0.960  16.775  0.8086  0.2493  1.2164
  596MPD2    H3 8892   1.743   0.748  16.658  1.4003 -0.4922 -2.2059
  596MPD2     N 8893   1.764   0.942  16.263  0.2497 -0.1496 -0.0595
  596MPD2    H5 8894   1.781   0.850  16.223 -0.0136  0.2503 -1.0909
  596MPD2    N1 8895   1.633   1.202  16.625  0.6465  0.1063 -0.5162
  596MPD2    H7 8896   1.612   1.257  16.543  2.3208  0.7546 -0.4923
  597TMC3    C1 8897   1.552   1.387  16.725  0.2592  0.3926 -0.2282
  597TMC3    C2 8898   1.602   1.453  16.614 -0.6765  0.6935  0.6115
  597TMC3    C3 8899   1.560   1.581  16.601 -0.2161  0.1917 -0.2052
  597TMC3    C4 8900   1.465   1.447  16.814 -0.2156  1.0634  0.4332
  597TMC3    C5 8901   1.415   1.576  16.793  0.2401 -0.5033 -0.7542
  597TMC3    C6 8902   1.466   1.644  16.684  0.1473  0.3072 -0.2549
  597TMC3     C 8903   1.592   1.248  16.741  0.7023  0.0099 -0.2430
  597TMC3     O 8904   1.590   1.201  16.855  0.6646 -0.1915  0.2472
  597TMC3     H 8905   1.682   1.416  16.552 -1.4563  2.5897 -1.5436
  597TMC3    H1 8906   1.412   1.383  16.884  0.2876 -0.9613 -1.0449
  597TMC3    H2 8907   1.433   1.742  16.655  1.2550  0.4094 -1.1615
  597TMC3    C7 8908   1.316   1.632  16.877 -0.0798 -0.4197  0.5728
  597TMC3    C8 8909   1.633   1.653  16.492 -0.4570  0.1997 -0.1284
  597TMC3    O1 8910   1.266   1.554  16.961 -0.1840 -0.0494  0.5644
  597TMC3    O2 8911   1.679   1.578  16.404 -0.4378  0.3029 -0.7195
  598TMC3    C1 8912   0.051   2.741  15.248 -0.7923 -0.6027 -0.7337
  598TMC3    C2 8913   4.695   2.659  15.302  0.1638  0.3319 -0.2194
  598TMC3    C3 8914   4.577   2.655  15.244  0.7486  0.7020  0.3550
  598TMC3    C4 8915   0.027   2.830  15.148 -0.5118 -0.6986  0.0773
  598TMC3    C5 8916   4.645   2.820  15.098  0.0516 -0.1549 -0.2696
  598TMC3    C6 8917   4.543   2.731  15.131 -0.8148 -0.1685  0.9101
  598TMC3     C 8918   0.175   2.746  15.316 -0.4201 -0.0404  0.0619
  598TMC3     O 8919   0.262   2.801  15.254 -0.0093  0.0781  0.5234
  598TMC3     H 8920   4.720   2.577  15.368  1.0562 -0.5592 -1.6470
  598TMC3    H1 8921   0.104   2.877  15.088 -2.3656  0.7162 -1.1895
  598TMC3    H2 8922   4.443   2.734  15.089  0.3851 -2.4928 -2.0840
  598TMC3    C7 8923   4.619   2.908  14.990  0.0527 -0.1422 -1.1015
  598TMC3    C8 8924   4.473   2.556  15.285  0.0806 -0.4201  0.3830
  598TMC3    O1 8925   4.520   2.880  14.926  0.1191  0.2502 -0.4390
  598TMC3    O2 8926   4.409   2.496  15.200  0.2261 -0.1858  0.2989
  599MPD2     C 8927   4.573   0.414  15.661  0.1527  0.1824 -0.7098
  599MPD2    C1 8928   4.541   0.278  15.639  0.4537 -0.6642 -0.0205
  599MPD2    C2 8929   4.408   0.238  15.673 -0.9666 -0.7401 -0.9680
  599MPD2    C3 8930   4.322   0.335  15.728 -0.4408  0.4188  0.2497
  599MPD2    C4 8931   4.351   0.473  15.732  0.0688  0.0192 -0.0898
  599MPD2    C5 8932   4.482   0.505  15.703 -0.3393  0.0380  0.6696
  599MPD2     H 8933   4.375   0.135  15.668 -1.2542 -0.6437 -1.0464
  599MPD2    H1 8934   4.284   0.555  15.756 -0.7474 -1.0260  1.2098
  599MPD2    H2 8935   4.674   0.447  15.641  0.7082 -1.3515 -0.4385
  599MPD2    H3 8936   4.524   0.605  15.711  2.7707 -1.1187 -1.2956
  599MPD2     N 8937   4.197   0.301  15.784 -0.0546  0.0274  0.1587
  599MPD2    H5 8938   4.152   0.382  15.825 -1.0134  0.8333 -2.5132
  599MPD2    N1 8939   4.648   0.191  15.604 -0.7225 -0.0969  0.8981
  599MPD2    H7 8940   0.004   0.227  15.612 -0.1272 -1.6585  0.8941
  600TMC3    C1 8941   4.046   0.180  15.902 -0.7564 -0.9689  0.9735
  600TMC3    C2 8942   3.963   0.075  15.900  0.5861  0.3778  0.4215
  600TMC3    C3 8943   3.895   0.044  16.016 -0.2939  0.4426  0.0820
  600TMC3    C4 8944   4.085   0.247  16.016 -0.8740  0.1019  0.5258
  600TMC3    C5 8945   4.018   0.212  16.134 -0.0046 -0.1301 -0.3373
  600TMC3    C6 8946   3.917   0.115  16.128  0.2615 -0.2641 -0.0390
  600TMC3     C 8947   4.136   0.180  15.792  0.5342  0.4225  0.0538
  600TMC3     O 8948   4.155   0.074  15.732  0.1140  0.1455  0.3934
  600TMC3     H 8949   3.938   0.022  15.809 -0.8628 -1.1595  1.7042
  600TMC3    H1 8950   4.162   0.323  16.013 -1.6099  0.8262 -0.6363
  600TMC3    H2 8951   3.857   0.089  16.214  0.1119  0.9710  0.2364
  600TMC3    C7 8952   4.021   0.297  16.253 -0.1135 -0.6646  0.1909
  600TMC3    C8 8953   3.797   4.678  16.019  0.2497 -0.4419  0.7615
  600TMC3    O1 8954   3.928   0.273  16.331 -0.3463 -0.6822  0.0221
  600TMC3    O2 8955   3.781   4.626  16.127 -0.3711 -0.6039 -0.2851
  601MPD2     C 8956   1.645   3.708   0.271  0.4260 -0.5730  0.9565
  601MPD2    C1 8957   1.533   3.644   0.223  0.5589 -0.5248 -0.2549
  601MPD2    C2 8958   1.450   3.593   0.325 -0.5950  0.5400  0.5303
  601MPD2    C3 8959   1.480   3.593   0.457 -0.7278 -0.3932 -0.1833
  601MPD2    C4 8960   1.594   3.661   0.499 -0.9011 -0.7657  0.3267
  601MPD2    C5 8961   1.676   3.705   0.403  0.2511  0.2965 -0.2523
  601MPD2     H 8962   1.363   3.540   0.290  0.1725 -0.5437  0.2691
  601MPD2    H1 8963   1.612   3.660   0.606 -0.7527  0.9406  0.3264
  601MPD2    H2 8964   1.722   3.760   0.216 -0.8259 -1.1402 -1.3363
  601MPD2    H3 8965   1.772   3.746   0.433  0.4092 -0.7315  0.6413
  601MPD2     N 8966   1.388   3.546   0.552 -0.3281  0.3960 -0.5335
  601MPD2    H5 8967   1.401   3.568   0.650  3.7250 -3.2438 -0.2561
  601MPD2    N1 8968   1.485   3.656   0.085  0.5811  0.7620 -0.3255
  601MPD2    H7 8969   1.402   3.604   0.058  1.8284 -1.1302 -0.5566
  602TMC3    C1 8970   1.489   3.716  17.627 -0.6553 -0.4219 -0.6506
  602TMC3    C2 8971   1.382   3.802  17.627  0.5723  0.0365  0.0444
  602TMC3    C3 8972   1.361   3.879  17.519 -0.8060  0.6297  0.7300
  602TMC3    C4 8973   1.577   3.697  17.519 -0.0300  0.5692 -0.6923
  602TMC3    C5 8974   1.544   3.775  17.411  0.6273  0.2070  0.3095
  602TMC3    C6 8975   1.432   3.858  17.404 -1.0786  0.0811  0.0523
  602TMC3     C 8976   1.561   3.719  17.750 -0.3141 -0.3901  0.3120
  602TMC3     O 8977   1.672   3.771  17.751  0.2213 -0.1048 -0.1800
  602TMC3     H 8978   1.332   3.824  17.720 -0.2545  3.2855 -1.1462
  602TMC3    H1 8979   1.670   3.642  17.524 -1.0489 -1.3321 -2.6431
  602TMC3    H2 8980   1.415   3.915  17.313 -0.3964 -1.5332 -1.1026
  602TMC3    C7 8981   1.606   3.737  17.288 -0.2216 -0.3848 -0.0370
  602TMC3    C8 8982   1.240   3.965  17.507 -0.3400 -0.4949  0.7958
  602TMC3    O1 8983   1.719   3.695  17.288  0.5884 -0.0181 -0.7400
  602TMC3    O2 8984   1.194   4.032  17.601 -0.2270  0.1742 -0.2122
  603TMC3    C1 8985   4.212   3.811  11.029  1.1428  0.0634 -0.0325
  603TMC3    C2 8986   4.218   3.820  11.168  0.0714  0.3455  0.0622
  603TMC3    C3 8987   4.307   3.910  11.211  0.9417  0.2123 -0.4245
  603TMC3    C4 8988   4.296   3.867  10.938 -0.3216 -0.3237  0.6286
  603TMC3    C5 8989   4.391   3.950  10.994 -0.1282 -0.1852 -0.4960
  603TMC3    C6 8990   4.401   3.976  11.133 -0.2383  0.3731  0.2782
  603TMC3     C 8991   4.084   3.772  10.970  0.1613  0.6878  0.2478
  603TMC3     O 8992   4.090   3.695  10.875 -0.5579  0.8501 -0.1226
  603TMC3     H 8993   4.151   3.767  11.235 -1.4963  1.4656 -0.6117
  603TMC3    H1 8994   4.285   3.857  10.830  0.1196  2.7264  0.3077
  603TMC3    H2 8995   4.447   4.072  11.152 -1.5996  0.9155  0.7812
  603TMC3    C7 8996   4.450   4.046  10.907  0.2640 -0.7025 -0.2466
  603TMC3    C8 8997   4.316   3.925  11.352  0.4118  0.1295 -0.6871
  603TMC3    O1 8998   4.555   4.099  10.940 -0.0830 -0.4532 -0.5547
  603TMC3    O2 8999   4.301   3.819  11.415  0.3706  0.1975  0.4381
  604MPD2     C 9000   0.849   2.647  15.795 -0.0717  0.7385 -0.2348
  604MPD2    C1 9001   0.789   2.534  15.838  0.1204  0.3939  0.0356
  604MPD2    C2 9002   0.781   2.425  15.761 -0.5794  0.1814 -0.3228
  604MPD2    C3 9003   0.825   2.424  15.631 -0.3653 -0.1404 -0.0974
  604MPD2    C4 9004   0.885   2.540  15.587 -0.3914 -0.5838 -0.0626
  604MPD2    C5 9005   0.901   2.651  15.668 -0.6126  0.2590 -0.5011
  604MPD2     H 9006   0.754   2.335  15.815  1.3122  0.5080  1.1987
  604MPD2    H1 9007   0.936   2.535  15.492  1.1301 -1.1513  0.7742
  604MPD2    H2 9008   0.865   2.732  15.860  2.5589  1.3445 -1.6822
  604MPD2    H3 9009   0.950   2.743  15.637 -0.7062  0.7105  0.6944
  604MPD2     N 9010   0.833   2.298  15.565 -0.5688 -0.8911 -0.6010
  604MPD2    H5 9011   0.786   2.221  15.611  1.5957 -1.4735  0.6729
  604MPD2    N1 9012   0.729   2.540  15.967 -0.8030  0.1626 -0.8466
  604MPD2    H7 9013   0.744   2.626  16.019  2.6446  0.2965 -2.0686
  605TMC3    C1 9014   0.610   2.505  16.163 -0.4859 -0.2974  0.2656
  605TMC3    C2 9015   0.694   2.593  16.232  0.1897  0.1029  0.1552
  605TMC3    C3 9016   0.646   2.673  16.328 -0.3215 -0.2272 -0.0086
  605TMC3    C4 9017   0.479   2.511  16.187 -0.1929  0.2007 -0.3104
  605TMC3    C5 9018   0.429   2.615  16.266  0.3782 -0.5827 -0.1857
  605TMC3    C6 9019   0.509   2.692  16.338  0.2135 -0.3262  0.1629
  605TMC3     C 9020   0.639   2.464  16.021  0.8697 -0.6019 -0.8425
  605TMC3     O 9021   0.576   2.369  15.969 -0.2302  0.0452 -0.3774
  605TMC3     H 9022   0.801   2.583  16.219  0.1272  0.3208 -0.5317
  605TMC3    H1 9023   0.417   2.442  16.132  0.9453 -0.0404 -1.2704
  605TMC3    H2 9024   0.469   2.770  16.402 -1.7504 -1.6425  0.5393
  605TMC3    C7 9025   0.289   2.633  16.286 -0.2490 -0.3716 -0.0506
  605TMC3    C8 9026   0.725   2.792  16.356  0.0661 -0.1647  0.3430
  605TMC3    O1 9027   0.256   2.736  16.343  0.2227 -0.0198 -0.0258
  605TMC3    O2 9028   0.818   2.803  16.277 -1.0315 -0.2397  0.0137
  606TMC3    C1 9029   1.083   1.377  17.390  0.1621  0.5039  0.1185
  606TMC3    C2 9030   1.044   1.311  17.504 -0.0440 -0.0416  0.3120
  606TMC3    C3 9031   1.104   1.188  17.520  0.2924 -0.5402 -0.0003
  606TMC3    C4 9032   1.171   1.328  17.300  0.1026  0.0127  0.1832
  606TMC3    C5 9033   1.216   1.198  17.319  0.4791 -0.1502  0.1221
  606TMC3    C6 9034   1.179   1.127  17.426 -0.6231  0.0980  0.1183
  606TMC3     C 9035   1.078   1.519  17.377  0.0336  0.0276  0.3358
  606TMC3     O 9036   1.082   1.561  17.261  0.3439 -0.2524 -0.2668
  606TMC3     H 9037   0.976   1.360  17.573 -0.8824 -1.5864  0.5948
  606TMC3    H1 9038   1.204   1.375  17.208 -3.8930  0.9541 -0.7606
  606TMC3    H2 9039   1.232   1.034  17.445  0.0083  1.2081  3.7190
  606TMC3    C7 9040   1.280   1.128  17.204  0.6308 -0.7985 -0.0597
  606TMC3    C8 9041   1.086   1.125  17.647 -0.3707 -0.3412 -1.0194
  606TMC3    O1 9042   1.342   1.198  17.124 -0.0824 -0.1575  0.7101
  606TMC3    O2 9043   1.026   1.188  17.733 -0.0815 -0.1747 -0.0644
  607MPD2     C 9044   3.821   3.693  11.755 -0.1004  0.1134 -0.4025
  607MPD2    C1 9045   3.800   3.796  11.849  0.4197 -0.2719  0.4550
  607MPD2    C2 9046   3.713   3.775  11.950 -0.5697 -0.3306 -0.5193
  607MPD2    C3 9047   3.646   3.652  11.976  0.0092  0.3036 -0.1350
  607MPD2    C4 9048   3.660   3.559  11.876 -0.2388 -0.3778  1.3011
  607MPD2    C5 9049   3.750   3.580  11.776  0.7348  0.3916 -0.6406
  607MPD2     H 9050   3.684   3.852  12.021 -0.2665 -0.7213  0.0299
  607MPD2    H1 9051   3.611   3.465  11.895  0.0365 -0.7394  0.2044
  607MPD2    H2 9052   3.889   3.701  11.671 -0.6869  1.9139 -0.7082
  607MPD2    H3 9053   3.772   3.502  11.703 -1.0428  0.5727 -1.3617
  607MPD2     N 9054   3.566   3.639  12.091 -0.0561 -0.0812 -0.5769
  607MPD2    H5 9055   3.567   3.719  12.153 -0.6093 -2.1252  2.0206
  607MPD2    N1 9056   3.870   3.920  11.852  0.0408 -0.1295 -0.0847
  607MPD2    H7 9057   3.825   3.984  11.917 -1.3021 -1.9015  0.7237
  608TMC3    C1 9058   4.018   4.084  11.802 -0.4072 -0.1894  0.6948
  608TMC3    C2 9059   4.024   4.100  11.939  0.5837 -0.2338  0.6073
  608TMC3    C3 9060   4.043   4.232  11.989 -0.2859 -0.7026  0.5218
  608TMC3    C4 9061   4.043   4.178  11.707 -1.1252 -0.0075  0.3238
  608TMC3    C5 9062   4.060   4.304  11.762 -0.1834 -0.4068 -0.0792
  608TMC3    C6 9063   4.053   4.334  11.897 -0.6892 -0.2911  0.0226
  608TMC3     C 9064   3.955   3.966  11.757  0.1303  0.1371  0.3846
  608TMC3     O 9065   3.993   3.921  11.648  0.2857  0.0444  0.8042
  608TMC3     H 9066   4.025   4.010  12.000 -0.3444 -0.0417  0.9084
  608TMC3    H1 9067   4.044   4.163  11.599 -3.3042 -2.8166  0.6751
  608TMC3    H2 9068   4.035   4.432  11.939 -1.2436  0.1283 -1.2014
  608TMC3    C7 9069   4.101   4.411  11.667  0.1013 -0.6075 -1.1566
  608TMC3    C8 9070   4.013   4.267  12.131  0.3146  0.0785 -0.3179
  608TMC3    O1 9071   4.091   4.391  11.547 -0.3571 -0.3859 -0.7933
  608TMC3    O2 9072   4.026   4.381  12.170 -0.3659  0.2222 -0.2678
  609TMC3    C1 9073   2.137   3.497   9.551 -0.0899  0.6939  0.1498
  609TMC3    C2 9074   2.051   3.437   9.461 -0.1820 -0.6939  0.4608
  609TMC3    C3 9075   2.099   3.328   9.391 -0.1340  0.0364 -0.2068
  609TMC3    C4 9076   2.256   3.440   9.579 -0.0941  0.5154 -0.1947
  609TMC3    C5 9077   2.295   3.321   9.516  0.0734  0.4605  0.5254
  609TMC3    C6 9078   2.213   3.265   9.428 -0.2965 -0.4136 -0.2552
  609TMC3     C 9079   2.068   3.572   9.657  0.0272  0.4145  0.0131
  609TMC3     O 9080   2.100   3.552   9.772 -0.0135  0.2178  0.5281
  609TMC3     H 9081   1.956   3.487   9.448 -0.6418 -1.6637  0.1428
  609TMC3    H1 9082   2.323   3.504   9.635 -0.9053  2.0176 -0.9430
  609TMC3    H2 9083   2.258   3.191   9.363 -1.2882 -1.9912  0.8642
  609TMC3    C7 9084   2.426   3.260   9.532 -0.3529 -0.0472 -0.0906
  609TMC3    C8 9085   2.006   3.268   9.303  0.8816  0.3894 -0.7536
  609TMC3    O1 9086   2.517   3.341   9.548  0.0898 -1.0456  0.0294
  609TMC3    O2 9087   1.903   3.334   9.281 -0.4293 -0.3188 -0.4098
  610TMC3    C1 9088   4.065   4.246  12.885  0.5941  0.5524 -0.1391
  610TMC3    C2 9089   4.098   4.302  12.765  0.7053 -0.0071 -0.2731
  610TMC3    C3 9090   4.141   4.222  12.668 -0.8221 -0.2664 -0.4660
  610TMC3    C4 9091   4.075   4.105  12.894  0.5720 -0.1338  0.4468
  610TMC3    C5 9092   4.104   4.028  12.789 -0.4254  0.0421 -0.2701
  610TMC3    C6 9093   4.139   4.087  12.671  0.3398 -0.5146  0.0947
  610TMC3     C 9094   4.071   4.316  13.012 -1.1729 -0.4132  0.9620
  610TMC3     O 9095   4.110   4.250  13.106  0.0165  0.1345  0.2466
  610TMC3     H 9096   4.110   4.410  12.763 -0.6539  0.1429  0.1820
  610TMC3    H1 9097   4.078   4.054  12.989 -2.8891 -0.4433  0.3840
  610TMC3    H2 9098   4.169   4.024  12.589  2.0917  0.3111  0.0773
  610TMC3    C7 9099   4.148   3.904  12.822  0.2270  1.1429 -0.1878
  610TMC3    C8 9100   4.219   4.289  12.564 -0.3206  0.1436  0.7717
  610TMC3    O1 9101   4.173   3.874  12.935  0.0579  0.2113  0.2158
  610TMC3    O2 9102   4.207   4.409  12.554 -0.3039  0.0562  0.0503
  611MPD2     C 9103   3.411   4.373  10.616  0.4257  0.1381  0.8124
  611MPD2    C1 9104   3.403   4.378  10.478  0.3832 -0.0479  0.0934
  611MPD2    C2 9105   3.520   4.406  10.404 -0.6825  0.3917  0.0596
  611MPD2    C3 9106   3.647   4.414  10.462  0.4949  0.1213 -0.2089
  611MPD2    C4 9107   3.647   4.402  10.594 -0.1351 -0.2592  0.4513
  611MPD2    C5 9108   3.535   4.382  10.674  0.3466  0.5082  0.0495
  611MPD2     H 9109   3.513   4.398  10.296 -0.5583 -1.4457  0.1812
  611MPD2    H1 9110   3.742   4.416  10.645  0.0639  1.0344 -0.2766
  611MPD2    H2 9111   3.323   4.359  10.678 -1.0727  1.3115 -1.0636
  611MPD2    H3 9112   3.551   4.373  10.781  0.5865 -0.0062 -0.0286
  611MPD2     N 9113   3.762   4.443  10.396 -0.3512 -0.2329 -0.5054
  611MPD2    H5 9114   3.850   4.452  10.447 -0.7286 -0.7788  0.2316
  611MPD2    N1 9115   3.270   4.362  10.420  1.1373  0.6259  1.1828
  611MPD2    H7 9116   3.194   4.376  10.485  0.3907  0.7298  0.2926
  612TMC3    C1 9117   3.905   4.517  10.224  0.4593  0.2000 -0.0633
  612TMC3    C2 9118   4.011   4.465  10.304  0.4482  0.6668  0.2868
  612TMC3    C3 9119   4.139   4.472  10.256 -0.2045  0.0303  0.1612
  612TMC3    C4 9120   3.925   4.573  10.101  0.1868 -0.4419  0.1938
  612TMC3    C5 9121   4.058   4.581  10.063  0.0194  0.1225 -0.5309
  612TMC3    C6 9122   4.164   4.540  10.137 -0.0786 -0.0548  0.5354
  612TMC3     C 9123   3.770   4.485  10.269  0.1917 -0.0843 -0.9376
  612TMC3     O 9124   3.683   4.480  10.183 -0.2300 -0.6390  0.1240
  612TMC3     H 9125   4.009   4.421  10.403  2.1635 -1.5246 -0.6428
  612TMC3    H1 9126   3.843   4.597  10.035  1.6792  0.0233 -1.4876
  612TMC3    H2 9127   4.265   4.560  10.102 -0.0491  0.0301  0.6665
  612TMC3    C7 9128   4.077   4.607   9.922  0.1489 -0.1245  0.4675
  612TMC3    C8 9129   4.254   4.432  10.337 -0.5135 -0.3943  0.6825
  612TMC3    O1 9130   3.988   4.674   9.864  0.5184 -0.0878 -0.0909
  612TMC3    O2 9131   4.361   4.490  10.314  0.4306  0.3391 -0.3889
  613MPD2     C 9132   2.894   1.370  16.390 -0.7046 -0.1341 -0.4800
  613MPD2    C1 9133   2.877   1.386  16.252  0.1937 -0.4057 -0.7727
  613MPD2    C2 9134   2.856   1.276  16.173 -0.0269  0.3008  0.8753
  613MPD2    C3 9135   2.848   1.151  16.228  0.7768  0.5441  0.8079
  613MPD2    C4 9136   2.853   1.141  16.363  0.8637 -0.2959 -0.1380
  613MPD2    C5 9137   2.875   1.248  16.441  0.1181 -0.7871 -0.0485
  613MPD2     H 9138   2.858   1.281  16.065 -3.8960 -0.7902  0.7585
  613MPD2    H1 9139   2.848   1.047  16.418  0.0651  0.6955  1.4887
  613MPD2    H2 9140   2.922   1.454  16.452  0.6025 -1.8090  1.1910
  613MPD2    H3 9141   2.865   1.225  16.546 -2.0314  0.5283  0.0395
  613MPD2     N 9142   2.840   1.034  16.147 -0.1330 -0.2699  0.5332
  613MPD2    H5 9143   2.867   0.944  16.186 -3.4825 -1.0428  1.0422
  613MPD2    N1 9144   2.907   1.512  16.202 -0.3641 -0.4226 -0.1074
  613MPD2    H7 9145   2.943   1.589  16.257  0.8467 -0.7897 -0.3879
  614TMC3    C1 9146   2.997   1.641  16.028  0.7387  0.8259  0.6041
  614TMC3    C2 9147   3.124   1.637  16.068  0.1880 -0.0464 -0.6094
  614TMC3    C3 9148   3.226   1.684  15.992 -0.7728 -0.7416 -0.5859
  614TMC3    C4 9149   2.961   1.704  15.909 -0.8292  0.2992 -0.1529
  614TMC3    C5 9150   3.060   1.766  15.845  0.1098  0.3748 -0.0915
  614TMC3    C6 9151   3.194   1.756  15.880  0.3784 -0.5339  0.1582
  614TMC3     C 9152   2.906   1.535  16.067  0.0965 -0.1841  0.3923
  614TMC3     O 9153   2.841   1.496  15.972  0.2650  0.4204  0.6966
  614TMC3     H 9154   3.146   1.586  16.161  1.9772 -0.4898 -1.2925
  614TMC3    H1 9155   2.858   1.719  15.878 -0.4914  0.8338 -0.9943
  614TMC3    H2 9156   3.276   1.807  15.829 -1.6221  0.4369 -2.1127
  614TMC3    C7 9157   3.031   1.862  15.729  0.3170  0.0545 -0.2062
  614TMC3    C8 9158   3.300   1.568  15.956 -0.7858 -0.0267 -1.0904
  614TMC3    O1 9159   3.082   1.972  15.733  0.1448  0.5224 -0.3525
  614TMC3    O2 9160   3.304   1.474  16.034 -0.2164  0.0253 -0.3972
  615MPD2     C 9161   1.984   2.447  15.787  0.3606  0.0558  0.0372
  615MPD2    C1 9162   2.072   2.551  15.787  0.2576  0.2674  0.4157
  615MPD2    C2 9163   2.049   2.664  15.719 -1.1822 -0.0496 -0.5854
  615MPD2    C3 9164   1.939   2.667  15.630  1.1412  0.5909  0.4238
  615MPD2    C4 9165   1.846   2.560  15.635 -0.1658 -0.2980  0.1801
  615MPD2    C5 9166   1.873   2.449  15.708 -0.2385 -0.4257  1.0761
  615MPD2     H 9167   2.122   2.745  15.719 -0.9992 -0.2194  0.1860
  615MPD2    H1 9168   1.753   2.548  15.580 -1.0905  0.7526  1.4989
  615MPD2    H2 9169   2.009   2.354  15.837 -0.5667 -0.1392  0.1510
  615MPD2    H3 9170   1.795   2.374  15.716 -1.2992  0.8995  2.9377
  615MPD2     N 9171   1.905   2.787  15.556  0.3237  0.1794 -0.0693
  615MPD2    H5 9172   1.821   2.780  15.499  0.9816  2.4467 -1.3381
  615MPD2    N1 9173   2.190   2.555  15.866 -0.1918  0.3945 -0.0563
  615MPD2    H7 9174   2.249   2.637  15.854  0.1366  0.0474 -0.7820
  616TMC3    C1 9175   2.369   2.496  16.002  0.2236  0.5153  0.6225
  616TMC3    C2 9176   2.425   2.620  15.983 -0.6358 -0.2164 -0.3757
  616TMC3    C3 9177   2.532   2.658  16.061  0.4092  0.2058 -0.7932
  616TMC3    C4 9178   2.417   2.414  16.104 -0.4590 -0.1951 -0.3737
  616TMC3    C5 9179   2.514   2.456  16.177  0.0988  0.4145  0.1683
  616TMC3    C6 9180   2.570   2.583  16.170 -0.0268  0.3311 -0.1639
  616TMC3     C 9181   2.243   2.457  15.951  0.1385 -0.1168 -0.5685
  616TMC3     O 9182   2.190   2.353  15.986  0.0080 -0.4842 -0.0968
  616TMC3     H 9183   2.393   2.693  15.910 -2.1682 -0.8630 -0.3488
  616TMC3    H1 9184   2.374   2.317  16.127 -0.9762 -0.2552 -1.5902
  616TMC3    H2 9185   2.649   2.614  16.237 -1.6135  0.1110  1.8287
  616TMC3    C7 9186   2.561   2.355  16.271 -0.5201  0.2111  0.0086
  616TMC3    C8 9187   2.578   2.802  16.053  0.5800  0.5685 -0.1049
  616TMC3    O1 9188   2.479   2.287  16.321  1.2175 -0.3383 -0.1558
  616TMC3    O2 9189   2.513   2.871  15.971  0.0207 -0.1399 -0.4681
  617MPD2     C 9190   0.177   0.920  13.504  0.9295  0.1183  0.1665
  617MPD2    C1 9191   0.214   0.991  13.614 -0.3867  0.0725 -0.5640
  617MPD2    C2 9192   0.125   1.007  13.725  0.3404  0.0106  0.0839
  617MPD2    C3 9193   0.007   0.947  13.718 -0.5386  0.1331 -0.5391
  617MPD2    C4 9194   4.710   0.892  13.597  0.2174 -1.1371  0.0228
  617MPD2    C5 9195   0.054   0.871  13.488 -0.1909  0.4702 -0.4457
  617MPD2     H 9196   0.151   1.062  13.815 -3.1831  0.2036  0.9507
  617MPD2    H1 9197   4.605   0.867  13.594 -0.3489  1.3421 -0.7625
  617MPD2    H2 9198   0.246   0.920  13.420  0.7768 -0.5341  0.0424
  617MPD2    H3 9199   0.027   0.822  13.395 -0.5789 -1.1656  0.5491
  617MPD2     N 9200   4.654   0.944  13.814  0.2614 -0.4774 -0.0606
  617MPD2    H5 9201   4.566   0.898  13.791 -0.1740 -0.1866  1.0459
  617MPD2    N1 9202   0.350   1.027  13.619 -0.3735 -0.4937 -0.6590
  617MPD2    H7 9203   0.407   1.028  13.536  2.2411  2.0633  1.1604
  618TMC3    C1 9204   0.557   1.087  13.707  0.0758 -0.0494 -0.7201
  618TMC3    C2 9205   0.644   1.142  13.798 -0.3019  0.1785  0.1358
  618TMC3    C3 9206   0.777   1.109  13.795  0.1422  0.6252  0.0660
  618TMC3    C4 9207   0.602   1.007  13.608 -0.6756  0.1923  0.0120
  618TMC3    C5 9208   0.732   0.971  13.607 -0.4411 -1.0040  0.1565
  618TMC3    C6 9209   0.814   1.004  13.710  0.3438  0.4599  0.4081
  618TMC3     C 9210   0.412   1.076  13.734 -0.0318 -0.4178  0.7654
  618TMC3     O 9211   0.375   1.098  13.846  0.1476  0.5722 -0.6109
  618TMC3     H 9212   0.606   1.228  13.852 -0.8406 -0.6179  1.0263
  618TMC3    H1 9213   0.541   0.958  13.533  0.5946 -0.8897 -0.3319
  618TMC3    H2 9214   0.913   0.962  13.722 -0.3078 -1.3563 -0.5412
  618TMC3    C7 9215   0.782   0.870  13.509  0.1501  0.0371 -0.1087
  618TMC3    C8 9216   0.869   1.158  13.897  0.0073 -0.3411 -0.5690
  618TMC3    O1 9217   0.708   0.816  13.425 -0.2907  0.3441  0.1900
  618TMC3    O2 9218   0.813   1.214  13.991 -0.0761 -0.0733  0.4295
  619MPD2     C 9219   1.853   2.038  14.007 -0.8537 -0.1832 -0.4153
  619MPD2    C1 9220   1.809   2.120  13.908 -0.3713 -0.0086 -0.1322
  619MPD2    C2 9221   1.676   2.140  13.894  0.1972 -1.0033 -0.4143
  619MPD2    C3 9222   1.580   2.081  13.974  0.6208  0.2050 -0.1966
  619MPD2    C4 9223   1.622   1.995  14.072  0.3947 -0.2560 -0.4685
  619MPD2    C5 9224   1.758   1.979  14.081  0.1391 -0.3718  0.2568
  619MPD2     H 9225   1.652   2.201  13.808 -1.1176 -0.9742 -0.0366
  619MPD2    H1 9226   1.551   1.948  14.140  1.0179  0.4449  0.6721
  619MPD2    H2 9227   1.955   2.017  14.038 -1.0510  0.3409  0.5614
  619MPD2    H3 9228   1.798   1.910  14.154  0.0658 -1.9807 -1.2525
  619MPD2     N 9229   1.440   2.095  13.952  0.2460  0.6772  0.5168
  619MPD2    H5 9230   1.381   2.044  14.016 -1.0400 -0.0621 -1.2785
  619MPD2    N1 9231   1.895   2.183  13.817  0.5373 -0.1084 -0.2771
  619MPD2    H7 9232   1.848   2.246  13.753  0.5851  0.8639  0.6368
  620TMC3    C1 9233   2.071   2.260  13.704 -0.2882 -1.0657  0.3892
  620TMC3    C2 9234   1.982   2.282  13.603  0.6517 -0.1274 -0.0637
  620TMC3    C3 9235   2.017   2.365  13.500 -0.1998  0.1679 -0.0670
  620TMC3    C4 9236   2.197   2.323  13.708 -0.8957  0.4932 -0.5379
  620TMC3    C5 9237   2.228   2.398  13.594 -0.9948 -0.0175  0.4491
  620TMC3    C6 9238   2.146   2.414  13.487 -0.1804  0.2219 -0.4066
  620TMC3     C 9239   2.031   2.179  13.813 -0.5653 -0.1135 -0.4663
  620TMC3     O 9240   2.106   2.120  13.890 -0.0166 -0.3815 -0.2098
  620TMC3     H 9241   1.902   2.212  13.581  0.0163  1.0734 -1.5960
  620TMC3    H1 9242   2.266   2.310  13.790 -0.9659  2.4492 -0.1866
  620TMC3    H2 9243   2.172   2.465  13.394 -0.5280  1.1081 -0.0210
  620TMC3    C7 9244   2.297   2.525  13.633 -0.6248  0.9634 -0.1087
  620TMC3    C8 9245   1.919   2.478  13.485 -0.3487 -0.3167  0.0131
  620TMC3    O1 9246   2.395   2.526  13.708 -0.4518 -0.5055 -0.3747
  620TMC3    O2 9247   1.976   2.588  13.472  0.3496 -0.5963  0.0029
  621MPD2     C 9248   1.733   2.868  10.567  0.3010 -0.0169 -0.2585
  621MPD2    C1 9249   1.708   2.827  10.442 -0.1974  0.8187 -0.0507
  621MPD2    C2 9250   1.781   2.888  10.343  0.6593 -0.0182 -0.1479
  621MPD2    C3 9251   1.853   3.002  10.365  0.1826  0.2006  0.5630
  621MPD2    C4 9252   1.866   3.052  10.498  0.3571 -0.0086  0.1986
  621MPD2    C5 9253   1.817   2.977  10.599  0.4039 -0.7655  0.4779
  621MPD2     H 9254   1.756   2.856  10.243  1.2586  0.2967 -0.4005
  621MPD2    H1 9255   1.931   3.137  10.519 -0.6695  0.2809  2.1696
  621MPD2    H2 9256   1.704   2.817  10.658  1.7723 -0.4425 -0.0283
  621MPD2    H3 9257   1.840   3.008  10.701  2.3517 -2.0659  0.4129
  621MPD2     N 9258   1.912   3.078  10.260 -0.1161  0.0078  0.4896
  621MPD2    H5 9259   1.979   3.147  10.293  0.1715  0.4565 -1.0278
  621MPD2    N1 9260   1.621   2.724  10.409  0.1147  0.6657  0.4202
  621MPD2    H7 9261   1.607   2.710  10.309 -1.7507  3.2409  0.3438
  622TMC3    C1 9262   1.453   2.564  10.439 -0.0345  0.4638  0.8982
  622TMC3    C2 9263   1.346   2.536  10.521  0.4671  0.8094  0.7351
  622TMC3    C3 9264   1.257   2.442  10.476  0.1747 -0.4078 -0.0229
  622TMC3    C4 9265   1.481   2.508  10.318 -0.4886  0.3960  0.1619
  622TMC3    C5 9266   1.386   2.417  10.273 -0.0042 -0.0181  0.6448
  622TMC3    C6 9267   1.281   2.383  10.354  0.4439 -0.3266  0.0522
  622TMC3     C 9268   1.538   2.663  10.498  0.4193  0.7718 -0.4361
  622TMC3     O 9269   1.515   2.687  10.616 -0.2983 -0.5179  0.5641
  622TMC3     H 9270   1.320   2.590  10.611 -0.2077  0.9555  0.4509
  622TMC3    H1 9271   1.579   2.516  10.272 -0.2354  2.2583  1.0277
  622TMC3    H2 9272   1.205   2.317  10.314  2.2148 -2.3655  0.0407
  622TMC3    C7 9273   1.378   2.378  10.132 -0.2194 -0.5941 -0.6097
  622TMC3    C8 9274   1.125   2.461  10.511  0.0740  0.0090 -1.0026
  622TMC3    O1 9275   1.320   2.276  10.104  0.3356  0.4214 -0.1214
  622TMC3    O2 9276   1.049   2.365  10.486  0.1698 -0.3005  0.1151
  623MPD2     C 9277   1.075   3.452  15.553  0.8400 -0.4891  0.0801
  623MPD2    C1 9278   1.033   3.345  15.622  0.0884 -0.4082  0.1823
  623MPD2    C2 9279   1.080   3.320  15.746  0.8634 -0.7299 -0.4838
  623MPD2    C3 9280   1.184   3.392  15.810 -0.1240  0.5431 -0.5537
  623MPD2    C4 9281   1.233   3.498  15.748 -0.7876 -0.4920 -0.2618
  623MPD2    C5 9282   1.169   3.527  15.621  0.0912  0.2944  0.1668
  623MPD2     H 9283   1.033   3.235  15.796  2.8456 -1.0918  0.7643
  623MPD2    H1 9284   1.311   3.567  15.779  0.6362 -1.9340 -0.6429
  623MPD2    H2 9285   1.031   3.484  15.459 -0.3981  0.5345  1.0119
  623MPD2    H3 9286   1.212   3.614  15.572  2.6959 -1.4937 -0.7098
  623MPD2     N 9287   1.207   3.363  15.944  0.1278 -0.1877 -0.1068
  623MPD2    H5 9288   1.143   3.301  15.993 -0.3172  0.2008 -0.1934
  623MPD2    N1 9289   0.933   3.253  15.570 -0.0333  0.5023 -0.4420
  623MPD2    H7 9290   0.914   3.168  15.622 -1.7170  1.5250  0.6202
  624TMC3    C1 9291   1.406   3.306  16.346 -0.2430  0.6987 -0.6405
  624TMC3    C2 9292   1.281   3.280  16.402 -0.3491  0.1736  0.5888
  624TMC3    C3 9293   1.168   3.306  16.332  0.4137  0.3206  0.3998
  624TMC3    C4 9294   1.422   3.374  16.225 -0.2098 -0.0064  0.4503
  624TMC3    C5 9295   1.296   3.397  16.163 -0.6656  0.1839 -0.1393
  624TMC3    C6 9296   1.168   3.357  16.211 -0.3379 -0.0619  0.4837
  624TMC3     C 9297   1.514   3.225  16.391 -0.1160 -0.3794 -0.4859
  624TMC3     O 9298   1.500   3.178  16.503  0.2267  0.1373  0.1354
  624TMC3     H 9299   1.277   3.225  16.495  0.2960  0.3650  0.7314
  624TMC3    H1 9300   1.516   3.406  16.182 -1.4625  0.8521 -1.6650
  624TMC3    H2 9301   1.075   3.366  16.156 -0.1108  2.0922  0.4251
  624TMC3    C7 9302   1.303   3.427  16.017 -0.5114 -1.0221  0.6415
  624TMC3    C8 9303   1.061   3.216  16.358 -0.0186  0.4208 -0.5551
  624TMC3    O1 9304   1.381   3.519  15.993 -0.8148  0.6747  0.4130
  624TMC3    O2 9305   1.021   3.145  16.265 -0.2509 -0.3683  0.0745
  625MPD2     C 9306   1.552   4.431   0.700 -0.6660 -0.0520 -0.6341
  625MPD2    C1 9307   1.612   4.540   0.638  0.0644 -0.4740  0.0550
  625MPD2    C2 9308   1.751   4.557   0.667 -0.3599  0.9469 -0.5012
  625MPD2    C3 9309   1.825   4.480   0.755 -0.0091 -0.3704  0.5648
  625MPD2    C4 9310   1.756   4.372   0.813  0.1895  0.0237 -0.4946
  625MPD2    C5 9311   1.626   4.346   0.779  0.1329  1.2510  0.2847
  625MPD2     H 9312   1.804   4.639   0.621 -0.5254  1.9621  1.0976
  625MPD2    H1 9313   1.802   4.299   0.878 -0.1918 -1.6687 -2.1344
  625MPD2    H2 9314   1.446   4.421   0.681 -0.5165 -1.8415 -0.6041
  625MPD2    H3 9315   1.594   4.254   0.825  1.8947  0.7080  0.4157
  625MPD2     N 9316   1.959   4.512   0.776 -0.4935 -0.3903 -0.4234
  625MPD2    H5 9317   1.992   4.595   0.728  2.5903 -0.3106  1.8198
  625MPD2    N1 9318   1.543   4.630   0.552  0.0406  0.0981 -0.5695
  625MPD2    H7 9319   1.596   4.711   0.521  0.1853 -0.6802 -2.2992
  626TMC3    C1 9320   1.372   4.736   0.429  0.3906  1.1618  0.2508
  626TMC3    C2 9321   1.291   4.703   0.321  0.1624 -0.1779 -0.3710
  626TMC3    C3 9322   1.279   0.060   0.219 -0.9214 -0.0869 -0.7015
  626TMC3    C4 9323   1.427   0.118   0.440  0.1534  0.3435  0.2528
  626TMC3    C5 9324   1.414   0.211   0.336 -0.3977 -0.2341 -0.2643
  626TMC3    C6 9325   1.347   0.175   0.224  0.2671  1.3809 -0.1972
  626TMC3     C 9326   1.416   4.616   0.503  0.5377  0.5965  0.2786
  626TMC3     O 9327   1.328   4.531   0.525 -0.4404 -0.2133 -0.0574
  626TMC3     H 9328   1.256   4.601   0.315 -0.2538 -0.1778  2.1585
  626TMC3    H1 9329   1.483   0.145   0.529  1.3703 -3.0757  0.5064
  626TMC3    H2 9330   1.328   0.239   0.138  0.8148 -1.7962 -2.6913
  626TMC3    C7 9331   1.369   0.333   0.390 -0.6747 -0.2630 -0.0856
  626TMC3    C8 9332   1.217   0.011   0.095  0.1980 -0.5622  0.0061
  626TMC3    O1 9333   1.384   0.432   0.325  0.3057 -0.5476 -0.3156
  626TMC3    O2 9334   1.262   0.061  17.747  0.1348  0.1845 -0.6679
  627MPD2     C 9335   4.377   4.383  14.449  0.3096  0.1689 -0.0572
  627MPD2    C1 9336   4.507   4.387  14.413 -0.4385  0.3782  0.0793
  627MPD2    C2 9337   4.557   4.278  14.345 -0.0695  0.2964 -0.0779
  627MPD2    C3 9338   4.486   4.166  14.312  0.0527  0.2334 -0.2192
  627MPD2    C4 9339   4.347   4.168  14.339 -0.1566  0.9524  0.4854
  627MPD2    C5 9340   4.300   4.271  14.413 -0.5743 -0.6201 -0.0848
  627MPD2     H 9341   4.663   4.269  14.323  0.0656  0.7770  0.3581
  627MPD2    H1 9342   4.287   4.099  14.282  1.7137 -0.2365 -0.0403
  627MPD2    H2 9343   4.324   4.458  14.506  3.2947  1.1295  1.4082
  627MPD2    H3 9344   4.197   4.283  14.446 -1.0811 -1.7167 -1.2632
  627MPD2     N 9345   4.542   4.066  14.234  0.0552 -0.1107  0.2165
  627MPD2    H5 9346   4.635   4.080  14.196  1.1540 -3.2672  1.6575
  627MPD2    N1 9347   4.593   4.496  14.437  0.6322  0.4226 -0.5188
  627MPD2    H7 9348   4.688   4.485  14.403  0.8961  0.5109  0.1879
  628TMC3    C1 9349   4.659   4.715  14.485  0.4272 -0.1736  0.5761
  628TMC3    C2 9350   0.031   4.673  14.413  0.4525  0.6146  0.6351
  628TMC3    C3 9351   0.152   4.715  14.457  0.2853 -0.2705 -0.6915
  628TMC3    C4 9352   4.672   0.058  14.585  0.1498 -0.5079  0.2477
  628TMC3    C5 9353   0.055   0.094  14.627  0.2899  0.6242  0.3058
  628TMC3    C6 9354   0.174   0.052  14.569 -0.4242  0.0592 -0.2793
  628TMC3     C 9355   4.549   4.620  14.480 -0.2775  0.3976  0.6392
  628TMC3     O 9356   4.442   4.663  14.519 -0.2369 -0.2718  0.2680
  628TMC3     H 9357   0.015   4.636  14.313  3.6296  1.1205 -0.0598
  628TMC3    H1 9358   4.583   0.089  14.640 -0.4191  0.0914 -0.9911
  628TMC3    H2 9359   0.259   0.118  14.578 -0.1808 -0.2184 -0.5573
  628TMC3    C7 9360   0.062   0.227  14.686 -0.4156 -0.2244 -0.2446
  628TMC3    C8 9361   0.250   4.720  14.354  0.1776 -0.0249 -0.1699
  628TMC3    O1 9362   0.165   0.264  14.749  0.0514 -0.2920 -0.2443
  628TMC3    O2 9363   0.221   4.721  14.235  0.3975 -0.5260 -0.3811
  629MPD2     C 9364   2.915   3.175  16.198  0.6304  0.0997 -0.7853
  629MPD2    C1 9365   2.968   3.054  16.227  0.1954  0.4234  0.1661
  629MPD2    C2 9366   2.896   2.935  16.198  0.0462 -0.9211 -0.8134
  629MPD2    C3 9367   2.764   2.935  16.153 -0.5119 -0.5466  0.6090
  629MPD2    C4 9368   2.703   3.060  16.146  0.7023 -0.7685 -0.6302
  629MPD2    C5 9369   2.778   3.175  16.167  0.4364 -0.3434 -0.2668
  629MPD2     H 9370   2.944   2.840  16.221 -2.5719 -1.2351  3.4505
  629MPD2    H1 9371   2.602   3.076  16.112  0.1246 -1.4302  0.7975
  629MPD2    H2 9372   2.971   3.267  16.215  0.8918 -0.4757  1.4578
  629MPD2    H3 9373   2.733   3.272  16.152  0.4209 -0.0608  1.5941
  629MPD2     N 9374   2.702   2.816  16.117 -0.3867  0.4961 -0.2498
  629MPD2    H5 9375   2.749   2.730  16.144 -0.4351  0.0831 -1.4799
  629MPD2    N1 9376   3.107   3.047  16.274 -0.2328 -0.0474  0.0710
  629MPD2    H7 9377   3.159   3.134  16.269 -0.3559  0.1750  2.8074
  630TMC3    C1 9378   3.321   2.957  16.324 -0.0599  0.6328 -0.2634
  630TMC3    C2 9379   3.380   3.045  16.231  0.0533  0.0064 -0.0602
  630TMC3    C3 9380   3.516   3.052  16.229 -0.0644 -0.0352 -0.0323
  630TMC3    C4 9381   3.390   2.886  16.418  0.3691 -0.1059  0.1541
  630TMC3    C5 9382   3.529   2.888  16.404  0.8643 -1.0926  0.2401
  630TMC3    C6 9383   3.589   2.972  16.310  0.3864 -0.3174  0.4315
  630TMC3     C 9384   3.174   2.939  16.325  0.2577  0.1523  0.4385
  630TMC3     O 9385   3.136   2.840  16.382 -0.2910 -0.3819  0.3394
  630TMC3     H 9386   3.316   3.104  16.166 -0.7101  0.5310  1.1646
  630TMC3    H1 9387   3.344   2.838  16.503  1.2397  0.4960  0.9657
  630TMC3    H2 9388   3.696   2.956  16.304  0.3102  0.1064 -2.1087
  630TMC3    C7 9389   3.596   2.877  16.533  0.4967  0.5330  0.0888
  630TMC3    C8 9390   3.581   3.177  16.185  0.0559  0.6248 -0.3309
  630TMC3    O1 9391   3.554   2.787  16.610  0.2305  0.3561  0.1274
  630TMC3    O2 9392   3.698   3.188  16.225  0.0407 -0.1432  0.0376
  631MPD2     C 9393   1.157   3.346  15.188 -0.1735 -0.1610 -0.2020
  631MPD2    C1 9394   1.264   3.427  15.160  0.1889  0.2505  0.1251
  631MPD2    C2 9395   1.392   3.375  15.181  0.1513  0.4528  0.4941
  631MPD2    C3 9396   1.417   3.247  15.225 -0.0269 -1.4741 -0.1858
  631MPD2    C4 9397   1.309   3.171  15.266  0.5733  0.4426 -0.3650
  631MPD2    C5 9398   1.186   3.231  15.244 -0.5647  0.9992  0.4715
  631MPD2     H 9399   1.481   3.431  15.155  0.3617  1.0012  2.3980
  631MPD2    H1 9400   1.314   3.077  15.319 -2.5135  0.4561 -0.0685
  631MPD2    H2 9401   1.054   3.374  15.170 -0.2200 -0.1487  0.0863
  631MPD2    H3 9402   1.098   3.171  15.264  0.1296  0.3707  1.6523
  631MPD2     N 9403   1.554   3.210  15.246 -0.6378 -0.0591  0.6021
  631MPD2    H5 9404   1.617   3.276  15.203 -1.2269  1.3750  1.9103
  631MPD2    N1 9405   1.232   3.554  15.096 -0.1134  0.5840 -0.4698
  631MPD2    H7 9406   1.134   3.577  15.108 -0.7612 -1.0996 -2.6328
  632TMC3    C1 9407   1.265   3.752  14.978  0.0342 -0.3374 -0.2680
  632TMC3    C2 9408   1.134   3.749  14.930  0.1742  0.1203  1.0074
  632TMC3    C3 9409   1.093   3.851  14.846  0.3459  0.6763 -0.5245
  632TMC3    C4 9410   1.352   3.844  14.932 -0.7229  0.2259 -0.6067
  632TMC3    C5 9411   1.315   3.937  14.843 -0.4010  0.0606  0.1282
  632TMC3    C6 9412   1.178   3.947  14.806 -0.3446 -0.4408 -0.7657
  632TMC3     C 9413   1.324   3.638  15.048 -0.3203 -0.0414 -0.0171
  632TMC3     O 9414   1.445   3.617  15.043  0.4853  0.1189  0.1719
  632TMC3     H 9415   1.070   3.662  14.942 -0.6305  0.6233  0.2944
  632TMC3    H1 9416   1.449   3.825  14.977 -0.3351 -1.9830 -2.3555
  632TMC3    H2 9417   1.155   4.022  14.731  1.7649  2.1807  1.2208
  632TMC3    C7 9418   1.414   3.981  14.749  0.5510  0.4182  0.7559
  632TMC3    C8 9419   0.960   3.884  14.893  0.5716 -0.3901 -0.6910
  632TMC3    O1 9420   1.373   4.038  14.648  0.0940  0.2747 -0.0161
  632TMC3    O2 9421   0.875   3.792  14.899  0.3400  0.4625  0.5969
  633MPD2     C 9422   0.913   0.996  17.188  0.8734 -0.5179  0.6545
  633MPD2    C1 9423   0.944   0.930  17.067 -0.0881  0.0431 -0.0043
  633MPD2    C2 9424   0.929   0.793  17.068 -0.1814  0.1837  0.3803
  633MPD2    C3 9425   0.913   0.729  17.189  0.6116  0.3172 -0.2128
  633MPD2    C4 9426   0.882   0.792  17.308  0.4363  0.1553  0.0914
  633MPD2    C5 9427   0.877   0.930  17.305  0.3091  0.3710 -0.2139
  633MPD2     H 9428   0.960   0.730  16.985  0.8657  0.7674  0.3278
  633MPD2    H1 9429   0.867   0.746  17.405 -2.6895  0.4676 -0.2275
  633MPD2    H2 9430   0.929   1.103  17.199 -0.4897 -0.1362 -1.1072
  633MPD2    H3 9431   0.863   0.980  17.400  1.6534 -0.2448  0.3065
  633MPD2     N 9432   0.927   0.591  17.197 -0.7715  0.4060  0.0703
  633MPD2    H5 9433   0.925   0.549  17.289  0.7215  2.2987  0.9699
  633MPD2    N1 9434   0.999   0.989  16.951 -0.3149  0.3620 -0.2635
  633MPD2    H7 9435   1.027   0.934  16.870  2.2514  1.3246 -0.0284
  634TMC3    C1 9436   1.127   1.155  16.825  0.0106  0.3274 -0.0765
  634TMC3    C2 9437   1.189   1.050  16.765  0.2407 -0.0642  0.6807
  634TMC3    C3 9438   1.243   1.076  16.642 -0.1212 -0.5441 -0.6099
  634TMC3    C4 9439   1.134   1.287  16.789 -0.5315 -0.1985 -0.2258
  634TMC3    C5 9440   1.190   1.304  16.661 -0.1120  1.0034 -0.2507
  634TMC3    C6 9441   1.236   1.199  16.587 -0.2654 -0.2552 -0.1265
  634TMC3     C 9442   1.051   1.120  16.945 -0.2256  0.3538  0.2944
  634TMC3     O 9443   1.024   1.215  17.018  0.3784  0.4860  0.5217
  634TMC3     H 9444   1.202   0.954  16.813  0.0402 -0.5492 -0.2355
  634TMC3    H1 9445   1.081   1.371  16.833 -3.5621 -2.4977  0.4901
  634TMC3    H2 9446   1.266   1.212  16.483  3.1297  0.3414  0.9273
  634TMC3    C7 9447   1.162   1.422  16.577 -0.2165 -0.3714 -0.0126
  634TMC3    C8 9448   1.303   0.957  16.570 -0.2026  0.0210  0.3960
  634TMC3    O1 9449   1.215   1.427  16.466 -0.1838  0.2977  0.0309
  634TMC3    O2 9450   1.271   0.856  16.623 -0.2144 -0.0508 -0.0442
  635TMC3    C1 9451   1.257   2.797   1.445 -0.1029 -0.0881  0.0722
  635TMC3    C2 9452   1.240   2.666   1.473  0.2157  0.2252 -0.0959
  635TMC3    C3 9453   1.265   2.621   1.598  0.9726  0.2197  0.1358
  635TMC3    C4 9454   1.297   2.889   1.543 -0.8604  0.1690 -0.0201
  635TMC3    C5 9455   1.317   2.839   1.669 -0.4028 -0.0567 -0.2477
  635TMC3    C6 9456   1.306   2.706   1.697  0.0365 -0.0316 -1.0679
  635TMC3     C 9457   1.235   2.846   1.313  0.3444  0.5367  0.4846
  635TMC3     O 9458   1.190   2.958   1.304 -0.0718 -0.7848  0.1312
  635TMC3     H 9459   1.203   2.601   1.394  1.9481  0.2860 -0.9578
  635TMC3    H1 9460   1.297   2.995   1.520  0.5289  0.6189  2.0947
  635TMC3    H2 9461   1.323   2.656   1.792  1.0835 -1.7424 -2.1524
  635TMC3    C7 9462   1.372   2.919   1.778 -0.2767  0.0009  0.2095
  635TMC3    C8 9463   1.231   2.485   1.633  0.2215 -0.3636  0.2019
  635TMC3    O1 9464   1.405   2.861   1.882  0.2691  0.0831 -0.5871
  635TMC3    O2 9465   1.266   2.437   1.740 -0.0861 -0.4623 -1.5926
  636MPD2     C 9466   2.439   1.302  15.474 -0.2415 -0.5415  0.3330
  636MPD2    C1 9467   2.472   1.327  15.607  0.7197  0.0817 -0.3960
  636MPD2    C2 9468   2.574   1.247  15.662  0.1841 -0.0417  0.5026
  636MPD2    C3 9469   2.644   1.154  15.589  0.0821 -0.1711 -0.3569
  636MPD2    C4 9470   2.624   1.146  15.458 -0.2401  0.3811 -0.0825
  636MPD2    C5 9471   2.520   1.213  15.405  0.0862  0.4509 -0.2826
  636MPD2     H 9472   2.593   1.259  15.768 -0.4753 -1.3999  0.7581
  636MPD2    H1 9473   2.665   1.069  15.393  0.4504 -0.0976  0.9266
  636MPD2    H2 9474   2.354   1.352  15.431 -1.3997 -0.8489  2.2375
  636MPD2    H3 9475   2.497   1.180  15.304 -0.4457  0.2839 -0.1050
  636MPD2     N 9476   2.706   1.055  15.666 -0.4881 -0.1114 -0.9183
  636MPD2    H5 9477   2.705   1.078  15.765 -0.1049 -0.7038 -0.7725
  636MPD2    N1 9478   2.405   1.414  15.698  0.6513  0.0605 -0.0444
  636MPD2    H7 9479   2.437   1.413  15.794 -1.7266 -2.5249  0.7328
  637TMC3    C1 9480   2.878   0.913  15.714  0.7672  1.4555 -0.2181
  637TMC3    C2 9481   2.815   0.895  15.833  0.3225 -0.3444  0.3244
  637TMC3    C3 9482   2.878   0.928  15.949  0.5756 -0.5057 -0.3519
  637TMC3    C4 9483   3.007   0.957  15.701  0.6143 -0.2031 -0.2490
  637TMC3    C5 9484   3.071   0.972  15.822 -0.0084 -0.0549 -0.2565
  637TMC3    C6 9485   3.010   0.954  15.947  0.2042  0.0800  0.9717
  637TMC3     C 9486   2.787   0.955  15.606  0.0730 -0.2349 -0.3977
  637TMC3     O 9487   2.818   0.932  15.488  0.1687  0.1266 -0.6127
  637TMC3     H 9488   2.709   0.870  15.835  0.1996  0.0952 -0.4931
  637TMC3    H1 9489   3.053   0.979  15.605  1.7318  0.6873  0.5003
  637TMC3    H2 9490   3.050   0.998  16.038  0.0599 -1.2184  1.6655
  637TMC3    C7 9491   3.147   1.094  15.831 -0.3558  0.0234 -0.4504
  637TMC3    C8 9492   2.814   1.035  16.015 -0.5915 -0.0477  0.8731
  637TMC3    O1 9493   3.160   1.153  15.942  0.9592  0.1821 -0.1720
  637TMC3    O2 9494   2.762   1.123  15.945  0.2204 -0.4040  0.6731
  638MPD2     C 9495   2.386   0.602  14.681 -0.9483 -0.4714  0.1812
  638MPD2    C1 9496   2.325   0.525  14.587  1.0165 -0.6480  0.6438
  638MPD2    C2 9497   2.319   0.392  14.619  0.9548  0.0566  0.6985
  638MPD2    C3 9498   2.366   0.339  14.733  0.7505 -0.3471 -0.1884
  638MPD2    C4 9499   2.429   0.420  14.822 -0.5638 -0.3006  0.0488
  638MPD2    C5 9500   2.431   0.554  14.799 -1.0668  0.7221  0.1614
  638MPD2     H 9501   2.287   0.317  14.547 -2.3444  3.5586 -1.4962
  638MPD2    H1 9502   2.483   0.375  14.905 -1.3334  0.0098  0.7146
  638MPD2    H2 9503   2.403   0.709  14.670 -2.9859 -0.2736 -1.2344
  638MPD2    H3 9504   2.481   0.621  14.868  2.2786 -1.0307 -0.5885
  638MPD2     N 9505   2.341   0.203  14.766 -0.1307  0.0156 -1.0091
  638MPD2    H5 9506   2.320   0.140  14.688 -1.7796  0.0995 -0.6342
  638MPD2    N1 9507   2.310   0.573  14.457  0.2927 -0.1223 -0.3617
  638MPD2    H7 9508   2.348   0.663  14.431  0.2219 -0.2954 -1.0834
  639TMC3    C1 9509   2.303   0.004  14.894 -0.1183 -0.5814  0.0057
  639TMC3    C2 9510   2.207   4.708  14.803  0.1167  0.5748  0.1553
  639TMC3    C3 9511   2.155   4.583  14.823 -0.2520 -0.0365 -0.3859
  639TMC3    C4 9512   2.356   4.660  14.989  0.1118 -0.3296  0.8807
  639TMC3    C5 9513   2.314   4.530  14.991 -0.4101 -0.1217  0.3923
  639TMC3    C6 9514   2.206   4.496  14.917 -0.3406 -0.2878 -0.2739
  639TMC3     C 9515   2.363   0.135  14.886 -0.6812  0.4481 -0.0714
  639TMC3     O 9516   2.400   0.171  14.994 -0.0556  0.1786 -0.3779
  639TMC3     H 9517   2.157   0.037  14.735 -0.2597 -0.2620 -0.4058
  639TMC3    H1 9518   2.425   4.694  15.066  0.0036  1.8018  0.0367
  639TMC3    H2 9519   2.168   4.395  14.913  0.4317 -0.5455 -0.9907
  639TMC3    C7 9520   2.420   4.435  14.979  0.0054 -0.5361  0.3071
  639TMC3    C8 9521   2.061   4.536  14.723  1.1899  0.4519 -0.3687
  639TMC3    O1 9522   2.404   4.320  15.020 -0.4509  0.1089 -0.1714
  639TMC3    O2 9523   2.083   4.574  14.608 -0.0829  0.6088 -0.0725
  640MPD2     C 9524   3.055   4.635   9.902  0.3818 -0.3240 -0.0195
  640MPD2    C1 9525   2.940   4.571   9.933 -0.7388 -1.0853  0.0791
  640MPD2    C2 9526   2.877   4.591  10.050 -0.2746 -0.3478 -0.4986
  640MPD2    C3 9527   2.930   4.683  10.139  0.1505  0.6217 -0.4455
  640MPD2    C4 9528   3.046   0.017  10.110  0.0744  0.6744 -0.8376
  640MPD2    C5 9529   3.107   4.725   9.993  0.7578 -0.0131  0.3193
  640MPD2     H 9530   2.785   4.535  10.064 -0.6999  0.4936  0.0416
  640MPD2    H1 9531   3.082   0.081  10.189 -1.5699  1.6178 -0.8467
  640MPD2    H2 9532   3.116   4.613   9.815  0.8074  0.9631 -0.0499
  640MPD2    H3 9533   3.199   0.041   9.974  0.2488  0.4496 -0.8396
  640MPD2     N 9534   2.869   4.713  10.263 -0.0028  0.6577  0.3509
  640MPD2    H5 9535   2.926   0.034  10.322  0.2574 -0.5892  1.3543
  640MPD2    N1 9536   2.891   4.481   9.832 -0.4689  0.3781  0.0850
  640MPD2    H7 9537   2.953   4.470   9.752 -0.6616 -1.5350  0.2078
  641TMC3    C1 9538   2.764   4.323   9.708  0.5313  0.1437 -0.0912
  641TMC3    C2 9539   2.869   4.236   9.691 -0.4581  0.2501  0.1966
  641TMC3    C3 9540   2.847   4.117   9.626 -0.2841  0.0336 -0.1882
  641TMC3    C4 9541   2.641   4.297   9.661  0.4781 -0.7639 -0.3938
  641TMC3    C5 9542   2.621   4.179   9.594  0.6066 -0.3568 -0.2818
  641TMC3    C6 9543   2.721   4.085   9.581  0.6633 -0.3856 -0.0631
  641TMC3     C 9544   2.776   4.413   9.822 -0.6384 -0.3361  0.5619
  641TMC3     O 9545   2.673   4.444   9.879 -0.6593  0.4296 -0.2560
  641TMC3     H 9546   2.960   4.252   9.747  1.6556 -1.9841 -2.6376
  641TMC3    H1 9547   2.561   4.367   9.683 -0.5564 -2.4296  1.1515
  641TMC3    H2 9548   2.691   3.989   9.540 -0.1411  0.6564 -1.8921
  641TMC3    C7 9549   2.523   4.174   9.481 -0.3011  0.4700  0.1990
  641TMC3    C8 9550   2.935   4.002   9.629 -0.2105 -0.3022  0.9594
  641TMC3    O1 9551   2.533   4.085   9.402  0.3224 -0.6843 -0.2587
  641TMC3    O2 9552   2.878   3.894   9.635 -0.6384  0.0829 -0.0466
  642TMC3    C1 9553   3.539   0.270  12.273 -0.1055  0.3308  0.5776
  642TMC3    C2 9554   3.595   0.326  12.157  0.0604 -0.2445 -0.8201
  642TMC3    C3 9555   3.643   0.238  12.068  0.5165  0.6273 -0.4219
  642TMC3    C4 9556   3.531   0.134  12.287  0.3610 -0.5248 -0.1104
  642TMC3    C5 9557   3.571   0.050  12.182  0.6237  0.6116  0.2778
  642TMC3    C6 9558   3.624   0.102  12.071 -0.1850  0.2466 -0.3264
  642TMC3     C 9559   3.508   0.366  12.377  0.2468 -0.3525  0.4402
  642TMC3     O 9560   3.570   0.474  12.369 -0.7044  0.0075  0.1853
  642TMC3     H 9561   3.590   0.431  12.131 -2.2238  0.1724  1.2737
  642TMC3    H1 9562   3.510   0.103  12.389 -3.0631  0.2271 -0.5649
  642TMC3    H2 9563   3.661   0.034  11.995  1.3460  1.3910 -0.5996
  642TMC3    C7 9564   3.518   4.655  12.183  0.3508 -0.4683 -0.2486
  642TMC3    C8 9565   3.727   0.290  11.962 -0.5457  0.2286  0.2923
  642TMC3    O1 9566   3.527   4.589  12.081 -0.1816 -0.1946 -0.0260
  642TMC3    O2 9567   3.708   0.249  11.846  0.1716  0.3611 -0.1099
  643TMC3    C1 9568   3.147   3.740  17.488 -0.3423 -0.6432 -0.4180
  643TMC3    C2 9569   3.015   3.759  17.438  0.3365  0.0353 -0.3787
  643TMC3    C3 9570   2.962   3.676  17.344 -0.9393 -0.3534 -0.0219
  643TMC3    C4 9571   3.220   3.631  17.449  0.0386 -1.1169 -0.4140
  643TMC3    C5 9572   3.167   3.550  17.350  0.0344 -0.3199 -0.3182
  643TMC3    C6 9573   3.039   3.572  17.293 -0.4516  0.2522  0.0764
  643TMC3     C 9574   3.150   3.783  17.627 -0.1476  0.4957  1.0571
  643TMC3     O 9575   3.056   3.747  17.693 -0.5516  0.1406 -0.4078
  643TMC3     H 9576   2.965   3.853  17.458  2.9010  0.9467  1.6992
  643TMC3    H1 9577   3.325   3.625  17.475 -0.2529 -1.3520  0.7401
  643TMC3    H2 9578   2.986   3.505  17.226  2.1067 -0.4401 -1.2541
  643TMC3    C7 9579   3.267   3.542  17.246 -0.1466 -0.5180 -0.6708
  643TMC3    C8 9580   2.830   3.685  17.307  0.3993 -0.1577 -0.2182
  643TMC3    O1 9581   3.359   3.627  17.239  0.1636 -0.5038  0.4182
  643TMC3    O2 9582   2.774   3.579  17.297 -0.3727  0.1339  0.3076
  644MPD2     C 9583   2.404   3.896   9.692 -0.1663 -0.2892 -1.0733
  644MPD2    C1 9584   2.304   3.875   9.602 -0.1884  0.4198 -0.3421
  644MPD2    C2 9585   2.188   3.961   9.598 -0.2734  0.3771  0.4682
  644MPD2    C3 9586   2.186   4.077   9.674  0.4592 -0.8321 -0.1539
  644MPD2    C4 9587   2.289   4.094   9.766 -0.3086 -0.8654  0.2144
  644MPD2    C5 9588   2.392   4.002   9.779  0.4995 -0.1443 -0.2348
  644MPD2     H 9589   2.110   3.947   9.523  2.1994 -1.8428 -1.6891
  644MPD2    H1 9590   2.307   4.177   9.833  0.5231 -1.8918  1.2668
  644MPD2    H2 9591   2.487   3.827   9.695  1.0414  1.2428  0.0247
  644MPD2    H3 9592   2.478   4.025   9.842  2.0435 -0.9680 -2.0161
  644MPD2     N 9593   2.078   4.164   9.660  0.5594  0.1450 -0.1112
  644MPD2    H5 9594   2.010   4.132   9.591 -0.2956 -1.1188  1.3324
  644MPD2    N1 9595   2.336   3.802   9.491  0.0829 -0.1316 -0.7848
  644MPD2    H7 9596   2.430   3.767   9.479  0.0939 -0.6646  0.7833
  645TMC3    C1 9597   1.934   4.345   9.732  0.3563 -0.0027  0.4006
  645TMC3    C2 9598   1.912   4.377   9.606  0.5848  0.9929  0.1102
  645TMC3    C3 9599   1.831   4.476   9.581 -0.2770 -0.9222 -0.6755
  645TMC3    C4 9600   1.884   4.420   9.842  0.5114 -0.3636 -0.3228
  645TMC3    C5 9601   1.791   4.518   9.810 -0.2844 -0.0182 -0.0961
  645TMC3    C6 9602   1.756   4.537   9.671  0.0067 -0.2549 -0.2858
  645TMC3     C 9603   2.054   4.264   9.752 -0.0130  0.2307  1.2401
  645TMC3     O 9604   2.126   4.315   9.838 -0.1453  0.5047 -0.3794
  645TMC3     H 9605   1.966   4.331   9.524  0.4908  1.4986 -0.2395
  645TMC3    H1 9606   1.914   4.400   9.944  1.5361 -0.6639 -0.6867
  645TMC3    H2 9607   1.688   4.615   9.638 -1.0847 -1.2203 -0.2949
  645TMC3    C7 9608   1.729   4.591   9.919 -0.1524  0.0015 -0.0360
  645TMC3    C8 9609   1.812   4.516   9.448 -0.5333  0.7374  0.2330
  645TMC3    O1 9610   1.795   4.609  10.021 -0.7951 -0.1644 -0.2549
  645TMC3    O2 9611   1.819   4.635   9.427  0.1035  0.2089 -0.0841
  646MPD2     C 9612   2.463   3.895  14.299  0.1973  0.3319 -0.3901
  646MPD2    C1 9613   2.352   3.847  14.355 -0.9264 -0.2707 -0.1670
  646MPD2    C2 9614   2.235   3.889  14.298  0.5861 -0.3068  0.9820
  646MPD2    C3 9615   2.227   3.986  14.195  0.2872 -0.0964  0.4886
  646MPD2    C4 9616   2.348   4.038  14.143 -0.1350 -0.0251 -0.2462
  646MPD2    C5 9617   2.460   3.987  14.198  0.4102 -0.3851 -0.2170
  646MPD2     H 9618   2.141   3.870  14.350 -0.7142  1.2010 -0.7984
  646MPD2    H1 9619   2.350   4.107  14.059 -1.5336  0.5947  0.2226
  646MPD2    H2 9620   2.560   3.872  14.340 -0.7000 -0.3876  1.3295
  646MPD2    H3 9621   2.547   4.029  14.150  0.4641  1.4375  1.4829
  646MPD2     N 9622   2.102   4.039  14.149  0.0609  0.4775  0.6233
  646MPD2    H5 9623   2.018   3.998  14.189 -1.3982  1.4701 -1.4081
  646MPD2    N1 9624   2.375   3.762  14.463  0.7993  0.8713  0.0222
  646MPD2    H7 9625   2.471   3.734  14.484  0.1706 -0.1961  1.4751
  647TMC3    C1 9626   2.325   3.629  14.651 -1.1143  1.1207  0.5287
  647TMC3    C2 9627   2.232   3.555  14.712 -0.8039  0.2793 -0.2135
  647TMC3    C3 9628   2.280   3.460  14.803 -0.2945  0.1943  0.3237
  647TMC3    C4 9629   2.461   3.601  14.665 -0.1857 -0.3740  0.2415
  647TMC3    C5 9630   2.492   3.498  14.747 -0.0738 -0.5408  0.5258
  647TMC3    C6 9631   2.406   3.425  14.814  0.3878  0.0865  0.1701
  647TMC3     C 9632   2.279   3.716  14.544 -0.8569 -0.4514  0.1497
  647TMC3     O 9633   2.161   3.735  14.541  0.1982  0.2246 -0.2304
  647TMC3     H 9634   2.125   3.569  14.700 -0.3464  2.1123 -1.9891
  647TMC3    H1 9635   2.537   3.650  14.605 -1.1818 -0.2809 -0.9568
  647TMC3    H2 9636   2.444   3.343  14.875 -1.4559 -1.9149 -1.3865
  647TMC3    C7 9637   2.626   3.479  14.787 -0.3375 -0.1676  0.5456
  647TMC3    C8 9638   2.176   3.381  14.873 -0.4310  0.1965 -0.2979
  647TMC3    O1 9639   2.664   3.370  14.825  0.6463  0.7056 -0.1411
  647TMC3    O2 9640   2.063   3.426  14.855 -0.3022  0.6694 -0.4781
  648TMC3    C1 9641   1.781   1.010  16.038 -0.1982 -0.2170  0.3847
  648TMC3    C2 9642   1.879   0.915  16.009  0.8599  0.1874 -0.1514
  648TMC3    C3 9643   1.898   0.881  15.875  0.3844 -0.4947 -0.2395
  648TMC3    C4 9644   1.711   1.069  15.947  0.8359 -1.0655  0.0378
  648TMC3    C5 9645   1.733   1.031  15.818 -0.1584 -0.1908  0.2638
  648TMC3    C6 9646   1.823   0.938  15.775  0.3701  0.2510  0.2436
  648TMC3     C 9647   1.763   1.046  16.174 -0.0224 -0.1937 -0.4276
  648TMC3     O 9648   1.735   1.163  16.193  0.4634  0.6294 -0.3428
  648TMC3     H 9649   1.932   0.857  16.085  2.7093  1.6387 -0.3269
  648TMC3    H1 9650   1.627   1.131  15.976  0.9074 -0.9083 -0.0932
  648TMC3    H2 9651   1.818   0.896  15.675  0.8402  0.9141 -0.0615
  648TMC3    C7 9652   1.684   1.108  15.706 -0.1829 -0.5344 -0.2678
  648TMC3    C8 9653   1.964   0.757  15.851 -0.5747 -0.2873 -0.7711
  648TMC3    O1 9654   1.704   1.069  15.590  0.0323 -0.5072 -0.1171
  648TMC3    O2 9655   1.941   0.677  15.943 -0.3535 -1.0594 -0.2926
  649TMC3    C1 9656   0.033   2.245  13.152  0.6204 -0.2558 -0.7323
  649TMC3    C2 9657   0.134   2.331  13.191 -0.0995 -0.1380  0.5756
  649TMC3    C3 9658   0.225   2.278  13.271  0.3225 -0.1102  0.3287
  649TMC3    C4 9659   0.023   2.116  13.185  0.4718 -0.2969  1.1770
  649TMC3    C5 9660   0.127   2.069  13.267 -0.7526 -0.1491 -0.0200
  649TMC3    C6 9661   0.225   2.150  13.314 -0.2052 -0.1531 -0.1714
  649TMC3     C 9662   4.677   2.308  13.058  0.0944 -0.2595  0.6217
  649TMC3     O 9663   4.682   2.430  13.048  0.0619  0.6120  0.0488
  649TMC3     H 9664   0.131   2.436  13.161  1.1185 -0.3317 -0.2216
  649TMC3    H1 9665   4.671   2.059  13.172  0.1712  0.2261  0.9835
  649TMC3    H2 9666   0.297   2.111  13.385  2.6590 -0.9184 -3.4345
  649TMC3    C7 9667   0.081   1.967  13.363 -0.2377  0.8842  0.2948
  649TMC3    C8 9668   0.327   2.373  13.330 -0.1689 -0.0209 -0.0089
  649TMC3    O1 9669   4.703   1.919  13.359 -0.4778  0.8882 -0.4069
  649TMC3    O2 9670   0.363   2.347  13.449 -0.4527 -0.1307 -0.0744
  650TMC3    C1 9671   2.973   3.960  12.472 -0.5803  0.0869 -0.2258
  650TMC3    C2 9672   2.893   4.059  12.519  0.0757  0.0950  0.0161
  650TMC3    C3 9673   2.787   4.103  12.438  0.3598 -0.2783 -0.3137
  650TMC3    C4 9674   2.950   3.903  12.350 -0.2829 -0.1760  0.4863
  650TMC3    C5 9675   2.854   3.959  12.263  1.1433 -0.2462  0.4949
  650TMC3    C6 9676   2.770   4.059  12.311  0.1620  0.4903 -0.2914
  650TMC3     C 9677   3.089   3.928  12.551  0.1207 -0.4860 -0.3652
  650TMC3     O 9678   3.109   3.998  12.653  0.1425  0.0062  0.2311
  650TMC3     H 9679   2.895   4.095  12.621 -0.0951  0.7943 -0.2235
  650TMC3    H1 9680   3.015   3.825  12.313 -0.3654 -0.7535  1.5580
  650TMC3    H2 9681   2.717   4.130  12.249 -3.0005 -1.0756  0.6177
  650TMC3    C7 9682   2.897   4.006  12.131  0.1313  0.1842 -0.2379
  650TMC3    C8 9683   2.741   4.233  12.469 -0.6767 -0.2799  0.0295
  650TMC3    O1 9684   2.821   3.991  12.036  0.0368 -0.3507 -0.1660
  650TMC3    O2 9685   2.802   4.297  12.547 -0.1859  0.4722  0.5154
  651MPD2     C 9686   1.729   1.738  11.051 -0.2999  0.1817  0.5883
  651MPD2    C1 9687   1.745   1.814  10.937 -0.0535  0.2128 -0.1648
  651MPD2    C2 9688   1.875   1.849  10.915 -0.8545 -0.0590 -0.6233
  651MPD2    C3 9689   1.985   1.795  10.977 -0.5253  0.3352 -0.1832
  651MPD2    C4 9690   1.966   1.710  11.086 -0.2919  0.1240 -0.7752
  651MPD2    C5 9691   1.834   1.684  11.124  0.4627  0.4621  0.4547
  651MPD2     H 9692   1.895   1.914  10.830  0.3366 -0.6406 -0.7845
  651MPD2    H1 9693   2.040   1.657  11.145 -0.2235  2.1037  0.8908
  651MPD2    H2 9694   1.632   1.713  11.092  0.0891 -0.4927  1.0940
  651MPD2    H3 9695   1.826   1.614  11.207  0.0940 -1.7551 -1.4464
  651MPD2     N 9696   2.108   1.844  10.932 -0.5277  0.2744  0.4410
  651MPD2    H5 9697   2.111   1.896  10.846  2.0185 -0.2895  0.1753
  651MPD2    N1 9698   1.645   1.875  10.860 -0.1353  0.1877 -0.3586
  651MPD2    H7 9699   1.676   1.938  10.787  0.4774  0.6402  0.2973
  652TMC3    C1 9700   2.547   1.870  10.834  0.0792 -0.2304  0.3893
  652TMC3    C2 9701   2.455   1.802  10.921  0.1931  0.3826  0.2838
  652TMC3    C3 9702   2.344   1.876  10.950  0.6168  0.1733  0.2604
  652TMC3    C4 9703   2.534   1.999  10.791 -0.3761  0.0856 -0.3315
  652TMC3    C5 9704   2.423   2.073  10.833  0.3459  0.2913 -0.3633
  652TMC3    C6 9705   2.329   2.004  10.910 -0.5234  0.3023  0.6579
  652TMC3     C 9706   2.674   1.806  10.801  0.1758 -0.0413 -0.2558
  652TMC3     O 9707   2.701   1.705  10.868 -0.1190  0.0726 -0.2376
  652TMC3     H 9708   2.459   1.698  10.952  2.4255  0.2106 -0.5914
  652TMC3    H1 9709   2.594   2.044  10.714  3.3896 -2.6267  1.0049
  652TMC3    H2 9710   2.244   2.060  10.946 -2.1513 -0.3465 -2.2017
  652TMC3    C7 9711   2.373   2.176  10.750  0.1557  0.0991  0.0071
  652TMC3    C8 9712   2.226   1.811  10.995  0.4752 -0.0033  0.2080
  652TMC3    O1 9713   2.252   2.186  10.741 -0.3936 -0.1135 -0.2359
  652TMC3    O2 9714   2.244   1.769  11.105  0.0567 -0.3744  0.0224
  653MPD2     C 9715   0.607   1.185  17.344 -0.1563  0.3467  0.2098
  653MPD2    C1 9716   0.594   1.274  17.241  0.4276 -0.0666  0.1743
  653MPD2    C2 9717   0.542   1.224  17.123  0.0368  0.3618  0.7571
  653MPD2    C3 9718   0.518   1.086  17.103  0.9361 -0.2005  0.1752
  653MPD2    C4 9719   0.530   1.002  17.214  0.4175  0.2212 -0.5138
  653MPD2    C5 9720   0.563   1.056  17.332 -0.4459  0.9906  0.2052
  653MPD2     H 9721   0.526   1.298  17.046  1.0351 -0.3305 -0.1073
  653MPD2    H1 9722   0.515   0.895  17.212  2.4389 -0.0422 -1.6819
  653MPD2    H2 9723   0.639   1.216  17.443  0.6823  1.0350 -0.2811
  653MPD2    H3 9724   0.572   0.983  17.412  0.5950  1.5360  0.5716
  653MPD2     N 9725   0.472   1.038  16.976 -0.1169 -0.2394  0.1142
  653MPD2    H5 9726   0.464   1.106  16.901 -0.4385 -1.0750 -0.6100
  653MPD2    N1 9727   0.629   1.407  17.252  0.2499 -0.3264 -0.9989
  653MPD2    H7 9728   0.598   1.467  17.177 -0.8418 -0.6290 -0.7899
  654TMC3    C1 9729   0.418   0.878  16.807  0.2662 -0.5558 -0.5548
  654TMC3    C2 9730   0.307   0.946  16.763  0.0510  0.5325  0.2663
  654TMC3    C3 9731   0.220   0.876  16.689  0.6057 -0.1061  0.1386
  654TMC3    C4 9732   0.454   0.754  16.764  0.8554  0.0782  0.1500
  654TMC3    C5 9733   0.363   0.688  16.690 -0.0341 -0.5777  0.0630
  654TMC3    C6 9734   0.248   0.747  16.642  0.1987  0.1365 -0.0390
  654TMC3     C 9735   0.462   0.909  16.945 -0.0849 -0.2454 -0.1642
  654TMC3     O 9736   0.498   0.806  17.001  0.1411  0.1208 -0.0818
  654TMC3     H 9737   0.290   1.047  16.796 -0.1282 -0.1522  2.3023
  654TMC3    H1 9738   0.544   0.716  16.813  1.3554 -1.2084 -1.7738
  654TMC3    H2 9739   0.179   0.688  16.584  0.6521  0.9821 -1.4357
  654TMC3    C7 9740   0.385   0.553  16.643 -0.1915  0.2905 -0.2336
  654TMC3    C8 9741   0.109   0.945  16.639  0.3213 -0.2390  0.0728
  654TMC3    O1 9742   0.341   0.519  16.534  0.2867  0.1100 -0.1589
  654TMC3    O2 9743   0.050   1.022  16.715 -0.1963  0.4354  0.3858
  655MPD2     C 9744   2.271   1.006  15.608 -0.2473  0.4965 -0.0882
  655MPD2    C1 9745   2.180   1.079  15.531  0.4080 -0.0772 -0.1658
  655MPD2    C2 9746   2.195   1.075  15.395  0.8937  0.5517  0.3230
  655MPD2    C3 9747   2.281   0.985  15.332 -0.1986  0.8246 -0.5226
  655MPD2    C4 9748   2.359   0.908  15.417 -0.3129 -0.4980  0.3715
  655MPD2    C5 9749   2.356   0.926  15.548  0.1434 -0.4391  0.2693
  655MPD2     H 9750   2.129   1.141  15.341 -0.8665  0.5772  2.4763
  655MPD2    H1 9751   2.436   0.846  15.372 -0.8262 -0.9495  0.1126
  655MPD2    H2 9752   2.270   1.009  15.716  2.4502 -1.0027  0.0046
  655MPD2    H3 9753   2.432   0.875  15.607 -0.2758 -0.2286  0.9888
  655MPD2     N 9754   2.299   0.971  15.194  0.6050  0.2907 -0.1142
  655MPD2    H5 9755   2.364   0.897  15.168  2.1777  2.0757 -1.3124
  655MPD2    N1 9756   2.083   1.167  15.577 -0.3871 -0.2497  0.2944
  655MPD2    H7 9757   2.009   1.197  15.515  1.3424  0.1368 -1.6131
  656TMC3    C1 9758   1.978   1.318  15.710 -0.9398 -0.1320  0.1840
  656TMC3    C2 9759   1.927   1.356  15.834 -0.6235  0.7279  0.2064
  656TMC3    C3 9760   1.855   1.472  15.837  0.4342 -0.2215  0.0725
  656TMC3    C4 9761   1.959   1.397  15.600 -0.0308 -0.2254  0.6213
  656TMC3    C5 9762   1.880   1.501  15.605  0.3253  0.2871  0.4387
  656TMC3    C6 9763   1.826   1.537  15.724 -0.3452 -1.2239 -0.6444
  656TMC3     C 9764   2.070   1.208  15.705 -0.5737 -0.0886  1.4956
  656TMC3     O 9765   2.126   1.170  15.811  1.0865  0.2868  0.3093
  656TMC3     H 9766   1.939   1.298  15.925  1.3423 -1.6326 -1.5686
  656TMC3    H1 9767   2.010   1.379  15.507 -1.9721 -0.6430 -0.3623
  656TMC3    H2 9768   1.761   1.624  15.730 -1.2118 -1.9290  0.1895
  656TMC3    C7 9769   1.848   1.571  15.478  0.1305 -0.0416 -0.2426
  656TMC3    C8 9770   1.756   1.474  15.948 -0.3524 -0.1240 -0.3795
  656TMC3    O1 9771   1.918   1.551  15.380 -0.5699 -0.0541  0.3368
  656TMC3    O2 9772   1.726   1.360  15.997 -0.2183  0.4505 -0.0963
  657TMC3    C1 9773   1.170   0.461  15.078 -0.4690  0.3153  0.1254
  657TMC3    C2 9774   1.236   0.406  15.180 -0.2406 -0.4377 -0.3246
  657TMC3    C3 9775   1.177   0.410  15.310 -0.5592 -0.0367 -0.7166
  657TMC3    C4 9776   1.050   0.520  15.084  0.1696 -0.5001 -0.1500
  657TMC3    C5 9777   0.995   0.514  15.208  0.2206  0.1191 -0.0407
  657TMC3    C6 9778   1.055   0.457  15.321  0.1360  0.0890  0.8565
  657TMC3     C 9779   1.208   0.430  14.949  0.3681  0.5525  0.1972
  657TMC3     O 9780   1.125   0.384  14.873  0.3431  0.3231 -0.0115
  657TMC3     H 9781   1.322   0.347  15.150  0.0292  0.7631 -1.9032
  657TMC3    H1 9782   0.995   0.547  14.994  2.7586  2.6555 -0.7894
  657TMC3    H2 9783   1.000   0.464  15.414 -0.6766 -0.5523  0.4233
  657TMC3    C7 9784   0.857   0.572  15.222  0.5527  0.5292  0.0785
  657TMC3    C8 9785   1.259   0.348  15.414  0.2564 -0.6512  0.0723
  657TMC3    O1 9786   0.796   0.591  15.119  0.1368  0.0771 -0.8416
  657TMC3    O2 9787   1.193   0.316  15.510 -0.0664 -0.3168 -0.2739
  658MPD2     C 9788   2.626   1.257  14.657 -0.0919 -0.3208  0.0723
  658MPD2    C1 9789   2.502   1.242  14.600 -0.7410 -0.8945 -0.3534
  658MPD2    C2 9790   2.464   1.326  14.496  0.1195 -0.6268 -0.0228
  658MPD2    C3 9791   2.555   1.422  14.445 -0.4804  0.4157  0.1272
  658MPD2    C4 9792   2.673   1.432  14.508  0.2708 -0.4208  0.4446
  658MPD2    C5 9793   2.710   1.355  14.620  0.4523 -0.2080  0.4132
  658MPD2     H 9794   2.361   1.327  14.462  0.7034 -2.1821 -1.8972
  658MPD2    H1 9795   2.739   1.512  14.477 -0.7539  0.0770 -0.4554
  658MPD2    H2 9796   2.662   1.195  14.738  1.1627 -2.5936 -2.2668
  658MPD2    H3 9797   2.811   1.370  14.655  0.6917  2.7016 -1.4608
  658MPD2     N 9798   2.507   1.513  14.347 -0.2996 -0.2949  0.0566
  658MPD2    H5 9799   2.410   1.493  14.328 -0.6812  2.1041 -0.5867
  658MPD2    N1 9800   2.424   1.143  14.663 -0.0298 -0.1139 -0.4364
  658MPD2    H7 9801   2.465   1.103  14.746  0.8532  0.2271 -0.7076
  659TMC3    C1 9802   2.229   1.030  14.748  0.0039 -0.4490  1.2719
  659TMC3    C2 9803   2.289   1.037  14.873 -0.3739  0.5687 -0.3253
  659TMC3    C3 9804   2.227   0.978  14.982  0.5488 -0.5975 -0.3952
  659TMC3    C4 9805   2.099   1.005  14.738 -0.5081 -0.6280 -0.3510
  659TMC3    C5 9806   2.036   0.957  14.853  0.1156 -0.7624  0.0772
  659TMC3    C6 9807   2.099   0.939  14.973 -0.1523  0.3030 -0.7038
  659TMC3     C 9808   2.294   1.103  14.634 -0.2401  0.3230 -0.1535
  659TMC3     O 9809   2.236   1.130  14.529  0.1302 -0.3232  0.0985
  659TMC3     H 9810   2.395   1.050  14.888 -0.5926 -1.6898  3.1050
  659TMC3    H1 9811   2.056   1.009  14.639 -0.1204 -4.0815 -0.6509
  659TMC3    H2 9812   2.042   0.894  15.053  0.1540  0.4484 -0.4029
  659TMC3    C7 9813   1.904   0.990  14.865  0.0722  0.1697 -0.3207
  659TMC3    C8 9814   2.240   1.050  15.105  0.4241 -0.3130 -0.1350
  659TMC3    O1 9815   1.816   0.940  14.796  0.3045  0.8984 -0.0194
  659TMC3    O2 9816   2.174   1.151  15.112  0.0549 -0.2123  0.2020
  660MPD2     C 9817   0.316   0.493  12.525  0.1542  0.6615 -0.4412
  660MPD2    C1 9818   0.199   0.442  12.469 -0.1271 -0.3508 -0.0285
  660MPD2    C2 9819   0.113   0.361  12.540  0.3446  0.2531 -0.2815
  660MPD2    C3 9820   0.129   0.337  12.674 -0.0468 -0.2855  0.3357
  660MPD2    C4 9821   0.241   0.394  12.732  1.0270 -0.4141 -0.1447
  660MPD2    C5 9822   0.338   0.465  12.660  0.1296  0.2856 -0.6123
  660MPD2     H 9823   0.025   0.329  12.485  0.4727  1.0298 -0.9365
  660MPD2    H1 9824   0.265   0.385  12.838 -1.2467 -0.2101  0.3756
  660MPD2    H2 9825   0.397   0.551  12.482  1.0663 -0.1797  0.1545
  660MPD2    H3 9826   0.438   0.482  12.699  0.0816 -1.6553  0.3572
  660MPD2     N 9827   0.037   0.266  12.755 -0.3519 -0.1033  0.0530
  660MPD2    H5 9828   0.061   0.264  12.853  0.6244  0.6339 -0.1713
  660MPD2    N1 9829   0.180   0.454  12.326  0.4417  0.4397 -0.4225
  660MPD2    H7 9830   0.091   0.423  12.289 -0.0324  1.4791 -0.1397
  661TMC3    C1 9831   0.188   0.529  12.112 -0.2077  0.2511 -0.1646
  661TMC3    C2 9832   0.160   0.654  12.066  0.3460  0.3647  0.0560
  661TMC3    C3 9833   0.030   0.674  12.019 -0.3893  0.0056 -0.2265
  661TMC3    C4 9834   0.098   0.427  12.083  0.3702 -0.1135 -0.1511
  661TMC3    C5 9835   4.712   0.452  12.029  0.0249  0.1662  0.8228
  661TMC3    C6 9836   4.674   0.579  12.002  0.3572  0.3063  0.2811
  661TMC3     C 9837   0.261   0.528  12.241  0.1245  0.4531 -0.5908
  661TMC3     O 9838   0.348   0.608  12.266 -0.0812 -0.3660 -0.3280
  661TMC3     H 9839   0.226   0.739  12.070 -0.6909  1.0890  1.7398
  661TMC3    H1 9840   0.118   0.329  12.123  0.8765  0.0489 -0.0090
  661TMC3    H2 9841   4.579   0.607  11.956  0.2989 -1.0558 -0.4160
  661TMC3    C7 9842   4.623   0.371  12.105 -0.3511  0.1728  0.3489
  661TMC3    C8 9843   4.721   0.807  12.008 -0.2368  0.4635 -0.1121
  661TMC3    O1 9844   4.658   0.333  12.217  0.5124  0.0200  0.1586
  661TMC3    O2 9845   4.699   0.842  11.895 -0.0013 -1.0267  0.1577
  662MPD2     C 9846   0.498   4.406  17.005 -0.3852 -0.5041 -0.2315
  662MPD2    C1 9847   0.473   4.328  17.114 -0.0555 -0.8702  0.6834
  662MPD2    C2 9848   0.412   4.375  17.226  0.5656 -0.6613 -0.8303
  662MPD2    C3 9849   0.351   4.501  17.221 -0.9498  0.4948 -0.5794
  662MPD2    C4 9850   0.365   4.577  17.105 -0.4953  0.0455  0.1441
  662MPD2    C5 9851   0.451   4.532  17.013 -1.0370  0.1108  0.0756
  662MPD2     H 9852   0.417   4.308  17.311  1.2810 -0.1274 -0.4518
  662MPD2    H1 9853   0.314   4.671  17.089 -0.8141 -0.2791 -0.7262
  662MPD2    H2 9854   0.557   4.378  16.919  0.3406  1.7065 -0.4559
  662MPD2    H3 9855   0.469   4.593  16.925 -1.0283  0.8881  0.6119
  662MPD2     N 9856   0.268   4.544  17.327  0.0988  0.2389 -0.2167
  662MPD2    H5 9857   0.220   4.634  17.324  1.6398  1.0844  0.3708
  662MPD2    N1 9858   0.523   4.198  17.122  0.1465  0.6727 -0.3802
  662MPD2    H7 9859   0.521   4.156  17.214  0.4120 -1.8372 -1.4981
  663TMC3    C1 9860   0.659   4.011  17.072  0.4489  0.3028 -0.5033
  663TMC3    C2 9861   0.687   3.995  17.203 -0.2199 -0.2780  0.4263
  663TMC3    C3 9862   0.755   3.876  17.244 -0.4681 -0.5073 -0.7868
  663TMC3    C4 9863   0.677   3.909  16.976 -0.1483 -0.0118 -0.7184
  663TMC3    C5 9864   0.725   3.785  17.023 -0.6930  0.0819 -0.7434
  663TMC3    C6 9865   0.760   3.769  17.155  0.5574  0.2824 -0.1001
  663TMC3     C 9866   0.584   4.121  17.022  0.0584 -0.2292  0.5593
  663TMC3     O 9867   0.584   4.146  16.901  0.0426 -0.4855  0.3307
  663TMC3     H 9868   0.685   4.080  17.270 -0.0936  0.8557 -1.0157
  663TMC3    H1 9869   0.660   3.924  16.870  0.0541 -0.9909 -0.8897
  663TMC3    H2 9870   0.817   3.687  17.195  0.2461  0.3142  0.3988
  663TMC3    C7 9871   0.718   3.672  16.934 -0.2180 -0.3184 -0.3179
  663TMC3    C8 9872   0.741   3.830  17.385 -0.1249 -0.0655  0.4009
  663TMC3    O1 9873   0.718   3.696  16.818 -0.1317  1.1435 -0.2165
  663TMC3    O2 9874   0.825   3.753  17.429  1.0450 -0.1917  0.3138
  664MPD2     C 9875   3.255   2.606  17.608 -0.4647  0.0999 -0.4755
  664MPD2    C1 9876   3.303   2.738  17.609 -0.3635 -0.9205  0.0298
  664MPD2    C2 9877   3.298   2.810  17.722 -0.6636  0.8224 -0.1304
  664MPD2    C3 9878   3.244   2.762   0.087 -0.3993 -0.3633 -0.3083
  664MPD2    C4 9879   3.183   2.637   0.081 -0.3349 -0.1333 -0.0333
  664MPD2    C5 9880   3.194   2.566  17.722  0.1596  0.5916 -0.1577
  664MPD2     H 9881   3.336   2.911  17.722 -0.6938  0.8414  1.3442
  664MPD2    H1 9882   3.126   2.596   0.163 -2.6123 -0.5806 -1.8444
  664MPD2    H2 9883   3.254   2.540  17.522  0.4931  0.4110 -0.7346
  664MPD2    H3 9884   3.158   2.464  17.716 -2.9755  1.6617  0.4015
  664MPD2     N 9885   3.249   2.849   0.198 -0.2796  0.5221  0.5420
  664MPD2    H5 9886   3.285   2.943   0.182 -1.3777  1.1217  1.6089
  664MPD2    N1 9887   3.340   2.806  17.496  0.7462 -0.1042  0.1514
  664MPD2    H7 9888   3.347   2.907  17.506 -1.6222  0.1903 -0.9731
  665TMC3    C1 9889   3.208   2.919   0.421 -0.3668 -0.4920  0.1167
  665TMC3    C2 9890   3.155   2.886   0.541 -0.0474 -0.3647 -0.3266
  665TMC3    C3 9891   3.173   2.974   0.644 -0.2430 -0.7468 -0.5771
  665TMC3    C4 9892   3.273   3.041   0.402 -0.6746  0.3369  0.1547
  665TMC3    C5 9893   3.274   3.132   0.507  0.1447  0.2537 -0.0487
  665TMC3    C6 9894   3.221   3.103   0.632 -0.2499 -0.0460  0.0410
  665TMC3     C 9895   3.211   2.808   0.322  0.0423 -0.1009  0.4367
  665TMC3     O 9896   3.191   2.691   0.357 -0.0104 -0.2361  0.0176
  665TMC3     H 9897   3.106   2.793   0.563 -1.9990 -0.0167 -3.1941
  665TMC3    H1 9898   3.329   3.066   0.313 -0.4551 -0.0378  0.1842
  665TMC3    H2 9899   3.240   3.170   0.715 -0.5234  0.5637 -0.3788
  665TMC3    C7 9900   3.333   3.259   0.475 -0.1078 -0.5557 -0.3606
  665TMC3    C8 9901   3.115   2.937   0.770 -0.6444  0.1447 -0.0383
  665TMC3    O1 9902   3.356   3.276   0.358  0.0369  0.1500 -0.4308
  665TMC3    O2 9903   3.001   2.895   0.766 -0.0600 -0.2809  0.2627
  666TMC3    C1 9904   2.011   3.135  10.063  1.0429 -0.5994 -0.9717
  666TMC3    C2 9905   2.116   3.095   9.987  0.0160  0.2851  0.0747
  666TMC3    C3 9906   2.197   3.193   9.931 -0.3650  0.0124  0.2605
  666TMC3    C4 9907   1.985   3.261  10.091 -0.0598  0.0379 -0.8992
  666TMC3    C5 9908   2.073   3.353  10.038  0.0832  0.3054 -0.7380
  666TMC3    C6 9909   2.178   3.326   9.960  0.2761  0.5165  1.0803
  666TMC3     C 9910   1.933   3.034  10.131  0.4010 -0.5253 -0.2616
  666TMC3     O 9911   1.914   2.926  10.073 -0.0409 -0.1170 -0.3896
  666TMC3     H 9912   2.129   2.988   9.973  0.7636  0.7624 -2.9652
  666TMC3    H1 9913   1.890   3.284  10.137  1.1780  0.4180  1.5155
  666TMC3    H2 9914   2.234   3.403   9.908  0.3014  1.2562  2.1870
  666TMC3    C7 9915   2.060   3.474  10.105  0.3016  0.5948  0.3892
  666TMC3    C8 9916   2.326   3.147   9.881  0.2805 -0.8928  0.0870
  666TMC3    O1 9917   2.012   3.473  10.216  0.2319 -0.3101 -0.7688
  666TMC3    O2 9918   2.327   3.027   9.851 -0.1819  0.5882  0.3946
  667MPD2     C 9919   4.141   3.127  14.271 -0.3657  0.8645  0.1539
  667MPD2    C1 9920   4.089   3.128  14.397 -0.0850  0.0278  0.5069
  667MPD2    C2 9921   3.979   3.058  14.439  0.5200 -0.7879  0.0159
  667MPD2    C3 9922   3.909   2.990  14.337  0.0724  0.2484 -0.3078
  667MPD2    C4 9923   3.952   3.005  14.207 -0.2422  0.4159 -0.3883
  667MPD2    C5 9924   4.065   3.069  14.173 -0.5306 -0.3202 -0.1683
  667MPD2     H 9925   3.950   3.063  14.543  0.5552 -0.3722  0.0041
  667MPD2    H1 9926   3.900   2.952  14.128 -1.0236  0.6558 -0.0317
  667MPD2    H2 9927   4.215   3.192  14.225 -0.9753  1.2960 -0.2120
  667MPD2    H3 9928   4.073   3.101  14.070  2.5995 -1.0746 -0.1601
  667MPD2     N 9929   3.793   2.917  14.352  0.7616  0.1106  0.5037
  667MPD2    H5 9930   3.742   2.890  14.268  2.8501 -1.2971 -0.3091
  667MPD2    N1 9931   4.159   3.194  14.497  0.0014 -0.1437  0.2302
  667MPD2    H7 9932   4.120   3.193  14.591 -0.1769 -1.4728  0.1440
  668TMC3    C1 9933   4.335   3.311  14.610  0.1395 -0.1402  0.1007
  668TMC3    C2 9934   4.412   3.424  14.612 -0.1159  0.5522 -0.4019
  668TMC3    C3 9935   4.465   3.467  14.730  0.6511 -0.2531 -0.0467
  668TMC3    C4 9936   4.303   3.243  14.729  0.3090  0.3295 -0.0036
  668TMC3    C5 9937   4.362   3.288  14.839  0.3578 -0.2128  0.9534
  668TMC3    C6 9938   4.440   3.400  14.849  0.0734 -0.6038 -0.5883
  668TMC3     C 9939   4.276   3.268  14.480 -0.2213  0.0795 -0.4769
  668TMC3     O 9940   4.339   3.294  14.379  0.4336 -0.3912  0.0626
  668TMC3     H 9941   4.409   3.478  14.518  1.4934  1.9878  0.3949
  668TMC3    H1 9942   4.241   3.154  14.729  0.0930  0.4883  2.4397
  668TMC3    H2 9943   4.476   3.441  14.943 -0.0625  0.8605 -1.1763
  668TMC3    C7 9944   4.355   3.203  14.959 -0.1794 -0.5865 -0.1274
  668TMC3    C8 9945   4.544   3.587  14.739  0.2643  0.0806  0.4417
  668TMC3    O1 9946   4.412   3.241  15.060 -0.4521 -0.2509 -0.2350
  668TMC3    O2 9947   4.568   3.638  14.851  0.1981 -0.2521 -0.0081
  669TMC3    C1 9948   2.489   2.984  14.818 -0.4072 -0.2734 -0.2671
  669TMC3    C2 9949   2.385   3.056  14.757  0.0783  0.0704 -0.2690
  669TMC3    C3 9950   2.404   3.129  14.642 -0.6120 -0.2782  0.2379
  669TMC3    C4 9951   2.621   3.006  14.783 -0.5994  0.5597  0.6476
  669TMC3    C5 9952   2.637   3.084  14.666 -0.3769 -0.4333 -0.8724
  669TMC3    C6 9953   2.533   3.143  14.595  0.1258 -0.1798  0.0193
  669TMC3     C 9954   2.443   2.860  14.886  0.6689  0.1278  0.0597
  669TMC3     O 9955   2.325   2.833  14.878 -0.7309  0.3628 -0.3392
  669TMC3     H 9956   2.285   3.041  14.797  0.3455  2.1155  1.2178
  669TMC3    H1 9957   2.701   2.949  14.829  0.1111  1.1746  0.1648
  669TMC3    H2 9958   2.559   3.188  14.500 -0.7956  1.1444  0.4028
  669TMC3    C7 9959   2.763   3.122  14.620 -0.4153  0.3928  0.1371
  669TMC3    C8 9960   2.285   3.162  14.573 -0.2675  0.2687 -0.1711
  669TMC3    O1 9961   2.777   3.172  14.513  0.3282  0.3540 -0.2345
  669TMC3    O2 9962   2.175   3.124  14.620  0.1995  0.0028 -0.1310
  670MPD2     C 9963   0.068   0.447  13.386 -0.3064 -0.2507  0.2063
  670MPD2    C1 9964   0.180   0.414  13.458  0.5999 -0.1731  0.2035
  670MPD2    C2 9965   0.183   0.423  13.596 -0.6431 -0.2275  0.7227
  670MPD2    C3 9966   0.082   0.476  13.670 -0.0644  0.1858 -0.3992
  670MPD2    C4 9967   4.716   0.519  13.594 -0.5455  0.3217 -0.0350
  670MPD2    C5 9968   4.709   0.508  13.461  0.0377 -0.6509 -0.3837
  670MPD2     H 9969   0.272   0.383  13.644  1.4835 -0.5419 -3.4552
  670MPD2    H1 9970   4.622   0.550  13.638 -1.1208  1.3463 -1.9861
  670MPD2    H2 9971   0.050   0.416  13.284  0.0551  1.7986 -0.4829
  670MPD2    H3 9972   4.612   0.534  13.420  1.4640  0.0975 -3.3050
  670MPD2     N 9973   0.085   0.484  13.812  0.5755  0.2697 -0.0560
  670MPD2    H5 9974   0.162   0.431  13.852  0.9722  0.7841 -0.1362
  670MPD2    N1 9975   0.291   0.352  13.401 -0.4750  0.2525 -0.1147
  670MPD2    H7 9976   0.353   0.305  13.466 -1.0400 -2.1683 -1.3269
  671TMC3    C1 9977   0.021   0.493  14.030 -0.2441  0.7157 -1.0494
  671TMC3    C2 9978   0.155   0.490  14.053 -0.1465 -0.2816 -0.5809
  671TMC3    C3 9979   0.203   0.411  14.150  0.4159  0.4097  0.1656
  671TMC3    C4 9980   4.675   0.409  14.098  0.1162 -0.1938  0.0622
  671TMC3    C5 9981   4.727   0.319  14.183  0.2384  0.1655  0.1631
  671TMC3    C6 9982   0.126   0.323  14.215  0.5897 -0.4490 -0.1163
  671TMC3     C 9983   4.723   0.533  13.894  0.3188 -0.7970 -0.1469
  671TMC3     O 9984   4.614   0.581  13.872  0.0607 -0.3843 -0.4169
  671TMC3     H 9985   0.209   0.577  14.018 -0.0657 -1.4045 -3.2402
  671TMC3    H1 9986   4.571   0.392  14.070  0.4984 -1.2808 -0.6761
  671TMC3    H2 9987   0.180   0.244  14.267 -1.2057 -0.6127  1.4957
  671TMC3    C7 9988   4.699   0.190  14.135  0.3526 -0.3236  0.0703
  671TMC3    C8 9989   0.336   0.371  14.118 -0.1030 -0.6653 -0.1427
  671TMC3    O1 9990   0.027   0.163  14.033  0.5210 -0.4364  0.0273
  671TMC3    O2 9991   0.362   0.372  14.000  0.4246  0.5560  0.5126
  672MPD2     C 9992   4.699   1.547   0.986 -0.1076  0.0090  0.0297
  672MPD2    C1 9993   0.057   1.454   1.009 -0.3631 -0.3324 -0.0301
  672MPD2    C2 9994   0.164   1.490   1.087  0.1017 -0.9787  0.2573
  672MPD2    C3 9995   0.178   1.617   1.141  0.4960 -0.2968  0.1143
  672MPD2    C4 9996   0.075   1.701   1.121  0.3215 -0.2887  0.1207
  672MPD2    C5 9997   4.703   1.668   1.051 -0.2459  0.4266 -0.6627
  672MPD2     H 9998   0.256   1.433   1.084  0.9199  0.3065  0.8763
  672MPD2    H1 9999   0.083   1.802   1.161 -1.9580  0.0295 -0.2212
  672MPD2    H210000   4.615   1.515   0.926  0.0867  0.8619 -0.6982
  672MPD2    H310001   4.628   1.743   1.029 -0.2311  0.2860 -1.1818
  672MPD2     N10002   0.291   1.671   1.205  0.1366  0.6606  0.0907
  672MPD2    H510003   0.295   1.768   1.233 -1.6057  0.5440  0.7126
  672MPD2    N110004   0.071   1.337   0.925  0.5680 -0.8777 -0.2275
  672MPD2    H710005   0.144   1.273   0.953  0.6406 -0.6734  0.0551
  673TMC3    C110006   0.038   1.182   0.750  0.1741 -0.6237 -0.7032
  673TMC3    C210007   0.100   1.084   0.821  0.0320 -0.5033 -0.4851
  673TMC3    C310008   0.122   0.972   0.745  0.5041 -0.7157 -0.6134
  673TMC3    C410009   0.019   1.175   0.617  0.5806  0.1412 -0.7265
  673TMC3    C510010   0.065   1.069   0.544  0.3855 -0.4725 -0.6023
  673TMC3    C610011   0.108   0.959   0.607  0.0759 -0.4448 -0.0957
  673TMC3     C10012   4.735   1.307   0.816  0.3962 -0.3768 -0.6780
  673TMC3     O10013   4.656   1.378   0.756  0.2559  0.0390 -0.3505
  673TMC3     H10014   0.115   1.079   0.928 -0.5439  1.0526 -0.3326
  673TMC3    H110015   4.707   1.257   0.568 -1.5398 -0.4365  0.5472
  673TMC3    H210016   0.126   0.864   0.557  0.6765 -1.3578  1.8448
  673TMC3    C710017   0.106   1.080   0.408 -0.2615 -0.4625  0.3489
  673TMC3    C810018   0.140   0.847   0.814 -0.4120 -0.3922  0.0032
  673TMC3    O110019   0.186   0.998   0.364  0.0686  0.2732 -0.0962
  673TMC3    O210020   0.092   0.748   0.766 -0.0398  0.4587  0.5303
  674MPD2     C10021   0.553   4.672  17.540 -0.4169  0.1732  0.0562
  674MPD2    C110022   0.492   4.688  17.664 -0.1119 -0.2452 -0.0493
  674MPD2    C210023   0.458   0.073  17.711 -0.6183 -0.0893 -0.2878
  674MPD2    C310024   0.514   0.186  17.648  0.1699 -0.7756 -0.2702
  674MPD2    C410025   0.591   0.172  17.540  0.5954  0.0892 -0.2535
  674MPD2    C510026   0.601   0.046  17.479  0.6020 -0.3838  0.8351
  674MPD2     H10027   0.405   0.079   0.050  2.1480 -1.3901  1.3638
  674MPD2    H110028   0.642   0.258  17.497 -0.5174  0.8685 -0.0267
  674MPD2    H210029   0.598   4.577  17.512  0.1230 -0.6706  3.6759
  674MPD2    H310030   0.649   0.032  17.383 -0.2003 -1.5760  0.6062
  674MPD2     N10031   0.511   0.299  17.735 -0.1380  0.2814  0.0469
  674MPD2    H510032   0.461   0.287   0.069  0.7474 -0.1237  0.4886
  674MPD2    N110033   0.471   4.568  17.740  0.2419  0.2741 -0.4176
  674MPD2    H710034   0.468   4.479  17.691  2.0203 -1.1690  2.1001
  675TMC3    C110035   0.511   4.637   0.212 -0.7099  0.4508 -0.2415
  675TMC3    C210036   0.437   4.649   0.324 -0.0041  0.2240 -0.7561
  675TMC3    C310037   0.482   4.737   0.419  0.6528  0.2217  0.6127
  675TMC3    C410038   0.633   4.700   0.190  0.3287  0.2116 -0.1512
  675TMC3    C510039   0.677   0.043   0.291 -0.1189 -0.0408  0.6290
  675TMC3    C610040   0.599   0.070   0.395 -0.9021  0.7126  0.1580
  675TMC3     C10041   0.459   4.540   0.116  0.2923 -0.0897  0.8899
  675TMC3     O10042   0.433   4.431   0.165  0.3493 -0.2414  0.1997
  675TMC3     H10043   0.340   4.603   0.335  0.3000 -0.4732 -0.9591
  675TMC3    H110044   0.697   4.674   0.106  0.8754 -0.5142  0.4989
  675TMC3    H210045   0.636   0.145   0.464 -0.9277  0.5792  0.3161
  675TMC3    C710046   0.798   0.125   0.275 -0.2727  0.1194  0.8455
  675TMC3    C810047   0.396   0.020   0.531  0.0625 -0.2722 -0.4784
  675TMC3    O110048   0.857   0.169   0.376 -0.2338  0.5556  0.2331
  675TMC3    O210049   0.282   4.724   0.516  0.7483 -0.0876 -0.4343
  676MPD2     C10050   3.373   4.042  10.762 -1.0584  0.1096 -0.1831
  676MPD2    C110051   3.265   3.997  10.834 -0.5189  0.5135 -0.2519
  676MPD2    C210052   3.208   3.887  10.798  0.1665  0.3291  0.0886
  676MPD2    C310053   3.246   3.814  10.691  0.1293  0.2347  0.7392
  676MPD2    C410054   3.344   3.862  10.605 -0.0175 -0.0366 -0.8742
  676MPD2    C510055   3.407   3.971  10.650  0.4131  0.0751  0.4807
  676MPD2     H10056   3.120   3.855  10.854  0.1485  4.2446  2.2842
  676MPD2    H110057   3.370   3.808  10.516  2.9760 -1.2361  0.7351
  676MPD2    H210058   3.433   4.129  10.787 -1.0072 -0.6607  2.3573
  676MPD2    H310059   3.495   3.998  10.593  0.6055 -0.8117  0.3643
  676MPD2     N10060   3.189   3.692  10.657 -0.6752  0.6165 -0.6208
  676MPD2    H510061   3.202   3.648  10.566  0.5532 -2.3179  1.0106
  676MPD2    N110062   3.217   4.070  10.948  0.1932 -0.0834 -0.2590
  676MPD2    H710063   3.138   4.027  10.995 -0.8283  1.6831 -0.3908
  677TMC3    C110064   3.192   4.241  11.103 -0.3004 -0.1126  0.3167
  677TMC3    C210065   3.066   4.189  11.117  0.0153 -0.7812 -0.7799
  677TMC3    C310066   3.006   4.227  11.238  0.4248  0.1181  0.0903
  677TMC3    C410067   3.256   4.314  11.198  0.0118  0.2490 -0.5029
  677TMC3    C510068   3.195   4.337  11.316  0.9334 -0.1851  0.1085
  677TMC3    C610069   3.066   4.301  11.333  0.1423  0.6690 -0.6619
  677TMC3     C10070   3.272   4.182  11.000 -0.0711  0.2491 -0.0191
  677TMC3     O10071   3.365   4.257  10.962 -0.1163 -0.0706 -0.1641
  677TMC3     H10072   3.007   4.136  11.043  0.8210 -1.0478 -1.2295
  677TMC3    H110073   3.364   4.313  11.196 -0.0090 -1.1602 -0.7518
  677TMC3    H210074   3.016   4.320  11.427  2.1709 -4.1932  1.4279
  677TMC3    C710075   3.274   4.359  11.435 -0.6332  0.0516 -0.1570
  677TMC3    C810076   2.933   4.112  11.297 -0.2926 -0.0447 -1.1104
  677TMC3    O110077   3.239   4.298  11.534  0.1051 -0.7072  0.5211
  677TMC3    O210078   2.848   4.051  11.230 -0.3254 -0.5486 -0.3453
  678MPD2     C10079   4.462   4.538   1.380 -0.3765 -0.4313  0.5010
  678MPD2    C110080   4.508   4.478   1.270  0.3747  0.7621 -0.4486
  678MPD2    C210081   4.413   4.453   1.177 -0.3410  0.2070 -0.5088
  678MPD2    C310082   4.277   4.481   1.195  0.0052  0.2493 -0.6303
  678MPD2    C410083   4.231   4.537   1.313 -0.0738  0.3532 -0.0118
  678MPD2    C510084   4.329   4.564   1.407 -0.6404  0.2966 -0.3568
  678MPD2     H10085   4.436   4.392   1.091 -0.8153 -1.9460  0.8950
  678MPD2    H110086   4.128   4.543   1.346 -0.0233  0.5632  0.1118
  678MPD2    H210087   4.532   4.553   1.461 -0.3472 -2.1666  0.8041
  678MPD2    H310088   4.300   4.608   1.502 -0.4415 -0.9480  0.2898
  678MPD2     N10089   4.180   4.436   1.099 -0.1676 -0.6299 -0.1432
  678MPD2    H510090   4.214   4.375   1.025  1.0827  1.0332 -0.9696
  678MPD2    N110091   4.642   4.451   1.243 -0.4994 -0.2081 -0.7645
  678MPD2    H710092   4.675   4.399   1.162  0.5715  0.2630 -0.6254
  679TMC3    C110093   0.328   4.313   1.299  0.6739 -0.8184 -0.2281
  679TMC3    C210094   0.216   4.364   1.359 -0.3807  0.5988 -0.3050
  679TMC3    C310095   0.135   4.439   1.276  0.0244  0.9761 -0.1671
  679TMC3    C410096   0.370   4.358   1.176 -0.5111 -0.7195 -1.0625
  679TMC3    C510097   0.292   4.439   1.103  0.4018  0.5215  0.1715
  679TMC3    C610098   0.165   4.476   1.149  0.4760  0.2787  0.2530
  679TMC3     C10099   0.350   4.175   1.324 -0.4894 -0.1877  0.3342
  679TMC3     O10100   0.462   4.135   1.291 -0.1809 -0.0094  0.4062
  679TMC3     H10101   0.161   4.329   1.445  4.1144 -0.1408  2.2518
  679TMC3    H110102   0.451   4.304   1.128 -0.5957  0.7396 -2.8836
  679TMC3    H210103   0.096   4.541   1.096  0.7561  0.6023  0.2831
  679TMC3    C710104   0.312   4.447   0.961 -0.2867 -0.4866  0.6532
  679TMC3    C810105   0.006   4.478   1.329  0.0531  0.3524 -0.1717
  679TMC3    O110106   0.201   4.447   0.909  0.0254 -0.1363 -0.3408
  679TMC3    O210107   0.012   4.517   1.446 -0.2272  0.0660 -0.0799
  680MPD2     C10108   4.299   2.433  13.788 -0.9567  0.2412  0.4555
  680MPD2    C110109   4.389   2.411  13.889  0.2916  0.7793 -0.1379
  680MPD2    C210110   4.481   2.508  13.929 -0.3168  0.4913 -0.3504
  680MPD2    C310111   4.483   2.631  13.866 -0.0230 -0.1906  0.0715
  680MPD2    C410112   4.391   2.652  13.764 -0.3145  0.4195 -0.1997
  680MPD2    C510113   4.307   2.554  13.717  0.5358 -0.2521 -0.0558
  680MPD2     H10114   4.544   2.473  14.010 -0.2831  1.0085 -0.1483
  680MPD2    H110115   4.391   2.748  13.714 -1.6067  0.8108  0.5458
  680MPD2    H210116   4.220   2.366  13.754 -1.1258 -0.2099  1.7613
  680MPD2    H310117   4.235   2.579  13.640 -0.6480 -0.6568  0.9117
  680MPD2     N10118   4.580   2.728  13.890  0.2164 -0.3805  0.1966
  680MPD2    H510119   4.588   2.812  13.833  1.1026  0.7503  1.9897
  680MPD2    N110120   4.381   2.293  13.967 -0.1421 -0.4095 -0.1640
  680MPD2    H710121   4.438   2.282  14.050  0.2882 -0.0957 -0.4131
  681TMC3    C110122   4.356   2.075  14.018 -0.2970 -0.0750 -0.3265
  681TMC3    C210123   4.351   2.111  14.147 -0.0721  0.9896  0.1890
  681TMC3    C310124   4.446   2.061  14.226 -0.8498 -0.2716  0.2714
  681TMC3    C410125   4.438   1.976  13.965 -0.4559  0.1350 -0.3494
  681TMC3    C510126   4.544   1.935  14.047 -0.4626  0.4051  0.0739
  681TMC3    C610127   4.550   1.981  14.180 -0.1374 -1.0052 -0.1869
  681TMC3     C10128   4.325   2.173  13.921  0.7882 -0.0527 -0.0662
  681TMC3     O10129   4.290   2.127  13.814  0.4091 -0.2844  0.2839
  681TMC3     H10130   4.276   2.172  14.196 -0.1697  0.2212  0.9948
  681TMC3    H110131   4.435   1.957  13.858 -0.6788 -2.9746  0.1904
  681TMC3    H210132   4.632   1.938  14.237  1.2524  0.1597 -1.3146
  681TMC3    C710133   4.661   1.877  13.992 -0.4224 -0.9177 -0.8614
  681TMC3    C810134   4.431   2.085  14.369 -0.0099 -1.0460 -0.2983
  681TMC3    O110135   4.729   1.811  14.068 -0.7401  0.1998 -0.2581
  681TMC3    O210136   4.313   2.095  14.408  0.0964  0.0122  0.6769
  682MPD2     C10137   2.079   4.363  11.124 -0.2356  0.7616 -0.5142
  682MPD2    C110138   1.976   4.274  11.128  0.0946  0.3954  0.4257
  682MPD2    C210139   1.884   4.286  11.226  0.4611 -0.4323 -0.8614
  682MPD2    C310140   1.896   4.373  11.339  0.8920 -1.0179  0.5794
  682MPD2    C410141   2.010   4.454  11.341  0.4633  0.0106 -0.0609
  682MPD2    C510142   2.091   4.453  11.225  0.0211 -0.1592 -0.0655
  682MPD2     H10143   1.802   4.215  11.218 -0.7273  0.8099  0.3490
  682MPD2    H110144   2.030   4.518  11.426 -1.3462 -1.6803  1.6352
  682MPD2    H210145   2.152   4.366  11.043 -0.1414  0.3174 -0.4462
  682MPD2    H310146   2.172   4.525  11.222 -0.1347  0.0187 -0.0627
  682MPD2     N10147   1.805   4.381  11.451 -0.7531 -0.4442 -0.1826
  682MPD2    H510148   1.832   4.429  11.536 -2.7666 -0.3216  0.3894
  682MPD2    N110149   1.942   4.181  11.025 -0.3559  0.1557 -0.8291
  682MPD2    H710150   1.850   4.138  11.024  0.1725 -0.9551 -1.8489
  683TMC3    C110151   1.667   4.307  11.830 -0.3704 -0.5549 -0.2895
  683TMC3    C210152   1.579   4.204  11.834  0.4923  0.2951 -1.0836
  683TMC3    C310153   1.515   4.153  11.727 -0.5320 -1.1201 -0.0526
  683TMC3    C410154   1.706   4.352  11.702 -0.5637 -0.3790 -0.6227
  683TMC3    C510155   1.634   4.293  11.595  0.2332  0.0537  0.5053
  683TMC3    C610156   1.532   4.202  11.600  0.7755 -0.8043 -0.0482
  683TMC3     C10157   1.741   4.359  11.937 -0.5109  0.2146  0.1468
  683TMC3     O10158   1.800   4.462  11.917  0.1666  0.2894 -0.1290
  683TMC3     H10159   1.545   4.168  11.930 -0.6086  1.6662 -0.9451
  683TMC3    H110160   1.769   4.439  11.696 -1.7638  0.6313  1.7400
  683TMC3    H210161   1.496   4.153  11.511 -0.6012 -0.4196  0.3037
  683TMC3    C710162   1.684   4.316  11.456 -0.4704 -0.6841 -0.1896
  683TMC3    C810163   1.429   4.038  11.738  0.2037 -0.0236 -0.6440
  683TMC3    O110164   1.622   4.261  11.369 -0.2821  0.1324 -0.1419
  683TMC3    O210165   1.344   4.030  11.646 -0.1539 -0.7742 -0.4294
  684MPD2     C10166   0.652   3.040  16.054  0.7504  0.7974 -0.1114
  684MPD2    C110167   0.568   3.091  15.957  0.2969  0.1930  0.6688
  684MPD2    C210168   0.483   3.198  15.983  0.4506 -0.4597  0.0866
  684MPD2    C310169   0.492   3.271  16.103 -0.5499  0.2146 -0.4065
  684MPD2    C410170   0.592   3.233  16.191  0.0695  0.2152  0.0268
  684MPD2    C510171   0.663   3.116  16.169 -0.5630  0.1151 -0.2889
  684MPD2     H10172   0.422   3.227  15.899  0.8814 -0.3456 -0.1846
  684MPD2    H110173   0.604   3.297  16.278 -0.7471  0.7094 -0.2219
  684MPD2    H210174   0.709   2.948  16.049 -0.9468 -0.2244 -0.7612
  684MPD2    H310175   0.724   3.085  16.253 -1.4121 -2.6055 -0.6979
  684MPD2     N10176   0.426   3.392  16.123 -0.2111  0.4398 -0.1357
  684MPD2    H510177   0.449   3.447  16.205  1.2063 -0.5847  0.1408
  684MPD2    N110178   0.572   3.055  15.819 -0.5094 -0.3434 -0.6633
  684MPD2    H710179   0.497   3.091  15.761 -1.4580 -1.2971 -0.0253
  685TMC3    C110180   0.663   3.016  15.616 -0.3817 -0.6035  0.4761
  685TMC3    C210181   0.537   3.038  15.563  0.1722  0.0232 -0.5102
  685TMC3    C310182   0.518   3.122  15.453 -0.2866 -0.5198  0.6339
  685TMC3    C410183   0.769   3.063  15.558  0.9315 -0.3839  0.1411
  685TMC3    C510184   0.749   3.159  15.462 -0.3198  0.2018  0.1897
  685TMC3    C610185   0.622   3.187  15.404  0.0449  0.0626  0.5828
  685TMC3     C10186   0.678   2.996  15.754 -0.7649 -1.0418 -0.5020
  685TMC3     O10187   0.792   2.975  15.802 -0.1107 -0.2046 -0.0537
  685TMC3     H10188   0.455   2.980  15.604 -1.1558  2.3097  0.0512
  685TMC3    H110189   0.862   3.026  15.599  0.4471  0.7548  2.2640
  685TMC3    H210190   0.620   3.257  15.321  0.5053  0.4702  0.9183
  685TMC3    C710191   0.847   3.267  15.469 -0.6007 -0.0000  0.2598
  685TMC3    C810192   0.395   3.118  15.375 -0.3041  0.0756  0.1762
  685TMC3    O110193   0.844   3.357  15.387  0.3425 -0.2420 -0.3850
  685TMC3    O210194   0.391   3.170  15.260 -0.3306 -0.1499 -0.6532
  686MPD2     C10195   1.610   3.362  15.765  0.1147 -0.1439 -0.8296
  686MPD2    C110196   1.721   3.295  15.758 -0.0701 -0.5692  0.3733
  686MPD2    C210197   1.820   3.320  15.658 -0.1681 -0.3842  0.6300
  686MPD2    C310198   1.787   3.403  15.549 -0.0403  0.0107 -0.3495
  686MPD2    C410199   1.659   3.464  15.551  0.0993 -0.1052  0.3829
  686MPD2    C510200   1.574   3.446  15.658  0.1217 -0.1871  0.0077
  686MPD2     H10201   1.917   3.270  15.663  0.0326  0.1608  2.1306
  686MPD2    H110202   1.616   3.528  15.475  1.8124  0.8030  0.1717
  686MPD2    H210203   1.542   3.357  15.850 -0.2283  1.9734 -0.9814
  686MPD2    H310204   1.483   3.505  15.666  0.2125 -0.0463  0.0114
  686MPD2     N10205   1.874   3.420  15.439  0.5844  0.0437 -0.9356
  686MPD2    H510206   1.824   3.452  15.356 -0.3491  1.8345  0.3103
  686MPD2    N110207   1.743   3.196  15.862 -0.2250  0.5548 -0.4608
  686MPD2    H710208   1.660   3.181  15.918 -0.6367  0.9395 -0.9677
  687TMC3    C110209   1.953   3.224  15.353  0.2334  0.2580  0.1476
  687TMC3    C210210   1.823   3.213  15.307  0.5423 -0.3129 -0.2800
  687TMC3    C310211   1.744   3.106  15.338  0.5802  0.0861 -0.0081
  687TMC3    C410212   1.999   3.116  15.428  0.3230  0.0842  0.3292
  687TMC3    C510213   1.915   3.018  15.469  0.2069  0.4942 -0.0597
  687TMC3    C610214   1.786   3.005  15.425 -0.1078  0.6515 -0.6688
  687TMC3     C10215   1.978   3.336  15.435 -0.0168  0.2979 -0.8479
  687TMC3     O10216   2.076   3.345  15.508 -0.5662 -0.0563 -0.5214
  687TMC3     H10217   1.795   3.297  15.245  0.9855 -0.4665 -0.6906
  687TMC3    H110218   2.098   3.120  15.473  1.5361 -0.3754 -2.2997
  687TMC3    H210219   1.724   2.923  15.459 -0.0474  0.1539 -1.7591
  687TMC3    C710220   1.976   2.908  15.548  0.9579 -0.0304  0.1896
  687TMC3    C810221   1.600   3.110  15.320  0.1434 -0.3209 -0.0808
  687TMC3    O110222   2.074   2.945  15.614 -0.4591  0.1763 -0.4588
  687TMC3    O210223   1.538   3.022  15.375 -0.0334  0.4696  0.9397
  688MPD2     C10224   0.987   2.000  16.974  0.1133 -0.3472  0.5667
  688MPD2    C110225   0.997   1.875  17.029  0.3293  0.2927  0.4775
  688MPD2    C210226   1.099   1.787  16.984  0.3593  0.1671 -0.1602
  688MPD2    C310227   1.186   1.840  16.891  0.0169 -0.2536  0.2786
  688MPD2    C410228   1.169   1.960  16.831  0.2300 -0.5867  0.4731
  688MPD2    C510229   1.076   2.042  16.886 -0.2022 -0.6521  0.0501
  688MPD2     H10230   1.108   1.687  17.026  2.0981 -0.2076 -1.4472
  688MPD2    H110231   1.234   1.993  16.751  0.2986  0.1778  0.8454
  688MPD2    H210232   0.905   2.069  16.996  1.8232  1.0576  2.5799
  688MPD2    H310233   1.073   2.143  16.848 -0.1278 -0.6727 -0.0103
  688MPD2     N10234   1.293   1.766  16.847 -0.1398  0.4310 -0.2287
  688MPD2    H510235   1.355   1.815  16.783 -0.3066  0.7420 -0.1494
  688MPD2    N110236   0.886   1.826  17.104  0.3524 -0.7563  0.9184
  688MPD2    H710237   0.892   1.726  17.119  2.0119 -0.8990 -0.7603
  689TMC3    C110238   0.709   1.817  17.259  0.6271  0.5187 -0.7421
  689TMC3    C210239   0.675   1.884  17.376  0.0172 -0.4116  0.3039
  689TMC3    C310240   0.668   1.807  17.485  0.4181 -0.5172  0.3715
  689TMC3    C410241   0.714   1.682  17.244 -0.2044  0.2952 -0.0590
  689TMC3    C510242   0.691   1.612  17.358 -0.9609 -0.0216 -0.0402
  689TMC3    C610243   0.677   1.669  17.481  0.6806 -0.1363 -0.5412
  689TMC3     C10244   0.789   1.900  17.166  0.5792  0.0441  0.7796
  689TMC3     O10245   0.780   2.022  17.174 -0.1483 -0.4924  0.3858
  689TMC3     H10246   0.678   1.991  17.392  0.7597 -0.1541 -1.5563
  689TMC3    H110247   0.723   1.638  17.146 -1.6672  0.7923 -0.4074
  689TMC3    H210248   0.675   1.605  17.568  0.4489 -1.3751 -1.4571
  689TMC3    C710249   0.700   1.466  17.353  0.1936  0.6463 -0.5919
  689TMC3    C810250   0.636   1.858  17.609  0.1549 -0.3961 -0.1190
  689TMC3    O110251   0.745   1.419  17.453 -0.1621  0.1641 -0.3962
  689TMC3    O210252   0.666   1.976  17.627  0.2931  0.8248  0.0160
  690MPD2     C10253   3.378   3.754  15.671  0.6246  0.0158 -0.2383
  690MPD2    C110254   3.333   3.744  15.543  0.0838 -0.2145  0.5011
  690MPD2    C210255   3.365   3.833  15.451  0.7523 -0.3194  0.2597
  690MPD2    C310256   3.460   3.928  15.465  0.0436  0.0310  0.4852
  690MPD2    C410257   3.510   3.941  15.590  0.0051 -0.0150 -0.4273
  690MPD2    C510258   3.466   3.859  15.690  0.3542  0.2208 -0.5443
  690MPD2     H10259   3.334   3.813  15.349  1.2844 -0.3851  0.1131
  690MPD2    H110260   3.570   4.027  15.619  0.6539 -0.7624  0.4568
  690MPD2    H210261   3.350   3.683  15.748  0.5471 -0.2595 -0.5198
  690MPD2    H310262   3.509   3.878  15.788 -0.7988 -0.2778  0.0604
  690MPD2     N10263   3.511   3.998  15.352  0.2394  0.3914 -0.4476
  690MPD2    H510264   3.458   3.991  15.266 -1.4064  3.4234  0.3285
  690MPD2    N110265   3.259   3.635  15.493 -0.6144 -0.3762  0.2522
  690MPD2    H710266   3.242   3.631  15.393 -0.9171  1.0015  0.2477
  691TMC3    C110267   3.136   3.435  15.487 -1.0613 -0.3196  0.1931
  691TMC3    C210268   3.043   3.488  15.402  0.0679  0.6396  0.3433
  691TMC3    C310269   2.954   3.397  15.355  0.1002 -0.1022  0.0847
  691TMC3    C410270   3.132   3.303  15.527  0.0994  0.4303  0.6358
  691TMC3    C510271   3.030   3.223  15.481  0.1115 -0.2933 -0.2991
  691TMC3    C610272   2.940   3.265  15.390  0.6163  0.0692 -0.1797
  691TMC3     C10273   3.219   3.529  15.565  0.2304  0.0857 -0.0931
  691TMC3     O10274   3.231   3.506  15.686 -0.5920  0.2111 -0.6026
  691TMC3     H10275   3.043   3.590  15.366 -3.9001  0.8885  1.0424
  691TMC3    H110276   3.179   3.275  15.621  2.0465  0.6491 -0.2893
  691TMC3    H210277   2.862   3.208  15.341  0.1769 -0.9993  1.7448
  691TMC3    C710278   2.995   3.099  15.550  0.6407  0.7800  0.0169
  691TMC3    C810279   2.836   3.446  15.276  0.1713  0.2694 -0.6072
  691TMC3    O110280   3.081   3.051  15.626 -0.2600  0.2738 -0.3114
  691TMC3    O210281   2.766   3.365  15.222  0.3776  0.0180 -0.0795
  692TMC3    C110282   4.733   4.708  15.570  0.2084 -0.1889 -0.1677
  692TMC3    C210283   0.108   4.733  15.642  0.1475  0.2246 -0.1711
  692TMC3    C310284   0.187   4.630  15.669  0.4383 -0.1801 -0.9337
  692TMC3    C410285   4.696   4.582  15.529  0.1425  0.2320  0.1742
  692TMC3    C510286   0.048   4.484  15.553  0.1093  0.3656  0.9523
  692TMC3    C610287   0.156   4.503  15.633  0.2283  0.7273 -0.0584
  692TMC3     C10288   4.621   0.062  15.569  0.7829 -0.1563  0.3348
  692TMC3     O10289   4.515   0.015  15.535 -0.0931  0.6396  0.5271
  692TMC3     H10290   0.144   0.093  15.667  0.5659  0.2476 -0.8528
  692TMC3    H110291   4.611   4.561  15.465 -0.1261  0.5755  0.4224
  692TMC3    H210292   0.246   4.444  15.633 -0.6136 -0.5405 -3.1986
  692TMC3    C710293   0.007   4.349  15.524 -0.3487  0.1386 -0.0664
  692TMC3    C810294   0.256   4.631  15.790 -0.0634  0.2833  0.1872
  692TMC3    O110295   4.656   4.335  15.446  0.2181  0.4130 -0.2066
  692TMC3    O210296   0.271   4.525  15.848 -0.3542 -1.1035 -0.6246
  693MPD2     C10297   4.232   3.051  11.316 -0.8819  0.2637 -0.3553
  693MPD2    C110298   4.213   2.999  11.193 -0.4790 -0.5671 -0.6271
  693MPD2    C210299   4.307   2.913  11.143 -1.2031  0.4103  0.0449
  693MPD2    C310300   4.425   2.888  11.209  0.5028 -0.5899  0.4167
  693MPD2    C410301   4.447   2.951  11.332  0.4501 -0.1837  0.2246
  693MPD2    C510302   4.350   3.037  11.382  0.5848  1.0062 -0.2432
  693MPD2     H10303   4.291   2.863  11.049  0.8478  0.5556 -0.3664
  693MPD2    H110304   4.537   2.930  11.390  1.6631 -1.1153 -1.9896
  693MPD2    H210305   4.169   3.129  11.359  1.3618  2.6651 -1.4029
  693MPD2    H310306   4.363   3.096  11.472 -0.0965 -0.2527  0.6965
  693MPD2     N10307   4.529   2.796  11.174  0.2429 -0.2060 -0.2440
  693MPD2    H510308   4.613   2.817  11.225 -1.0963 -1.0874  2.2995
  693MPD2    N110309   4.095   3.033  11.131  0.6169 -0.0870  0.4544
  693MPD2    H710310   4.036   3.093  11.188  0.4660 -0.4696  0.6985
  694TMC3    C110311   3.906   3.020  10.995  0.5827  0.0600 -0.0571
  694TMC3    C210312   3.853   2.998  10.875 -0.2349 -0.3717 -0.4829
  694TMC3    C310313   3.717   3.028  10.859  0.4606  0.0494  0.5570
  694TMC3    C410314   3.839   3.083  11.093  0.3027  0.0656 -0.6133
  694TMC3    C510315   3.707   3.116  11.075  0.4501 -0.5487 -0.7010
  694TMC3    C610316   3.648   3.098  10.951 -0.5400 -0.0433  0.3410
  694TMC3     C10317   4.044   2.974  11.016 -0.5895 -0.3604  0.3513
  694TMC3     O10318   4.084   2.880  10.949 -0.1417 -0.1507  0.0494
  694TMC3     H10319   3.917   2.941  10.808  0.2763 -1.3521  0.8457
  694TMC3    H110320   3.876   3.089  11.195  1.5661  0.1680 -1.0763
  694TMC3    H210321   3.541   3.115  10.948 -0.6271 -0.2412  2.2761
  694TMC3    C710322   3.615   3.149  11.183  0.2082 -0.3452 -0.0248
  694TMC3    C810323   3.642   2.929  10.786  0.1638  0.0220 -0.1362
  694TMC3    O110324   3.523   3.222  11.160 -0.2140  0.4583 -0.1686
  694TMC3    O210325   3.525   2.930  10.812 -0.4645  0.3278 -0.4780
  695MPD2     C10326   0.523   4.657  13.223 -0.3329 -0.4065 -0.0971
  695MPD2    C110327   0.510   4.680  13.360 -0.4910 -0.2179 -0.9952
  695MPD2    C210328   0.388   4.711  13.410 -0.9742 -0.2011  0.0432
  695MPD2    C310329   0.278   4.715  13.326  0.1442  0.1199  0.3401
  695MPD2    C410330   0.294   4.686  13.194  0.3475 -0.2939  0.3784
  695MPD2    C510331   0.418   4.649  13.143  0.5645  0.1493 -0.2109
  695MPD2     H10332   0.384   4.732  13.516  0.4416 -2.3579  0.5366
  695MPD2    H110333   0.206   4.683  13.131  1.4161  0.8351 -1.2082
  695MPD2    H210334   0.623   4.640  13.184 -0.4836  1.4000 -1.2512
  695MPD2    H310335   0.433   4.628  13.038  0.4308  0.7844 -0.3593
  695MPD2     N10336   0.154   4.737  13.379  0.0985 -0.2612  0.3804
  695MPD2    H510337   0.145   4.738  13.480 -0.4522 -0.9875  0.3372
  695MPD2    N110338   0.614   4.685  13.460  0.0394 -0.2946  0.3560
  695MPD2    H710339   0.574   4.701  13.552 -0.7717  1.3196 -0.2768
  696TMC3    C110340   4.660   0.035  13.398 -0.4312  1.1695  0.6701
  696TMC3    C210341   4.657   4.699  13.509  0.4777 -0.0636 -0.4072
  696TMC3    C310342   4.539   4.691  13.578 -0.4841  0.3395  0.0520
  696TMC3    C410343   4.554   0.105  13.359 -0.5110 -0.0956  0.0912
  696TMC3    C510344   4.435   0.098  13.434  0.9341 -0.8233  0.3074
  696TMC3    C610345   4.429   0.026  13.547  0.5564 -0.4322  0.1993
  696TMC3     C10346   0.038   0.033  13.307 -0.5911  0.5642  0.3049
  696TMC3     O10347   0.032   0.088  13.197 -0.4412 -0.0730 -0.0421
  696TMC3     H10348   0.013   4.660  13.543 -0.3186 -0.4402  1.4092
  696TMC3    H110349   4.563   0.177  13.278 -0.4732 -0.8262 -0.5569
  696TMC3    H210350   4.338   0.027  13.607  0.8879  2.7755  0.6395
  696TMC3    C710351   4.348   0.213  13.425 -0.2412  0.3057 -0.2113
  696TMC3    C810352   4.564   4.657  13.719 -0.0409  0.3504 -0.6381
  696TMC3    O110353   4.291   0.236  13.320 -0.0563  0.0193 -0.2259
  696TMC3    O210354   4.681   4.654  13.757 -0.3501 -0.0766  0.0578
  697MPD2     C10355   4.399   1.600  15.761 -0.6849  0.5016  0.4235
  697MPD2    C110356   4.390   1.601  15.621 -0.6857  0.6256 -0.1884
  697MPD2    C210357   4.408   1.716  15.554  0.0582 -0.6897 -0.5507
  697MPD2    C310358   4.444   1.833  15.611  0.4682 -0.6193  0.3245
  697MPD2    C410359   4.458   1.836  15.750  0.1520  0.3258 -0.2448
  697MPD2    C510360   4.438   1.718  15.829  0.1005  0.2040  0.4299
  697MPD2     H10361   4.422   1.710  15.446  0.2949 -0.4504 -0.5336
  697MPD2    H110362   4.487   1.931  15.796  0.3024 -0.0752  0.4936
  697MPD2    H210363   4.369   1.514  15.820  0.6010  1.3610  2.3068
  697MPD2    H310364   4.457   1.717  15.935  4.1299  1.1358 -0.2697
  697MPD2     N10365   4.450   1.948  15.525 -0.1028  0.2548  1.3920
  697MPD2    H510366   4.411   1.940  15.432 -0.5505  1.9252  1.4289
  697MPD2    N110367   4.351   1.484  15.543 -0.5957 -0.0540 -0.3880
  697MPD2    H710368   4.330   1.506  15.446 -0.5897  0.3097 -0.3050
  698TMC3    C110369   4.521   2.150  15.434 -1.2354 -0.1806  0.0728
  698TMC3    C210370   4.628   2.232  15.455  0.4023  0.0020 -0.3495
  698TMC3    C310371   4.729   2.247  15.357  0.5509  0.5835 -0.2196
  698TMC3    C410372   4.503   2.098  15.311  1.0007  0.6185 -0.1275
  698TMC3    C510373   4.601   2.113  15.217  0.1684 -0.6062  0.3396
  698TMC3    C610374   4.713   2.191  15.233  0.1377  0.6172  0.9280
  698TMC3     C10375   4.502   2.071  15.553  0.1723  0.2662 -1.0136
  698TMC3     O10376   4.574   2.093  15.654 -0.2639 -0.1016  0.1941
  698TMC3     H10377   4.631   2.291  15.546  1.1509  0.7174 -0.8317
  698TMC3    H110378   4.429   2.021  15.294  1.3787  0.3864 -0.6958
  698TMC3    H210379   0.037   2.206  15.146 -1.9440  0.7408 -0.5530
  698TMC3    C710380   4.583   2.048  15.091 -0.1304 -0.0182 -0.9358
  698TMC3    C810381   0.098   2.334  15.394  0.1742 -0.1967  0.0531
  698TMC3    O110382   4.472   2.002  15.077 -0.4303  0.4938 -0.0350
  698TMC3    O210383   0.107   2.374  15.507  0.1975  0.1556  0.3186
  699TMC3    C110384   4.558   0.192  12.827  0.0029 -0.2175 -0.1088
  699TMC3    C210385   4.598   0.101  12.932  1.1961  0.4998  0.0726
  699TMC3    C310386   4.495   0.060  13.015 -0.5679 -0.1158 -0.4025
  699TMC3    C410387   4.430   0.232  12.803  0.4959 -0.4142  0.5950
  699TMC3    C510388   4.338   0.192  12.896  0.5999 -0.5528  0.4631
  699TMC3    C610389   4.369   0.113  13.001 -0.2338 -0.3097  0.3708
  699TMC3     C10390   4.655   0.212  12.718 -0.1565  0.8521 -0.4163
  699TMC3     O10391   4.608   0.205  12.604 -1.0768 -0.1710 -0.1358
  699TMC3     H10392   4.704   0.076  12.936  0.8267 -1.2471 -1.0457
  699TMC3    H110393   4.398   0.292  12.718  2.9969 -0.3240 -0.2812
  699TMC3    H210394   4.288   0.081  13.064  0.9673 -0.4498  1.8434
  699TMC3    C710395   4.202   0.240  12.875 -0.0436 -0.2891 -0.0202
  699TMC3    C810396   4.507   4.665  13.079 -0.6314  0.0647 -0.0700
  699TMC3    O110397   4.145   0.302  12.966  0.0213  0.3130 -0.6904
  699TMC3    O210398   4.412   4.616  13.136 -0.3632  0.3228  0.0457
  700TMC3    C110399   3.477   1.978  17.181  0.1363 -0.3098  0.1803
  700TMC3    C210400   3.554   1.881  17.126  0.0963 -0.1954 -0.3273
  700TMC3    C310401   3.685   1.863  17.168 -0.2589  0.1227  0.6898
  700TMC3    C410402   3.512   2.045  17.293  0.0645 -0.4375  0.0985
  700TMC3    C510403   3.636   2.012  17.348  0.1117  0.0501 -0.0205
  700TMC3    C610404   3.724   1.925  17.286  0.8548  0.0599  0.1727
  700TMC3     C10405   3.402   2.050  17.084  0.2689 -0.5938 -0.7379
  700TMC3     O10406   3.330   1.988  17.009  0.3547  0.3290 -0.1073
  700TMC3     H10407   3.529   1.848  17.026  0.5656 -0.1804 -0.4479
  700TMC3    H110408   3.443   2.113  17.341  0.0184 -1.3373  1.3047
  700TMC3    H210409   3.820   1.927  17.337 -0.0225  0.1108  1.7988
  700TMC3    C710410   3.687   2.106  17.447  0.2219  0.1290 -0.3222
  700TMC3    C810411   3.761   1.770  17.087 -0.3229  0.2105  0.4039
  700TMC3    O110412   3.803   2.151  17.426  0.0109  0.2001 -0.1337
  700TMC3    O210413   3.700   1.689  17.018  0.5066 -0.2410 -0.1322
  701TMC3    C110414   3.404   0.790  15.524 -0.3679 -0.8776 -0.0029
  701TMC3    C210415   3.372   0.721  15.411  0.2928 -0.2038  0.2480
  701TMC3    C310416   3.437   0.763  15.299  0.0662 -0.0140 -1.0273
  701TMC3    C410417   3.492   0.892  15.526  0.8910 -0.2414  0.0186
  701TMC3    C510418   3.555   0.921  15.405 -0.1589 -0.4220  0.1893
  701TMC3    C610419   3.530   0.865  15.290 -0.0084  0.7999 -0.9072
  701TMC3     C10420   3.330   0.759  15.647  0.5247 -0.1052 -0.6939
  701TMC3     O10421   3.386   0.780  15.753 -0.1297  0.7261  0.0714
  701TMC3     H10422   3.303   0.638  15.401 -2.1187  1.6033  1.8797
  701TMC3    H110423   3.525   0.934  15.620 -1.2188  0.0588  0.6229
  701TMC3    H210424   3.595   0.884  15.205 -1.3905  0.0053 -2.1529
  701TMC3    C710425   3.646   1.036  15.400  0.2117  0.7102  0.4930
  701TMC3    C810426   3.428   0.669  15.189  0.5745  0.3494  0.5620
  701TMC3    O110427   3.647   1.101  15.295 -0.0934 -0.0276 -0.1243
  701TMC3    O210428   3.413   0.551  15.221  0.3891 -0.0045  0.3303
  702MPD2     C10429   2.914   3.628  10.070  0.4609 -0.4184  0.0172
  702MPD2    C110430   2.885   3.678  10.198  0.5785 -0.1210 -0.3875
  702MPD2    C210431   2.888   3.810  10.213  0.1858 -0.1832 -0.0425
  702MPD2    C310432   2.912   3.893  10.104  0.4828 -0.1428 -0.2322
  702MPD2    C410433   2.951   3.844   9.981  0.6726 -0.0484 -0.6051
  702MPD2    C510434   2.960   3.710   9.964  0.0919  0.1504 -0.2599
  702MPD2     H10435   2.873   3.853  10.311 -1.3116 -0.5774 -0.1027
  702MPD2    H110436   2.982   3.904   9.897 -0.3017  0.5960 -0.5021
  702MPD2    H210437   2.909   3.521  10.054 -0.8282  0.1073 -3.2481
  702MPD2    H310438   2.994   3.675   9.867  1.0181 -0.1739  0.1820
  702MPD2     N10439   2.884   4.025  10.128  0.1313 -0.2682 -0.4349
  702MPD2    H510440   2.831   4.051  10.211 -0.5480 -0.4406 -0.8172
  702MPD2    N110441   2.865   3.597  10.315 -0.1028 -0.0489  0.2590
  702MPD2    H710442   2.846   3.647  10.401 -1.1913 -1.5200  0.8784
  703TMC3    C110443   2.943   4.258  10.128 -0.4610 -0.3939 -0.0429
  703TMC3    C210444   2.848   4.272  10.228  0.1127  0.0820 -0.2322
  703TMC3    C310445   2.884   4.338  10.334 -0.3184 -0.2664  0.0483
  703TMC3    C410446   3.072   4.300  10.137 -0.2203 -0.4811 -0.1137
  703TMC3    C510447   3.106   4.368  10.253  0.3113 -0.0010  0.4918
  703TMC3    C610448   3.010   4.389  10.349  0.4744 -0.1041  0.6589
  703TMC3     C10449   2.942   4.124  10.054 -0.0467 -0.5586  0.2175
  703TMC3     O10450   3.003   4.119   9.948 -0.7281 -0.0577  0.4134
  703TMC3     H10451   2.747   4.242  10.203 -0.4626  1.6057  0.2265
  703TMC3    H110452   3.146   4.288  10.059  0.8993 -2.3300  1.2168
  703TMC3    H210453   3.025   4.440  10.444  0.0561  0.9362  0.1662
  703TMC3    C710454   3.247   4.359  10.283 -0.1190 -0.3209  0.2870
  703TMC3    C810455   2.805   4.327  10.454 -0.4772 -0.9070 -1.2986
  703TMC3    O110456   3.317   4.312  10.193  0.5365 -0.5712  1.1193
  703TMC3    O210457   2.847   4.350  10.563  0.0094 -0.6472  0.1256
  704TMC3    C110458   1.333   1.940  12.634  0.1322  0.3057  0.1100
  704TMC3    C210459   1.462   1.946  12.576  0.8306  0.2545 -0.2302
  704TMC3    C310460   1.563   1.857  12.620  0.4155  0.4785 -0.3497
  704TMC3    C410461   1.309   1.862  12.741 -0.0333  0.0340  0.0782
  704TMC3    C510462   1.415   1.799  12.801 -0.4000 -0.4857 -0.1484
  704TMC3    C610463   1.532   1.778  12.728  0.4352 -0.1712  0.2197
  704TMC3     C10464   1.222   1.976  12.550 -0.5918  0.5847 -0.6333
  704TMC3     O10465   1.108   1.994  12.598 -0.2900 -0.3187 -0.4924
  704TMC3     H10466   1.482   2.006  12.488  0.1874 -0.6791 -1.0088
  704TMC3    H110467   1.208   1.857  12.779  0.4268  1.7525  1.5367
  704TMC3    H210468   1.610   1.711  12.765 -0.4327 -1.5086 -0.3815
  704TMC3    C710469   1.373   1.691  12.876 -0.2436 -0.4774  0.1759
  704TMC3    C810470   1.592   1.772  12.506 -0.0372  0.4144 -0.3778
  704TMC3    O110471   1.413   1.588  12.829  0.2217 -0.4538  0.0156
  704TMC3    O210472   1.510   1.785  12.413 -0.2443  0.2187 -0.7869
  705MPD2     C10473   0.300   4.094  16.053 -0.9773 -0.3307  0.2904
  705MPD2    C110474   0.289   4.228  16.024 -0.7277 -0.0611  0.2734
  705MPD2    C210475   0.173   4.296  16.055 -0.7210  0.3977 -0.2950
  705MPD2    C310476   0.066   4.224  16.114 -0.1414  0.7065 -0.3979
  705MPD2    C410477   0.086   4.095  16.155  0.2539  0.1430 -0.3813
  705MPD2    C510478   0.199   4.026  16.113  0.0656 -0.5903  0.6025
  705MPD2     H10479   0.158   4.398  16.024  1.4154  0.4488 -1.1403
  705MPD2    H110480   0.005   4.038  16.201 -2.2321  0.7807 -4.0026
  705MPD2    H210481   0.391   4.043  16.022 -1.2282 -0.1657 -0.7328
  705MPD2    H310482   0.209   3.918  16.126 -0.5269 -0.3719  2.9230
  705MPD2     N10483   4.688   4.298  16.140 -0.5483  0.1544 -0.1595
  705MPD2    H510484   4.678   4.391  16.101  0.7089 -0.1245 -1.1473
  705MPD2    N110485   0.395   4.296  15.960 -0.0778 -0.1160 -0.1860
  705MPD2    H710486   0.384   4.396  15.952 -1.2051 -0.0507  2.1113
  706TMC3    C110487   0.760   4.394  15.709  0.2900  0.1018 -0.2786
  706TMC3    C210488   0.742   4.528  15.731 -0.4161 -0.2239  0.3000
  706TMC3    C310489   0.667   4.571  15.839  0.0491  0.4737 -0.4759
  706TMC3    C410490   0.699   4.300  15.786  0.0076  0.7324  0.4064
  706TMC3    C510491   0.612   4.349  15.879  0.2159  0.3612  0.2608
  706TMC3    C610492   0.596   4.482  15.912  0.1137  0.9435  0.3918
  706TMC3     C10493   0.875   4.356  15.639  0.3798 -0.3856 -0.9229
  706TMC3     O10494   0.945   4.270  15.683  0.4198  0.1202 -0.2400
  706TMC3     H10495   0.807   4.599  15.681  1.9830 -3.1149 -0.6657
  706TMC3    H110496   0.706   4.197  15.751 -1.0581  1.1145 -0.9474
  706TMC3    H210497   0.513   4.506  15.978 -0.7688 -0.1247 -0.3210
  706TMC3    C710498   0.522   4.247  15.934  0.6921 -0.0675 -0.1047
  706TMC3    C810499   0.660   4.711  15.863  0.2606  0.2505  0.4469
  706TMC3    O110500   0.573   4.139  15.936 -0.1943  0.8346 -0.6296
  706TMC3    O210501   0.689   0.037  15.762 -0.0126  0.4971  0.5672
  707TMC3    C110502   2.647   3.748   0.644 -0.6792 -0.3374 -0.8127
  707TMC3    C210503   2.550   3.731   0.736  0.3911 -0.4883  0.0896
  707TMC3    C310504   2.421   3.751   0.688  0.5244 -0.7097  1.0206
  707TMC3    C410505   2.630   3.786   0.513  0.6329 -0.4885  0.6271
  707TMC3    C510506   2.503   3.824   0.474  0.0820  0.0928 -0.0912
  707TMC3    C610507   2.395   3.805   0.558 -0.1873 -0.1933  0.0203
  707TMC3     C10508   2.780   3.731   0.699 -0.5638  0.5390 -0.9383
  707TMC3     O10509   2.793   3.732   0.818  0.3577  0.0333  0.2529
  707TMC3     H10510   2.572   3.706   0.840 -0.7338  0.0462  0.4453
  707TMC3    H110511   2.714   3.808   0.448  0.0334 -1.1046 -0.3360
  707TMC3    H210512   2.292   3.793   0.528  0.1303  1.6381 -1.8129
  707TMC3    C710513   2.481   3.832   0.332 -0.4016 -0.5790  0.0371
  707TMC3    C810514   2.321   3.749   0.798  0.0475  0.1932  0.7541
  707TMC3    O110515   2.550   3.765   0.252 -0.2774  0.4457  0.2663
  707TMC3    O210516   2.256   3.852   0.799 -0.7358  0.5204  0.4370
  708MPD2     C10517   3.683   2.900  13.885  0.7970 -0.1155  0.0705
  708MPD2    C110518   3.735   3.023  13.919  0.6367  0.1138 -0.2497
  708MPD2    C210519   3.684   3.090  14.031  0.5786  0.3770  0.4068
  708MPD2    C310520   3.582   3.034  14.101  0.1681  0.2040 -0.5651
  708MPD2    C410521   3.533   2.908  14.068 -0.6213 -0.9566 -0.7744
  708MPD2    C510522   3.575   2.850  13.951 -0.1410  0.1310 -0.2223
  708MPD2     H10523   3.719   3.184  14.070 -1.6065  1.3520  0.0091
  708MPD2    H110524   3.450   2.863  14.120 -0.9990 -0.2949 -0.8011
  708MPD2    H210525   3.719   2.857  13.792 -1.7835 -1.3098 -0.4054
  708MPD2    H310526   3.526   2.763  13.910  2.2161  0.1938 -3.2285
  708MPD2     N10527   3.537   3.111  14.206  0.2993  0.4539  0.1343
  708MPD2    H510528   3.597   3.188  14.232 -0.7550  1.7420 -1.2811
  708MPD2    N110529   3.848   3.070  13.836 -0.3643 -0.5072 -0.2820
  708MPD2    H710530   3.873   3.005  13.762  0.9774  1.5139 -1.6191
  709TMC3    C110531   3.950   3.252  13.722  0.3971  0.4398  0.2325
  709TMC3    C210532   3.952   3.150  13.639 -0.1100  0.5423  0.0441
  709TMC3    C310533   3.898   3.160  13.513 -0.2300 -0.7285  0.0807
  709TMC3    C410534   3.887   3.370  13.681  0.4411 -0.7908 -0.6590
  709TMC3    C510535   3.815   3.372  13.567  0.3297 -0.1944  0.0472
  709TMC3    C610536   3.815   3.269  13.476 -0.6162  0.0038 -0.8995
  709TMC3     C10537   3.890   3.199  13.844 -0.2057 -0.3857  0.0327
  709TMC3     O10538   3.848   3.287  13.916 -0.4045 -0.4443  0.2636
  709TMC3     H10539   4.018   3.066  13.655  0.5572  0.9104 -0.7449
  709TMC3    H110540   3.891   3.458  13.743 -0.1789 -0.3440 -1.2500
  709TMC3    H210541   3.738   3.252  13.402 -1.7480 -1.6419  0.6829
  709TMC3    C710542   3.674   3.417  13.589  0.1148  0.5763  0.2703
  709TMC3    C810543   3.899   3.043  13.439 -0.6632 -0.3276  0.7912
  709TMC3    O110544   3.605   3.437  13.490 -0.0706 -0.1106  0.6004
  709TMC3    O210545   3.918   2.943  13.506 -0.1514 -0.0804 -0.0744
  710TMC3    C110546   0.001   4.293   0.171  0.5142  0.2762 -0.2737
  710TMC3    C210547   0.075   4.219   0.080  0.7254 -0.0078 -0.3945
  710TMC3    C310548   0.184   4.157   0.127 -0.2539  0.1503 -0.3674
  710TMC3    C410549   0.042   4.321   0.297 -0.0699  0.1918  0.0355
  710TMC3    C510550   0.171   4.286   0.321  0.4399  0.2755  0.4797
  710TMC3    C610551   0.239   4.201   0.242  0.2435  0.4344  0.1219
  710TMC3     C10552   4.609   4.322   0.121  0.9843 -0.2109 -0.3562
  710TMC3     O10553   4.567   4.273   0.017 -0.0368  0.0518  1.3579
  710TMC3     H10554   0.035   4.202  17.735  0.3847  0.9009 -0.4090
  710TMC3    H110555   4.733   4.391   0.365 -0.5584  1.1236 -1.2843
  710TMC3    H210556   0.328   4.150   0.278  0.5200 -0.1352 -1.3379
  710TMC3    C710557   0.220   4.324   0.451 -0.0510 -0.3951 -0.4584
  710TMC3    C810558   0.269   4.083   0.029 -0.1094 -0.4942 -0.1410
  710TMC3    O110559   0.141   4.322   0.546 -0.3375 -0.1866  0.1177
  710TMC3    O210560   0.255   4.107  17.665 -0.8466 -0.1468  0.5849
  711TMC3    C110561   4.363   0.642  14.924 -0.0408 -0.4027  0.0108
  711TMC3    C210562   4.363   0.734  15.022 -0.8772  0.5590  0.0091
  711TMC3    C310563   4.468   0.737  15.107  0.1196  0.8104 -0.4740
  711TMC3    C410564   4.473   0.557  14.914 -0.0645 -0.3674 -0.2085
  711TMC3    C510565   4.575   0.566  15.004 -0.3382 -0.0544  0.6152
  711TMC3    C610566   4.576   0.655  15.102 -0.0211  0.0863  0.0471
  711TMC3     C10567   4.235   0.596  14.860 -0.3467 -0.3892 -0.6270
  711TMC3     O10568   4.229   0.480  14.820  1.0105  0.7346 -0.0860
  711TMC3     H10569   4.278   0.800  15.031 -1.7670 -0.4844 -0.8788
  711TMC3    H110570   4.473   0.486  14.832  1.4027  0.7033 -1.1257
  711TMC3    H210571   4.648   0.653  15.183 -0.6837 -0.0070  0.6339
  711TMC3    C710572   4.635   0.436  15.033 -0.0161 -0.4746 -0.0873
  711TMC3    C810573   4.424   0.773  15.238 -0.3526 -0.5777 -0.3176
  711TMC3    O110574   0.007   0.430  15.086  0.1539 -0.0452 -0.1223
  711TMC3    O210575   4.304   0.799  15.243  0.1477  0.3901 -0.1549
  712MPD2     C10576   0.994   1.415  13.712  0.3080  0.0951  0.2392
  712MPD2    C110577   0.964   1.508  13.617 -0.0944 -0.5438 -0.3316
  712MPD2    C210578   0.984   1.645  13.636  0.2145 -0.0982 -0.7831
  712MPD2    C310579   1.035   1.691  13.758  0.0831 -0.9705  0.3058
  712MPD2    C410580   1.059   1.598  13.853  0.3381 -0.1029  0.3040
  712MPD2    C510581   1.058   1.464  13.830  0.2768 -0.3212 -0.3119
  712MPD2     H10582   0.951   1.719  13.564 -2.8051 -1.2809 -0.6431
  712MPD2    H110583   1.087   1.634  13.952 -2.2825 -0.1517  1.0628
  712MPD2    H210584   0.983   1.308  13.698  3.4058 -0.1054 -0.7901
  712MPD2    H310585   1.073   1.394  13.912  0.8237 -0.2708 -0.3714
  712MPD2     N10586   1.060   1.825  13.795 -0.0510 -0.9498  0.1973
  712MPD2    H510587   1.121   1.843  13.874  0.3522 -2.3601  0.2068
  712MPD2    N110588   0.907   1.474  13.496  0.7046  0.4161  0.5161
  712MPD2    H710589   0.886   1.554  13.438 -3.9298 -1.5325 -0.5001
  713TMC3    C110590   1.053   2.053  13.796  0.1345 -0.0699  0.7623
  713TMC3    C210591   1.178   2.048  13.846  0.4362 -0.5022 -0.3314
  713TMC3    C310592   1.237   2.168  13.849  0.4730  0.3368 -0.3812
  713TMC3    C410593   0.981   2.167  13.779  0.2369  0.2201 -0.1524
  713TMC3    C510594   1.050   2.285  13.770 -0.0466 -0.6578 -0.6960
  713TMC3    C610595   1.181   2.287  13.809 -0.3434 -0.4690  0.4722
  713TMC3     C10596   1.014   1.933  13.724  0.3938 -0.0511 -0.6169
  713TMC3     O10597   0.945   1.951  13.624 -0.8187  0.9030  0.2652
  713TMC3     H10598   1.246   1.964  13.856  3.1129  1.8929  1.5747
  713TMC3    H110599   0.880   2.165  13.740 -0.6105 -2.9109  2.2322
  713TMC3    H210600   1.235   2.381  13.815  1.8299 -1.7324  0.7629
  713TMC3    C710601   0.981   2.409  13.798  0.0223 -0.8411 -0.1414
  713TMC3    C810602   1.386   2.172  13.855  0.5918 -0.2452 -0.2661
  713TMC3    O110603   1.035   2.495  13.863 -0.7496  0.9797 -0.6517
  713TMC3    O210604   1.438   2.258  13.786  0.2237 -0.0876 -0.8461
  714MPD2     C10605   3.051   0.866   1.031  0.0162 -1.3582 -0.1789
  714MPD2    C110606   3.069   0.751   0.957  0.0329  0.3356 -0.4446
  714MPD2    C210607   2.954   0.680   0.919 -0.3736  0.0537  0.0502
  714MPD2    C310608   2.826   0.713   0.976  1.4393 -0.6236 -0.4772
  714MPD2    C410609   2.810   0.834   1.047 -0.0515 -0.2973 -0.2722
  714MPD2    C510610   2.924   0.908   1.078  0.2156 -0.4067  0.3729
  714MPD2     H10611   2.968   0.590   0.859  0.2270  0.8652 -1.0406
  714MPD2    H110612   2.711   0.862   1.083  0.2108 -0.1805  0.3450
  714MPD2    H210613   3.141   0.920   1.059  0.0316 -1.4669 -0.0128
  714MPD2    H310614   2.908   0.994   1.141  0.1225 -0.4305  0.3822
  714MPD2     N10615   2.714   0.626   0.950 -0.2797  0.3732  0.4148
  714MPD2    H510616   2.733   0.543   0.895 -3.2657 -0.3635  0.5131
  714MPD2    N110617   3.203   0.715   0.919 -0.2790  0.3627 -0.0244
  714MPD2    H710618   3.274   0.783   0.945  0.6059 -0.8977  0.8687
  715TMC3    C110619   3.376   0.594   0.804  0.3785  0.5295  0.0083
  715TMC3    C210620   3.411   0.474   0.752  0.0169 -0.3839  0.6544
  715TMC3    C310621   3.547   0.440   0.750  0.6551  0.8288 -0.2079
  715TMC3    C410622   3.466   0.687   0.835 -0.5923  0.7593  0.2915
  715TMC3    C510623   3.597   0.655   0.812  0.3364 -0.2955  0.3874
  715TMC3    C610624   3.639   0.532   0.777 -0.4024 -0.2932  0.5747
  715TMC3     C10625   3.237   0.602   0.849 -0.1341  0.4811 -0.1695
  715TMC3     O10626   3.169   0.503   0.822 -0.6930  0.5269 -0.8802
  715TMC3     H10627   3.343   0.400   0.711 -0.8139  0.3494  0.7156
  715TMC3    H110628   3.441   0.784   0.874 -0.2618  0.8874  0.1921
  715TMC3    H210629   3.741   0.518   0.743 -0.4193 -0.2479  0.5065
  715TMC3    C710630   3.697   0.753   0.849 -0.6233  0.5979  0.4359
  715TMC3    C810631   3.583   0.319   0.674  0.2483 -0.1480  0.2807
  715TMC3    O110632   3.800   0.709   0.898 -0.1734  0.0511 -0.2906
  715TMC3    O210633   3.513   0.278   0.583  0.4317 -0.0163  0.1882
  716MPD2     C10634   3.294   4.000   9.707 -0.4632 -0.0017 -0.0525
  716MPD2    C110635   3.174   3.950   9.678 -0.3879  0.0848 -0.5472
  716MPD2    C210636   3.164   3.812   9.669  0.1350  0.4654  0.7809
  716MPD2    C310637   3.277   3.733   9.677  0.1369  1.1055 -0.0089
  716MPD2    C410638   3.402   3.784   9.717  0.2783 -0.1806  0.1997
  716MPD2    C510639   3.402   3.918   9.729  0.2682  0.4446  0.0600
  716MPD2     H10640   3.071   3.769   9.635  1.2085 -1.1529 -0.1427
  716MPD2    H110641   3.493   3.726   9.731 -0.2056 -0.4692  2.0888
  716MPD2    H210642   3.303   4.106   9.729 -0.0681  0.1251 -0.8368
  716MPD2    H310643   3.493   3.976   9.742  1.8653 -1.5981 -2.0573
  716MPD2     N10644   3.253   3.599   9.649 -0.7574  0.1531 -0.3901
  716MPD2    H510645   3.156   3.576   9.631 -0.8175  1.1241 -1.2868
  716MPD2    N110646   3.063   4.040   9.658 -0.3701 -0.3618 -0.0548
  716MPD2    H710647   3.081   4.138   9.678  0.8535 -0.2789 -1.5672
  717TMC3    C110648   3.293   3.371   9.624  0.0607  0.2185 -0.8272
  717TMC3    C210649   3.169   3.344   9.566 -0.9275  0.0892 -0.0801
  717TMC3    C310650   3.120   3.212   9.584  0.2684 -0.1809 -1.0513
  717TMC3    C410651   3.369   3.271   9.674  0.2545 -0.0824 -0.0662
  717TMC3    C510652   3.304   3.156   9.714 -0.2245 -0.3718  0.3785
  717TMC3    C610653   3.184   3.117   9.666  1.2816  0.1347 -0.7896
  717TMC3     C10654   3.351   3.502   9.635  0.2340  0.1486  0.1749
  717TMC3     O10655   3.473   3.516   9.645 -0.4040 -0.0973 -0.5317
  717TMC3     H10656   3.128   3.423   9.504 -1.2867  0.6075  0.8225
  717TMC3    H110657   3.474   3.282   9.702  0.1320  2.1502 -0.4999
  717TMC3    H210658   3.130   3.030   9.703  1.2226  1.0798  1.3338
  717TMC3    C710659   3.372   3.049   9.784 -0.0796 -0.0873  0.4908
  717TMC3    C810660   2.978   3.196   9.539  0.5727 -0.6185 -0.5533
  717TMC3    O110661   3.321   2.938   9.765 -0.2903 -0.0150 -0.6201
  717TMC3    O210662   2.920   3.299   9.509  0.4025 -0.7261  0.0717
  718MPD2     C10663   2.682   1.751  13.198  0.1044  0.2938  0.4206
  718MPD2    C110664   2.631   1.801  13.077 -0.2770 -0.6465  0.9912
  718MPD2    C210665   2.496   1.841  13.067 -0.6402  0.2332 -0.7243
  718MPD2    C310666   2.410   1.801  13.171  0.0459  0.8141  0.3419
  718MPD2    C410667   2.456   1.746  13.284  0.1431  0.4056 -0.0248
  718MPD2    C510668   2.592   1.726  13.305 -0.2032 -0.1156 -0.1327
  718MPD2     H10669   2.451   1.890  12.982  0.6464 -0.4803 -1.8170
  718MPD2    H110670   2.379   1.709  13.350 -2.3355  1.2334 -2.4258
  718MPD2    H210671   2.787   1.732  13.216  0.2535  1.6056  0.9374
  718MPD2    H310672   2.622   1.678  13.397 -0.4974 -0.6695 -0.3216
  718MPD2     N10673   2.268   1.807  13.140  0.3467  0.4270  0.6650
  718MPD2    H510674   2.255   1.846  13.047 -0.3177 -0.6331  0.2986
  718MPD2    N110675   2.722   1.820  12.973 -0.5094  1.0422  0.3363
  718MPD2    H710676   2.806   1.763  12.974 -2.0398 -1.3001 -2.2427
  719TMC3    C110677   2.790   1.889  12.756 -0.6441 -0.9559 -0.4471
  719TMC3    C210678   2.744   1.808  12.658 -0.9073  0.0081 -0.3892
  719TMC3    C310679   2.740   1.854  12.527  0.4843  0.3436 -0.0944
  719TMC3    C410680   2.853   2.006  12.729 -0.1611 -0.1069  0.1232
  719TMC3    C510681   2.856   2.041  12.594  0.1795 -0.6968  0.1423
  719TMC3    C610682   2.801   1.970  12.491 -0.1816  0.6339  0.3647
  719TMC3     C10683   2.698   1.905  12.863  0.2179 -0.7919 -0.3982
  719TMC3     O10684   2.608   1.985  12.833  0.2739  0.3564  0.1133
  719TMC3     H10685   2.688   1.717  12.679 -0.3884 -0.3452 -0.5358
  719TMC3    H110686   2.869   2.081  12.806  1.0859 -0.0443 -0.1929
  719TMC3    H210687   2.804   2.005  12.388  0.1488  0.7546  0.4157
  719TMC3    C710688   2.954   2.139  12.554  0.3285  0.3367  0.3107
  719TMC3    C810689   2.614   1.837  12.465 -0.1971  0.3870 -0.8414
  719TMC3    O110690   2.946   2.198  12.446  0.5990  0.3288  0.0681
  719TMC3    O210691   2.602   1.832  12.344  0.1085 -0.4410 -0.0230
  720MPD2     C10692   1.009   3.470  13.858 -0.4350 -0.9090 -0.7484
  720MPD2    C110693   1.058   3.578  13.779 -0.0276  0.1400  0.0874
  720MPD2    C210694   1.193   3.622  13.791  0.1663 -0.3489 -0.4326
  720MPD2    C310695   1.275   3.538  13.865 -0.5398  1.0683  0.3333
  720MPD2    C410696   1.228   3.418  13.919 -0.1644 -0.9174  0.0051
  720MPD2    C510697   1.097   3.387  13.917  0.2084 -0.0811 -0.1671
  720MPD2     H10698   1.228   3.717  13.752  0.4867 -0.0362  0.6363
  720MPD2    H110699   1.295   3.350  13.970 -0.3869 -0.1444  1.3317
  720MPD2    H210700   0.906   3.439  13.851 -0.6394 -0.5473  0.7182
  720MPD2    H310701   1.065   3.291  13.957 -0.1795  0.2791  0.3846
  720MPD2     N10702   1.405   3.587  13.889  0.5051 -0.0760  0.2498
  720MPD2    H510703   1.439   3.662  13.830 -2.4664  0.7820 -0.3810
  720MPD2    N110704   0.971   3.665  13.715  0.4725  0.0200  0.0790
  720MPD2    H710705   1.000   3.762  13.711  0.7728 -0.1008 -0.6213
  721TMC3    C110706   1.597   3.642  14.007  0.2537 -0.0268  0.2317
  721TMC3    C210707   1.633   3.694  14.124  0.2575  0.2701  0.0534
  721TMC3    C310708   1.755   3.751  14.140  0.0964 -0.2995 -0.2238
  721TMC3    C410709   1.684   3.632  13.899 -0.1393  0.2225  0.3180
  721TMC3    C510710   1.807   3.694  13.914  0.0476  0.6278  0.0347
  721TMC3    C610711   1.843   3.752  14.034 -0.1987  0.6664 -0.1337
  721TMC3     C10712   1.480   3.567  14.001 -0.0268  0.1521  0.2611
  721TMC3     O10713   1.446   3.511  14.101 -0.3930 -0.4422 -0.0848
  721TMC3     H10714   1.560   3.681  14.204  0.2050  0.4991  0.0440
  721TMC3    H110715   1.661   3.588  13.802  0.3591 -0.4646  0.5125
  721TMC3    H210716   1.946   3.787  14.044 -0.5044  1.5883 -0.1972
  721TMC3    C710717   1.913   3.636  13.842 -0.0054 -0.4618  0.1871
  721TMC3    C810718   1.807   3.814  14.258  1.1587 -0.2381  0.4429
  721TMC3    O110719   1.974   3.713  13.767  0.1167 -0.0308  0.4906
  721TMC3    O210720   1.925   3.846  14.256 -0.4274  0.2601 -0.0572
  722MPD2     C10721   4.504   2.179  13.431  0.4940 -0.9240  0.5191
  722MPD2    C110722   4.508   2.306  13.376  0.9645 -0.0217  0.2007
  722MPD2    C210723   4.414   2.346  13.280 -0.0780  0.1724  0.3941
  722MPD2    C310724   4.329   2.256  13.224  0.1975  0.7439 -0.3850
  722MPD2    C410725   4.324   2.127  13.274  0.0526  0.3197 -0.6426
  722MPD2    C510726   4.407   2.095  13.383 -0.2126  0.7739  0.4419
  722MPD2     H10727   4.417   2.441  13.227 -1.3842  0.4822  0.8880
  722MPD2    H110728   4.256   2.051  13.238  1.1412 -0.3894 -1.1746
  722MPD2    H210729   4.584   2.132  13.488 -0.0543  1.1721  3.0416
  722MPD2    H310730   4.425   1.991  13.410 -0.8684  0.5719  0.1075
  722MPD2     N10731   4.247   2.306  13.117  0.1653 -0.6364 -0.0657
  722MPD2    H510732   4.254   2.405  13.094  0.8408 -0.9377 -1.1857
  722MPD2    N110733   4.601   2.402  13.423 -0.1244 -0.5625  0.5412
  722MPD2    H710734   4.592   2.499  13.393 -1.2301 -0.6709  0.4984
  723TMC3    C110735   4.122   2.287  12.914 -0.1565  0.0465 -0.3129
  723TMC3    C210736   4.097   2.199  12.816 -0.1684  0.6389  0.0984
  723TMC3    C310737   4.052   2.255  12.696 -1.0699 -0.4849  0.5038
  723TMC3    C410738   4.100   2.423  12.905  0.2375  0.4462 -0.9520
  723TMC3    C510739   4.045   2.472  12.787  0.9604 -0.1625 -0.0687
  723TMC3    C610740   4.021   2.387  12.685 -0.6678 -0.0366  0.9378
  723TMC3     C10741   4.191   2.223  13.025  0.5125  0.0791 -0.4803
  723TMC3     O10742   4.191   2.101  13.030 -0.5240  0.2427 -0.5119
  723TMC3     H10743   4.124   2.094  12.821  0.4998  0.6472 -3.1675
  723TMC3    H110744   4.126   2.490  12.986 -1.4090  0.0220 -0.0715
  723TMC3    H210745   3.981   2.417  12.589  0.9286  1.5117  0.7557
  723TMC3    C710746   4.007   2.606  12.786  0.6535  0.8247 -0.7471
  723TMC3    C810747   3.981   2.165  12.603 -0.0110  0.7730  0.1737
  723TMC3    O110748   4.037   2.680  12.879 -0.0708  0.2375  0.2737
  723TMC3    O210749   3.930   2.204  12.496  0.3501 -0.3311  0.0633
  724TMC3    C110750   0.451   1.014   9.836 -0.1462 -0.8072 -0.0339
  724TMC3    C210751   0.361   1.080   9.920  0.6447 -0.1476 -0.1777
  724TMC3    C310752   0.408   1.184   9.991 -0.3530 -0.4640 -0.4418
  724TMC3    C410753   0.584   1.054   9.820 -0.4480 -0.0458 -0.3356
  724TMC3    C510754   0.615   1.175   9.876  0.4613  0.0462 -0.1125
  724TMC3    C610755   0.529   1.234   9.956 -0.0595 -0.2512  0.3933
  724TMC3     C10756   0.444   0.869   9.852 -0.5249 -0.2128  0.3249
  724TMC3     O10757   0.552   0.818   9.884  0.3624 -0.3801  0.7729
  724TMC3     H10758   0.264   1.040   9.948 -0.2922  2.1782 -0.1172
  724TMC3    H110759   0.660   0.995   9.770  1.6181  3.1875 -1.0027
  724TMC3    H210760   0.563   1.326  10.002  1.2476  0.4520 -2.0334
  724TMC3    C710761   0.750   1.201   9.899  0.2686  0.8102  0.5012
  724TMC3    C810762   0.311   1.262  10.075 -0.3091  0.1753 -0.2605
  724TMC3    O110763   0.781   1.234  10.011  0.1191  0.3275 -0.3485
  724TMC3    O210764   0.242   1.188  10.148  0.4221  0.0672 -0.1567
  725TMC3    C110765   1.501   4.292  12.660  0.3799 -0.4263 -0.4100
  725TMC3    C210766   1.472   4.288  12.529  0.4625 -0.2656 -0.0559
  725TMC3    C310767   1.394   4.187  12.485  0.3392  0.0182 -0.1283
  725TMC3    C410768   1.458   4.208  12.752  0.5104 -0.5918 -0.1596
  725TMC3    C510769   1.377   4.110  12.711 -0.1431  0.7126 -0.0799
  725TMC3    C610770   1.348   4.095  12.578  0.3802 -0.2922 -1.0123
  725TMC3     C10771   1.617   4.375  12.696 -0.2695  0.1929 -0.7520
  725TMC3     O10772   1.629   4.487  12.657 -0.4726  0.6434 -0.2511
  725TMC3     H10773   1.522   4.364  12.469  1.4947  0.1164  1.2894
  725TMC3    H110774   1.481   4.225  12.857 -1.1341  0.3699  0.0574
  725TMC3    H210775   1.310   3.997  12.551 -0.3701  0.1156 -1.4483
  725TMC3    C710776   1.334   4.010  12.814 -0.1834 -0.2594 -0.6510
  725TMC3    C810777   1.376   4.169  12.346  0.2005  0.0527  0.2574
  725TMC3    O110778   1.414   3.978  12.899 -0.1977 -0.1233  0.4727
  725TMC3    O210779   1.295   4.086  12.306  0.4563 -0.2713 -0.4700
  726MPD2     C10780   4.368   1.197  10.242 -0.1415  0.5841 -0.3691
  726MPD2    C110781   4.244   1.213  10.184  0.8206 -0.2463  0.0709
  726MPD2    C210782   4.146   1.112  10.197 -0.1757 -0.0501 -0.2218
  726MPD2    C310783   4.161   1.005  10.282 -0.1596  0.1825  0.1033
  726MPD2    C410784   4.288   0.994  10.344  0.6294  0.5990  0.1186
  726MPD2    C510785   4.387   1.085  10.323  0.0174 -0.1701 -0.9890
  726MPD2     H10786   4.054   1.118  10.139  0.3158  0.5836 -0.9233
  726MPD2    H110787   4.303   0.910  10.411  0.9341 -0.5067 -1.3187
  726MPD2    H210788   4.443   1.275  10.228 -0.4940  0.8834 -0.5831
  726MPD2    H310789   4.487   1.064  10.360 -0.0673  2.5479  0.7347
  726MPD2     N10790   4.063   0.907  10.313  0.3355 -0.0926 -0.6893
  726MPD2    H510791   4.086   0.826  10.370 -0.0491 -1.4534 -2.4521
  726MPD2    N110792   4.230   1.339  10.104 -0.0221  0.4185  0.2659
  726MPD2    H710793   4.305   1.407  10.098  1.3895 -1.1746 -0.0954
  727TMC3    C110794   4.124   1.507   9.987 -0.0144  0.2900  0.3035
  727TMC3    C210795   4.193   1.593  10.071  0.6107 -0.0734  0.1363
  727TMC3    C310796   4.143   1.721  10.079  0.2134  0.0771  0.5361
  727TMC3    C410797   4.018   1.543   9.909 -0.4948 -0.2335 -0.3843
  727TMC3    C510798   3.970   1.669   9.923 -0.2312 -0.7013 -0.1759
  727TMC3    C610799   4.024   1.759  10.017  0.4593 -0.4670  0.3141
  727TMC3     C10800   4.126   1.371  10.019  0.2138 -0.4757 -0.0858
  727TMC3     O10801   4.037   1.293   9.977  0.5633  0.0076  0.4361
  727TMC3     H10802   4.273   1.562  10.137 -0.6649 -0.3043  1.5823
  727TMC3    H110803   3.987   1.472   9.834 -1.8916 -2.0162  1.8856
  727TMC3    H210804   3.979   1.855  10.039  1.2927 -0.1011  0.4242
  727TMC3    C710805   3.848   1.690   9.850 -0.1518 -0.5176 -0.8106
  727TMC3    C810806   4.218   1.807  10.168  0.2184  0.3387 -0.0421
  727TMC3    O110807   3.781   1.592   9.820  0.2627 -0.5702  0.2260
  727TMC3    O210808   4.321   1.758  10.209  0.2089  0.0869 -0.6064
  728TMC3    C110809   3.651   4.145  15.224 -0.4599  0.2795  0.1016
  728TMC3    C210810   3.776   4.197  15.220 -0.4755 -0.7213  0.7336
  728TMC3    C310811   3.823   4.243  15.103  0.3023 -0.6497  0.4208
  728TMC3    C410812   3.566   4.135  15.116  0.0533  0.4082 -0.7857
  728TMC3    C510813   3.625   4.178  14.996  0.3516 -0.3853  0.0037
  728TMC3    C610814   3.748   4.233  14.983 -0.2043  0.3225 -0.6101
  728TMC3     C10815   3.617   4.084  15.350  0.1601 -1.0831 -0.7634
  728TMC3     O10816   3.684   4.114  15.447  0.2772  0.2837 -0.2304
  728TMC3     H10817   3.843   4.194  15.305 -0.7022 -0.6065  0.9166
  728TMC3    H110818   3.462   4.103  15.122  0.3587 -0.2501  0.9493
  728TMC3    H210819   3.794   4.252  14.887  0.1834 -2.2192 -0.9422
  728TMC3    C710820   3.527   4.221  14.902  0.2251  0.9036 -0.2400
  728TMC3    C810821   3.967   4.251  15.092 -0.1702 -0.3178 -0.1296
  728TMC3    O110822   3.410   4.186  14.913 -0.5630  0.2351  0.3027
  728TMC3    O210823   4.046   4.194  15.172 -0.0978  0.8695  0.1571
  729MPD2     C10824   0.879   0.436  16.352 -0.0359  0.1047  0.0120
  729MPD2    C110825   0.962   0.327  16.380  0.0556 -0.1521 -0.6878
  729MPD2    C210826   0.977   0.289  16.510 -0.5921  0.4179  0.1429
  729MPD2    C310827   0.901   0.353  16.610 -0.2639  0.1572  0.3669
  729MPD2    C410828   0.811   0.453  16.575 -0.1496 -0.5938 -0.4416
  729MPD2    C510829   0.804   0.498  16.445  0.2860 -0.0450  0.8715
  729MPD2     H10830   1.044   0.208  16.535 -2.9772 -1.2697  1.1406
  729MPD2    H110831   0.761   0.503  16.657 -2.4614 -0.0859 -2.1669
  729MPD2    H210832   0.868   0.478  16.252  1.5953 -0.3058 -0.3371
  729MPD2    H310833   0.748   0.586  16.416 -1.1268 -1.1704  0.1877
  729MPD2     N10834   0.914   0.318  16.749 -0.1783 -0.0456  0.6896
  729MPD2    H510835   0.863   0.375  16.816 -1.8516  1.1987 -1.6489
  729MPD2    N110836   1.040   0.283  16.276  0.2689  0.1666 -0.5280
  729MPD2    H710837   1.019   0.332  16.189  1.2739 -0.7278 -1.2700
  730TMC3    C110838   1.022   0.233  16.946 -0.1926 -0.0593 -0.4250
  730TMC3    C210839   1.155   0.239  16.977 -0.0008  0.1428  0.5703
  730TMC3    C310840   1.191   0.319  17.083  0.6245  0.2379  0.1515
  730TMC3    C410841   0.930   0.297  17.018 -0.7341  0.8743  0.8608
  730TMC3    C510842   0.966   0.363  17.129 -0.0871  0.1741  0.1431
  730TMC3    C610843   1.098   0.362  17.176 -1.0944 -0.0202  0.6021
  730TMC3     C10844   0.997   0.219  16.805  0.8912 -0.3137 -0.7227
  730TMC3     O10845   1.063   0.132  16.748  0.5397 -0.5053 -0.4357
  730TMC3     H10846   1.227   0.207  16.903  0.1012  2.0671 -0.1617
  730TMC3    H110847   0.830   0.305  16.978  0.7858  1.0049 -2.9819
  730TMC3    H210848   1.116   0.409  17.272 -1.6054  3.8698 -1.2231
  730TMC3    C710849   0.922   0.499  17.090 -0.4883 -0.1757 -0.1692
  730TMC3    C810850   1.289   0.419  17.040  1.0973  0.7018  0.0910
  730TMC3    O110851   0.882   0.514  16.975  0.2863  0.1315 -0.1002
  730TMC3    O210852   1.369   0.402  16.954  0.2184 -0.0104 -0.3218
  731MPD2     C10853   0.893   3.492  12.624  0.1897 -0.1982 -0.3935
  731MPD2    C110854   0.997   3.402  12.648  0.3887 -0.0771 -0.4725
  731MPD2    C210855   0.995   3.321  12.765  0.2572  0.3551  0.4165
  731MPD2    C310856   0.909   3.340  12.869  0.6421  0.6850 -0.6579
  731MPD2    C410857   0.813   3.435  12.842 -0.0846 -0.5947  0.1239
  731MPD2    C510858   0.800   3.502  12.724  0.3798 -0.3198  0.2744
  731MPD2     H10859   1.073   3.245  12.766  0.5518  0.6070 -3.6942
  731MPD2    H110860   0.742   3.457  12.921  2.5510  3.7096  1.3226
  731MPD2    H210861   0.894   3.556  12.536  1.1792  1.5397  0.8617
  731MPD2    H310862   0.723   3.577  12.708 -0.2467 -0.4776  2.4791
  731MPD2     N10863   0.937   3.274  12.995 -0.4576 -0.9541 -0.1952
  731MPD2    H510864   0.982   3.184  13.000  0.3736 -0.6213 -1.6496
  731MPD2    N110865   1.097   3.395  12.550  0.5208 -0.5209 -0.2180
  731MPD2    H710866   1.084   3.440  12.460 -0.6004  0.4290  0.4195
  732TMC3    C110867   1.309   3.340  12.454  0.3049  0.4760 -0.0478
  732TMC3    C210868   1.260   3.291  12.340 -0.1474 -0.8122 -0.0651
  732TMC3    C310869   1.335   3.196  12.269 -0.3180 -0.0643 -0.1162
  732TMC3    C410870   1.426   3.286  12.500 -0.1609  0.1212  0.5779
  732TMC3    C510871   1.491   3.181  12.440  0.3248 -0.1794  0.1451
  732TMC3    C610872   1.453   3.152  12.315  0.2088 -0.0605  0.1642
  732TMC3     C10873   1.222   3.344  12.569  0.0882 -0.1733  0.4749
  732TMC3     O10874   1.273   3.309  12.671 -0.4742 -0.1677  0.4571
  732TMC3     H10875   1.167   3.330  12.299  0.1782 -1.0281 -1.0020
  732TMC3    H110876   1.473   3.329  12.588 -0.5408 -3.7802  2.6983
  732TMC3    H210877   1.500   3.065  12.269 -0.2532 -0.1862 -0.0693
  732TMC3    C710878   1.543   3.072  12.517 -0.3004  0.6114 -0.1219
  732TMC3    C810879   1.296   3.174  12.132 -0.7989 -0.3982  0.0379
  732TMC3    O110880   1.612   2.984  12.465 -0.1268  0.0574 -0.1340
  732TMC3    O210881   1.382   3.184  12.043 -0.0100 -0.3218 -0.3973
  733TMC3    C110882   1.801   1.818  13.115 -0.6709  0.3432  0.2894
  733TMC3    C210883   1.917   1.783  13.182 -0.3423 -0.1814 -0.1961
  733TMC3    C310884   2.035   1.782  13.120 -0.0267  0.8522  0.5081
  733TMC3    C410885   1.806   1.856  12.980  0.4985 -0.6259  0.1737
  733TMC3    C510886   1.932   1.845  12.920 -0.0876 -0.3516  0.1640
  733TMC3    C610887   2.050   1.812  12.986 -0.6644  0.3490 -0.6724
  733TMC3     C10888   1.681   1.866  13.184 -0.4089  0.9359  0.2947
  733TMC3     O10889   1.618   1.951  13.124  0.0069  0.3816  0.4248
  733TMC3     H10890   1.911   1.755  13.286 -0.7444 -2.6328 -0.8706
  733TMC3    H110891   1.719   1.879  12.919  1.2757  2.2365  0.1653
  733TMC3    H210892   2.136   1.775  12.932  0.3768  1.2579  0.3826
  733TMC3    C710893   1.950   1.853  12.773 -0.1633  0.8951  0.0950
  733TMC3    C810894   2.156   1.765  13.207 -0.2465  0.0798 -0.1981
  733TMC3    O110895   1.865   1.806  12.696 -0.6433 -0.0253  0.3989
  733TMC3    O210896   2.148   1.718  13.319  0.2232 -0.5567 -0.0468
  734MPD2     C10897   3.723   4.149  12.543 -0.3004  0.0742 -0.8325
  734MPD2    C110898   3.702   4.045  12.447 -0.3899  0.1970  0.2676
  734MPD2    C210899   3.770   4.067  12.326  0.2896  0.6476 -0.4364
  734MPD2    C310900   3.860   4.172  12.307  0.2844  0.0064  0.2891
  734MPD2    C410901   3.890   4.260  12.408 -0.1841 -0.4467 -0.2888
  734MPD2    C510902   3.823   4.246  12.528 -0.5993  0.2930  0.2985
  734MPD2     H10903   3.754   4.001  12.241  1.4671 -1.2264  0.7914
  734MPD2    H110904   3.964   4.339  12.396  0.4924 -1.0075  0.1379
  734MPD2    H210905   3.661   4.149  12.632  0.5421  1.2842 -0.2480
  734MPD2    H310906   3.844   4.315  12.608  0.2348 -1.4477  1.5637
  734MPD2     N10907   3.926   4.174  12.181 -0.1712  0.0202 -0.5625
  734MPD2    H510908   3.911   4.104  12.108 -3.2611 -0.7828  0.8624
  734MPD2    N110909   3.606   3.947  12.464  0.0024  0.2640 -0.2148
  734MPD2    H710910   3.570   3.938  12.559 -1.0491 -0.1477 -0.6548
  735TMC3    C110911   3.535   3.726  12.407  0.4504 -0.1962  0.8779
  735TMC3    C210912   3.451   3.666  12.317  0.1202  0.1959 -0.6613
  735TMC3    C310913   3.484   3.541  12.274 -0.0854  0.2102  0.1003
  735TMC3    C410914   3.651   3.665  12.440 -0.0620  1.2364 -0.2145
  735TMC3    C510915   3.671   3.540  12.416  0.1585 -0.0223 -0.2801
  735TMC3    C610916   3.583   3.472  12.332 -1.1720 -0.2918  0.9282
  735TMC3     C10917   3.561   3.863  12.364 -0.5004  0.4254  0.8518
  735TMC3     O10918   3.565   3.871  12.241 -0.0415 -0.0324 -0.1006
  735TMC3     H10919   3.370   3.729  12.284 -0.5718  0.3739  1.3918
  735TMC3    H110920   3.720   3.729  12.493 -1.2063  1.9885  0.3500
  735TMC3    H210921   3.612   3.371  12.306 -0.5618 -0.1002  0.8630
  735TMC3    C710922   3.806   3.543  12.355 -0.4689  0.0641  0.0978
  735TMC3    C810923   3.503   3.523  12.137 -0.0369  0.8696 -0.2301
  735TMC3    O110924   3.851   3.651  12.313  0.0913  0.5065  0.1472
  735TMC3    O210925   3.515   3.406  12.105  0.7977  0.3273 -0.0320
  736MPD2     C10926   4.018   3.247  12.328 -0.3638 -0.5828 -0.2730
  736MPD2    C110927   3.982   3.377  12.303  0.2844  0.2661 -0.3902
  736MPD2    C210928   4.064   3.454  12.228  0.2963 -0.2896 -0.5112
  736MPD2    C310929   4.181   3.394  12.177  0.8198  0.2553  0.1461
  736MPD2    C410930   4.219   3.267  12.202 -0.0400 -0.1927 -0.3017
  736MPD2    C510931   4.134   3.193  12.279 -0.3909  0.3314 -0.1359
  736MPD2     H10932   4.042   3.560  12.221  0.0072 -0.4484 -1.9821
  736MPD2    H110933   4.313   3.219  12.179  0.2002  0.0966  0.0860
  736MPD2    H210934   3.958   3.185  12.395 -1.4236 -1.5517 -2.1155
  736MPD2    H310935   4.164   3.091  12.300 -0.3677 -0.1000 -2.2122
  736MPD2     N10936   4.283   3.474  12.120  0.0846 -0.0379  0.0525
  736MPD2    H510937   4.370   3.427  12.100 -0.7197  0.1049 -3.8506
  736MPD2    N110938   3.851   3.413  12.352  0.4945 -0.1608 -0.5996
  736MPD2    H710939   3.795   3.341  12.397  1.2074 -0.9992 -1.0759
  737TMC3    C110940   4.411   3.661  12.060 -0.4182 -0.1927 -0.2702
  737TMC3    C210941   4.422   3.800  12.080 -0.0755  0.6802  0.4932
  737TMC3    C310942   4.541   3.857  12.043  1.2341 -0.5142  0.1287
  737TMC3    C410943   4.512   3.579  12.015 -0.6713 -0.2082  0.1697
  737TMC3    C510944   4.623   3.644  11.979 -0.2747  0.0809  0.2740
  737TMC3    C610945   4.638   3.775  11.992  0.2120  0.1673 -0.5660
  737TMC3     C10946   4.281   3.608  12.095 -0.3992  0.8548 -1.2040
  737TMC3     O10947   4.198   3.687  12.127 -0.0753 -0.3579  0.2623
  737TMC3     H10948   4.341   3.858  12.124 -2.4619 -2.9990  1.0495
  737TMC3    H110949   4.514   3.472  11.998 -1.1647  0.0495 -1.5007
  737TMC3    H210950   4.733   3.825  11.973  0.3631 -0.2944 -1.0332
  737TMC3    C710951   4.708   3.565  11.893  0.5494  0.0356 -0.1780
  737TMC3    C810952   4.516   3.976  11.963  0.1667 -0.5729  0.3231
  737TMC3    O110953   4.699   3.443  11.890  0.0320 -0.1954  0.0901
  737TMC3    O210954   4.607   4.059  11.967 -0.0049 -0.1296 -0.5816
  738MPD2     C10955   0.396   2.372  15.429  0.5039  0.1163 -0.5872
  738MPD2    C110956   0.320   2.408  15.313  0.1756 -0.5428  0.0136
  738MPD2    C210957   0.396   2.458  15.207 -0.0596 -1.1734 -0.2783
  738MPD2    C310958   0.533   2.470  15.211  0.4985  0.2698 -0.0280
  738MPD2    C410959   0.606   2.420  15.311 -0.0094  1.0134 -0.4603
  738MPD2    C510960   0.533   2.386  15.425  0.4945  0.2115  0.1799
  738MPD2     H10961   0.335   2.483  15.120 -1.7666  2.9832  2.1516
  738MPD2    H110962   0.713   2.438  15.312  0.2331 -0.4727  1.0419
  738MPD2    H210963   0.350   2.334  15.519 -0.4366  0.3835 -0.9542
  738MPD2    H310964   0.586   2.382  15.520  1.2693  0.0941 -0.2516
  738MPD2     N10965   0.610   2.540  15.114 -0.5748  0.5584  0.2160
  738MPD2    H510966   0.709   2.519  15.104 -1.2838 -3.0801  0.8495
  738MPD2    N110967   0.185   2.368  15.293  0.4422  0.2425  0.0177
  738MPD2    H710968   0.151   2.344  15.200 -0.2678  0.1043  0.3157
  739TMC3    C110969   0.670   2.651  14.916  0.0240  0.4280 -0.0828
  739TMC3    C210970   0.624   2.680  14.790  0.2967 -0.4158 -0.0512
  739TMC3    C310971   0.723   2.722  14.706 -0.2043  0.3979  0.0049
  739TMC3    C410972   0.799   2.667  14.962  0.4461  0.1948 -0.8352
  739TMC3    C510973   0.891   2.708  14.870 -0.2547 -0.6796  0.3140
  739TMC3    C610974   0.856   2.729  14.741  1.0414 -0.0775  0.2392
  739TMC3     C10975   0.563   2.620  15.010 -0.0313  0.0052  0.9639
  739TMC3     O10976   0.447   2.637  14.972 -0.7375  0.1391 -0.4525
  739TMC3     H10977   0.520   2.682  14.760  0.0382  0.5869  0.9077
  739TMC3    H110978   0.822   2.663  15.068  0.8763  0.1511 -0.9314
  739TMC3    H210979   0.925   2.758  14.662  2.2647  3.5607  2.6329
  739TMC3    C710980   1.031   2.706  14.904  0.0935  1.0397  0.6722
  739TMC3    C810981   0.678   2.745  14.571  0.0842 -0.6166  0.5018
  739TMC3    O110982   1.106   2.767  14.830 -0.4066 -0.3814  0.1577
  739TMC3    O210983   0.562   2.711  14.544  0.2380  0.1709  0.5403
  740TMC3    C110984   1.029   4.031  14.386 -0.4721  0.0862 -0.1638
  740TMC3    C210985   1.027   3.913  14.462  0.0661  0.6472 -0.0535
  740TMC3    C310986   1.132   3.830  14.447  0.6738  0.1020 -0.5873
  740TMC3    C410987   1.138   4.065  14.316 -0.0248  0.2463 -0.2021
  740TMC3    C510988   1.246   3.974  14.309  0.2548 -0.4138  0.3266
  740TMC3    C610989   1.242   3.856  14.377 -0.1306  0.1744 -0.6979
  740TMC3     C10990   0.910   4.109  14.354  0.1636 -0.2708 -0.5434
  740TMC3     O10991   0.918   4.205  14.283  0.3659 -0.2786 -0.8419
  740TMC3     H10992   0.949   3.887  14.533  0.2490  0.1618 -0.0334
  740TMC3    H110993   1.156   4.153  14.256  1.8469 -0.7835 -1.1585
  740TMC3    H210994   1.315   3.777  14.366  1.1267  1.4525 -1.5783
  740TMC3    C710995   1.352   3.975  14.206 -0.7033  0.1098 -0.8259
  740TMC3    C810996   1.161   3.724  14.545  0.1099  0.0379 -0.2876
  740TMC3    O110997   1.449   3.903  14.236 -0.6486 -0.5098  0.5449
  740TMC3    O210998   1.275   3.681  14.574 -0.1739 -0.6172 -1.0598
  741TMC3    C110999   0.565   3.154  14.561 -0.1614 -0.0720  0.1148
  741TMC3    C211000   0.438   3.103  14.560 -0.3941 -0.1542 -0.2484
  741TMC3    C311001   0.403   3.023  14.667 -0.2069  0.1084 -0.3447
  741TMC3    C411002   0.651   3.138  14.670 -0.2860 -0.0392 -0.4054
  741TMC3    C511003   0.605   3.070  14.780 -1.0864 -0.2406  0.0147
  741TMC3    C611004   0.489   3.002  14.770  0.5353  0.7971 -0.4671
  741TMC3     C11005   0.626   3.213  14.439 -0.7076 -0.1611  0.0296
  741TMC3     O11006   0.749   3.223  14.427 -0.2895 -0.4654 -0.4311
  741TMC3     H11007   0.376   3.116  14.472 -0.5115 -0.5336 -0.2209
  741TMC3    H111008   0.754   3.171  14.665 -0.3794  0.6079  2.0150
  741TMC3    H211009   0.459   2.940  14.853 -0.0508  1.2343 -0.3579
  741TMC3    C711010   0.702   3.047  14.887  0.2766 -0.0038  0.4689
  741TMC3    C811011   0.277   2.956  14.650 -0.1375 -0.0724 -0.4121
  741TMC3    O111012   0.818   3.068  14.860 -0.1498  0.1853  0.1902
  741TMC3    O211013   0.222   2.972  14.540 -0.3014  0.8747 -0.1239
  742TMC3    C111014   0.319   1.472  15.582  0.0615 -0.3745  0.0880
  742TMC3    C211015   0.233   1.470  15.478  0.4469 -0.1741  0.2663
  742TMC3    C311016   0.255   1.380  15.378  0.8596  0.1956  1.2097
  742TMC3    C411017   0.413   1.372  15.594 -0.0313 -0.0706  0.5447
  742TMC3    C511018   0.436   1.289  15.492  0.1422 -1.3840  0.3476
  742TMC3    C611019   0.360   1.292  15.382  0.5972 -0.1542 -0.3419
  742TMC3     C11020   0.319   1.573  15.688  0.4172 -0.2389  0.5792
  742TMC3     O11021   0.431   1.599  15.738 -0.0700 -0.0843 -0.0412
  742TMC3     H11022   0.178   1.561  15.454  2.0260  0.9197  0.7695
  742TMC3    H111023   0.467   1.361  15.687 -0.9189 -2.5244  0.7724
  742TMC3    H211024   0.378   1.230  15.296 -0.3427  2.1100 -2.1900
  742TMC3    C711025   0.557   1.209  15.497 -0.1001 -1.2153  0.0677
  742TMC3    C811026   0.184   1.375  15.250 -0.0581 -0.2317 -0.6764
  742TMC3    O111027   0.597   1.164  15.390  0.0455  0.1142  0.1064
  742TMC3    O211028   0.225   1.305  15.162  0.2542 -0.3195 -0.2260
  743MPD2     C11029   2.690   3.412   1.740  0.2867  0.2718  0.2300
  743MPD2    C111030   2.756   3.310   1.659 -0.2525  0.1085  0.3887
  743MPD2    C211031   2.896   3.321   1.645 -0.4199  0.0361 -0.0144
  743MPD2    C311032   2.968   3.418   1.707  0.1798 -0.0777  0.3644
  743MPD2    C411033   2.905   3.515   1.780 -0.3794  0.1616  0.4277
  743MPD2    C511034   2.768   3.511   1.790  0.6327  0.0146 -0.0305
  743MPD2     H11035   2.948   3.254   1.578  0.0474 -0.4053  0.7996
  743MPD2    H111036   2.962   3.598   1.819  0.0595  0.6935 -1.3799
  743MPD2    H211037   2.582   3.419   1.742  0.1438 -1.6487 -0.9690
  743MPD2    H311038   2.733   3.596   1.849  2.7889  0.8541  0.0446
  743MPD2     N11039   3.112   3.410   1.693  0.6810  0.0182  0.3588
  743MPD2    H511040   3.150   3.344   1.627  0.6289  0.3226  0.0216
  743MPD2    N111041   2.675   3.229   1.586  0.0184 -0.1832 -0.4278
  743MPD2    H711042   2.577   3.245   1.605 -0.2896 -2.8115  0.1975
  744TMC3    C111043   2.604   3.056   1.441  0.6130 -0.2434  0.1695
  744TMC3    C211044   2.507   3.144   1.384 -0.5074 -0.8923 -0.4565
  744TMC3    C311045   2.472   3.124   1.255 -0.2638  0.4635  0.4083
  744TMC3    C411046   2.649   2.947   1.369 -0.3382  0.2536 -0.0221
  744TMC3    C511047   2.616   2.942   1.236  0.7700  0.2328  1.1652
  744TMC3    C611048   2.531   3.030   1.177  0.4673 -0.9474  0.0056
  744TMC3     C11049   2.714   3.122   1.513 -0.0159 -0.1890  0.3213
  744TMC3     O11050   2.828   3.095   1.486 -0.3384  0.2541 -0.0379
  744TMC3     H11051   2.479   3.238   1.430  1.4665 -1.5047  2.0114
  744TMC3    H111052   2.721   2.878   1.410  0.8680  1.6681  0.2424
  744TMC3    H211053   2.523   3.029   1.069 -1.4567  2.2868  0.1179
  744TMC3    C711054   2.731   2.942   1.154  0.2014 -0.4986 -0.6516
  744TMC3    C811055   2.445   3.244   1.178  0.2473 -0.3988  0.7394
  744TMC3    O111056   2.720   2.934   1.031 -0.2097 -0.1805  0.1669
  744TMC3    O211057   2.510   3.249   1.073  0.3431  0.4205 -0.4543
  745TMC3    C111058   0.799   1.340  13.332  0.3589 -0.0094 -0.4122
  745TMC3    C211059   0.702   1.248  13.327  0.7476 -0.5539  0.0274
  745TMC3    C311060   0.599   1.255  13.244  0.1846 -0.5777 -0.5535
  745TMC3    C411061   0.804   1.444  13.249  0.4286  0.0232 -0.6059
  745TMC3    C511062   0.712   1.438  13.147  0.7446 -0.4036  0.0622
  745TMC3    C611063   0.611   1.350  13.142 -0.5060 -0.3972 -0.1134
  745TMC3     C11064   0.884   1.345  13.455  0.1409  0.1626 -0.0316
  745TMC3     O11065   0.910   1.236  13.496 -0.4262  0.2292 -0.1270
  745TMC3     H11066   0.696   1.193  13.421 -1.4010  0.4910  0.5010
  745TMC3    H111067   0.890   1.508  13.239  0.2084  0.5518  0.9511
  745TMC3    H211068   0.530   1.358  13.071 -1.7022 -0.6418  1.2130
  745TMC3    C711069   0.745   1.506  13.030 -0.0303  0.2546 -0.0084
  745TMC3    C811070   0.477   1.283  13.320 -0.3008 -0.4470 -0.2268
  745TMC3    O111071   0.738   1.446  12.924  0.0957  0.1925 -1.0874
  745TMC3    O211072   0.426   1.177  13.357 -0.4896 -0.3492  0.5551
  746TMC3    C111073   3.045   3.507  10.659  0.1498  0.0818  0.5297
  746TMC3    C211074   3.006   3.537  10.528 -0.3236 -0.1515  0.0819
  746TMC3    C311075   2.938   3.440  10.459 -0.0411 -0.6101  1.0327
  746TMC3    C411076   3.003   3.388  10.724  0.0688 -0.1628  0.7372
  746TMC3    C511077   2.944   3.296  10.647 -0.2437 -0.0687  0.3149
  746TMC3    C611078   2.912   3.315  10.514 -0.8839  0.7237  0.7964
  746TMC3     C11079   3.114   3.607  10.733  0.3507 -0.1810  0.1212
  746TMC3     O11080   3.092   3.615  10.853  0.4152 -0.3120 -0.5183
  746TMC3     H11081   3.044   3.624  10.474 -0.7700  2.2377  3.6109
  746TMC3    H111082   3.032   3.363  10.826  1.4641 -0.1258  0.3462
  746TMC3    H211083   2.856   3.237  10.463  0.9421 -0.4140  0.5135
  746TMC3    C711084   2.859   3.185  10.707  0.5565  0.0257 -0.0765
  746TMC3    C811085   2.891   3.465  10.326  0.0312 -0.2413 -0.2548
  746TMC3    O111086   2.761   3.145  10.652 -0.1188  0.4362  0.5891
  746TMC3    O211087   2.925   3.384  10.240 -0.2890  0.5744 -0.3628
  747TMC3    C111088   0.360   3.988  11.008  0.0694  0.2217 -0.4621
  747TMC3    C211089   0.362   3.865  11.077 -0.4746 -0.1457  0.1659
  747TMC3    C311090   0.332   3.866  11.211 -0.3216 -0.3637  0.1708
  747TMC3    C411091   0.334   4.104  11.073  0.1520  0.1149  0.7484
  747TMC3    C511092   0.318   4.100  11.204 -0.3033 -0.1161  0.0464
  747TMC3    C611093   0.306   3.985  11.278 -0.3172 -0.0774  0.2581
  747TMC3     C11094   0.390   4.001  10.866 -0.6789 -0.4153 -0.3792
  747TMC3     O11095   0.367   4.109  10.809 -0.4181 -0.5483 -0.6963
  747TMC3     H11096   0.380   3.768  11.032 -1.3245 -0.4330  0.4326
  747TMC3    H111097   0.336   4.195  11.014 -2.2418 -1.3805 -1.6318
  747TMC3    H211098   0.313   3.991  11.386 -0.9978  3.5915  0.1049
  747TMC3    C711099   0.318   4.224  11.279  0.1827  0.6242  0.0634
  747TMC3    C811100   0.313   3.738  11.275  0.1386 -0.1087 -0.1217
  747TMC3    O111101   0.347   4.232  11.399 -1.5225 -0.0377  0.6148
  747TMC3    O211102   0.338   3.638  11.207  0.4964 -0.4025 -0.1554
  748MPD2     C11103   2.568   0.143   1.515 -0.2296 -0.2949  0.1161
  748MPD2    C111104   2.564   0.024   1.454  0.0694  0.7471  0.1481
  748MPD2    C211105   2.686   4.723   1.389 -0.2365 -0.0268  0.3827
  748MPD2    C311106   2.802   0.059   1.392 -0.4311 -0.3123  0.7590
  748MPD2    C411107   2.795   0.183   1.459 -0.0353  0.0895  0.3535
  748MPD2    C511108   2.673   0.230   1.509 -0.0966  0.3256  0.7854
  748MPD2     H11109   2.694   4.626   1.342 -2.6031  0.0322 -0.1702
  748MPD2    H111110   2.875   0.256   1.451 -0.0119 -0.0502 -0.7240
  748MPD2    H211111   2.481   0.184   1.566  1.2038  0.1483  2.1938
  748MPD2    H311112   2.665   0.329   1.553 -0.1176  0.1280  1.2277
  748MPD2     N11113   2.917   0.002   1.327 -0.2654 -0.0666 -0.1171
  748MPD2    H511114   2.907   4.653   1.278  0.7135 -1.0772  1.5078
  748MPD2    N111115   2.458   4.674   1.478 -0.1768 -1.1779 -0.3565
  748MPD2    H711116   2.376   4.717   1.520  1.9073  1.2283  1.2358
  749TMC3    C111117   3.130   4.730   1.229 -0.0594 -0.4362 -0.0049
  749TMC3    C211118   3.261   4.720   1.257 -1.1204  0.2407  0.2523
  749TMC3    C311119   3.335   4.627   1.195 -0.2281  0.6243 -0.1231
  749TMC3    C411120   3.072   4.671   1.122 -0.4769  0.0914 -0.0649
  749TMC3    C511121   3.157   4.578   1.060  0.4210  0.8857  0.5365
  749TMC3    C611122   3.289   4.557   1.087 -0.2335  0.1954 -0.0441
  749TMC3     C11123   3.038   0.061   1.314 -0.7803 -1.1356 -0.1824
  749TMC3     O11124   3.073   0.165   1.370  0.1600  0.3455  0.2692
  749TMC3     H11125   3.305   0.046   1.332  1.2288 -0.1528 -0.7682
  749TMC3    H111126   2.967   4.681   1.097 -0.3699 -0.4425 -0.7043
  749TMC3    H211127   3.362   4.502   1.030  2.6377  2.4410  1.4530
  749TMC3    C711128   3.112   4.548   0.929  0.5616 -0.1910  0.4024
  749TMC3    C811129   3.471   4.617   1.241 -0.1435 -0.0395  0.5737
  749TMC3    O111130   3.012   4.607   0.898 -0.0804  0.4742 -0.0672
  749TMC3    O211131   3.527   4.713   1.287  0.3511  0.2212  0.0965
  750MPD2     C11132   3.050   0.888  11.668 -1.4444  0.3794  0.0710
  750MPD2    C111133   3.007   0.786  11.760 -0.2769  0.2490 -0.2270
  750MPD2    C211134   3.049   0.658  11.730 -0.2499  0.3138  0.1963
  750MPD2    C311135   3.147   0.627  11.633 -0.7071  0.2024  0.1862
  750MPD2    C411136   3.205   0.733  11.564  0.0544 -0.6717  0.2024
  750MPD2    C511137   3.146   0.859  11.577 -0.5225  0.6647  0.3720
  750MPD2     H11138   3.006   0.576  11.787 -1.2662  0.1834 -0.7523
  750MPD2    H111139   3.278   0.717  11.485  1.5327 -1.4627  1.7072
  750MPD2    H211140   2.997   0.982  11.668 -0.2302  1.0526  0.4041
  750MPD2    H311141   3.167   0.935  11.502 -0.3716 -0.3302 -0.5848
  750MPD2     N11142   3.193   0.497  11.596 -0.6519  0.6389 -0.1366
  750MPD2    H511143   3.257   0.494  11.517 -1.8345  1.4104 -1.1301
  750MPD2    N111144   2.925   0.811  11.877  0.6197  0.0227  0.1087
  750MPD2    H711145   2.922   0.908  11.906  0.1971 -0.7783  2.6997
  751TMC3    C111146   3.174   0.256  11.588 -0.1071 -0.3045 -0.0308
  751TMC3    C211147   3.128   0.143  11.655  0.1265 -0.3886  0.2973
  751TMC3    C311148   3.126   0.028  11.571 -0.0871 -0.1609 -0.0047
  751TMC3    C411149   3.221   0.256  11.459  0.2565 -0.2133  1.0703
  751TMC3    C511150   3.228   0.138  11.389 -0.5040  0.0791  0.2539
  751TMC3    C611151   3.181   0.018  11.443  0.1219  0.6437  0.0189
  751TMC3     C11152   3.140   0.387  11.652  0.5983 -0.0269  0.0744
  751TMC3     O11153   3.073   0.375  11.752 -0.3131  0.5285  0.2411
  751TMC3     H11154   3.074   0.148  11.749  0.5092 -3.0063  0.6649
  751TMC3    H111155   3.230   0.342  11.394  0.0924 -0.5578  0.5864
  751TMC3    H211156   3.199   4.661  11.397 -0.2450  0.3718  0.4496
  751TMC3    C711157   3.218   0.137  11.243  0.7813  0.1461 -0.1223
  751TMC3    C811158   3.021   4.669  11.580 -0.4134  0.5394 -0.0443
  751TMC3    O111159   3.319   0.187  11.187 -0.0849  0.1589  0.4503
  751TMC3    O211160   3.003   4.610  11.473  0.3630 -0.3907  0.4384
  752TMC3    C111161   1.848   4.303  16.699 -0.0645  0.0041 -0.2277
  752TMC3    C211162   1.864   4.171  16.733 -0.9921  0.1985  1.0137
  752TMC3    C311163   1.811   4.137  16.856  0.9107 -0.0156  0.3785
  752TMC3    C411164   1.798   4.398  16.783 -0.1671 -0.1267 -0.8041
  752TMC3    C511165   1.758   4.366  16.910 -0.5385  0.3655  0.8353
  752TMC3    C611166   1.765   4.230  16.943 -0.0663 -0.0643  0.7252
  752TMC3     C11167   1.863   4.340  16.562  0.3613  0.4572 -0.6352
  752TMC3     O11168   1.924   4.250  16.505  0.2565 -0.3078  0.1456
  752TMC3     H11169   1.913   4.106  16.660 -0.5958  1.6759 -0.0425
  752TMC3    H111170   1.794   4.498  16.741  2.0316 -0.0779 -0.9198
  752TMC3    H211171   1.726   4.198  17.040 -0.8197 -0.0588  0.4246
  752TMC3    C711172   1.669   4.460  16.980  0.1652 -0.0063  0.2696
  752TMC3    C811173   1.847   4.011  16.926 -0.6027  0.2560  0.1115
  752TMC3    O111174   1.663   4.570  16.929 -0.1706 -0.1078 -0.1317
  752TMC3    O211175   1.809   3.986  17.038  0.7389 -0.6522  0.0904
  753TMC3    C111176   3.857   1.829  13.230  0.7160 -0.5878  0.3881
  753TMC3    C211177   3.959   1.859  13.318 -0.2050  0.6494  0.4835
  753TMC3    C311178   3.976   1.773  13.431  0.0533  0.4443  0.3148
  753TMC3    C411179   3.780   1.726  13.259  1.3173 -0.1859  0.1075
  753TMC3    C511180   3.804   1.637  13.368  0.9064  0.1851 -0.2288
  753TMC3    C611181   3.900   1.666  13.466  0.6373  0.4117 -0.0578
  753TMC3     C11182   3.828   1.910  13.113 -0.1392  0.7357  0.1658
  753TMC3     O11183   3.785   1.864  13.009 -0.1957  0.4764  0.3510
  753TMC3     H11184   4.030   1.939  13.302  0.5161 -0.3473 -1.4110
  753TMC3    H111185   3.724   1.688  13.175 -0.0037 -1.3633  1.5284
  753TMC3    H211186   3.924   1.594  13.544 -1.0670  0.2839  0.3328
  753TMC3    C711187   3.830   1.507  13.317 -0.4249  0.3677 -0.6482
  753TMC3    C811188   4.104   1.782  13.502  0.2922  0.3372  0.4503
  753TMC3    O111189   3.934   1.450  13.346  0.1318  0.1571 -0.3825
  753TMC3    O211190   4.197   1.823  13.436 -0.5111  0.1840  0.1236
  754MPD2     C11191   2.875   0.198  13.167  0.5619  0.6348 -0.3590
  754MPD2    C111192   2.791   0.089  13.177  0.6396  0.2453 -0.6821
  754MPD2    C211193   2.663   0.108  13.116  1.1544 -0.1617  0.1589
  754MPD2    C311194   2.618   0.230  13.073 -0.1414  0.0953  0.3808
  754MPD2    C411195   2.706   0.338  13.075 -0.4702  0.1024  0.6145
  754MPD2    C511196   2.829   0.321  13.122  0.3894  0.1925 -0.2320
  754MPD2     H11197   2.599   0.022  13.101  0.9048 -0.0870  0.7736
  754MPD2    H111198   2.667   0.438  13.058 -2.0631 -0.6869 -0.2950
  754MPD2    H211199   2.970   0.192  13.218  1.1655  0.6893 -1.4946
  754MPD2    H311200   2.893   0.409  13.120 -0.1986  0.6516  1.3875
  754MPD2     N11201   2.484   0.260  13.035  0.2243  0.9040  0.2376
  754MPD2    H511202   2.455   0.356  13.019  1.5834  1.3428  0.3675
  754MPD2    N111203   2.820   4.718  13.260  0.0357  0.3926  0.8360
  754MPD2    H711204   2.917   4.708  13.288  0.4372  0.9851 -0.3282
  755MPD2     C11205   1.963   0.883  13.351  0.6071  0.1188 -0.6815
  755MPD2    C111206   1.912   0.761  13.401  0.2841  0.7019 -0.4475
  755MPD2    C211207   1.947   0.635  13.349  0.2079 -0.0790 -0.2904
  755MPD2    C311208   2.041   0.636  13.248 -0.0822  0.6937 -0.0409
  755MPD2    C411209   2.106   0.757  13.209  0.4003  0.0575  0.3425
  755MPD2    C511210   2.062   0.876  13.251 -0.4275  0.5070  0.0286
  755MPD2     H11211   1.895   0.545  13.380  0.3069  0.3503  1.1222
  755MPD2    H111212   2.179   0.755  13.129 -1.2845  0.8737 -1.2192
  755MPD2    H211213   1.924   0.979  13.384  0.8185 -0.4092  1.1345
  755MPD2    H311214   2.109   0.966  13.213 -0.3626 -0.5716 -2.3906
  755MPD2     N11215   2.076   0.523  13.174  0.3455  0.2465  0.1042
  755MPD2    H511216   2.136   0.536  13.093  0.9427 -1.8527  0.2042
  755MPD2    N111217   1.826   0.782  13.512  0.9172 -0.5085 -0.1586
  755MPD2    H711218   1.816   0.881  13.530 -1.7823 -0.3077 -2.6981
  756MPD2     C11219   2.625   1.779   9.852 -0.2381 -0.0503  0.0858
  756MPD2    C111220   2.556   1.705   9.945 -0.0740  0.5487 -0.4260
  756MPD2    C211221   2.443   1.632   9.910  0.9082 -0.5585 -0.6024
  756MPD2    C311222   2.404   1.633   9.779  0.4734  0.2981 -0.5010
  756MPD2    C411223   2.470   1.717   9.688 -0.1668  0.7208 -0.2282
  756MPD2    C511224   2.573   1.793   9.729 -0.2187 -0.1960 -0.8711
  756MPD2     H11225   2.387   1.572   9.982 -0.4017  0.8403 -0.4545
  756MPD2    H111226   2.447   1.730   9.583 -1.1865  0.1837 -0.0667
  756MPD2    H211227   2.712   1.834   9.886 -0.0407 -0.5955  0.4586
  756MPD2    H311228   2.615   1.865   9.660 -1.2837  1.3486  0.1173
  756MPD2     N11229   2.296   1.556   9.732  0.8830  0.7092 -0.2362
  756MPD2    H511230   2.256   1.496   9.804  0.2748  0.3950 -0.8404
  756MPD2    N111231   2.598   1.676  10.081 -0.0162 -0.1313 -0.7156
  756MPD2    H711232   2.537   1.610  10.127 -1.8602  3.4448  1.9759
  757MPD2     C11233   2.224   0.878  10.123 -0.5402  0.8180 -0.1559
  757MPD2    C111234   2.301   0.989  10.100  0.1461 -0.2500  0.6352
  757MPD2    C211235   2.261   1.085  10.008 -0.7547  0.3575 -0.2809
  757MPD2    C311236   2.150   1.059   9.930 -0.2420  0.0368  0.1005
  757MPD2    C411237   2.076   0.952   9.950  0.1310 -0.1744  0.8642
  757MPD2    C511238   2.113   0.858  10.048  0.1959  0.0525 -0.1570
  757MPD2     H11239   2.318   1.173   9.979  1.3745 -1.3674 -1.3230
  757MPD2    H111240   1.986   0.937   9.892  0.7720  1.5352 -0.5741
  757MPD2    H211241   2.268   0.814  10.199  0.9930 -1.7840 -3.2616
  757MPD2    H311242   2.049   0.770  10.050  2.5174 -1.5776  1.8527
  757MPD2     N11243   2.110   1.154   9.839 -0.2916 -0.3245  0.6275
  757MPD2    H511244   2.149   1.247   9.852  0.3944 -0.6642  1.0108
  757MPD2    N111245   2.420   1.001  10.181 -0.0986 -0.2737  0.8236
  757MPD2    H711246   2.449   0.924  10.241 -0.7299 -1.7837 -0.7915
  758MPD2     C11247   2.660   4.478  15.713  0.2038  0.2008  0.5889
  758MPD2    C111248   2.700   4.352  15.766 -0.8261  0.0980 -0.0572
  758MPD2    C211249   2.606   4.266  15.820 -0.3193  0.4052 -0.3921
  758MPD2    C311250   2.474   4.305  15.842  0.0125 -0.6165 -1.0599
  758MPD2    C411251   2.435   4.428  15.790 -0.4251 -0.0622 -0.1115
  758MPD2    C511252   2.527   4.513  15.733 -0.6699  0.0576  0.4444
  758MPD2     H11253   2.638   4.171  15.861 -2.0984 -0.3531 -0.7884
  758MPD2    H111254   2.336   4.467  15.813 -0.2474  0.3746 -0.1098
  758MPD2    H211255   2.738   4.546  15.681  1.0141  0.0411  2.2237
  758MPD2    H311256   2.497   4.614  15.711 -0.6744  0.0364  0.3538
  758MPD2     N11257   2.380   4.237  15.922 -0.2350 -0.2005  0.3357
  758MPD2    H511258   2.288   4.278  15.929 -0.1446  0.3457 -1.5113
  758MPD2    N111259   2.834   4.310  15.746  0.4494 -0.5667  0.0250
  758MPD2    H711260   2.890   4.379  15.696 -1.5548 -0.2562 -1.8053
  759MPD2     C11261   1.374   3.137  10.687 -0.2389  0.4903  0.2267
  759MPD2    C111262   1.321   3.254  10.715 -0.2971 -0.2393  0.4123
  759MPD2    C211263   1.365   3.368  10.654  0.3416  0.3069  0.1876
  759MPD2    C311264   1.472   3.359  10.562  0.5558 -0.7414  0.1649
  759MPD2    C411265   1.521   3.237  10.532  0.7352 -0.2609 -0.2013
  759MPD2    C511266   1.473   3.127  10.589 -0.5774  0.1231 -1.1593
  759MPD2     H11267   1.321   3.466  10.667 -0.2712  0.1652 -0.7758
  759MPD2    H111268   1.597   3.216  10.457  1.1990  0.8532 -0.0420
  759MPD2    H211269   1.333   3.044  10.725  0.5664  0.4298  0.9508
  759MPD2    H311270   1.513   3.029  10.567  1.4625  0.7361 -0.2265
  759MPD2     N11271   1.530   3.483  10.512 -0.0435 -0.0650 -0.0774
  759MPD2    H511272   1.500   3.568  10.557 -0.5256 -1.6003  2.5166
  759MPD2    N111273   1.206   3.242  10.798  0.4928  0.0517 -0.1565
  759MPD2    H711274   1.169   3.149  10.813  0.1019  0.3946  1.0445
  760MPD2     C11275   1.160   0.921  11.825  0.3096 -0.2428  0.1188
  760MPD2    C111276   1.116   0.803  11.884  0.2738 -0.6348 -0.3440
  760MPD2    C211277   1.180   0.684  11.873 -0.1176  0.0982  0.1842
  760MPD2    C311278   1.303   0.674  11.814  0.2333 -0.0924  0.2443
  760MPD2    C411279   1.358   0.796  11.758  0.3347 -0.8765 -0.1932
  760MPD2    C511280   1.285   0.914  11.766  1.1645  0.2842  0.2767
  760MPD2     H11281   1.125   0.599  11.911 -0.6772  1.2606  1.9590
  760MPD2    H111282   1.448   0.787  11.699  0.8688  1.4790  0.2793
  760MPD2    H211283   1.105   1.014  11.822 -1.2594 -1.2027 -0.7545
  760MPD2    H311284   1.325   0.998  11.710 -0.1324  1.9329  1.8236
  760MPD2     N11285   1.375   0.554  11.792  0.2149 -0.5792 -0.5821
  760MPD2    H511286   1.467   0.555  11.749  1.3466  0.3546  1.8105
  760MPD2    N111287   1.003   0.798  11.967  0.2031 -0.1478 -0.4075
  760MPD2    H711288   0.981   0.711  12.014  2.6452 -0.3266  0.3925
  761MPD2     C11289   2.657   4.354  11.748  0.0184  0.4360  0.2495
  761MPD2    C111290   2.674   4.399  11.622  0.6283  0.6335  0.7828
  761MPD2    C211291   2.763   4.500  11.601  0.3705  0.1209  0.0006
  761MPD2    C311292   2.835   4.565  11.707 -0.1912 -0.0452 -0.3329
  761MPD2    C411293   2.804   4.523  11.833  0.5579  0.2028 -0.3442
  761MPD2    C511294   2.718   4.419  11.857  0.0665 -0.1905 -0.1194
  761MPD2     H11295   2.770   4.551  11.505 -1.5799 -1.9309 -1.2422
  761MPD2    H111296   2.855   4.568  11.917 -2.2177  1.2061  0.8345
  761MPD2    H211297   2.590   4.272  11.770  0.5520  0.0210  0.3343
  761MPD2    H311298   2.705   4.389  11.960  0.1979 -2.7359 -0.8218
  761MPD2     N11299   2.947   4.650  11.688 -0.6955 -0.4122  0.6514
  761MPD2    H511300   2.975   4.704  11.770 -3.2502 -0.6146  1.6471
  761MPD2    N111301   2.609   4.332  11.516 -0.2316 -0.2700  0.1934
  761MPD2    H711302   2.548   4.255  11.540  0.2584  0.0399  2.4221
  762MPD2     C11303   2.322   4.244  10.630  0.7500  0.7125  0.1687
  762MPD2    C111304   2.440   4.238  10.700  0.4821 -0.1684 -0.8213
  762MPD2    C211305   2.560   4.261  10.634  0.5487  0.3308 -0.6442
  762MPD2    C311306   2.556   4.294  10.501 -0.4811 -0.2802  0.1338
  762MPD2    C411307   2.432   4.291  10.434 -0.6149  0.9313  0.4870
  762MPD2    C511308   2.312   4.262  10.494  0.2508 -0.4824 -0.4164
  762MPD2     H11309   2.653   4.258  10.689 -0.0043  2.6749  0.4100
  762MPD2    H111310   2.435   4.327  10.332  0.1451 -1.6328 -0.3820
  762MPD2    H211311   2.232   4.243  10.691  0.6925  0.5381  0.0800
  762MPD2    H311312   2.215   4.257  10.446  1.0078  2.5644 -2.2587
  762MPD2     N11313   2.674   4.319  10.420  0.2828 -0.2311  0.1317
  762MPD2    H511314   2.656   4.353  10.326  0.3688  0.3543  0.3271
  762MPD2    N111315   2.427   4.206  10.838  0.5392 -0.1540 -0.2966
  762MPD2    H711316   2.336   4.172  10.870 -0.1851  0.5574 -1.5906
  763MPD2     C11317   4.623   4.572  15.926 -0.1606 -0.0837 -0.0323
  763MPD2    C111318   4.507   4.643  15.901  0.0792  0.4181  0.6049
  763MPD2    C211319   4.490   0.023  15.966  0.0184 -0.0823  0.5754
  763MPD2    C311320   4.583   0.070  16.052  0.4005 -0.4020  0.7527
  763MPD2    C411321   4.699   4.734  16.073 -0.4607 -0.6922  0.2111
  763MPD2    C511322   4.712   4.616  16.024 -0.4049  0.0054 -0.4626
  763MPD2     H11323   4.401   0.082  15.946  0.6510  0.5073 -0.5284
  763MPD2    H111324   0.049   0.034  16.122 -0.0052 -0.3487 -0.8867
  763MPD2    H211325   4.641   4.473  15.885 -1.0284  0.2658 -1.2565
  763MPD2    H311326   0.071   4.571  16.035 -0.6939 -0.4135  0.3898
  763MPD2     N11327   4.582   0.191  16.128  0.4339  0.0302 -0.0419
  763MPD2    H511328   4.661   0.205  16.190  2.1510 -0.9250 -2.0085
  763MPD2    N111329   4.405   4.596  15.812 -0.1848  0.7225  0.2989
  763MPD2    H711330   4.320   4.651  15.808 -0.6433  0.1792  2.3289
  764MPD2     C11331   1.976   0.485  17.113  0.5037  0.1935  0.4647
  764MPD2    C111332   1.925   0.598  17.162  0.6843 -0.1915 -0.5772
  764MPD2    C211333   1.903   0.613  17.297  0.6626 -0.5604 -0.4390
  764MPD2    C311334   1.920   0.503  17.380 -0.9871 -0.3335 -0.7562
  764MPD2    C411335   1.966   0.383  17.327  0.0809 -0.3565  0.3614
  764MPD2    C511336   2.003   0.372  17.194  0.1677  0.5344 -1.1109
  764MPD2     H11337   1.847   0.698  17.332  1.2771 -1.3200  2.4011
  764MPD2    H111338   1.975   0.290  17.381 -1.2299 -0.4139  0.4779
  764MPD2    H211339   1.993   0.489  17.006  2.3758 -1.5934  0.6794
  764MPD2    H311340   2.048   0.284  17.149  0.0250  0.2758 -0.7461
  764MPD2     N11341   1.856   0.505  17.504 -0.0500  0.0843 -0.0824
  764MPD2    H511342   1.795   0.583  17.527  3.4308  2.3270  1.6412
  764MPD2    N111343   1.921   0.699  17.070  0.8484  0.7996  0.4689
  764MPD2    H711344   1.939   0.670  16.975  0.4328 -0.0410  0.6472
  765MPD2     C11345   2.439   3.761  15.202  0.1529 -0.9263  0.6753
  765MPD2    C111346   2.517   3.819  15.302  0.3840 -0.6946  0.2606
  765MPD2    C211347   2.637   3.758  15.325 -0.2642  0.0838  0.1959
  765MPD2    C311348   2.682   3.644  15.260 -0.1367  0.8377  0.1210
  765MPD2    C411349   2.605   3.594  15.161  0.3973  0.5449  0.2516
  765MPD2    C511350   2.482   3.654  15.133 -0.1482  0.5312  0.3797
  765MPD2     H11351   2.708   3.800  15.396 -0.9197  0.0410  0.8744
  765MPD2    H111352   2.632   3.519  15.088 -1.9809  1.6692 -1.7931
  765MPD2    H211353   2.343   3.802  15.171  0.5385 -0.3085  0.2996
  765MPD2    H311354   2.403   3.619  15.068  0.9414  1.8406 -1.6440
  765MPD2     N11355   2.801   3.579  15.305 -0.4225 -0.2310 -0.7951
  765MPD2    H511356   2.865   3.639  15.356 -2.5326 -2.5149  4.4648
  765MPD2    N111357   2.469   3.929  15.372 -0.4244  0.1154  0.6233
  765MPD2    H711358   2.383   3.967  15.332  0.3051 -0.3769 -1.4301
  766MPD2     C11359   1.892   4.201  15.152  0.1737  0.2562  0.1455
  766MPD2    C111360   2.026   4.183  15.151  0.4689  0.8736 -0.6738
  766MPD2    C211361   2.098   4.153  15.036 -0.9245 -0.1722 -0.9306
  766MPD2    C311362   2.035   4.152  14.911 -0.2579  0.5581  0.7004
  766MPD2    C411363   1.901   4.178  14.909 -0.0072  0.9282 -0.1154
  766MPD2    C511364   1.828   4.196  15.029  0.7356 -0.2774 -0.1237
  766MPD2     H11365   2.205   4.137  15.036 -1.0536 -0.9949 -1.9381
  766MPD2    H111366   1.847   4.177  14.815  1.0438 -2.0515 -0.6887
  766MPD2    H211367   1.828   4.222  15.237 -2.3745 -0.0067 -1.7064
  766MPD2    H311368   1.721   4.213  15.025  0.5475 -1.9175 -2.3145
  766MPD2     N11369   2.104   4.135  14.786  0.3908 -0.3471 -0.0509
  766MPD2    H511370   2.049   4.161  14.705 -0.7967  1.1926  1.2597
  766MPD2    N111371   2.090   4.215  15.277 -0.4279 -0.3054  0.2179
  766MPD2    H711372   2.036   4.258  15.352  1.3974  0.7823  0.9058
  767MPD2     C11373   1.726   4.382  14.762 -0.4653  0.5863 -0.7322
  767MPD2    C111374   1.840   4.429  14.701  0.8517 -0.3489 -0.2276
  767MPD2    C211375   1.843   4.402  14.564 -0.0909  0.1176 -0.1517
  767MPD2    C311376   1.747   4.327  14.492 -0.2883  0.7819 -0.4077
  767MPD2    C411377   1.632   4.294  14.564 -0.3099 -0.5700  0.3592
  767MPD2    C511378   1.620   4.317  14.696 -0.8432  0.0103  0.4597
  767MPD2     H11379   1.920   4.453  14.507  0.9928 -1.4048 -0.0692
  767MPD2    H111380   1.543   4.258  14.515 -0.1072 -1.2043  0.4561
  767MPD2    H211381   1.717   4.390  14.870 -2.8593 -0.2597 -0.8629
  767MPD2    H311382   1.527   4.286  14.743  0.5566 -2.7415  1.4712
  767MPD2     N11383   1.771   4.290  14.356 -0.0797  0.6897  0.2287
  767MPD2    H511384   1.864   4.299  14.316 -0.6306  3.7309 -0.4074
  767MPD2    N111385   1.950   4.478  14.777  0.6141  0.1290  1.0703
  767MPD2    H711386   1.935   4.485  14.877 -0.4486 -2.6333  1.0810
  768MPD2     C11387   2.655   2.842  10.590  0.1448 -0.2979 -0.6191
  768MPD2    C111388   2.612   2.777  10.702  0.0265  0.5291 -0.2139
  768MPD2    C211389   2.702   2.716  10.793 -0.1459  1.0634  0.2134
  768MPD2    C311390   2.840   2.727  10.781 -0.1721  0.0264  0.1041
  768MPD2    C411391   2.881   2.795  10.665 -0.7309  0.5131  0.0034
  768MPD2    C511392   2.788   2.852  10.578  0.2126  0.5701  0.1147
  768MPD2     H11393   2.665   2.673  10.885  1.5246 -2.5642 -0.8318
  768MPD2    H111394   2.985   2.801  10.635 -0.2938  1.0811  1.6316
  768MPD2    H211395   2.593   2.881  10.509 -0.2009 -0.1949 -0.3034
  768MPD2    H311396   2.827   2.903  10.490  1.2231  1.1299  0.8929
  768MPD2     N11397   2.934   2.677  10.874  0.3340 -0.0009  0.4070
  768MPD2    H511398   3.029   2.714  10.870  0.2299  0.0426 -1.3353
  768MPD2    N111399   2.473   2.762  10.735  0.4374 -0.1195  0.1397
  768MPD2    H711400   2.461   2.697  10.812 -0.6818  0.2415  0.2589
  769MPD2     C11401   3.347   0.550  14.697  0.1732 -0.3302 -0.8357
  769MPD2    C111402   3.380   0.684  14.697 -0.1314 -0.2642 -0.2323
  769MPD2    C211403   3.415   0.745  14.821  1.1274 -0.5336 -0.8602
  769MPD2    C311404   3.407   0.664  14.939 -0.4789 -0.4256  0.3790
  769MPD2    C411405   3.391   0.532  14.930  0.5849  0.7211 -0.9282
  769MPD2    C511406   3.365   0.474  14.810  0.4204  0.4230  0.1287
  769MPD2     H11407   3.436   0.851  14.833  0.3167 -0.0296 -3.7645
  769MPD2    H111408   3.396   0.459  15.011 -2.1569  0.5919 -0.8837
  769MPD2    H211409   3.339   0.508  14.598  0.1599  1.6187 -1.6718
  769MPD2    H311410   3.340   0.368  14.815 -0.6442  0.6275 -1.0390
  769MPD2     N11411   3.431   0.730  15.065  0.3188 -0.2377  0.2718
  769MPD2    H511412   3.435   0.831  15.057 -1.6811  0.0697  3.2277
  769MPD2    N111413   3.375   0.758  14.576  0.0317  0.4444 -0.6533
  769MPD2    H711414   3.330   0.713  14.496  0.8733 -0.9785 -0.3193
  770MPD2     C11415   3.225   0.232  14.216  0.6919  0.0882  0.1469
  770MPD2    C111416   3.300   0.255  14.327  0.2173  0.0659  0.1014
  770MPD2    C211417   3.389   0.360  14.315 -0.9621 -0.1846 -0.0831
  770MPD2    C311418   3.395   0.436  14.204 -0.2538  0.0496  0.2006
  770MPD2    C411419   3.319   0.413  14.097  0.6891  0.6069 -0.2616
  770MPD2    C511420   3.227   0.307  14.105 -0.6841  0.5894  0.4879
  770MPD2     H11421   3.437   0.408  14.400 -1.5813  0.1717  0.0599
  770MPD2    H111422   3.309   0.486  14.018 -0.7257  1.9287  1.1406
  770MPD2    H211423   3.148   0.156  14.223  0.4897  0.5082  2.3808
  770MPD2    H311424   3.152   0.287  14.030  0.1649 -1.8293  0.2632
  770MPD2     N11425   3.470   0.557  14.210 -0.3762  0.4796  0.7387
  770MPD2    H511426   3.531   0.575  14.289 -0.5956  1.9379  0.5914
  770MPD2    N111427   3.280   0.178  14.443  0.0490  0.6800  0.8148
  770MPD2    H711428   3.230   0.092  14.426  4.0398 -1.8129  1.7119
  771MPD2     C11429   4.326   3.471  13.513  0.6267  0.3750  0.3422
  771MPD2    C111430   4.373   3.556  13.415 -0.1405  0.2484 -0.2864
  771MPD2    C211431   4.307   3.555  13.299  0.1807  0.6545 -0.5966
  771MPD2    C311432   4.211   3.462  13.262 -0.9743  1.1447 -0.1444
  771MPD2    C411433   4.173   3.376  13.362 -0.5116  0.1270  0.0965
  771MPD2    C511434   4.225   3.379  13.490 -0.0304  0.0963 -0.0908
  771MPD2     H11435   4.338   3.622  13.220  3.0675  0.0029 -0.0014
  771MPD2    H111436   4.093   3.305  13.344  0.3726 -0.9204  0.2694
  771MPD2    H211437   4.372   3.488  13.609 -1.1130 -0.9655  1.4170
  771MPD2    H311438   4.200   3.305  13.565 -0.7610  1.1300  0.6719
  771MPD2     N11439   4.150   3.462  13.136 -1.0933  0.5998 -0.2611
  771MPD2    H511440   4.167   3.540  13.073  0.2839 -0.0062 -0.6379
  771MPD2    N111441   4.466   3.661  13.437 -0.0780  0.0927  0.6592
  771MPD2    H711442   4.459   3.740  13.374 -0.1211 -1.6235 -1.4742
  772MPD2     C11443   4.304   4.244  13.963 -0.3147  0.1995 -0.3557
  772MPD2    C111444   4.327   4.111  13.927 -0.1836  0.4663  1.0295
  772MPD2    C211445   4.233   4.015  13.973 -0.2018 -0.0989  0.8320
  772MPD2    C311446   4.111   4.044  14.039 -0.0431 -0.3911  0.1626
  772MPD2    C411447   4.101   4.183  14.071  0.0510  0.2387  0.3258
  772MPD2    C511448   4.191   4.281  14.027  0.1567 -0.6489  0.6814
  772MPD2     H11449   4.265   3.912  13.965 -0.2170 -0.0174 -0.2571
  772MPD2    H111450   4.007   4.218  14.111 -1.1585  0.5447 -2.8088
  772MPD2    H211451   4.373   4.320  13.928  1.7819 -2.1458 -1.2550
  772MPD2    H311452   4.186   4.383  14.063  1.2958 -0.5712  0.6195
  772MPD2     N11453   4.002   3.954  14.065  0.3794  0.2533 -0.0667
  772MPD2    H511454   3.922   3.989  14.117  0.6546 -1.4734  1.5437
  772MPD2    N111455   4.424   4.051  13.843  0.0648  0.2783  0.8476
  772MPD2    H711456   4.394   3.960  13.807 -2.7240  0.9452  1.4631
  773MPD2     C11457   2.619   0.021  17.266  0.0237  0.1224 -0.0340
  773MPD2    C111458   2.641   4.624  17.253 -0.3844 -0.0890 -0.6761
  773MPD2    C211459   2.726   4.556  17.347  0.2507  0.0146  0.6258
  773MPD2    C311460   2.774   4.620  17.461 -0.5518 -0.1410  0.2673
  773MPD2    C411461   2.741   0.017  17.473 -0.4567 -0.1983 -0.9308
  773MPD2    C511462   2.674   0.081  17.377  0.3509 -0.2324  0.3324
  773MPD2     H11463   2.745   4.452  17.326 -1.9462 -0.3226  0.3075
  773MPD2    H111464   2.771   0.079  17.557 -2.2588  1.8586 -1.8291
  773MPD2    H211465   2.552   0.076  17.202  0.8826  1.0567 -0.1317
  773MPD2    H311466   2.654   0.183  17.409  2.1712 -1.2149  4.5384
  773MPD2     N11467   2.858   4.554  17.549 -0.2933  0.8052 -0.0721
  773MPD2    H511468   2.868   4.455  17.530 -1.4203 -0.0134  3.7615
  773MPD2    N111469   2.591   4.553  17.145  0.1528  0.5370  0.9361
  773MPD2    H711470   2.625   4.458  17.135 -2.2178 -0.5020  2.8319
  774MPD2     C11471   2.230   3.910  13.336 -0.3289  0.0429 -0.3010
  774MPD2    C111472   2.361   3.937  13.364 -0.5533 -0.0912 -0.0485
  774MPD2    C211473   2.404   4.068  13.357  0.2259 -0.6119 -0.6255
  774MPD2    C311474   2.322   4.164  13.304 -0.5307 -0.2557 -0.6161
  774MPD2    C411475   2.187   4.133  13.284  0.3304  0.0436  0.2887
  774MPD2    C511476   2.143   4.006  13.304  0.0300  0.7987  0.1529
  774MPD2     H11477   2.507   4.098  13.374  0.5593 -1.3913 -1.3057
  774MPD2    H111478   2.115   4.203  13.245 -1.3642 -1.3145  0.9815
  774MPD2    H211479   2.190   3.809  13.326 -2.5197  0.8518  0.4714
  774MPD2    H311480   2.041   3.971  13.295  0.2773  0.2798 -0.6593
  774MPD2     N11481   2.369   4.292  13.280  0.0860 -0.3717 -0.0854
  774MPD2    H511482   2.458   4.320  13.319 -0.1443  0.2970 -0.0353
  774MPD2    N111483   2.450   3.834  13.402 -0.4029 -0.3093  0.2653
  774MPD2    H711484   2.413   3.740  13.398  1.0980 -0.8524 -0.7943
  775MPD2     C11485   3.797   0.576  15.336 -0.9391  0.0977 -0.0407
  775MPD2    C111486   3.808   0.662  15.440  0.5912 -0.2461  0.4145
  775MPD2    C211487   3.893   0.768  15.427 -0.0052 -0.6119  0.6076
  775MPD2    C311488   3.952   0.803  15.306 -0.1619 -0.4538 -0.3066
  775MPD2    C411489   3.931   0.721  15.195 -0.1767 -0.3174 -0.0451
  775MPD2    C511490   3.852   0.603  15.213  0.1518 -0.0990 -0.4036
  775MPD2     H11491   3.902   0.830  15.516 -1.1873  0.5215 -0.0643
  775MPD2    H111492   3.976   0.747  15.100 -0.1445  0.1858  0.1120
  775MPD2    H211493   3.728   0.493  15.342  1.7244 -2.1569 -0.2728
  775MPD2    H311494   3.837   0.541  15.125  2.5833  0.0193 -0.9051
  775MPD2     N11495   4.031   0.924  15.297 -0.4219  0.3103  0.1044
  775MPD2    H511496   4.068   0.948  15.205  0.0359 -0.4403  0.0960
  775MPD2    N111497   3.733   0.628  15.563  0.1753 -0.1196 -0.8311
  775MPD2    H711498   3.683   0.540  15.564 -3.1512  1.7813 -0.1468
  776MPD2     C11499   2.242   1.258  11.912 -0.3990 -0.3081 -0.2015
  776MPD2    C111500   2.376   1.232  11.905  0.5225  0.3236  0.4468
  776MPD2    C211501   2.449   1.324  11.832 -0.1044  0.1582 -0.2463
  776MPD2    C311502   2.398   1.444  11.782 -0.1967  0.8549  1.0667
  776MPD2    C411503   2.262   1.463  11.793  0.7313  0.1039  0.4895
  776MPD2    C511504   2.187   1.368  11.863  0.2824 -0.0167  0.3647
  776MPD2     H11505   2.555   1.303  11.819 -0.7859 -2.8978 -0.7244
  776MPD2    H111506   2.218   1.554  11.755  0.4979 -0.7278 -1.2031
  776MPD2    H211507   2.176   1.191  11.964 -0.2293 -1.5403 -1.5634
  776MPD2    H311508   2.080   1.383  11.875  0.3343  0.3127  0.4184
  776MPD2     N11509   2.474   1.537  11.710 -0.0195  0.3925  1.1914
  776MPD2    H511510   2.419   1.596  11.648  1.4941 -0.0416 -0.5660
  776MPD2    N111511   2.429   1.111  11.959  0.1932  0.3390 -0.2383
  776MPD2    H711512   2.368   1.049  12.011  1.1194 -0.7551 -0.4347
  777MPD2     C11513   3.583   3.688   0.551 -0.5545  0.0747 -0.0306
  777MPD2    C111514   3.576   3.622   0.673  0.3498  0.2694 -0.8286
  777MPD2    C211515   3.502   3.509   0.680  1.0073 -1.1938 -0.0399
  777MPD2    C311516   3.431   3.455   0.569  1.1701 -0.2804 -0.3653
  777MPD2    C411517   3.418   3.536   0.453 -0.1244 -0.6983 -0.6715
  777MPD2    C511518   3.496   3.649   0.448  0.0921  0.0737  0.3082
  777MPD2     H11519   3.500   3.462   0.778  2.6726 -0.7225  0.2202
  777MPD2    H111520   3.348   3.503   0.377 -1.0624  0.0769 -0.1525
  777MPD2    H211521   3.640   3.778   0.534  0.8124 -0.6777  0.5610
  777MPD2    H311522   3.488   3.715   0.362 -0.9134 -1.8252 -1.0331
  777MPD2     N11523   3.374   3.332   0.586  0.2278 -0.7451  0.2092
  777MPD2    H511524   3.362   3.294   0.679 -0.3997  0.7505  0.7352
  777MPD2    N111525   3.655   3.675   0.774  0.1184 -0.6844 -0.1565
  777MPD2    H711526   3.694   3.765   0.749 -2.2196  0.0314 -1.2823
  778MPD2     C11527   4.631   3.854  14.650  0.4157  0.3845  0.3765
  778MPD2    C111528   4.664   3.741  14.575 -0.6389 -0.0496 -0.3921
  778MPD2    C211529   0.004   3.754  14.471 -0.9365 -0.0840  0.3874
  778MPD2    C311530   0.040   3.880  14.430  0.1342 -0.4805  0.4899
  778MPD2    C411531   0.003   3.988  14.497 -0.3766 -0.1641 -0.0649
  778MPD2    C511532   4.660   3.979  14.604 -0.2047  0.6447  0.7455
  778MPD2     H11533   0.051   3.670  14.422  0.9337 -0.0074  2.0647
  778MPD2    H111534   0.035   4.090  14.476  0.1601 -0.0328  1.3647
  778MPD2    H211535   4.558   3.844  14.730 -1.1531 -2.4524 -1.3836
  778MPD2    H311536   4.633   4.071  14.654  0.5511  0.3380  1.7133
  778MPD2     N11537   0.144   3.882  14.330  0.0245 -0.1225  0.4022
  778MPD2    H511538   0.185   3.791  14.309 -1.1818 -0.4992 -0.3239
  778MPD2    N111539   4.612   3.612  14.617  0.2399  0.0657  0.5766
  778MPD2    H711540   4.613   3.538  14.548 -3.0543  2.3450 -1.8883
  779MPD2     C11541   3.870   2.191  14.532 -0.6300 -0.3588 -0.6575
  779MPD2    C111542   4.006   2.171  14.521  0.2922  0.3862  0.5502
  779MPD2    C211543   4.085   2.283  14.513  0.1022  0.1403  0.7624
  779MPD2    C311544   4.040   2.411  14.484  0.1666  0.9378 -0.2825
  779MPD2    C411545   3.903   2.435  14.495 -0.1136 -0.6211  0.0477
  779MPD2    C511546   3.822   2.320  14.522  0.0367 -0.3885  0.3509
  779MPD2     H11547   4.192   2.265  14.514 -0.0816 -1.1506 -2.3678
  779MPD2    H111548   3.863   2.536  14.495  1.7474  0.1036  2.2002
  779MPD2    H211549   3.791   2.118  14.548  0.7513 -1.1523  2.5028
  779MPD2    H311550   3.715   2.333  14.531  0.2204  1.4584 -0.0640
  779MPD2     N11551   4.142   2.502  14.455  0.1287  0.4328 -0.6463
  779MPD2    H511552   4.239   2.472  14.459  0.7254  2.5662  0.9072
  779MPD2    N111553   4.064   2.039  14.514 -0.0178  0.0378 -0.1454
  779MPD2    H711554   4.165   2.048  14.510 -0.0347  0.1378 -0.3553
  780MPD2     C11555   3.119   2.076   0.578 -0.3373 -0.4581  0.4852
  780MPD2    C111556   3.137   1.987   0.465  0.2815  0.1907  0.6024
  780MPD2    C211557   3.246   2.011   0.387  0.2478 -0.1843 -0.0970
  780MPD2    C311558   3.335   2.116   0.415  0.8735  0.4084 -0.4445
  780MPD2    C411559   3.315   2.201   0.513  0.6166 -1.3186 -0.4004
  780MPD2    C511560   3.206   2.185   0.596 -0.3756  0.3029  0.1962
  780MPD2     H11561   3.261   1.953   0.296 -0.3209 -0.1591 -0.2063
  780MPD2    H111562   3.394   2.270   0.538  0.9065 -1.2842 -1.4172
  780MPD2    H211563   3.036   2.064   0.648  0.0461  3.0980  1.5730
  780MPD2    H311564   3.183   2.251   0.680 -0.0267 -0.8940  1.2281
  780MPD2     N11565   3.448   2.121   0.329  0.8205 -0.2591  0.1442
  780MPD2    H511566   3.441   2.031   0.281  0.3628  0.2339 -0.7063
  780MPD2    N111567   3.055   1.872   0.441 -0.0757  0.2699  0.2794
  780MPD2    H711568   3.080   1.817   0.360 -1.3905 -1.2324  0.9070
  781MPD2     C11569   1.023   4.444  12.223  0.2821  0.3190  0.1728
  781MPD2    C111570   0.900   4.412  12.171 -0.3704 -0.2182 -0.3644
  781MPD2    C211571   0.849   4.487  12.064 -0.0861  0.3280 -1.0054
  781MPD2    C311572   0.922   4.598  12.017 -0.1310 -0.2024  0.4091
  781MPD2    C411573   1.041   4.636  12.075  0.1056  0.2764 -0.0306
  781MPD2    C511574   1.090   4.550  12.169  0.1088 -0.6075  0.0620
  781MPD2     H11575   0.760   4.454  12.012  1.9486 -3.1705 -2.3139
  781MPD2    H111576   1.099   4.716  12.030  0.6263 -0.3638 -0.4857
  781MPD2    H211577   1.064   4.389  12.306  1.7869  0.9561 -0.1444
  781MPD2    H311578   1.192   4.556  12.205  0.1416 -1.3288  0.0934
  781MPD2     N11579   0.880   4.692  11.915  0.0984 -0.0087 -0.6638
  781MPD2    H511580   0.928   0.042  11.910 -0.4308  0.3329  0.2403
  781MPD2    N111581   0.826   4.305  12.230 -0.2566 -0.2619  0.1637
  781MPD2    H711582   0.872   4.245  12.298  1.2275 -0.3541 -0.9215
  782MPD2     C11583   3.489   0.293   9.940 -0.4567  0.7407  0.5453
  782MPD2    C111584   3.442   0.299  10.071  0.5953  0.4794  0.1607
  782MPD2    C211585   3.434   0.422  10.136  0.9057 -0.2093  0.0574
  782MPD2    C311586   3.498   0.529  10.079  0.0295 -0.0618  0.1201
  782MPD2    C411587   3.542   0.523   9.947  0.0562  0.1884  0.2803
  782MPD2    C511588   3.536   0.407   9.876 -0.5176  0.6624  0.4130
  782MPD2     H11589   3.395   0.430  10.237  2.1829  0.5610  0.4959
  782MPD2    H111590   3.589   0.609   9.899  0.0969 -0.6718 -1.2083
  782MPD2    H211591   3.491   0.197   9.890  0.4641  0.4171  1.1991
  782MPD2    H311592   3.567   0.399   9.773 -0.4055 -1.0452  0.5813
  782MPD2     N11593   3.529   0.650  10.144  0.2702 -0.6191  0.8302
  782MPD2    H511594   3.582   0.717  10.089 -1.6198 -0.7296 -1.1462
  782MPD2    N111595   3.408   0.174  10.128 -0.0272  0.0548 -0.2613
  782MPD2    H711596   3.458   0.095  10.087  0.4281  0.0350  0.3176
  783MPD2     C11597   3.020   4.608  11.095  0.1847  0.4946 -0.3015
  783MPD2    C111598   3.104   4.719  11.096  0.2500 -0.3011  0.1206
  783MPD2    C211599   3.185   0.006  10.988 -0.3706 -0.4411  0.3794
  783MPD2    C311600   3.173   4.662  10.878  0.4225 -0.4328 -0.0725
  783MPD2    C411601   3.077   4.562  10.871 -0.7012  0.3847 -0.0715
  783MPD2    C511602   3.006   4.537  10.980  0.0722  0.3889  0.1338
  783MPD2     H11603   3.266   0.078  10.996  0.2069 -1.0740  0.2327
  783MPD2    H111604   3.077   4.496  10.785  0.5138 -0.1148  0.3130
  783MPD2    H211605   2.964   4.568  11.179 -0.2116  0.6429 -0.4975
  783MPD2    H311606   2.932   4.457  10.981  0.6984 -0.2169 -2.5586
  783MPD2     N11607   3.255   4.697  10.769 -0.7028  0.9512  0.0391
  783MPD2    H511608   3.332   0.020  10.790  0.0812 -0.1095  0.2908
  783MPD2    N111609   3.120   0.044  11.216  0.0156  0.1532 -0.0913
  783MPD2    H711610   3.058   0.015  11.291 -0.1014  1.3279  0.2662
  784MPD2     C11611   0.291   0.520   1.190  0.4512  0.2753  0.1364
  784MPD2    C111612   0.378   0.634   1.185  0.3386  0.3006 -0.1477
  784MPD2    C211613   0.337   0.743   1.111  0.1581  0.2278 -0.1554
  784MPD2    C311614   0.236   0.741   1.021 -0.7600  0.5206 -0.1186
  784MPD2    C411615   0.170   0.618   1.010  0.8399  0.0116  0.1911
  784MPD2    C511616   0.197   0.516   1.097  0.6981 -0.3285  0.3306
  784MPD2     H11617   0.383   0.835   1.142  1.2748  0.0605 -1.3439
  784MPD2    H111618   0.083   0.604   0.946  0.1829 -0.6995  1.2421
  784MPD2    H211619   0.307   0.436   1.255  1.7049 -0.0257 -0.5653
  784MPD2    H311620   0.134   0.429   1.109 -1.0132  0.9915  0.9580
  784MPD2     N11621   0.217   0.851   0.933  0.8093 -0.3972  0.3721
  784MPD2    H511622   0.279   0.930   0.939 -2.1906  1.8579  1.4830
  784MPD2    N111623   0.484   0.652   1.275 -0.5973 -0.3292  0.2037
  784MPD2    H711624   0.545   0.733   1.266 -0.0001 -1.0060 -1.6850
  785MPD2     C11625   0.918   0.115  10.585  0.1640 -0.1295  0.1443
  785MPD2    C111626   0.971   0.230  10.636 -0.3947  1.3472 -0.1124
  785MPD2    C211627   1.006   0.321  10.545  0.4975 -0.4637  0.3277
  785MPD2    C311628   0.984   0.303  10.410 -0.1485  0.3343 -0.2187
  785MPD2    C411629   0.933   0.188  10.361 -0.3233  0.0921  0.0676
  785MPD2    C511630   0.893   0.091  10.451  0.8065  0.1155  0.0329
  785MPD2     H11631   1.058   0.411  10.577  1.0703 -0.5212 -0.4519
  785MPD2    H111632   0.903   0.176  10.257  0.0389 -2.2678  0.2335
  785MPD2    H211633   0.893   0.036  10.656  0.3230 -2.0129 -1.8978
  785MPD2    H311634   0.858   4.735  10.412 -1.3053  0.8078  0.2465
  785MPD2     N11635   1.033   0.407  10.330  0.1693  0.7605  0.8745
  785MPD2    H511636   1.066   0.491  10.378  0.8347  0.3661  1.1084
  785MPD2    N111637   1.014   0.249  10.768 -0.1232  0.7927  0.6676
  785MPD2    H711638   1.063   0.334  10.794  2.3996 -0.2489 -0.6865
  786MPD2     C11639   4.555   1.572  14.940  0.0683 -0.0895 -0.1659
  786MPD2    C111640   4.644   1.462  14.923  1.0192 -0.0787 -0.4321
  786MPD2    C211641   4.738   1.434  15.019 -0.3783  0.0266  0.1527
  786MPD2    C311642   4.726   1.491  15.148 -0.2186  0.0291  0.0578
  786MPD2    C411643   4.642   1.602  15.167  0.2628 -1.1418 -0.1015
  786MPD2    C511644   4.551   1.621  15.069  0.2206  0.1075  0.3349
  786MPD2     H11645   0.066   1.352  14.995 -1.7084 -1.1123  0.3193
  786MPD2    H111646   4.636   1.669  15.252  0.2447 -2.5234  0.9927
  786MPD2    H211647   4.477   1.600  14.870 -0.4798 -0.4799  0.2858
  786MPD2    H311648   4.479   1.701  15.085 -0.8933 -1.4976  3.4336
  786MPD2     N11649   0.079   1.463  15.253  0.2458  0.0013 -0.3859
  786MPD2    H511650   0.056   1.508  15.341 -2.0313  2.2028 -2.0937
  786MPD2    N111651   4.646   1.399  14.798  0.5526 -0.7097  0.9462
  786MPD2    H711652   4.719   1.329  14.788 -0.3972 -1.5583 -0.0076
  787MPD2     C11653   0.352   1.012  14.675 -0.4955  0.0445 -0.1407
  787MPD2    C111654   0.280   1.008  14.554  0.4978 -0.1252 -0.2865
  787MPD2    C211655   0.312   0.896  14.472 -0.2962 -1.1706  0.1488
  787MPD2    C311656   0.429   0.825  14.488 -0.1152 -0.2685 -0.1664
  787MPD2    C411657   0.500   0.838  14.607 -0.0422  0.2488  0.2240
  787MPD2    C511658   0.460   0.930  14.701 -0.3566 -0.0259  0.2054
  787MPD2     H11659   0.257   0.893  14.379  2.9183  0.2343 -1.7869
  787MPD2    H111660   0.588   0.781  14.636  0.2624 -0.7413 -2.6056
  787MPD2    H211661   0.323   1.072  14.761  0.8662  0.2184  0.1979
  787MPD2    H311662   0.514   0.936  14.795 -1.2654  1.8484  0.6015
  787MPD2     N11663   0.467   0.744  14.383  0.2083 -0.8141 -0.1225
  787MPD2    H511664   0.410   0.756  14.300  1.6286 -1.0928 -1.1316
  787MPD2    N111665   0.167   1.092  14.542 -0.0227 -0.6427 -0.0385
  787MPD2    H711666   0.154   1.165  14.611  2.0267  1.8274 -2.3196
  788MPD2     C11667   2.458   0.183   0.552 -1.0666  0.3933  0.9314
  788MPD2    C111668   2.347   0.111   0.545  0.2017  0.2348 -0.5145
  788MPD2    C211669   2.270   0.090   0.434 -0.0675  0.5336  0.0036
  788MPD2    C311670   2.320   0.137   0.314 -0.0760  0.2528  0.1225
  788MPD2    C411671   2.438   0.202   0.314  0.0383  0.2135 -0.5821
  788MPD2    C511672   2.510   0.223   0.430 -0.7340 -0.6280  0.0151
  788MPD2     H11673   2.186   0.022   0.439 -0.7279  1.3370 -0.1093
  788MPD2    H111674   2.482   0.231   0.220 -2.2700  2.8988 -0.8279
  788MPD2    H211675   2.503   0.208   0.647  1.8708 -2.4114  0.3129
  788MPD2    H311676   2.608   0.268   0.424 -1.3280  0.5207 -1.2673
  788MPD2     N11677   2.263   0.107   0.189 -0.2365  0.1147  0.4352
  788MPD2    H511678   2.313   0.141   0.107 -2.2279  1.2816 -0.3058
  788MPD2    N111679   2.305   0.037   0.652  0.5039 -0.1132 -0.2543
  788MPD2    H711680   2.214   4.732   0.640 -0.3105  0.9140  2.0683
  789MPD2     C11681   2.254   3.772  16.220 -1.1428 -0.0139 -0.3592
  789MPD2    C111682   2.179   3.823  16.110  0.7225 -0.1975  0.1128
  789MPD2    C211683   2.078   3.917  16.135  0.2934  0.0972 -0.2911
  789MPD2    C311684   2.027   3.937  16.264  0.2319  0.1435  0.1619
  789MPD2    C411685   2.096   3.884  16.371  0.1365  0.1752 -0.3049
  789MPD2    C511686   2.209   3.804  16.348 -1.0598 -0.0711 -0.2359
  789MPD2     H11687   2.019   3.952  16.052  0.3816  1.7161  0.3298
  789MPD2    H111688   2.051   3.893  16.469  0.0842 -2.5755 -0.0853
  789MPD2    H211689   2.349   3.720  16.215 -1.9325 -1.6652  2.3404
  789MPD2    H311690   2.273   3.758  16.423 -0.2513  1.5358  0.0611
  789MPD2     N11691   1.912   4.018  16.299  0.0943 -0.5475 -0.1351
  789MPD2    H511692   1.899   4.009  16.399  1.2692 -0.8300 -0.0042
  789MPD2    N111693   2.221   3.810  15.973  0.1532  0.4053  0.7632
  789MPD2    H711694   2.176   3.868  15.903  0.0267  1.0225  1.3590
  790MPD2     C11695   3.153   1.652  13.397 -0.4406  0.1811  0.3787
  790MPD2    C111696   3.141   1.514  13.395 -0.0612  0.9681 -0.4847
  790MPD2    C211697   3.089   1.450  13.284  0.0510  0.0864 -0.8454
  790MPD2    C311698   3.041   1.524  13.173  0.2954  0.0840 -0.3805
  790MPD2    C411699   3.055   1.662  13.179 -0.2331  0.0445 -0.1456
  790MPD2    C511700   3.120   1.720  13.285 -0.1067  0.7886  0.0082
  790MPD2     H11701   3.096   1.341  13.279 -0.2614  0.0118  0.5496
  790MPD2    H111702   3.015   1.724  13.100  1.4184  0.7342 -0.4248
  790MPD2    H211703   3.157   1.714  13.486  0.1340 -0.3745  0.7378
  790MPD2    H311704   3.120   1.829  13.281 -2.4656  0.6861 -2.9975
  790MPD2     N11705   2.987   1.457  13.058  0.1241 -0.4477  0.2824
  790MPD2    H511706   2.994   1.356  13.063 -0.7306 -0.5235  0.0657
  790MPD2    N111707   3.170   1.446  13.516 -0.1236  0.3231  0.3316
  790MPD2    H711708   3.188   1.496  13.603 -0.1145 -3.0684  2.2834
  791MPD2     C11709   2.360   1.418  12.510 -0.2638 -0.4467  0.3903
  791MPD2    C111710   2.420   1.318  12.571  0.5272 -0.2531 -0.2850
  791MPD2    C211711   2.347   1.215  12.628  0.1897 -0.0019 -0.0349
  791MPD2    C311712   2.211   1.220  12.632 -1.0474  0.6296 -0.1309
  791MPD2    C411713   2.146   1.334  12.580  0.0391 -0.2348 -0.5480
  791MPD2    C511714   2.221   1.427  12.521  0.1096  0.6258  1.0090
  791MPD2     H11715   2.399   1.136  12.681 -1.1696 -1.4267 -0.8104
  791MPD2    H111716   2.037   1.335  12.581  0.1122  0.6481  3.7856
  791MPD2    H211717   2.417   1.497  12.462 -0.3678 -1.2282 -1.0145
  791MPD2    H311718   2.170   1.517  12.488  2.0422  1.4149  0.1556
  791MPD2     N11719   2.151   1.117  12.697 -0.0353  0.3913 -0.4050
  791MPD2    H511720   2.206   1.041  12.737 -1.9168 -0.4117  0.6768
  791MPD2    N111721   2.560   1.305  12.585 -0.6532  0.0718 -0.4004
  791MPD2    H711722   2.597   1.230  12.642  2.7324  2.9201  1.1087
  792MPD2     C11723   3.225   1.250  11.531  0.1041 -0.0662  0.2422
  792MPD2    C111724   3.160   1.288  11.412 -0.8941 -0.0003  0.0373
  792MPD2    C211725   3.029   1.312  11.405 -0.2380 -0.1400  0.7224
  792MPD2    C311726   2.950   1.283  11.521 -0.1961  0.8017 -0.4520
  792MPD2    C411727   3.015   1.248  11.641  0.0311 -0.2965 -0.0729
  792MPD2    C511728   3.152   1.241  11.645 -0.0124 -0.6803  0.6869
  792MPD2     H11729   2.974   1.333  11.314 -0.8211 -0.0465  1.0872
  792MPD2    H111730   2.964   1.220  11.732 -1.4181  1.2848 -0.3993
  792MPD2    H211731   3.331   1.234  11.546 -0.0372 -1.0307  0.2045
  792MPD2    H311732   3.195   1.214  11.741  1.0068  0.5091  0.5633
  792MPD2     N11733   2.810   1.261  11.519 -0.8151 -0.8930 -0.5108
  792MPD2    H511734   2.775   1.212  11.601 -0.0828  0.3681  0.5482
  792MPD2    N111735   3.242   1.312  11.300 -0.7889  0.2756 -0.1354
  792MPD2    H711736   3.340   1.293  11.320 -0.2479 -0.3212 -3.2857
  793MPD2     C11737   2.263   1.533  10.735 -0.3666 -0.2283 -0.3731
  793MPD2    C111738   2.394   1.486  10.746  0.6731 -0.1031  0.4397
  793MPD2    C211739   2.425   1.428  10.863  0.0801  0.5439  0.1403
  793MPD2    C311740   2.336   1.410  10.972 -0.1869  0.1795  0.1169
  793MPD2    C411741   2.213   1.461  10.953 -0.4783 -0.3665 -0.9648
  793MPD2    C511742   2.178   1.520  10.834  0.4572  0.5151  0.6223
  793MPD2     H11743   2.531   1.404  10.872 -0.5174 -1.5219  1.6952
  793MPD2    H111744   2.138   1.458  11.032  2.4116 -0.9412  1.7196
  793MPD2    H211745   2.217   1.570  10.643  0.5979  1.5932 -0.1189
  793MPD2    H311746   2.079   1.562  10.825  0.1909 -0.3862 -0.6292
  793MPD2     N11747   2.382   1.349  11.094 -0.7754 -0.4137  0.3553
  793MPD2    H511748   2.482   1.334  11.108 -0.8417  1.1063  2.4753
  793MPD2    N111749   2.497   1.515  10.654 -0.8588  0.0200  0.1782
  793MPD2    H711750   2.595   1.515  10.681 -1.2763 -2.8181  1.6249
  794MPD2     C11751   2.550   4.549  16.298 -0.2167  0.1882  0.1337
  794MPD2    C111752   2.495   4.640  16.380  0.2479  0.3590  0.1161
  794MPD2    C211753   2.471   0.032  16.339 -0.0844 -0.0965  0.3098
  794MPD2    C311754   2.478   0.059  16.199 -0.2209  0.4493 -0.7874
  794MPD2    C411755   2.523   4.702  16.110  0.3850  0.4389  0.0158
  794MPD2    C511756   2.557   4.577  16.163 -0.3111  0.1949 -0.4114
  794MPD2     H11757   2.433   0.104  16.410  0.0329  0.7285 -0.4634
  794MPD2    H111758   2.528   4.717  16.003  1.4274 -0.2023 -0.0310
  794MPD2    H211759   2.595   4.455  16.327  0.9286  0.4172 -0.8586
  794MPD2    H311760   2.605   4.501  16.102 -0.9667  0.1124 -0.8153
  794MPD2     N11761   2.434   0.183  16.141 -0.9443 -0.1802  0.1946
  794MPD2    H511762   2.433   0.192  16.040 -0.3646 -4.9587 -0.2124
  794MPD2    N111763   2.483   4.612  16.523  0.2957  0.1364  0.3439
  794MPD2    H711764   2.440   4.684  16.580 -1.2428 -0.8272  0.4158
  795MPD2     C11765   0.568   2.685  13.858  0.5194 -0.1086  0.0498
  795MPD2    C111766   0.532   2.588  13.765 -0.0509 -0.1251  0.3619
  795MPD2    C211767   0.633   2.497  13.731 -0.7312  0.0264 -0.6549
  795MPD2    C311768   0.754   2.500  13.800  0.3171  0.1350 -0.3350
  795MPD2    C411769   0.781   2.600  13.897 -0.1173 -0.2127  0.6573
  795MPD2    C511770   0.693   2.693  13.916  0.4336 -0.2009  0.2963
  795MPD2     H11771   0.609   2.426  13.652  0.0580 -2.0742  1.0041
  795MPD2    H111772   0.870   2.609  13.959  1.1083 -1.6715 -0.8935
  795MPD2    H211773   0.497   2.757  13.897 -1.6935 -0.4916 -3.2204
  795MPD2    H311774   0.719   2.773  13.984  0.0864 -1.1777  1.5928
  795MPD2     N11775   0.852   2.406  13.759  0.1363  0.3557 -0.6719
  795MPD2    H511776   0.833   2.328  13.697  1.3104 -1.2155  0.9547
  795MPD2    N111777   0.406   2.583  13.697 -0.1081 -0.8078  0.7304
  795MPD2    H711778   0.395   2.515  13.622 -1.6560  0.0371  0.1941
  796MPD2     C11779   0.090   3.844  15.490 -0.2356 -0.0801  0.3782
  796MPD2    C111780   0.158   3.895  15.604  0.4656 -0.0833  0.7282
  796MPD2    C211781   0.159   4.033  15.625  0.0907 -0.1236  0.1211
  796MPD2    C311782   0.088   4.119  15.545  0.4100  0.5738 -0.6033
  796MPD2    C411783   0.018   4.066  15.440 -0.0369 -0.0774  0.0535
  796MPD2    C511784   0.028   3.932  15.409  0.2087  0.0633 -0.7416
  796MPD2     H11785   0.211   4.079  15.707  0.8024  0.3637 -0.6050
  796MPD2    H111786   4.712   4.129  15.364  0.7701  1.5056  0.8935
  796MPD2    H211787   0.085   3.737  15.468 -0.8530  0.0356 -0.0645
  796MPD2    H311788   4.729   3.896  15.314  2.0544 -0.4612 -1.2849
  796MPD2     N11789   0.097   4.256  15.575  0.1753  0.6909 -0.2211
  796MPD2    H511790   0.158   4.295  15.647 -0.5979 -0.1282  0.8833
  796MPD2    N111791   0.229   3.807  15.689 -0.2173  0.3145 -0.5786
  796MPD2    H711792   0.210   3.708  15.698  2.6565 -0.2684 -1.0174
  797MPD2     C11793   1.660   3.697  16.984  0.2945 -0.3170  0.5816
  797MPD2    C111794   1.537   3.721  17.045 -0.2410 -0.3964 -0.2332
  797MPD2    C211795   1.421   3.736  16.969  0.0490 -0.7008 -0.1710
  797MPD2    C311796   1.428   3.731  16.827  0.1654 -0.5507 -0.8551
  797MPD2    C411797   1.545   3.707  16.770  0.4286  0.1664  0.5640
  797MPD2    C511798   1.659   3.698  16.844 -0.2325 -0.2314 -0.6644
  797MPD2     H11799   1.325   3.755  17.016  1.5608  0.4860  2.4645
  797MPD2    H111800   1.548   3.707  16.661  0.1343 -0.8251  0.5526
  797MPD2    H211801   1.751   3.694  17.043  1.5302  0.7657 -1.2736
  797MPD2    H311802   1.757   3.699  16.798  0.2868  0.1462  0.4361
  797MPD2     N11803   1.309   3.756  16.739  0.1678  0.0563  0.0719
  797MPD2    H511804   1.327   3.751  16.639 -2.6632  0.4888 -0.4851
  797MPD2    N111805   1.515   3.728  17.185 -0.4218 -0.3159 -0.0139
  797MPD2    H711806   1.418   3.740  17.212  0.0873  1.0979  1.1961
  798MPD2     C11807   0.954   4.190  17.154 -0.0347 -0.7105 -0.2430
  798MPD2    C111808   1.003   4.071  17.100 -0.3865 -0.3261  0.0052
  798MPD2    C211809   1.068   3.982  17.187 -0.1069  0.2169 -0.5077
  798MPD2    C311810   1.097   4.028  17.314 -0.3809 -0.0088 -0.3165
  798MPD2    C411811   1.048   4.145  17.366 -0.2546  0.5079  0.0211
  798MPD2    C511812   0.974   4.220  17.283 -0.1063 -0.3824 -0.3345
  798MPD2     H11813   1.118   3.892  17.151 -0.1130  0.3793 -0.9256
  798MPD2    H111814   1.070   4.167  17.470  1.5655 -2.2828  0.2361
  798MPD2    H211815   0.898   4.266  17.101 -0.0208  0.9544  2.0980
  798MPD2    H311816   0.922   4.303  17.330  1.2555  0.2303  0.0945
  798MPD2     N11817   1.189   3.945  17.380  0.3994  0.6913  0.3427
  798MPD2    H511818   1.209   3.856  17.335  1.0749  0.3971  1.2265
  798MPD2    N111819   0.990   4.035  16.963 -0.0199  0.1523  0.4973
  798MPD2    H711820   1.037   3.948  16.940  2.4706  1.2381  1.5827
  799MPD2     C11821   0.076   0.529  14.689 -1.1871  0.1014 -0.2723
  799MPD2    C111822   4.730   0.444  14.608  0.6702 -0.6708 -0.7595
  799MPD2    C211823   4.670   0.505  14.498  0.1107  0.2438  0.1825
  799MPD2    C311824   4.692   0.640  14.468  0.0827 -0.4217 -1.2028
  799MPD2    C411825   0.041   0.708  14.548 -0.4199 -0.0159 -0.0241
  799MPD2    C511826   0.105   0.653  14.645  0.2870 -0.1786  0.2352
  799MPD2     H11827   4.606   0.448  14.430 -0.5936  0.5487  0.5928
  799MPD2    H111828   0.063   0.812  14.528  0.6277 -0.4812 -1.3053
  799MPD2    H211829   0.129   0.490  14.775 -1.1179  2.4665  0.7308
  799MPD2    H311830   0.183   0.710  14.695 -0.1991 -0.5734  1.4487
  799MPD2     N11831   4.629   0.710  14.363 -0.7094  0.4499 -0.1239
  799MPD2    H511832   4.663   0.805  14.353  0.0877  0.0325 -1.4812
  799MPD2    N111833   4.712   0.306  14.616  0.3260 -0.4259 -0.1643
  799MPD2    H711834   4.642   0.267  14.554  0.2109 -1.0122  0.3327
  800MPD2     C11835   0.393   1.462  13.785 -0.1165 -0.7256 -0.6532
  800MPD2    C111836   0.493   1.535  13.722 -0.1919  0.1329 -0.5366
  800MPD2    C211837   0.520   1.504  13.589  0.3555 -0.9086 -0.2276
  800MPD2    C311838   0.442   1.422  13.518 -0.7945 -0.1719 -0.5295
  800MPD2    C411839   0.344   1.344  13.576  0.3109  0.0266  0.0875
  800MPD2    C511840   0.318   1.372  13.704 -0.1944  0.5355  1.0009
  800MPD2     H11841   0.600   1.553  13.534  0.6798 -1.6850 -0.4438
  800MPD2    H111842   0.278   1.271  13.530  0.9375 -1.2220  1.1979
  800MPD2    H211843   0.381   1.470  13.892 -2.7855 -1.6595 -0.8997
  800MPD2    H311844   0.239   1.319  13.755 -0.9194  0.6959  0.0351
  800MPD2     N11845   0.503   1.393  13.396 -0.1775 -0.1474  0.4623
  800MPD2    H511846   0.574   1.459  13.366 -0.1916 -0.5316 -0.3930
  800MPD2    N111847   0.568   1.632  13.794 -0.1627  0.1311 -0.5609
  800MPD2    H711848   0.550   1.639  13.894 -1.7203 -0.0126 -0.8307
  801MPD2     C11849   0.501   2.401  14.065  0.1053  0.1064  0.1173
  801MPD2    C111850   0.570   2.300  14.132  0.3582 -0.1652  0.0806
  801MPD2    C211851   0.584   2.323  14.270  0.2359  0.3424  0.5924
  801MPD2    C311852   0.524   2.419  14.346 -0.1058 -0.3969 -1.2510
  801MPD2    C411853   0.449   2.512  14.275  0.0984  0.3967 -0.3354
  801MPD2    C511854   0.448   2.500  14.138  0.5964  0.3484 -0.0924
  801MPD2     H11855   0.644   2.252  14.325  0.5023 -0.8379 -1.2165
  801MPD2    H111856   0.391   2.590  14.322 -0.7766  0.1611 -1.0128
  801MPD2    H211857   0.485   2.401  13.958 -0.9183 -0.8273  0.2700
  801MPD2    H311858   0.402   2.582  14.085  0.3192  0.8262  0.8913
  801MPD2     N11859   0.521   2.420  14.491 -0.5195  0.4084  0.4019
  801MPD2    H511860   0.453   2.483  14.533 -0.6214  0.5769 -0.0165
  801MPD2    N111861   0.624   2.189  14.070 -0.3576  0.1644  0.2697
  801MPD2    H711862   0.677   2.138  14.140  0.1327  0.0727 -0.1625
  802MPD2     C11863   0.150   1.481  17.260 -0.2127 -0.6735  0.0438
  802MPD2    C111864   0.153   1.603  17.191  0.3679 -0.3472 -0.1858
  802MPD2    C211865   0.193   1.606  17.062 -0.0749  0.1195  0.0371
  802MPD2    C311866   0.242   1.492  16.996 -0.4930 -0.4543  0.1076
  802MPD2    C411867   0.235   1.372  17.069  0.7853  0.8159  0.8648
  802MPD2    C511868   0.199   1.374  17.201  0.1901 -0.2098 -0.9437
  802MPD2     H11869   0.186   1.701  17.010 -3.1503  0.1220  0.4478
  802MPD2    H111870   0.268   1.280  17.023 -0.1181  0.2266  1.3876
  802MPD2    H211871   0.137   1.478  17.368 -2.1902  0.1503 -0.1760
  802MPD2    H311872   0.201   1.285  17.262  0.5175  0.4834  0.0458
  802MPD2     N11873   0.283   1.499  16.856  0.1280 -0.2432 -0.1589
  802MPD2    H511874   0.263   1.589  16.813 -0.9361 -0.1771  0.4727
  802MPD2    N111875   0.096   1.724  17.240  0.2666  0.0465 -0.1476
  802MPD2    H711876   0.096   1.806  17.181 -1.4149 -1.3301 -2.0633
  803MPD2     C11877   0.875   1.449  12.360  1.0572 -0.3068  0.3314
  803MPD2    C111878   0.965   1.344  12.390  0.0329 -0.6419 -0.6140
  803MPD2    C211879   0.960   1.287  12.517  0.8158 -0.0599  0.0764
  803MPD2    C311880   0.867   1.319  12.607  0.4047 -0.0680 -0.9266
  803MPD2    C411881   0.793   1.423  12.590  0.0231  0.4651  0.1656
  803MPD2    C511882   0.789   1.482  12.469 -0.8286  0.0898  0.2319
  803MPD2     H11883   1.042   1.220  12.539  0.6365  0.4916  2.3422
  803MPD2    H111884   0.719   1.457  12.661 -0.4297 -0.0072 -0.0899
  803MPD2    H211885   0.864   1.506  12.268  0.7150 -1.3716 -0.2845
  803MPD2    H311886   0.709   1.552  12.449  0.9162  2.2808  1.0155
  803MPD2     N11887   0.851   1.246  12.729  0.3606 -0.0909  0.5861
  803MPD2    H511888   0.791   1.293  12.796  1.2571 -0.3526  1.5756
  803MPD2    N111889   1.059   1.300  12.298  0.1255 -0.0027 -0.0536
  803MPD2    H711890   1.144   1.258  12.334  1.3872  1.7765 -0.9422
  804MPD2     C11891   0.781   2.286  16.546  0.3842 -0.3540  0.2434
  804MPD2    C111892   0.758   2.300  16.681 -0.6297 -0.5052 -0.0294
  804MPD2    C211893   0.820   2.399  16.751  0.4881 -0.3228  0.2692
  804MPD2    C311894   0.893   2.502  16.686  0.0545 -0.4898  0.2865
  804MPD2    C411895   0.908   2.498  16.546 -0.1006  0.0466 -0.1730
  804MPD2    C511896   0.854   2.385  16.485 -0.4447  0.3286  0.7060
  804MPD2     H11897   0.807   2.410  16.858  3.6064  1.3305  0.4760
  804MPD2    H111898   0.967   2.574  16.495 -0.0853 -1.3403 -2.2576
  804MPD2    H211899   0.719   2.227  16.480 -1.4126 -1.0181  2.5345
  804MPD2    H311900   0.877   2.391  16.379 -1.5795 -1.3603  0.3725
  804MPD2     N11901   0.934   2.614  16.759  0.9361  0.3598  0.1961
  804MPD2    H511902   0.902   2.615  16.855 -0.7846 -0.1485 -0.3633
  804MPD2    N111903   0.688   2.202  16.758  0.0362  0.4015 -0.4654
  804MPD2    H711904   0.696   2.200  16.859 -1.5187  0.3662 -0.3516
  805MPD2     C11905   4.395   0.839  15.535 -0.0218  0.2100  0.1940
  805MPD2    C111906   4.517   0.804  15.471 -0.4251 -0.1965 -0.2615
  805MPD2    C211907   4.634   0.800  15.548  0.1315  0.2208  0.0382
  805MPD2    C311908   4.640   0.821  15.684 -0.2596  0.5492  0.7058
  805MPD2    C411909   4.520   0.876  15.741  0.9317 -0.2686 -0.1490
  805MPD2    C511910   4.404   0.879  15.668 -0.5242 -0.8311  0.4759
  805MPD2     H11911   4.723   0.769  15.495 -0.1831  2.0383 -1.5462
  805MPD2    H111912   4.508   0.925  15.837  3.6007  1.0193 -0.4664
  805MPD2    H211913   4.305   0.861  15.478  0.1064 -0.7297 -0.3722
  805MPD2    H311914   4.315   0.917  15.718 -1.2412  1.0596 -2.2686
  805MPD2     N11915   0.018   0.816  15.759 -0.4099 -1.3620  0.0542
  805MPD2    H511916   0.021   0.874  15.843  2.0154 -0.4610 -0.6572
  805MPD2    N111917   4.530   0.779  15.327  0.2571 -0.1369  0.0486
  805MPD2    H711918   4.626   0.786  15.296  0.6841  0.0910  1.4109
  806MPD2     C11919   0.327   0.105   1.021 -0.3373 -0.1900 -0.4638
  806MPD2    C111920   0.440   0.178   0.978  0.4473 -0.0713 -0.7320
  806MPD2    C211921   0.479   0.168   0.846  0.2448 -0.6655  0.5457
  806MPD2    C311922   0.396   0.113   0.754 -0.4580  0.4869  0.0145
  806MPD2    C411923   0.276   0.062   0.792 -0.4097  0.2315 -0.3446
  806MPD2    C511924   0.251   0.050   0.926  1.2059  0.5418  0.0894
  806MPD2     H11925   0.576   0.210   0.823 -0.0179 -0.0187  0.6352
  806MPD2    H111926   0.209   0.003   0.730 -1.4994  0.6817  0.4073
  806MPD2    H211927   0.291   0.100   1.123  1.7295  3.3537  0.4418
  806MPD2    H311928   0.154   0.003   0.942  0.5357  2.0588  0.5203
  806MPD2     N11929   0.452   0.101   0.626  0.2308 -0.2449 -0.0400
  806MPD2    H511930   0.544   0.138   0.604  0.6560 -1.4263 -0.2650
  806MPD2    N111931   0.524   0.235   1.079  0.3373 -0.3429 -0.1025
  806MPD2    H711932   0.503   0.218   1.177 -0.5680 -2.3853 -0.6421
  807MPD2     C11933   1.029   4.560   1.194 -0.3895 -0.4609  0.7914
  807MPD2    C111934   0.920   4.618   1.258  0.2186  0.1552 -0.4506
  807MPD2    C211935   0.847   4.539   1.342 -0.1059  0.2119 -0.3158
  807MPD2    C311936   0.875   4.404   1.358  0.4126 -0.6341 -0.1629
  807MPD2    C411937   0.978   4.345   1.283 -0.1985 -0.3670 -0.4979
  807MPD2    C511938   1.052   4.426   1.200 -0.2468  0.1930  0.3713
  807MPD2     H11939   0.772   4.590   1.401  1.2140 -0.0356  1.5606
  807MPD2    H111940   0.993   4.238   1.295  1.6345 -0.0108  0.3601
  807MPD2    H211941   1.094   4.618   1.129  0.8100 -1.8706  0.7402
  807MPD2    H311942   1.140   4.386   1.152 -1.1318  1.1164 -2.0123
  807MPD2     N11943   0.797   4.335   1.453 -0.8101 -0.3199 -1.0652
  807MPD2    H511944   0.749   4.396   1.517  1.1323 -1.5779  1.5633
  807MPD2    N111945   0.897   0.016   1.262  0.0658 -0.4402  0.1787
  807MPD2    H711946   0.834   0.058   1.330 -3.4500  0.8089 -3.8309
  808MPD2     C11947   1.029   2.338   9.982  0.3232 -0.1808 -0.2232
  808MPD2    C111948   0.959   2.391  10.091 -0.3978 -0.8693 -0.1579
  808MPD2    C211949   1.009   2.500  10.156  0.1549 -0.0779  0.5118
  808MPD2    C311950   1.096   2.585  10.093 -0.7899  0.0351 -0.5959
  808MPD2    C411951   1.160   2.541   9.975  0.0820 -0.3192 -0.4188
  808MPD2    C511952   1.124   2.418   9.922 -0.8649 -0.3252  0.1526
  808MPD2     H11953   0.958   2.533  10.245 -0.0140  0.0403  0.3714
  808MPD2    H111954   1.231   2.598   9.916  2.4614 -3.0044 -0.1102
  808MPD2    H211955   1.010   2.236   9.948  0.0641  0.3940 -1.8055
  808MPD2    H311956   1.175   2.382   9.833  0.4654 -0.4091  0.9427
  808MPD2     N11957   1.127   2.715  10.138 -0.1091 -1.2500 -0.2829
  808MPD2    H511958   1.212   2.756  10.101 -1.8225  0.3866 -2.4499
  808MPD2    N111959   0.859   2.318  10.159 -0.5758  0.1875  0.0132
  808MPD2    H711960   0.802   2.362  10.231  2.9704 -1.3803  3.7608
  809MPD2     C11961   1.688   3.397   9.911 -0.1313  0.4391  0.2089
  809MPD2    C111962   1.693   3.262   9.934  0.3723 -0.1972 -0.7402
  809MPD2    C211963   1.613   3.207  10.036 -0.1063 -0.0703 -0.5950
  809MPD2    C311964   1.519   3.285  10.104 -0.2343 -0.3404 -0.2346
  809MPD2    C411965   1.512   3.418  10.066  0.3610 -0.1884  0.5147
  809MPD2    C511966   1.589   3.474   9.963 -0.2084  0.4608  0.2939
  809MPD2     H11967   1.632   3.102  10.051  0.4369  0.0638 -0.3213
  809MPD2    H111968   1.445   3.489  10.114  0.2382 -0.9308  1.4431
  809MPD2    H211969   1.746   3.442   9.831  1.4474 -1.3471  0.3641
  809MPD2    H311970   1.583   3.576   9.929 -0.0690  0.6532  0.8445
  809MPD2     N11971   1.437   3.234  10.203  0.1412  0.1962  0.3170
  809MPD2    H511972   1.365   3.292  10.244 -1.1624 -0.2992 -1.2725
  809MPD2    N111973   1.772   3.174   9.854 -0.3158 -0.4573  0.0467
  809MPD2    H711974   1.772   3.077   9.881 -2.2839 -0.6167 -0.5448
  810MPD2     C11975   0.237   1.247  10.843 -0.4205 -0.2849 -0.0612
  810MPD2    C111976   0.155   1.278  10.736  0.8086 -0.1650  0.7765
  810MPD2    C211977   0.117   1.413  10.717 -0.5613  0.4098  0.9683
  810MPD2    C311978   0.171   1.509  10.805 -0.1064  0.0201  0.6475
  810MPD2    C411979   0.251   1.469  10.916  0.6335 -0.0973 -0.5445
  810MPD2    C511980   0.286   1.339  10.925 -0.3689  0.4793  0.1969
  810MPD2     H11981   0.039   1.435  10.646 -2.0155 -3.5634  1.3378
  810MPD2    H111982   0.283   1.553  10.977  1.8763 -0.6386 -0.4596
  810MPD2    H211983   0.254   1.142  10.862 -2.4637 -0.6572 -0.1975
  810MPD2    H311984   0.343   1.299  11.008  0.0956 -1.5895 -1.1242
  810MPD2     N11985   0.133   1.642  10.809  1.0630 -0.1642 -0.1241
  810MPD2    H511986   0.182   1.702  10.875  0.4653 -0.4957  0.6131
  810MPD2    N111987   0.111   1.168  10.650  0.7137  0.0351  0.4564
  810MPD2    H711988   0.141   1.075  10.678 -1.1651 -0.7374 -0.1146
  811MPD2     C11989   4.497   1.189   9.923 -0.1107 -0.4095  0.0991
  811MPD2    C111990   4.599   1.242   9.995  0.3478 -0.4041  0.0537
  811MPD2    C211991   4.630   1.378   9.990  0.5984 -0.2576 -0.1502
  811MPD2    C311992   4.551   1.463   9.917 -0.5291 -0.0484  0.7355
  811MPD2    C411993   4.449   1.412   9.840 -0.1823 -0.5583  0.9161
  811MPD2    C511994   4.426   1.275   9.844 -0.1206  0.0814  0.4891
  811MPD2     H11995   4.706   1.419  10.055  3.0682 -1.5009 -2.2655
  811MPD2    H111996   4.389   1.466   9.768 -0.0102 -0.0399  1.1634
  811MPD2    H211997   4.452   1.090   9.926 -0.7709 -0.0822  1.0488
  811MPD2    H311998   4.340   1.239   9.788 -1.7615  1.7144  1.9807
  811MPD2     N11999   4.588   1.604   9.913  0.3500  0.0265  0.6349
  811MPD2    H512000   4.669   1.628   9.969  0.1637  1.8235  0.1515
  811MPD2    N112001   4.678   1.162  10.078  0.3445 -0.5983  0.1311
  811MPD2    H712002   0.014   1.207  10.129  0.5890 -0.2938 -0.4952
  812MPD2     C12003   3.649   0.889  12.066 -0.1194  0.1061 -0.0306
  812MPD2    C112004   3.655   0.973  12.172 -0.0640  0.7339 -0.5059
  812MPD2    C212005   3.717   0.936  12.292 -0.3225  0.2199  0.4967
  812MPD2    C312006   3.765   0.810  12.299 -0.3971 -0.5041 -0.3143
  812MPD2    C412007   3.773   0.726  12.183 -0.1481 -0.2727  0.5593
  812MPD2    C512008   3.701   0.762  12.074  0.5064  0.2201 -0.3279
  812MPD2     H12009   3.726   1.003  12.378  0.1448  0.6696  0.1002
  812MPD2    H112010   3.812   0.626  12.200  0.8921 -0.3345 -2.2546
  812MPD2    H212011   3.602   0.928  11.977 -0.2479  1.4632  0.6378
  812MPD2    H312012   3.710   0.705  11.982 -1.2251 -0.9681  0.2319
  812MPD2     N12013   3.816   0.767  12.431  0.2892 -0.4467  0.0141
  812MPD2    H512014   3.802   0.832  12.508 -1.6076  1.2813 -1.7652
  812MPD2    N112015   3.604   1.100  12.161  0.3252  0.0936  0.4668
  812MPD2    H712016   3.589   1.118  12.062 -0.9458  1.7390  0.9638
  813MPD2     C12017   3.209   2.600  12.973 -0.8019 -0.3315  0.4612
  813MPD2    C112018   3.231   2.729  12.926 -0.1479 -0.5814  0.0144
  813MPD2    C212019   3.297   2.821  13.010  0.7317 -0.2206  0.0067
  813MPD2    C312020   3.356   2.777  13.128  0.7599 -0.1848  0.0489
  813MPD2    C412021   3.333   2.647  13.176  0.0592 -0.9336 -0.3235
  813MPD2    C512022   3.256   2.562  13.093 -0.2910  0.5898 -0.0277
  813MPD2     H12023   3.302   2.928  12.995 -1.0189  0.1520  2.0311
  813MPD2    H112024   3.370   2.611  13.271  2.2406 -1.2782 -1.2991
  813MPD2    H212025   3.151   2.531  12.913 -1.2122  1.8462 -1.6655
  813MPD2    H312026   3.243   2.457  13.113  2.0135 -0.4301 -3.7945
  813MPD2     N12027   3.427   2.876  13.202 -0.0527  0.0046  0.5056
  813MPD2    H512028   3.462   2.963  13.162  0.3164 -0.2141  0.3473
  813MPD2    N112029   3.173   2.765  12.803  0.6955  0.6497 -0.1779
  813MPD2    H712030   3.123   2.689  12.759 -0.1528  1.3331 -0.3811
  814MPD2     C12031   3.345   4.220  12.416  0.1648 -0.5794  0.0895
  814MPD2    C112032   3.371   4.252  12.282  0.4201  0.3821 -0.5791
  814MPD2    C212033   3.411   4.378  12.240  0.1541  0.0124  0.2360
  814MPD2    C312034   3.417   4.479  12.329  0.1252 -0.1628 -0.2312
  814MPD2    C412035   3.393   4.451  12.463 -0.2206 -0.0672  0.1434
  814MPD2    C512036   3.358   4.326  12.505 -0.0373  0.0032 -0.2144
  814MPD2     H12037   3.416   4.389  12.132  1.0596  2.4760  0.5253
  814MPD2    H112038   3.402   4.529  12.538 -1.0279 -0.8356  1.0468
  814MPD2    H212039   3.317   4.124  12.459 -0.2318 -0.6000 -0.2116
  814MPD2    H312040   3.329   4.302  12.606  0.4136 -1.9708 -0.5501
  814MPD2     N12041   3.462   4.615  12.304 -0.3391 -0.0736  0.1103
  814MPD2    H512042   3.457   4.685  12.378  3.6645 -0.6517  0.9177
  814MPD2    N112043   3.361   4.155  12.185  0.3460 -0.3133  0.2204
  814MPD2    H712044   3.387   4.185  12.092 -0.6618 -1.3530 -0.3888
  815MPD2     C12045   3.915   3.185  11.936  0.8071  0.1130 -0.0045
  815MPD2    C112046   3.903   3.043  11.914 -0.5555 -0.4182 -0.9685
  815MPD2    C212047   3.803   2.976  11.980  0.8210  0.1198 -0.2577
  815MPD2    C312048   3.732   3.044  12.077  0.2637 -0.3285  0.1059
  815MPD2    C412049   3.759   3.175  12.109  0.3694 -0.5902 -0.4598
  815MPD2    C512050   3.840   3.248  12.030 -0.3807 -0.2203 -0.8088
  815MPD2     H12051   3.775   2.871  11.971  1.8643 -0.2916  1.2959
  815MPD2    H112052   3.693   3.218  12.183  1.5602  2.0745 -0.9682
  815MPD2    H212053   3.993   3.235  11.878  0.4364  2.3050  1.4089
  815MPD2    H312054   3.850   3.353  12.054 -2.4615 -0.4191  1.0018
  815MPD2     N12055   3.623   2.972  12.135  0.7009  0.4421 -0.5353
  815MPD2    H512056   3.598   2.882  12.097  1.0489  0.9152 -1.9141
  815MPD2    N112057   3.952   2.987  11.795  0.6014 -0.1771 -0.1280
  815MPD2    H712058   4.001   3.045  11.727  0.2734 -1.5283 -1.5144
  816MPD2     C12059   4.128   1.755  17.067  0.3909  0.0592  0.4865
  816MPD2    C112060   4.001   1.717  17.042 -0.7474  0.8909 -0.0413
  816MPD2    C212061   3.975   1.618  16.945  0.4238 -0.0605 -0.4657
  816MPD2    C312062   4.073   1.540  16.889  0.3104 -0.5348  0.3652
  816MPD2    C412063   4.202   1.582  16.909 -0.4630 -0.4024  0.3902
  816MPD2    C512064   4.226   1.678  17.006 -0.2303 -0.0963 -0.4796
  816MPD2     H12065   3.872   1.603  16.914  0.5400 -0.2551 -0.7545
  816MPD2    H112066   4.286   1.522  16.876  0.8615  1.5367  0.2448
  816MPD2    H212067   4.163   1.833  17.133 -1.2159  0.3838  0.9384
  816MPD2    H312068   4.330   1.705  17.025  0.5092 -2.2994 -1.4435
  816MPD2     N12069   4.039   1.437  16.801  0.0424  0.0404 -0.0863
  816MPD2    H512070   3.943   1.420  16.773  1.3398 -2.0810 -3.2547
  816MPD2    N112071   3.899   1.788  17.112 -0.0609  0.7861 -0.0527
  816MPD2    H712072   3.924   1.868  17.170  1.0347  0.5621 -0.2129
  817MPD2     C12073   3.200   3.683   9.228 -0.2628  0.2238 -0.6947
  817MPD2    C112074   3.143   3.551   9.229 -0.6609 -0.3562  0.1428
  817MPD2    C212075   3.003   3.538   9.231  0.0439  0.1957 -0.4915
  817MPD2    C312076   2.923   3.655   9.237  0.3618  0.3127  0.1756
  817MPD2    C412077   2.981   3.776   9.253  0.5105 -0.7881 -0.3059
  817MPD2    C512078   3.115   3.793   9.254 -0.6782  0.2847 -0.0423
  817MPD2     H12079   2.969   3.438   9.209  0.2054  0.1363 -0.4698
  817MPD2    H112080   2.911   3.859   9.261  3.2465  1.6853 -2.0298
  817MPD2    H212081   3.306   3.705   9.218 -0.2719  1.2141  1.5303
  817MPD2    H312082   3.147   3.897   9.257 -0.7447  0.2510  1.6871
  817MPD2     N12083   2.783   3.635   9.226  0.3364 -0.0987 -0.3214
  817MPD2    H512084   2.748   3.540   9.222 -1.7270  0.6078  0.6090
  817MPD2    N112085   3.230   3.437   9.226 -0.6482  0.0624  0.4117
  817MPD2    H712086   3.185   3.350   9.201  1.1801 -1.1504  1.3689
  818MPD2     C12087   2.094   3.972  10.183  0.3949 -0.5569 -0.0728
  818MPD2    C112088   2.106   3.872  10.273 -0.4273 -0.7265 -0.1232
  818MPD2    C212089   2.096   3.740  10.227 -1.1111  0.0642  0.3696
  818MPD2    C312090   2.104   3.713  10.087 -0.4972 -0.0923 -0.0211
  818MPD2    C412091   2.111   3.819   9.997  0.5514 -0.1690 -0.2954
  818MPD2    C512092   2.104   3.949  10.046 -0.2901 -0.3882 -1.2388
  818MPD2     H12093   2.090   3.658  10.298  1.5053  1.0114  1.6753
  818MPD2    H112094   2.106   3.800   9.891  0.1232  0.4331 -0.3841
  818MPD2    H212095   2.078   4.076  10.212 -1.0709 -0.9634  0.5965
  818MPD2    H312096   2.094   4.032   9.977  0.5992  0.6071 -0.1955
  818MPD2     N12097   2.106   3.580  10.035  0.5933  0.4869 -0.4405
  818MPD2    H512098   2.119   3.568   9.935  1.2352  2.1149 -0.5639
  818MPD2    N112099   2.087   3.885  10.408 -0.0852 -0.2171  0.3778
  818MPD2    H712100   2.083   3.795  10.455 -0.1970  0.0926  0.9595
  819MPD2     C12101   0.706   0.163  15.171 -0.9580 -0.2249 -0.6374
  819MPD2    C112102   0.714   0.073  15.274  0.7764  0.1055 -0.0077
  819MPD2    C212103   0.835   0.033  15.324  0.7203  0.1070  0.5929
  819MPD2    C312104   0.952   0.085  15.264 -0.2230 -0.1405 -0.6740
  819MPD2    C412105   0.947   0.177  15.158  0.2706 -0.7338  0.3698
  819MPD2    C512106   0.819   0.222  15.124 -0.0038  0.9319 -0.2537
  819MPD2     H12107   0.838   4.705  15.410 -1.0393  0.8165  1.2278
  819MPD2    H112108   1.029   0.232  15.114 -1.0150  0.1380 -0.9233
  819MPD2    H212109   0.611   0.205  15.141  0.1003  2.7237  0.1116
  819MPD2    H312110   0.810   0.303  15.052  3.5585 -0.1091 -1.9032
  819MPD2     N12111   1.077   0.052  15.323  0.2335  0.0259 -0.5932
  819MPD2    H512112   1.070   0.002  15.411 -1.1301  0.0293 -0.6992
  819MPD2    N112113   0.586   0.038  15.328  0.3993 -0.3219  0.0194
  819MPD2    H712114   0.504   0.086  15.290  0.0851 -0.4366  0.5569
  820MPD2     C12115   4.484   0.117  14.920 -0.2098  0.1303 -0.2679
  820MPD2    C112116   4.578   0.193  14.984 -0.7543  0.7889 -0.0743
  820MPD2    C212117   4.674   0.134  15.058 -0.0285  0.4722 -0.5514
  820MPD2    C312118   4.682   4.731  15.066  0.9107 -0.2880  0.4295
  820MPD2    C412119   4.582   4.649  15.002  0.5400  0.1964 -0.0873
  820MPD2    C512120   4.493   4.720  14.932  0.1054  0.5606 -0.1781
  820MPD2     H12121   4.737   0.197  15.119 -0.7395 -0.7038  1.4085
  820MPD2    H112122   4.582   4.541  15.014 -1.3482  0.2386  0.3171
  820MPD2    H212123   4.405   0.155  14.855 -1.5482 -1.6066  0.3327
  820MPD2    H312124   4.414   4.670  14.878 -0.3047  0.4650  0.5088
  820MPD2     N12125   0.035   4.666  15.155 -0.1194 -0.2592  0.2247
  820MPD2    H512126   0.044   4.566  15.139  1.9183 -0.1977  0.9836
  820MPD2    N112127   4.552   0.336  14.981  0.0818  0.1910 -0.9688
  820MPD2    H712128   4.462   0.364  14.943  0.7468  0.0887 -2.6372
  821MPD2     C12129   0.859   1.713  12.854 -0.1285 -0.1229 -0.6419
  821MPD2    C112130   0.837   1.731  12.991  0.3595 -0.4754 -0.0440
  821MPD2    C212131   0.862   1.850  13.054 -0.5426  0.0672  0.2183
  821MPD2    C312132   0.917   1.948  12.983  0.0639 -0.0841  0.0411
  821MPD2    C412133   0.934   1.937  12.846 -0.4810  0.4833 -0.2816
  821MPD2    C512134   0.908   1.819  12.783  0.3361  0.5336  0.9972
  821MPD2     H12135   0.849   1.847  13.161 -3.2676  2.9120 -0.0269
  821MPD2    H112136   0.971   2.016  12.782 -2.1775  2.8381  1.6343
  821MPD2    H212137   0.849   1.615  12.807  0.7715 -0.2096 -0.6645
  821MPD2    H312138   0.917   1.799  12.677  0.6616 -0.8239  1.2709
  821MPD2     N12139   0.984   2.059  13.039 -0.5030 -0.3730 -0.3824
  821MPD2    H512140   1.046   2.118  12.984 -0.3918  1.0061  1.1967
  821MPD2    N112141   0.791   1.626  13.073 -0.1593  0.0395 -0.1213
  821MPD2    H712142   0.773   1.650  13.170 -2.2027 -0.3258 -0.3941
  822MPD2     C12143   1.527   1.318  15.547 -0.5179 -0.0156  0.7623
  822MPD2    C112144   1.528   1.309  15.689  0.3776  0.1534  0.3011
  822MPD2    C212145   1.471   1.404  15.766  0.0190  0.7040 -0.7658
  822MPD2    C312146   1.410   1.512  15.719  0.1422  0.6316 -0.7421
  822MPD2    C412147   1.398   1.524  15.581 -0.1597  0.4296 -0.1620
  822MPD2    C512148   1.452   1.424  15.491  0.1554 -0.6775 -0.7085
  822MPD2     H12149   1.471   1.401  15.874 -1.5460  0.1883 -0.7847
  822MPD2    H112150   1.337   1.604  15.540 -0.3653 -0.3271 -1.3415
  822MPD2    H212151   1.590   1.263  15.478 -2.6551  1.3965 -2.3386
  822MPD2    H312152   1.446   1.437  15.383 -3.5273 -0.8752 -0.5269
  822MPD2     N12153   1.365   1.609  15.806  0.5967 -0.2992 -0.5356
  822MPD2    H512154   1.375   1.593  15.906  2.2682  2.4928 -0.2551
  822MPD2    N112155   1.608   1.211  15.755  0.2008  0.0314  0.2644
  822MPD2    H712156   1.610   1.224  15.856 -3.5367 -0.6797  0.4191
  823MPD2     C12157   0.938   1.882  16.472 -0.0340 -0.5681 -0.0746
  823MPD2    C112158   1.014   1.800  16.390 -0.6133 -0.2207  0.7792
  823MPD2    C212159   1.063   1.683  16.443  0.4157 -0.1883  0.8280
  823MPD2    C312160   1.045   1.644  16.577  0.0391  0.2437  0.1717
  823MPD2    C412161   0.973   1.735  16.658 -0.0581 -0.2854 -0.3159
  823MPD2    C512162   0.922   1.853  16.606  0.1250  0.9225 -0.1477
  823MPD2     H12163   1.120   1.613  16.382  0.3588  1.2321 -0.8543
  823MPD2    H112164   0.954   1.705  16.760  2.6567 -0.2780  0.1866
  823MPD2    H212165   0.880   1.962  16.427 -1.9249 -2.0790 -0.3223
  823MPD2    H312166   0.872   1.922  16.674  1.5240 -0.5765  2.4285
  823MPD2     N12167   1.090   1.520  16.636  0.1229 -0.1912 -0.3384
  823MPD2    H512168   1.059   1.507  16.732 -0.0152 -2.0423 -0.6475
  823MPD2    N112169   1.039   1.840  16.255  0.7520  0.3110  0.7572
  823MPD2    H712170   1.045   1.938  16.231  1.0823  0.1772  0.3162
  824MPD2     C12171   2.058   0.504  15.740  0.5028 -0.5333  0.1206
  824MPD2    C112172   2.080   0.626  15.676 -0.4608  0.7226  0.2519
  824MPD2    C212173   2.146   0.628  15.552  0.5324 -0.2893  0.1167
  824MPD2    C312174   2.201   0.512  15.512 -0.1911  0.1131 -0.0043
  824MPD2    C412175   2.185   0.393  15.580 -0.2242 -0.3052 -0.8749
  824MPD2    C512176   2.117   0.387  15.693  0.2454  0.5057  0.2331
  824MPD2     H12177   2.143   0.719  15.494  2.5142 -0.2503  0.0919
  824MPD2    H112178   2.234   0.300  15.553  4.1040  0.3882  4.5498
  824MPD2    H212179   2.007   0.497  15.835 -0.8068  1.8341 -0.3965
  824MPD2    H312180   2.117   0.293  15.748 -1.5516  0.4740  0.1682
  824MPD2     N12181   2.279   0.522  15.390 -0.0999  0.7626 -0.0223
  824MPD2    H512182   2.287   0.615  15.352 -3.5995  1.0494 -0.0602
  824MPD2    N112183   2.018   0.744  15.723  0.0551  0.2655 -0.3232
  824MPD2    H712184   2.043   0.834  15.683  0.4697  0.9377  1.4353
  825MPD2     C12185   2.954   0.922  15.057 -0.3615  0.5590 -0.1203
  825MPD2    C112186   2.820   0.914  15.071  0.0045 -0.2719 -0.0870
  825MPD2    C212187   2.745   1.029  15.057  0.1080  0.2236  0.2330
  825MPD2    C312188   2.806   1.154  15.063 -0.1310  0.9160  0.4226
  825MPD2    C412189   2.943   1.157  15.069 -0.5788 -0.2571 -0.1529
  825MPD2    C512190   3.023   1.042  15.053 -0.6340  0.2650  0.3755
  825MPD2     H12191   2.637   1.028  15.050  0.1837  0.6954 -0.9812
  825MPD2    H112192   2.990   1.255  15.065 -2.3546  0.6360  0.8778
  825MPD2    H212193   3.006   0.828  15.066 -1.3467 -0.0484 -0.8345
  825MPD2    H312194   3.131   1.050  15.044 -0.2313 -0.0431  5.1197
  825MPD2     N12195   2.737   1.275  15.058 -0.0695 -0.3080  0.6195
  825MPD2    H512196   2.793   1.359  15.067 -0.3844  0.2915 -2.9638
  825MPD2    N112197   2.769   0.785  15.102  0.1850  0.2774  0.2337
  825MPD2    H712198   2.832   0.707  15.109 -0.3630 -0.2974 -1.3459
  826MPD2     C12199   2.234   1.001  13.727 -0.2628 -0.5931  0.0640
  826MPD2    C112200   2.241   1.084  13.621 -1.1238  0.4377 -0.3788
  826MPD2    C212201   2.154   1.189  13.616 -0.0977  0.4121  0.1386
  826MPD2    C312202   2.078   1.216  13.733  0.3490  0.6920  0.4505
  826MPD2    C412203   2.066   1.122  13.834 -0.1118 -0.1702  0.3717
  826MPD2    C512204   2.144   1.015  13.831  0.0450 -0.8973 -0.7738
  826MPD2     H12205   2.154   1.258  13.532 -1.0034  1.4053  0.9531
  826MPD2    H112206   2.002   1.137  13.921 -0.6908  0.9732 -0.2454
  826MPD2    H212207   2.288   0.907  13.729  0.7000 -0.0534 -1.1665
  826MPD2    H312208   2.141   0.942  13.911 -1.6850 -0.3361 -0.3187
  826MPD2     N12209   2.001   1.336  13.751 -0.6814 -0.0187 -1.3680
  826MPD2    H512210   1.925   1.333  13.819 -0.0882  1.5718 -0.6218
  826MPD2    N112211   2.332   1.057  13.511  0.3894  0.0264 -0.2470
  826MPD2    H712212   2.405   0.990  13.534 -0.0299  0.2631  1.7815
  827MPD2     C12213   3.073   2.257  10.215  1.0307  0.0145 -0.3579
  827MPD2    C112214   2.989   2.249  10.320 -0.0210  0.2447 -0.5703
  827MPD2    C212215   2.853   2.269  10.297 -0.4716  0.1489 -0.5215
  827MPD2    C312216   2.813   2.314  10.171 -0.5533  0.2025 -0.1244
  827MPD2    C412217   2.911   2.354  10.076 -0.3728 -0.5728 -0.1466
  827MPD2    C512218   3.039   2.313  10.095  0.2011 -0.8124 -0.2167
  827MPD2     H12219   2.785   2.274  10.381 -0.6894 -0.0782 -0.6800
  827MPD2    H112220   2.886   2.393   9.978  0.5659  0.7008  0.1235
  827MPD2    H212221   3.174   2.220  10.227  1.0892 -0.1160 -1.2363
  827MPD2    H312222   3.112   2.321  10.015 -0.2191 -1.9721 -0.7235
  827MPD2     N12223   2.671   2.334  10.158 -0.6556  0.0765  0.1201
  827MPD2    H512224   2.609   2.315  10.236 -0.3713  0.1682  0.3701
  827MPD2    N112225   3.047   2.232  10.449 -0.0492 -0.0716  0.9610
  827MPD2    H712226   3.148   2.224  10.440 -0.1818  0.1979 -0.7524
  828MPD2     C12227   1.700   2.197  12.796 -0.8298  0.3766  0.4512
  828MPD2    C112228   1.675   2.227  12.664 -0.4111 -0.1049  0.4293
  828MPD2    C212229   1.780   2.241  12.578  0.1314 -0.1410  0.5347
  828MPD2    C312230   1.912   2.230  12.617 -0.3421 -0.1470 -0.5611
  828MPD2    C412231   1.938   2.206  12.754 -0.7841 -0.9451  0.0663
  828MPD2    C512232   1.826   2.191  12.838 -0.2852  0.7325  0.5196
  828MPD2     H12233   1.761   2.261  12.473  3.3084 -1.0868 -0.2005
  828MPD2    H112234   2.037   2.186  12.795 -0.9261 -0.4221  0.6672
  828MPD2    H212235   1.622   2.173  12.867 -1.7739  2.1142 -0.0101
  828MPD2    H312236   1.847   2.166  12.942 -0.8036 -3.0974 -0.2954
  828MPD2     N12237   2.018   2.235  12.526 -0.0350 -0.5038  0.4999
  828MPD2    H512238   2.108   2.213  12.569 -0.3605 -0.8679  1.0073
  828MPD2    N112239   1.544   2.250  12.615  0.4222 -0.3475 -0.3043
  828MPD2    H712240   1.538   2.278  12.518 -0.1785 -1.4762 -0.5963
  829MPD2     C12241   1.548   2.480  11.853  0.3185 -0.0794 -0.3358
  829MPD2    C112242   1.416   2.492  11.864 -0.2245  0.7330  0.5361
  829MPD2    C212243   1.352   2.476  11.988  0.5595 -0.0526  0.4504
  829MPD2    C312244   1.428   2.418  12.090 -0.6776 -0.0541 -0.1272
  829MPD2    C412245   1.562   2.386  12.071 -0.2145  0.7570 -0.4000
  829MPD2    C512246   1.615   2.425  11.955  0.8278  0.4489 -0.3721
  829MPD2     H12247   1.249   2.507  11.999  0.5841 -0.3127  1.4144
  829MPD2    H112248   1.632   2.344  12.142 -2.9192 -2.7530  0.2273
  829MPD2    H212249   1.603   2.504  11.762 -1.6899  0.1472 -1.4724
  829MPD2    H312250   1.720   2.412  11.934  0.3036  0.1491 -2.7535
  829MPD2     N12251   1.375   2.386  12.220  0.2217 -0.3481  0.3571
  829MPD2    H512252   1.440   2.342  12.285  2.2342  0.4667 -1.1133
  829MPD2    N112253   1.352   2.534  11.742  0.0245 -0.4824 -0.0073
  829MPD2    H712254   1.416   2.564  11.669  1.2015 -1.1491  0.7421
  830MPD2     C12255   1.996   4.660  15.473  0.2186  0.9306 -1.0936
  830MPD2    C112256   1.910   4.718  15.388 -0.4457  0.0200  0.1050
  830MPD2    C212257   1.961   0.039  15.280  0.3079  0.0768  0.5106
  830MPD2    C312258   2.086   0.076  15.262 -0.4537 -0.3114 -0.2691
  830MPD2    C412259   2.174   0.040  15.361  0.2527 -0.3856  0.4742
  830MPD2    C512260   2.130   4.682  15.452 -0.6292 -0.0481 -0.3439
  830MPD2     H12261   1.892   0.078  15.206 -0.1590 -2.6608 -0.4909
  830MPD2    H112262   2.280   0.059  15.356 -0.1968  1.5191 -2.0254
  830MPD2    H212263   1.969   4.591  15.552  0.9033  1.6562 -0.2333
  830MPD2    H312264   2.205   4.628  15.509  1.4638  3.7167  0.4176
  830MPD2     N12265   2.131   0.144  15.151  0.1173  0.0835  0.0323
  830MPD2    H512266   2.225   0.181  15.155  0.6116 -1.3700  2.6288
  830MPD2    N112267   1.776   4.700  15.415 -0.2429 -0.1368 -0.0828
  830MPD2    H712268   1.750   4.658  15.504  0.3691 -0.7892 -0.2182
  831MPD2     C12269   1.566   1.746  16.100 -0.2225 -0.3893 -0.1865
  831MPD2    C112270   1.592   1.616  16.064  0.0340 -0.4109  0.6550
  831MPD2    C212271   1.507   1.512  16.105 -0.9021 -0.0221  0.2803
  831MPD2    C312272   1.393   1.534  16.169  0.1708 -0.0586 -0.2240
  831MPD2    C412273   1.372   1.659  16.219 -0.0015 -0.3533  0.1011
  831MPD2    C512274   1.458   1.767  16.178 -0.0997  0.4089 -0.8207
  831MPD2     H12275   1.532   1.410  16.077 -0.7899 -0.5861  2.4454
  831MPD2    H112276   1.281   1.684  16.273  0.4208  1.9322 -0.2550
  831MPD2    H212277   1.621   1.830  16.058  0.0656 -0.7792 -0.5795
  831MPD2    H312278   1.433   1.868  16.208 -1.5222  0.1918 -1.2325
  831MPD2     N12279   1.287   1.444  16.182 -0.2792  0.2695  0.3279
  831MPD2    H512280   1.205   1.482  16.228 -0.0481  2.3541 -0.9889
  831MPD2    N112281   1.702   1.594  15.976 -0.4498  0.9649 -0.1905
  831MPD2    H712282   1.741   1.678  15.934 -0.5448  1.9229  1.6834
  832MPD2     C12283   4.595   2.588  17.117 -0.3864 -0.0673 -0.5218
  832MPD2    C112284   4.543   2.716  17.105 -0.5280  0.2132  0.1593
  832MPD2    C212285   4.413   2.736  17.059 -0.0211 -0.6256  0.9327
  832MPD2    C312286   4.332   2.634  17.025  0.2311 -0.0236 -0.0908
  832MPD2    C412287   4.373   2.504  17.042  0.1319 -0.3747 -0.3529
  832MPD2    C512288   4.503   2.495  17.086  0.2495 -0.0076 -0.0878
  832MPD2     H12289   4.382   2.837  17.035  0.9956 -0.5790 -0.1690
  832MPD2    H112290   4.318   2.417  17.010  0.2840 -1.3645  2.0670
  832MPD2    H212291   4.688   2.555  17.162 -0.7868  0.0506  0.3917
  832MPD2    H312292   4.535   2.395  17.116  1.5171  0.1156 -1.0049
  832MPD2     N12293   4.206   2.650  16.958 -0.8228 -0.3239  0.4679
  832MPD2    H512294   4.153   2.569  16.928  0.0438 -0.9655  0.6396
  832MPD2    N112295   4.624   2.830  17.143 -0.2470  0.4508 -0.4648
  832MPD2    H712296   4.589   2.923  17.123  0.1630  0.5883 -0.5473
  833MPD2     C12297   1.341   0.220  12.701  0.2347  0.8321  1.2941
  833MPD2    C112298   1.410   0.323  12.652 -0.0335  0.4358 -0.4152
  833MPD2    C212299   1.549   0.321  12.636 -0.0320 -0.8943  0.3212
  833MPD2    C312300   1.614   0.203  12.674 -0.3881 -0.2334  1.0130
  833MPD2    C412301   1.545   0.104  12.733 -0.7992 -0.0261  0.3249
  833MPD2    C512302   1.410   0.111  12.750  0.0160 -0.5712  0.8411
  833MPD2     H12303   1.601   0.410  12.601  0.8577 -0.7530  1.9743
  833MPD2    H112304   1.583   0.009  12.768 -0.8605 -0.5774 -1.1372
  833MPD2    H212305   1.233   0.229  12.706  0.1027  0.4783 -0.7608
  833MPD2    H312306   1.358   0.021  12.780 -0.5931 -0.0073  1.4741
  833MPD2     N12307   1.746   0.178  12.650  0.0756 -0.5326  0.9671
  833MPD2    H512308   1.789   0.101  12.701  2.1035 -0.8331 -1.1850
  833MPD2    N112309   1.324   0.432  12.616  0.3314  0.0813 -0.0669
  833MPD2    H712310   1.224   0.433  12.633  0.9475 -0.6897  3.6045
  834MPD2     C12311   1.806   4.203  12.260  0.1529  0.1904  0.4541
  834MPD2    C112312   1.811   4.300  12.164  0.6817 -0.5270 -0.1705
  834MPD2    C212313   1.889   4.418  12.195 -0.4932  0.2445 -0.4791
  834MPD2    C312314   1.947   4.431  12.320  1.0776  0.1790 -0.1779
  834MPD2    C412315   1.940   4.332  12.417 -0.2416 -0.0270  0.4370
  834MPD2    C512316   1.867   4.215  12.383  0.0879 -0.5175 -0.1619
  834MPD2     H12317   1.899   4.492  12.117 -0.3543  0.4837 -0.2312
  834MPD2    H112318   1.981   4.338  12.517 -0.1031  1.9459  0.2563
  834MPD2    H212319   1.759   4.109  12.233  0.4199  0.2617 -0.2523
  834MPD2    H312320   1.848   4.144  12.462  0.0440 -1.2101 -0.8027
  834MPD2     N12321   1.989   4.562  12.348 -0.3282  0.2249  0.1111
  834MPD2    H512322   1.968   4.633  12.279 -0.1044  0.7477  0.5836
  834MPD2    N112323   1.744   4.273  12.042  0.0882  0.8816 -0.4276
  834MPD2    H712324   1.682   4.194  12.028  0.6019  0.1928  1.1642
  835MPD2     C12325   2.058   2.602  10.947  0.6146  0.8894 -0.3784
  835MPD2    C112326   2.031   2.677  11.056 -0.1166  0.8786  0.5388
  835MPD2    C212327   2.106   2.653  11.172  0.1077 -0.9035 -0.3536
  835MPD2    C312328   2.190   2.540  11.184 -0.0826  0.0916  0.0402
  835MPD2    C412329   2.192   2.456  11.072  0.3631 -0.2506 -0.0973
  835MPD2    C512330   2.125   2.483  10.961  0.1838 -0.0518 -0.2290
  835MPD2     H12331   2.095   2.724  11.254 -1.2057  0.0926 -1.4015
  835MPD2    H112332   2.252   2.365  11.072  0.1620 -0.3802  0.4989
  835MPD2    H212333   2.017   2.626  10.850 -1.0273  1.8377  0.5609
  835MPD2    H312334   2.114   2.409  10.882 -1.0490  1.0996 -1.1237
  835MPD2     N12335   2.265   2.517  11.300 -0.6706 -0.6264  0.5245
  835MPD2    H512336   2.322   2.433  11.296 -1.3151 -1.1367  2.0054
  835MPD2    N112337   1.943   2.787  11.064 -0.0758  0.8319 -0.2711
  835MPD2    H712338   1.927   2.812  11.162 -3.3995  0.9976 -0.8621
  836MPD2     C12339   2.375   2.585  12.240  0.1921  0.3473  0.3706
  836MPD2    C112340   2.287   2.554  12.135 -0.6391 -0.6997 -0.1405
  836MPD2    C212341   2.150   2.568  12.159  0.5920  0.1299  0.8112
  836MPD2    C312342   2.104   2.613  12.283  0.3760 -0.0148  0.2254
  836MPD2    C412343   2.189   2.630  12.389  0.1542 -0.5479 -0.1911
  836MPD2    C512344   2.328   2.623  12.369  0.5197 -0.5074 -0.0056
  836MPD2     H12345   2.078   2.552  12.079  0.0842  3.0783  0.6912
  836MPD2    H112346   2.150   2.670  12.482  3.2501 -0.3943  1.0411
  836MPD2    H212347   2.481   2.564  12.232 -0.0165 -0.5058 -0.1726
  836MPD2    H312348   2.392   2.637  12.455  2.2047 -0.0740 -1.3260
  836MPD2     N12349   1.970   2.632  12.318 -0.5909 -0.0392 -0.1264
  836MPD2    H512350   1.951   2.653  12.416  1.1181 -0.5246  0.3015
  836MPD2    N112351   2.343   2.538  12.006  0.0685  0.4822  0.3706
  836MPD2    H712352   2.443   2.516  12.004  0.6912  3.3009  0.5419
  837MPD2     C12353   0.380   2.188  10.001  0.3850  0.2501  0.1929
  837MPD2    C112354   0.266   2.202  10.072 -0.4362 -0.3778 -0.3404
  837MPD2    C212355   0.246   2.321  10.133  0.9584 -0.2539 -0.6197
  837MPD2    C312356   0.331   2.431  10.116 -0.3931  0.0412 -0.6635
  837MPD2    C412357   0.455   2.410  10.051  0.1951 -0.1218 -0.1663
  837MPD2    C512358   0.473   2.286   9.997  1.0346 -0.3156  0.8756
  837MPD2     H12359   0.158   2.353  10.188  2.8720  1.8408  1.2551
  837MPD2    H112360   0.528   2.488  10.031 -0.0627 -0.0452 -0.8132
  837MPD2    H212361   0.407   2.098   9.947 -1.1224 -0.1732  0.1290
  837MPD2    H312362   0.571   2.262   9.957  0.6838 -2.4591  1.2989
  837MPD2     N12363   0.276   2.555  10.147 -0.5898 -0.3995 -0.2156
  837MPD2    H512364   0.183   2.555  10.187 -1.4046 -1.4167 -2.1077
  837MPD2    N112365   0.160   2.104  10.077 -0.2874  0.3736  0.2092
  837MPD2    H712366   0.090   2.117  10.149 -0.8354 -2.0676  0.1206
  838MPD2     C12367   3.513   0.696  11.806  0.7644  0.7074  0.9809
  838MPD2    C112368   3.545   0.564  11.797  0.1522  0.5431 -0.0140
  838MPD2    C212369   3.466   0.466  11.858  0.0207 -0.4767 -0.1200
  838MPD2    C312370   3.362   0.504  11.943 -0.1698  0.9430  0.5005
  838MPD2    C412371   3.333   0.636  11.948  0.5570  0.6142 -0.6731
  838MPD2    C512372   3.401   0.734  11.877 -0.3456 -0.2758 -0.1810
  838MPD2     H12373   3.484   0.360  11.842 -0.9063 -0.9229  1.6953
  838MPD2    H112374   3.243   0.666  12.000  1.8210  0.8604  1.3742
  838MPD2    H212375   3.583   0.769  11.768 -1.2820  1.5190 -1.3140
  838MPD2    H312376   3.373   0.839  11.885 -0.5533 -0.3383 -0.0799
  838MPD2     N12377   3.273   0.415  12.009 -0.3011 -0.3358 -0.5983
  838MPD2    H512378   3.206   0.452  12.076 -0.3946 -3.1044  0.8572
  838MPD2    N112379   3.650   0.515  11.718  0.6216 -0.1927 -0.2819
  838MPD2    H712380   3.657   0.414  11.714 -0.2061 -0.1327 -3.1921
  839MPD2     C12381   3.403   4.510  11.661 -0.5333 -0.2687  0.3717
  839MPD2    C112382   3.424   4.534  11.525 -0.3194  0.2984 -0.1839
  839MPD2    C212383   3.501   4.640  11.485  0.3011 -1.4385 -0.0855
  839MPD2    C312384   3.526   0.004  11.574 -0.0042 -0.9782  0.2927
  839MPD2    C412385   3.520   4.717  11.710  0.4478  0.1451  0.2733
  839MPD2    C512386   3.460   4.599  11.748 -0.4019  0.5830 -0.4527
  839MPD2     H12387   3.526   4.654  11.380  1.2395  1.7301  0.5676
  839MPD2    H112388   3.545   0.048  11.789  0.2394  0.6842 -0.1394
  839MPD2    H212389   3.357   4.420  11.701  1.7760 -2.1037 -1.1292
  839MPD2    H312390   3.464   4.563  11.850 -4.3563  0.5169 -0.2901
  839MPD2     N12391   3.595   0.126  11.540 -0.3685  0.0331 -0.1433
  839MPD2    H512392   3.612   0.192  11.615  0.0791  0.2599 -0.4426
  839MPD2    N112393   3.364   4.456  11.424  1.1431  0.0883  0.2278
  839MPD2    H712394   3.380   4.491  11.330 -0.7588  2.6516  0.8352
  840MPD2     C12395   3.528   2.576  10.442 -0.2145 -0.1435 -0.5227
  840MPD2    C112396   3.487   2.588  10.576  0.5866  0.0307 -0.2389
  840MPD2    C212397   3.551   2.676  10.661  0.7695 -0.5876 -0.6332
  840MPD2    C312398   3.650   2.756  10.610  0.0702 -0.1379 -0.2125
  840MPD2    C412399   3.699   2.727  10.481 -0.6213  0.2129  0.8497
  840MPD2    C512400   3.633   2.646  10.397  0.4552  0.0528 -0.1672
  840MPD2     H12401   3.521   2.693  10.764 -0.7378  1.3198 -1.4012
  840MPD2    H112402   3.775   2.789  10.434 -0.1880 -0.3366  0.8311
  840MPD2    H212403   3.481   2.505  10.375 -0.1521  0.3190 -1.0609
  840MPD2    H312404   3.678   2.637  10.300  2.0617 -0.6084  0.6441
  840MPD2     N12405   3.709   2.858  10.686  0.4722  0.0207  0.2476
  840MPD2    H512406   3.804   2.884  10.663 -0.4861  3.4476  0.1836
  840MPD2    N112407   3.382   2.509  10.612  0.5315 -0.0267  0.8541
  840MPD2    H712408   3.352   2.443  10.541 -1.3306 -0.5062  2.1045
  841MPD2     C12409   2.936   2.553  14.926  0.2431  0.3035 -0.3613
  841MPD2    C112410   2.891   2.605  14.808 -0.3675  0.3821  0.4447
  841MPD2    C212411   2.982   2.685  14.736 -0.5477  0.3060  0.2504
  841MPD2    C312412   3.112   2.706  14.776 -0.7683  0.3050  0.7416
  841MPD2    C412413   3.147   2.656  14.894 -0.4970 -0.6212  0.5699
  841MPD2    C512414   3.065   2.575  14.956 -0.2650 -0.7406 -0.3940
  841MPD2     H12415   2.949   2.724  14.640  0.2738 -1.0699 -0.5845
  841MPD2    H112416   3.251   2.655  14.925 -0.3377 -1.8176 -0.0049
  841MPD2    H212417   2.879   2.499  15.001  0.6885 -1.4743 -1.3105
  841MPD2    H312418   3.103   2.520  15.042  1.3039 -0.4014 -0.8665
  841MPD2     N12419   3.203   2.774  14.687  0.4447 -0.2067  0.1721
  841MPD2    H512420   3.165   2.804  14.598  3.3554 -0.9231 -1.3430
  841MPD2    N112421   2.768   2.571  14.745 -0.6188  0.1033  0.0386
  841MPD2    H712422   2.737   2.615  14.658 -2.7050 -1.6832 -0.1213
  842MPD2     C12423   3.871   3.104  16.644 -0.3189  0.2745 -0.0211
  842MPD2    C112424   3.769   3.012  16.662 -0.4212  0.0425  0.3984
  842MPD2    C212425   3.747   2.958  16.787 -0.3163  0.0111 -0.3568
  842MPD2    C312426   3.818   3.002  16.897 -0.2817  0.6669 -0.2490
  842MPD2    C412427   3.916   3.103  16.876  0.2944  0.0650  0.6868
  842MPD2    C512428   3.941   3.151  16.750  0.3910  0.6972  0.3787
  842MPD2     H12429   3.654   2.903  16.795 -0.2560  0.0392  0.5208
  842MPD2    H112430   3.970   3.144  16.961  1.4022 -1.1434  0.5748
  842MPD2    H212431   3.893   3.138  16.543 -0.4927 -1.5375 -0.6669
  842MPD2    H312432   4.024   3.218  16.729  1.3742  0.1096  2.3944
  842MPD2     N12433   3.803   2.954  17.028 -0.2753  0.1271 -0.3451
  842MPD2    H512434   3.856   2.996  17.105 -0.6224 -0.8437  0.4286
  842MPD2    N112435   3.691   2.982  16.548 -0.4273  0.3633 -0.3939
  842MPD2    H712436   3.688   3.048  16.471 -3.1794 -0.0507 -0.6488
  843MPD2     C12437   0.947   3.623   0.096  0.1336  0.3335  0.3297
  843MPD2    C112438   0.984   3.582   0.221  0.0605 -0.0889 -0.1612
  843MPD2    C212439   1.064   3.677   0.294  0.0527  0.9514 -0.5517
  843MPD2    C312440   1.101   3.803   0.247  1.0213 -0.3795 -0.1255
  843MPD2    C412441   1.053   3.832   0.126 -0.5644 -0.5971  0.0576
  843MPD2    C512442   0.981   3.744   0.047 -0.5397 -0.5664 -0.1605
  843MPD2     H12443   1.090   3.653   0.397  1.6520  2.2230 -0.6502
  843MPD2    H112444   1.088   3.925   0.083 -1.2874 -0.4305 -0.1696
  843MPD2    H212445   0.889   3.559   0.030  0.9431 -1.1548  1.0364
  843MPD2    H312446   0.926   3.776  17.713 -0.0356  0.9566  0.0855
  843MPD2     N12447   1.165   3.900   0.322 -0.1866 -0.3405 -0.2939
  843MPD2    H512448   1.192   3.989   0.281  0.4565 -0.7730 -0.7868
  843MPD2    N112449   0.953   3.460   0.279  0.0991 -0.3731  0.3347
  843MPD2    H712450   0.982   3.441   0.374  0.7341 -1.8869 -0.1555
  844MPD2     C12451   3.777   2.253  16.487 -0.9590 -0.2521 -0.3410
  844MPD2    C112452   3.867   2.261  16.388 -0.0652 -0.8992 -0.3892
  844MPD2    C212453   4.001   2.290  16.413 -0.3612 -0.2218  0.2539
  844MPD2    C312454   4.054   2.299  16.542 -0.2152 -0.4209  0.2123
  844MPD2    C412455   3.957   2.310  16.640 -0.3409  0.1393  0.3354
  844MPD2    C512456   3.822   2.277  16.614 -0.2718  0.1324  0.3918
  844MPD2     H12457   4.073   2.282  16.333  2.3517 -0.9390  2.7732
  844MPD2    H112458   3.977   2.341  16.742  1.3320 -0.0342  0.0556
  844MPD2    H212459   3.673   2.223  16.481 -1.7365  2.3499 -0.1834
  844MPD2    H312460   3.752   2.265  16.696 -0.7598  0.8640  0.0825
  844MPD2     N12461   4.188   2.317  16.558 -0.5305  0.1200 -0.1468
  844MPD2    H512462   4.251   2.293  16.483 -2.5383 -2.6764 -0.9524
  844MPD2    N112463   3.825   2.234  16.251  0.4338 -0.6607  0.5903
  844MPD2    H712464   3.891   2.249  16.176 -1.4051 -2.8080 -1.4151
  845MPD2     C12465   4.627   3.076  16.596 -0.2306 -0.6810  0.2878
  845MPD2    C112466   4.592   3.055  16.728  0.3538  0.1942 -0.5103
  845MPD2    C212467   4.584   2.920  16.772  0.4732  0.5634 -0.7198
  845MPD2    C312468   4.620   2.809  16.696  0.4859 -0.4141  0.6157
  845MPD2    C412469   4.668   2.843  16.566 -0.4903 -0.7089  0.5081
  845MPD2    C512470   4.672   2.972  16.512 -0.1111 -0.4530 -0.4720
  845MPD2     H12471   4.557   2.912  16.877 -0.8104 -0.6339 -1.1558
  845MPD2    H112472   4.713   2.768  16.502 -0.5141  2.0276 -2.7546
  845MPD2    H212473   4.626   3.179  16.561 -0.7012 -1.0458 -0.7622
  845MPD2    H312474   4.714   2.996  16.415  0.9053 -0.9223 -0.1523
  845MPD2     N12475   4.613   2.681  16.745 -0.6085  0.8095 -0.6684
  845MPD2    H512476   4.559   2.671  16.831 -1.9846 -1.5145 -1.7903
  845MPD2    N112477   4.548   3.164  16.804  1.0144  0.6528  0.0670
  845MPD2    H712478   4.526   3.252  16.759  1.1309  0.0414 -1.1958
  846MPD2     C12479   1.515   3.958  13.736  0.5334  0.7655 -0.0698
  846MPD2    C112480   1.376   3.981  13.741 -0.2447 -0.0276 -0.3168
  846MPD2    C212481   1.309   4.015  13.855  0.5884  0.0198  0.4748
  846MPD2    C312482   1.389   4.007  13.969  0.5935  0.9764 -0.1340
  846MPD2    C412483   1.525   3.982  13.962 -0.3725  0.0529  0.2786
  846MPD2    C512484   1.591   3.966  13.850 -0.8699  0.2112 -0.5825
  846MPD2     H12485   1.203   4.037  13.862  0.5627 -0.9188  2.9289
  846MPD2    H112486   1.592   3.995  14.046 -0.1704  0.3818  0.0664
  846MPD2    H212487   1.563   3.954  13.640  2.0819  0.5825  0.7125
  846MPD2    H312488   1.699   3.954  13.851 -0.9888 -0.7668  1.6027
  846MPD2     N12489   1.315   4.024  14.086 -0.0081 -0.5633  0.8678
  846MPD2    H512490   1.231   4.081  14.078 -0.1218 -0.7690  0.6118
  846MPD2    N112491   1.314   3.978  13.614  0.0572 -0.2995  0.2318
  846MPD2    H712492   1.372   3.981  13.531  1.6749  1.5738  1.4318
  847MPD2     C12493   1.159   0.203  14.371 -0.3886  0.4494  0.1537
  847MPD2    C112494   1.249   0.299  14.333  0.5356 -0.1963  0.0770
  847MPD2    C212495   1.363   0.264  14.274  0.5125  0.0932  0.2268
  847MPD2    C312496   1.405   0.129  14.270 -0.1911 -0.0606  0.0268
  847MPD2    C412497   1.326   0.029  14.320 -0.3052 -0.0541  0.7824
  847MPD2    C512498   1.197   0.067  14.362 -0.3494  0.3973  0.1895
  847MPD2     H12499   1.429   0.344  14.243 -0.7399  1.7729  1.9042
  847MPD2    H112500   1.353   4.663  14.313 -2.1923 -0.4046 -1.1391
  847MPD2    H212501   1.055   0.222  14.394 -0.8426 -1.0175 -0.6492
  847MPD2    H312502   1.124   4.729  14.383  1.0178 -0.9313  0.0517
  847MPD2     N12503   1.537   0.107  14.222  0.0048 -0.1782 -0.4670
  847MPD2    H512504   1.581   0.195  14.197  1.7953 -0.4280  1.8241
  847MPD2    N112505   1.224   0.437  14.354  0.0289  0.0943 -0.3449
  847MPD2    H712506   1.292   0.504  14.320 -0.6101  1.1183  0.3835
  848MPD2     C12507   3.947   2.862  16.196 -0.4069  0.2887  0.3422
  848MPD2    C112508   4.012   2.924  16.307 -0.3011  0.2287  0.3778
  848MPD2    C212509   4.074   3.046  16.294 -0.4616 -0.0821 -0.4193
  848MPD2    C312510   4.071   3.120  16.176  0.4280  0.9372  0.1706
  848MPD2    C412511   3.994   3.067  16.072  0.1979 -0.5348 -0.2089
  848MPD2    C512512   3.936   2.943  16.078 -0.3452 -0.3459 -0.6458
  848MPD2     H12513   4.116   3.097  16.380 -0.4551 -2.4886  1.0137
  848MPD2    H112514   3.992   3.126  15.981 -0.5411  0.1740  0.2686
  848MPD2    H212515   3.902   2.764  16.188  0.7434 -0.2274  0.2571
  848MPD2    H312516   3.874   2.905  15.997  0.5139 -0.1732 -1.3781
  848MPD2     N12517   4.115   3.247  16.151 -0.1829 -1.1172  0.3383
  848MPD2    H512518   4.083   3.296  16.067 -1.7879 -4.2042 -0.8490
  848MPD2    N112519   4.016   2.860  16.432  0.6563 -0.5478 -0.6702
  848MPD2    H712520   4.065   2.915  16.502 -1.4142 -1.6353  1.6142
  849MPD2     C12521   3.409   3.455  13.706  0.4989  0.6619  0.1705
  849MPD2    C112522   3.515   3.417  13.780 -0.4583 -0.4423 -0.5151
  849MPD2    C212523   3.497   3.413  13.917 -0.8357  0.3683  0.0486
  849MPD2    C312524   3.372   3.426  13.974 -0.1778  0.7066 -0.2909
  849MPD2    C412525   3.262   3.440  13.891 -0.6149 -0.4681 -0.0825
  849MPD2    C512526   3.282   3.463  13.758  0.2667 -0.4157 -0.5336
  849MPD2     H12527   3.582   3.391  13.980 -1.4897 -0.7134  0.5591
  849MPD2    H112528   3.165   3.464  13.931 -0.8031 -0.3487 -0.6068
  849MPD2    H212529   3.413   3.478  13.600  1.1645 -3.1219 -0.6438
  849MPD2    H312530   3.206   3.499  13.689  1.9888  1.1792 -1.6071
  849MPD2     N12531   3.354   3.417  14.112 -0.8456 -0.4683 -0.1769
  849MPD2    H512532   3.258   3.403  14.140 -1.1824  1.1798 -0.5000
  849MPD2    N112533   3.644   3.403  13.723 -0.2130 -0.2594  0.0268
  849MPD2    H712534   3.724   3.379  13.781 -0.1000 -0.8061 -0.3540
  850MPD2     C12535   1.554   1.218  15.161 -0.0509 -0.2222  0.5237
  850MPD2    C112536   1.542   1.096  15.089 -0.5339 -0.0057  0.1568
  850MPD2    C212537   1.657   1.058  15.021  0.7504 -0.5820  0.6203
  850MPD2    C312538   1.776   1.131  15.023 -0.9649  0.3484  0.6456
  850MPD2    C412539   1.781   1.252  15.088  0.5172  0.1596  0.5907
  850MPD2    C512540   1.668   1.292  15.158 -0.0777 -0.2363 -0.0723
  850MPD2     H12541   1.652   0.963  14.968  0.7868  0.5088 -1.3486
  850MPD2    H112542   1.871   1.308  15.104  0.7474  0.9254 -3.3144
  850MPD2    H212543   1.469   1.252  15.220 -1.5297  0.5952 -2.0649
  850MPD2    H312544   1.673   1.377  15.225 -1.6847 -0.7119  0.6665
  850MPD2     N12545   1.896   1.082  14.964  0.6780 -0.0666 -0.5208
  850MPD2    H512546   1.982   1.126  14.995  0.7060  0.5969 -1.5596
  850MPD2    N112547   1.428   1.012  15.078 -0.0210  0.5593  0.0834
  850MPD2    H712548   1.440   0.934  15.014 -0.1829  0.3128  0.3519
  851MPD2     C12549   1.744   0.822  15.382 -0.3839 -0.8249 -0.3158
  851MPD2    C112550   1.678   0.734  15.306 -0.6115 -0.2647  0.1087
  851MPD2    C212551   1.751   0.661  15.211 -0.3008 -0.0758  0.8667
  851MPD2    C312552   1.890   0.682  15.198 -0.3500 -0.2111  0.8431
  851MPD2    C412553   1.959   0.763  15.287  0.6391  0.2314  0.7448
  851MPD2    C512554   1.880   0.833  15.373  0.5441 -0.2309  0.8655
  851MPD2     H12555   1.703   0.596  15.139  0.1638 -1.0005  1.3883
  851MPD2    H112556   2.064   0.790  15.293  0.8819 -0.3901 -0.9107
  851MPD2    H212557   1.684   0.880  15.451  0.0287  0.5653 -1.1358
  851MPD2    H312558   1.929   0.905  15.437 -2.7810  2.4256  0.4431
  851MPD2     N12559   1.958   0.612  15.102 -0.3729 -0.5379 -0.0301
  851MPD2    H512560   1.899   0.550  15.047 -0.9825  0.1773 -0.1802
  851MPD2    N112561   1.539   0.730  15.319 -0.1733 -0.3039 -0.0401
  851MPD2    H712562   1.505   0.781  15.400 -2.1774  0.6102 -1.4782
  852MPD2     C12563   1.679   0.314   9.997  0.0000  0.0176 -0.0829
  852MPD2    C112564   1.643   0.388  10.107 -0.3661  0.0296  0.2120
  852MPD2    C212565   1.725   0.380  10.213 -0.2004  0.5322 -0.1178
  852MPD2    C312566   1.849   0.321  10.212  0.2965  0.8534  0.4720
  852MPD2    C412567   1.879   0.244  10.099 -0.5278 -0.2316 -0.3529
  852MPD2    C512568   1.791   0.240   9.990 -0.3187  0.1697 -0.7300
  852MPD2     H12569   1.703   0.429  10.307 -1.8433  2.3639 -1.4786
  852MPD2    H112570   1.971   0.188  10.089 -0.0306  0.6376 -0.7002
  852MPD2    H212571   1.611   0.324   9.913  0.0256  3.2908  0.2685
  852MPD2    H312572   1.817   0.184   9.901  1.6892 -1.5561  0.9253
  852MPD2     N12573   1.926   0.316  10.330  0.1839 -0.9254  0.1358
  852MPD2    H512574   1.899   0.372  10.411  1.4270  1.1546 -0.8862
  852MPD2    N112575   1.517   0.451  10.112 -0.1839 -0.1956  0.1596
  852MPD2    H712576   1.465   0.433  10.027 -0.0998 -0.5484  0.1866
  853MPD2     C12577   2.864   3.140  12.438  0.0470 -0.6402  0.4638
  853MPD2    C112578   2.831   3.268  12.404  0.8775 -0.3353  0.4975
  853MPD2    C212579   2.810   3.300  12.274  0.0706  0.4770  1.0814
  853MPD2    C312580   2.811   3.201  12.180  0.5155  0.4253 -0.0505
  853MPD2    C412581   2.842   3.075  12.210 -0.8192 -0.3948 -0.0648
  853MPD2    C512582   2.864   3.044  12.339 -0.5635  0.5130  0.0505
  853MPD2     H12583   2.792   3.403  12.246 -0.3025  0.2991  0.6726
  853MPD2    H112584   2.841   3.011  12.123  1.7627 -0.3153 -0.1320
  853MPD2    H212585   2.896   3.105  12.535 -0.2929 -0.7915  0.5223
  853MPD2    H312586   2.914   2.951  12.363 -1.6419  0.3867  1.7414
  853MPD2     N12587   2.783   3.218  12.041 -0.1586  1.1586 -0.3986
  853MPD2    H512588   2.768   3.129  11.995 -2.3862  0.6181  1.3338
  853MPD2    N112589   2.843   3.363  12.513  0.4340  0.4433  0.2987
  853MPD2    H712590   2.879   3.332  12.603  0.5498 -1.2365 -0.3157
  854MPD2     C12591   4.108   3.597  12.609 -0.4729 -0.6658 -0.6031
  854MPD2    C112592   4.161   3.680  12.706  0.1316  0.1395 -0.0821
  854MPD2    C212593   4.252   3.617  12.790  0.3589  0.2180 -0.1078
  854MPD2    C312594   4.282   3.481  12.787 -0.0154 -0.0349  0.5348
  854MPD2    C412595   4.235   3.407  12.683  0.0675 -0.0815 -0.1182
  854MPD2    C512596   4.147   3.468  12.603 -0.3289  0.4149  0.1590
  854MPD2     H12597   4.307   3.673  12.865  1.2324 -1.4460  0.5000
  854MPD2    H112598   4.257   3.301  12.676 -0.5776 -0.2222 -0.0654
  854MPD2    H212599   4.030   3.633  12.543 -0.4021  0.5934 -0.0096
  854MPD2    H312600   4.092   3.406  12.532  1.4604 -0.2213 -0.6659
  854MPD2     N12601   4.392   3.425  12.857  0.8486 -0.1701  0.9105
  854MPD2    H512602   4.408   3.327  12.836 -1.0197  0.1727 -2.1509
  854MPD2    N112603   4.119   3.820  12.717  0.7671 -0.4373  0.3960
  854MPD2    H712604   4.056   3.845  12.642  2.3393 -0.4120 -0.9131
  855MPD2     C12605   0.109   3.414  13.721  0.3945 -0.2009 -0.3145
  855MPD2    C112606   0.083   3.292  13.668 -0.4603 -0.5844  0.7228
  855MPD2    C212607   0.070   3.268  13.532 -0.6157 -0.1718  0.1639
  855MPD2    C312608   0.069   3.378  13.446  0.3630  0.1765 -0.0677
  855MPD2    C412609   0.080   3.503  13.501 -0.3269  0.3890 -0.0909
  855MPD2    C512610   0.101   3.521  13.639 -0.4381  0.5068  0.3604
  855MPD2     H12611   0.043   3.168  13.500 -0.7808 -0.0216 -0.1652
  855MPD2    H112612   0.076   3.592  13.439  1.2318  0.1083 -0.5886
  855MPD2    H212613   0.122   3.444  13.824 -1.9745 -0.1798 -0.0266
  855MPD2    H312614   0.116   3.620  13.679  0.4050  0.7161 -0.4933
  855MPD2     N12615   0.044   3.369  13.308  0.3426 -0.0482  0.2910
  855MPD2    H512616   0.031   3.459  13.263  2.3787  0.5341  0.8462
  855MPD2    N112617   0.074   3.180  13.755  0.0808 -0.3387  0.3401
  855MPD2    H712618   0.062   3.087  13.717 -1.4027 -0.1100  0.2411
  856MPD2     C12619   2.487   3.767  13.915 -0.4266 -0.1218  0.7369
  856MPD2    C112620   2.554   3.858  13.838 -0.2600  0.3889 -0.8607
  856MPD2    C212621   2.486   3.945  13.758  0.1334 -0.0608  0.1834
  856MPD2    C312622   2.349   3.948  13.757 -0.4928 -0.0255 -0.6854
  856MPD2    C412623   2.282   3.853  13.831 -0.6168 -0.5652 -0.0359
  856MPD2    C512624   2.347   3.765  13.910  0.4230  0.1190  0.3047
  856MPD2     H12625   2.536   4.014  13.692  0.4198 -0.1243  0.3338
  856MPD2    H112626   2.174   3.856  13.840 -0.6065 -0.2141 -0.0369
  856MPD2    H212627   2.531   3.715  13.999  1.1440  1.7766  1.0861
  856MPD2    H312628   2.287   3.697  13.968  0.4039 -1.4456 -1.5686
  856MPD2     N12629   2.273   4.048  13.700 -0.1307  0.8079 -0.3238
  856MPD2    H512630   2.173   4.038  13.691 -0.0714 -0.7465  0.7430
  856MPD2    N112631   2.696   3.887  13.845  0.2895 -0.5430  0.5055
  856MPD2    H712632   2.726   3.961  13.783 -0.2409  0.7480  1.7892
  857MPD2     C12633   3.743   1.715  12.548 -0.3894 -0.0196 -0.0309
  857MPD2    C112634   3.806   1.711  12.671 -0.8399 -0.4098  0.3092
  857MPD2    C212635   3.883   1.822  12.707 -0.4441  0.7356  0.5710
  857MPD2    C312636   3.889   1.926  12.623 -0.5315 -0.2373 -0.1894
  857MPD2    C412637   3.827   1.927  12.503  0.1130 -0.2407  0.3467
  857MPD2    C512638   3.755   1.824  12.464 -0.1604 -0.1607  0.2769
  857MPD2     H12639   3.929   1.823  12.805  0.1110  1.9717  0.3064
  857MPD2    H112640   3.836   2.002  12.425 -2.5830 -1.4617 -1.1576
  857MPD2    H212641   3.680   1.632  12.518 -2.8917  1.5135  0.9758
  857MPD2    H312642   3.690   1.842  12.379  1.6184  0.4883 -0.9419
  857MPD2     N12643   3.960   2.038  12.665 -0.0145 -0.2176  0.0331
  857MPD2    H512644   3.998   2.033  12.758  1.0516  1.6416 -0.3151
  857MPD2    N112645   3.824   1.593  12.743  0.0455  0.3274 -0.1306
  857MPD2    H712646   3.898   1.589  12.812  1.7275  0.5439 -1.9313
  858MPD2     C12647   4.384   0.679  16.719  0.2110  0.1733  0.1434
  858MPD2    C112648   4.510   0.635  16.683  0.4262  0.0509 -0.2801
  858MPD2    C212649   4.620   0.675  16.757  0.3723  0.0842 -0.5924
  858MPD2    C312650   4.608   0.753  16.874 -0.4549 -0.2423  0.0566
  858MPD2    C412651   4.485   0.790  16.919 -0.1556 -1.2576 -0.3194
  858MPD2    C512652   4.378   0.752  16.841  0.0572  0.7424 -0.2993
  858MPD2     H12653   4.717   0.635  16.732  1.5651  1.5976  1.6250
  858MPD2    H112654   4.470   0.854  17.005  0.9082  1.7559 -2.3618
  858MPD2    H212655   4.287   0.659  16.676 -0.2412  1.5186  0.5214
  858MPD2    H312656   4.284   0.785  16.883 -0.4368  1.4950 -1.9813
  858MPD2     N12657   4.710   0.795  16.954 -0.4536 -0.1300 -0.5580
  858MPD2    H512658   4.687   0.866  17.023  0.4564 -0.5055  0.1342
  858MPD2    N112659   4.529   0.565  16.555 -0.1471  0.0774  0.1365
  858MPD2    H712660   4.446   0.541  16.500 -0.1970 -0.8311  0.5936
  859MPD2     C12661   3.009   2.737  15.334  0.1112 -0.2418  0.3675
  859MPD2    C112662   3.141   2.756  15.287  0.1533  0.5071  0.1921
  859MPD2    C212663   3.227   2.647  15.292  0.0105  0.0801 -0.2237
  859MPD2    C312664   3.176   2.526  15.328  0.2335 -0.0838  0.4625
  859MPD2    C412665   3.043   2.517  15.371  0.2985  0.1033 -0.2759
  859MPD2    C512666   2.963   2.622  15.392 -0.3553 -0.1840  0.2006
  859MPD2     H12667   3.331   2.668  15.273 -0.0792 -0.2534 -1.0950
  859MPD2    H112668   2.993   2.426  15.403  3.8643 -1.2345  1.5445
  859MPD2    H212669   2.942   2.822  15.329  0.2508  0.0358  3.2369
  859MPD2    H312670   2.864   2.630  15.435 -0.3443  1.3420 -0.0229
  859MPD2     N12671   3.241   2.403  15.310  0.1783  0.5970 -0.0799
  859MPD2    H512672   3.191   2.317  15.328  2.4170 -0.1238  2.5161
  859MPD2    N112673   3.204   2.878  15.241 -0.1566 -0.2927 -0.3969
  859MPD2    H712674   3.305   2.884  15.237 -0.1744 -1.0812 -1.9728
  860MPD2     C12675   1.133   3.177  11.882 -0.2867  0.3305  0.2040
  860MPD2    C112676   1.084   3.142  12.010 -0.7581  1.0618 -0.0309
  860MPD2    C212677   0.947   3.118  12.024  0.1962  0.4496  0.6136
  860MPD2    C312678   0.863   3.147  11.920  0.2369  0.4537 -1.0753
  860MPD2    C412679   0.914   3.177  11.794 -0.4689 -0.6434  0.0854
  860MPD2    C512680   1.049   3.201  11.777 -0.2915 -0.5870  0.0946
  860MPD2     H12681   0.908   3.095  12.122  0.8882 -0.1378  0.7530
  860MPD2    H112682   0.845   3.186  11.711 -2.5576 -0.9092  1.8032
  860MPD2    H212683   1.236   3.200  11.862 -0.8246  1.3710 -1.3203
  860MPD2    H312684   1.092   3.234  11.683 -4.2674  0.5661 -1.3116
  860MPD2     N12685   0.717   3.145  11.942  0.3818 -0.1610 -0.6515
  860MPD2    H512686   0.681   3.101  12.026 -0.4371  1.5625 -0.0983
  860MPD2    N112687   1.161   3.145  12.124  0.4032 -0.5437  0.3593
  860MPD2    H712688   1.112   3.121  12.210 -1.4850 -0.6222 -0.7416
  861MPD2     C12689   4.483   1.684  10.840  0.0798  0.5265  0.1953
  861MPD2    C112690   4.430   1.773  10.933  0.0835 -0.1507 -0.2164
  861MPD2    C212691   4.330   1.860  10.891  0.7596 -0.1875  0.4211
  861MPD2    C312692   4.261   1.841  10.767  0.2201  0.0056  0.0933
  861MPD2    C412693   4.306   1.744  10.687 -0.6631  0.5604 -0.1148
  861MPD2    C512694   4.419   1.665  10.722 -0.1870  0.1330  0.2150
  861MPD2     H12695   4.283   1.928  10.962 -0.1605  0.9546 -1.2988
  861MPD2    H112696   4.250   1.735  10.595  0.1006  1.0503 -0.6290
  861MPD2    H212697   4.573   1.626  10.856 -1.0594 -1.1284  0.6406
  861MPD2    H312698   4.462   1.598  10.649  0.6439  1.4549 -0.5123
  861MPD2     N12699   4.147   1.916  10.725 -0.5454  0.3054  0.5572
  861MPD2    H512700   4.106   1.888  10.637  0.3214 -0.6370  0.4577
  861MPD2    N112701   4.472   1.788  11.067 -0.1329  0.3433 -0.0101
  861MPD2    H712702   4.421   1.851  11.127 -1.0507  0.9827 -1.4833
  862MPD2     C12703   3.685   1.973  10.184 -0.2310 -0.9910  0.4771
  862MPD2    C112704   3.787   1.918  10.257  0.3174 -0.2470 -0.1485
  862MPD2    C212705   3.811   1.787  10.253 -0.8371 -0.6004 -0.0871
  862MPD2    C312706   3.721   1.697  10.191 -0.2958  0.1621  0.4020
  862MPD2    C412707   3.606   1.750  10.139 -0.8050 -0.0978  0.0534
  862MPD2    C512708   3.593   1.886  10.134  0.7233  0.0367  0.0302
  862MPD2     H12709   3.894   1.747  10.310 -2.3726 -2.1480  1.0752
  862MPD2    H112710   3.541   1.694  10.073 -2.0382  0.3420  0.9094
  862MPD2    H212711   3.660   2.078  10.182 -0.0909 -1.0042 -1.6082
  862MPD2    H312712   3.517   1.934  10.073  0.9901  0.3659 -0.0428
  862MPD2     N12713   3.722   1.554  10.209 -0.0871  0.4774  0.6714
  862MPD2    H512714   3.631   1.510  10.202  0.2855 -0.3467  1.0382
  862MPD2    N112715   3.857   1.983  10.353  0.2028 -0.4032  0.3487
  862MPD2    H712716   3.908   1.919  10.413 -1.8129 -0.6849  1.8091
  863MPD2     C12717   2.857   4.306  16.091 -0.4665 -0.2560  0.1044
  863MPD2    C112718   2.816   4.240  16.208 -0.2342 -0.0671  0.2797
  863MPD2    C212719   2.917   4.208  16.298 -0.2226  0.1014 -0.1022
  863MPD2    C312720   3.048   4.231  16.263 -0.2127  0.7822  0.6140
  863MPD2    C412721   3.087   4.314  16.160  0.4855  1.0774  0.5465
  863MPD2    C512722   2.991   4.346  16.066  0.1164 -0.4350  0.8081
  863MPD2     H12723   2.902   4.163  16.395  1.6870  1.8873  1.0188
  863MPD2    H112724   3.191   4.330  16.135  1.1331 -2.3529  0.9762
  863MPD2    H212725   2.782   4.338  16.020  0.3545  1.0121 -0.1897
  863MPD2    H312726   3.007   4.405  15.976  1.2544 -0.3928  1.0325
  863MPD2     N12727   3.153   4.190  16.348 -0.4900  0.3917  0.2534
  863MPD2    H512728   3.248   4.222  16.332 -0.9443  1.0073 -1.1565
  863MPD2    N112729   2.678   4.202  16.213  0.2588 -1.0748 -0.3337
  863MPD2    H712730   2.611   4.226  16.141 -1.6244 -2.8693  0.8310
  864MPD2     C12731   3.198   0.274  17.043  0.2604 -0.0594 -0.8884
  864MPD2    C112732   3.297   0.242  16.951 -0.3367 -1.3684  0.1697
  864MPD2    C212733   3.399   0.332  16.925  0.3597 -0.7829  0.3574
  864MPD2    C312734   3.396   0.457  16.988  0.4733  0.2270  0.1489
  864MPD2    C412735   3.287   0.493  17.062 -0.1503 -0.6444  0.7892
  864MPD2    C512736   3.198   0.400  17.098 -0.2461  0.2100 -0.0411
  864MPD2     H12737   3.489   0.301  16.872 -0.3532  0.4405 -1.5997
  864MPD2    H112738   3.283   0.592  17.105  1.4396 -0.1788 -0.1458
  864MPD2    H212739   3.112   0.217  17.074  0.7222 -0.6222 -0.6277
  864MPD2    H312740   3.120   0.423  17.170 -2.3198 -0.4551 -2.0957
  864MPD2     N12741   3.490   0.557  16.956 -0.1972  0.4149 -0.0087
  864MPD2    H512742   3.468   0.648  16.995  3.0468  1.0912  0.3079
  864MPD2    N112743   3.299   0.114  16.888 -0.6140 -0.5817  0.0446
  864MPD2    H712744   3.234   0.046  16.926 -1.8114  0.2285 -0.5650
  865MPD2     C12745   3.551   1.048  16.218 -0.0993 -0.0939 -0.9106
  865MPD2    C112746   3.566   0.917  16.244 -0.1475  0.6865 -0.1657
  865MPD2    C212747   3.567   0.881  16.380  0.7084 -0.0666 -0.4924
  865MPD2    C312748   3.553   0.968  16.489 -0.2999  0.0906  0.2188
  865MPD2    C412749   3.529   1.102  16.455 -1.0212  0.7446 -0.1522
  865MPD2    C512750   3.533   1.138  16.323  0.5095  0.3977  0.1922
  865MPD2     H12751   3.578   0.777  16.409  0.7532  0.4506  1.3215
  865MPD2    H112752   3.510   1.180  16.528 -2.4716  0.2873 -0.0460
  865MPD2    H212753   3.564   1.085  16.118  1.0059  0.4580 -0.5585
  865MPD2    H312754   3.520   1.240  16.287  1.7612 -0.1554 -1.8472
  865MPD2     N12755   3.573   0.919  16.618  0.3200  0.0286  0.2051
  865MPD2    H512756   3.583   0.818  16.631  0.2146 -0.2748 -2.1136
  865MPD2    N112757   3.592   0.833  16.135 -0.0070 -0.2748  0.7963
  865MPD2    H712758   3.575   0.871  16.043  0.4995  1.8228  1.5860
  866MPD2     C12759   0.074   2.190  11.570 -0.3051 -0.3135  0.0080
  866MPD2    C112760   0.081   2.156  11.439  0.1404  0.2282 -0.2286
  866MPD2    C212761   4.721   2.189  11.348 -0.0591 -0.5239 -0.5813
  866MPD2    C312762   4.609   2.259  11.391  0.2767  0.9305  0.0246
  866MPD2    C412763   4.600   2.290  11.523  0.0169  0.7986  0.6372
  866MPD2    C512764   4.700   2.259  11.612 -0.2703  0.3050 -0.6868
  866MPD2     H12765   4.739   2.163  11.244 -0.4738 -1.1238 -0.5062
  866MPD2    H112766   4.507   2.334  11.559 -0.3745  1.3500 -1.0714
  866MPD2    H212767   0.150   2.179  11.646 -0.4864 -0.8322  0.1102
  866MPD2    H312768   4.684   2.287  11.715  0.1542  0.1140 -0.5707
  866MPD2     N12769   4.514   2.311  11.303 -0.2649  0.0481  0.4040
  866MPD2    H512770   4.439   2.367  11.342 -0.3689  0.9585 -1.0998
  866MPD2    N112771   0.199   2.083  11.404 -0.1211 -0.6978  0.3643
  866MPD2    H712772   0.270   2.080  11.476 -0.4946  1.3668  0.8283
  867MPD2     C12773   2.157   1.050  16.139 -0.1278 -0.8384 -0.0372
  867MPD2    C112774   2.151   0.936  16.212  0.2242  1.1495 -0.7024
  867MPD2    C212775   2.126   0.947  16.347  0.0587 -0.1500  0.1904
  867MPD2    C312776   2.102   1.061  16.412 -0.8560 -0.9352 -0.1151
  867MPD2    C412777   2.107   1.177  16.332 -0.3870 -0.4547 -0.1049
  867MPD2    C512778   2.123   1.169  16.195  0.1588  0.3011  0.1717
  867MPD2     H12779   2.140   0.861  16.412  1.5062  0.2944  0.4562
  867MPD2    H112780   2.057   1.262  16.376 -1.6603 -1.1037 -0.2874
  867MPD2    H212781   2.184   1.042  16.034  2.7745  2.1634  0.4945
  867MPD2    H312782   2.111   1.255  16.129  1.9711  0.9579  0.7086
  867MPD2     N12783   2.080   1.067  16.555  0.6405  0.0526 -0.8770
  867MPD2    H512784   2.060   1.162  16.586 -0.5318 -0.5429  0.2041
  867MPD2    N112785   2.199   0.810  16.153  0.5241 -0.2590  0.2443
  867MPD2    H712786   2.250   0.815  16.065 -2.7590 -0.3952 -1.6403
  868MPD2     C12787   3.996   0.167  12.572  0.2932  0.0563 -0.3636
  868MPD2    C112788   4.026   0.230  12.696  0.2492 -0.7190  0.6329
  868MPD2    C212789   3.919   0.288  12.763  0.0034 -0.4651  0.3887
  868MPD2    C312790   3.786   0.277  12.719 -0.8447 -0.2375  0.8007
  868MPD2    C412791   3.765   0.225  12.591  0.0635 -0.2288  0.0940
  868MPD2    C512792   3.869   0.171  12.517  0.3424  0.3320 -0.6475
  868MPD2     H12793   3.940   0.327  12.862 -0.6218 -0.8069  0.6606
  868MPD2    H112794   3.661   0.218  12.559  0.0639  1.1875 -0.2432
  868MPD2    H212795   4.068   0.104  12.520  1.6634  0.4202  1.1086
  868MPD2    H312796   3.852   0.113  12.428 -0.3245 -0.6458  0.1245
  868MPD2     N12797   3.688   0.336  12.801 -0.1290 -0.6084  0.1403
  868MPD2    H512798   3.727   0.390  12.878  2.2090 -0.7898 -0.9152
  868MPD2    N112799   4.156   0.209  12.749  0.0370  0.3719  0.1019
  868MPD2    H712800   4.224   0.148  12.704  0.2648 -0.9099  2.2016
  869MPD2     C12801   0.779   3.395   2.114 -0.7559  0.0241  0.5796
  869MPD2    C112802   0.757   3.281   2.039 -0.7811 -0.6614 -0.1930
  869MPD2    C212803   0.761   3.301   1.904  0.2552 -0.1400 -0.6332
  869MPD2    C312804   0.764   3.428   1.845 -0.4463  0.1346  0.5924
  869MPD2    C412805   0.781   3.539   1.925  0.4287  0.4989 -0.8809
  869MPD2    C512806   0.784   3.518   2.057  0.2722 -0.6125  0.4278
  869MPD2     H12807   0.749   3.223   1.830 -3.1970  1.7423 -2.0914
  869MPD2    H112808   0.773   3.640   1.885  2.2722  1.4976  1.2846
  869MPD2    H212809   0.783   3.393   2.223  0.5442 -0.1652  0.5322
  869MPD2    H312810   0.808   3.602   2.122  1.9599 -1.0963  0.4404
  869MPD2     N12811   0.772   3.448   1.707 -0.0046 -0.3748 -0.3440
  869MPD2    H512812   0.763   3.545   1.677  0.2669  0.3588  1.8892
  869MPD2    N112813   0.771   3.156   2.098  0.1384 -0.2364  0.2666
  869MPD2    H712814   0.814   3.169   2.189  1.6290 -2.4050 -0.1378
  870MPD2     C12815   4.319   1.714   1.289  0.3333  0.0320 -0.3300
  870MPD2    C112816   4.439   1.770   1.322  0.0631 -0.0473 -0.3341
  870MPD2    C212817   4.449   1.903   1.298  0.7658  0.5698  0.0964
  870MPD2    C312818   4.347   1.982   1.235  0.3520 -0.1871 -0.0243
  870MPD2    C412819   4.228   1.921   1.205 -0.3642 -0.0378 -0.1251
  870MPD2    C512820   4.222   1.785   1.231  0.4224 -0.3117  0.0232
  870MPD2     H12821   4.544   1.954   1.295 -0.6718  3.2609  0.6069
  870MPD2    H112822   4.151   1.979   1.157  0.7874  0.0495 -1.8417
  870MPD2    H212823   4.294   1.610   1.308 -1.5080  0.5600  0.1530
  870MPD2    H312824   4.128   1.737   1.207 -0.6752  1.8503 -0.0624
  870MPD2     N12825   4.376   2.111   1.185 -0.2894 -0.3506 -0.2910
  870MPD2    H512826   4.448   2.166   1.232  1.2409  0.1462 -3.1943
  870MPD2    N112827   4.536   1.693   1.374 -0.0813  0.0128 -0.0213
  870MPD2    H712828   4.514   1.596   1.397 -0.8387  0.0366 -0.6265
  871MPD2     C12829   1.432   0.984  16.243  0.1132  0.1203  0.1786
  871MPD2    C112830   1.388   0.912  16.350 -0.2962 -0.6953 -0.1679
  871MPD2    C212831   1.369   0.774  16.337 -0.6781 -0.4704  0.3489
  871MPD2    C312832   1.419   0.715  16.216 -0.3877  0.3908 -0.4701
  871MPD2    C412833   1.475   0.793  16.115 -0.4310 -0.1400 -0.5647
  871MPD2    C512834   1.461   0.929  16.125  0.7614 -0.1684 -0.4708
  871MPD2     H12835   1.322   0.718  16.417 -0.9389  0.2413  0.6983
  871MPD2    H112836   1.492   0.750  16.018  0.7912  0.8223 -0.7673
  871MPD2    H212837   1.438   1.091  16.256  1.9249 -0.0519  0.6650
  871MPD2    H312838   1.493   0.996  16.046  1.9392  1.5371  1.4404
  871MPD2     N12839   1.396   0.577  16.196  0.1059  0.9204  0.5175
  871MPD2    H512840   1.341   0.521  16.261 -0.7036 -0.1798 -1.1150
  871MPD2    N112841   1.351   0.998  16.452 -0.0300 -0.0307  0.2376
  871MPD2    H712842   1.386   1.093  16.449  0.0169 -0.0225  0.9920
  872MPD2     C12843   2.299   3.286  13.823 -0.0550 -0.4514 -0.5082
  872MPD2    C112844   2.278   3.413  13.770  0.2612 -0.1576 -0.4317
  872MPD2    C212845   2.160   3.482  13.784  0.3059  0.4241  0.0463
  872MPD2    C312846   2.059   3.438  13.861  0.3570  0.5839 -0.0419
  872MPD2    C412847   2.080   3.318  13.926  0.1340 -0.1107 -0.3567
  872MPD2    C512848   2.195   3.241  13.907 -0.6035  0.2246  0.0382
  872MPD2     H12849   2.151   3.581  13.741 -0.8287  0.1390 -0.3651
  872MPD2    H112850   2.016   3.282  14.006  1.4131 -3.1609 -0.6833
  872MPD2    H212851   2.389   3.225  13.818 -0.2646 -0.7475 -0.6600
  872MPD2    H312852   2.208   3.142  13.951  2.2008  0.3057 -0.6240
  872MPD2     N12853   1.946   3.512  13.895  0.3687  0.0015  0.5625
  872MPD2    H512854   1.880   3.466  13.957  1.4605 -1.0635  0.9522
  872MPD2    N112855   2.386   3.477  13.698  0.2763  0.2750 -0.6694
  872MPD2    H712856   2.355   3.560  13.649  0.0086  2.0465  2.4561
  873MPD2     C12857   4.195   3.877   0.945  0.7039 -0.2245 -0.0292
  873MPD2    C112858   4.088   3.907   0.865  0.3687  0.1196  0.0486
  873MPD2    C212859   4.027   3.803   0.792 -0.5829  0.1761  0.5079
  873MPD2    C312860   4.070   3.674   0.814 -0.0901 -0.4587  0.3149
  873MPD2    C412861   4.164   3.647   0.914  0.0655 -0.1716 -0.9387
  873MPD2    C512862   4.227   3.745   0.985  0.1692 -0.2981  0.5750
  873MPD2     H12863   3.951   3.831   0.720 -0.7677 -2.2768 -0.2286
  873MPD2    H112864   4.194   3.542   0.915  0.3566 -0.0672  1.0721
  873MPD2    H212865   4.257   3.945   1.002 -1.8613  0.9663  1.3405
  873MPD2    H312866   4.316   3.723   1.044 -0.0070 -0.7602  0.6645
  873MPD2     N12867   4.010   3.557   0.752  0.1586  0.0376  0.1960
  873MPD2    H512868   4.041   3.467   0.785  0.3815 -1.1360 -3.2202
  873MPD2    N112869   4.056   4.041   0.860  0.5375 -0.0437 -0.2561
  873MPD2    H712870   4.117   4.107   0.906 -0.8956  0.1717  1.3259
  874MPD2     C12871   3.450   3.481  16.051 -0.2872 -0.0653 -0.8451
  874MPD2    C112872   3.544   3.388  16.070 -0.5703  0.0378 -0.0220
  874MPD2    C212873   3.678   3.415  16.038  0.3387  0.2952 -0.7026
  874MPD2    C312874   3.715   3.543  15.987 -0.5943 -0.8052 -0.7229
  874MPD2    C412875   3.614   3.631  15.962  0.6897 -0.8354 -0.0071
  874MPD2    C512876   3.484   3.601  15.991  0.1481  0.4062 -0.0076
  874MPD2     H12877   3.748   3.332  16.045 -1.8523 -1.4148  0.6434
  874MPD2    H112878   3.635   3.730  15.924 -0.1504 -0.5052  0.3967
  874MPD2    H212879   3.346   3.459  16.071 -1.1711  3.4148 -1.4866
  874MPD2    H312880   3.410   3.681  15.989 -0.3885 -0.0698  0.6974
  874MPD2     N12881   3.845   3.577  15.958  0.3748 -0.3468  0.1366
  874MPD2    H512882   3.875   3.669  15.927 -2.1559  0.8437  1.2602
  874MPD2    N112883   3.499   3.268  16.122 -0.1117 -0.1435  0.0218
  874MPD2    H712884   3.399   3.251  16.124 -0.0602 -0.6124 -1.9020
  875MPD2     C12885   4.724   1.789  14.665  0.2980  0.1556  0.3109
  875MPD2    C112886   4.602   1.834  14.708 -0.0059  0.0583  0.0611
  875MPD2    C212887   4.589   1.902  14.829  0.3211  0.4619  0.3536
  875MPD2    C312888   4.703   1.947  14.900  0.3193 -0.6084  0.4764
  875MPD2    C412889   0.087   1.906  14.854 -0.4196 -0.1053 -0.2693
  875MPD2    C512890   0.093   1.825  14.742 -1.0869  0.6224 -0.3889
  875MPD2     H12891   4.490   1.937  14.856 -0.0994 -0.2098 -0.3102
  875MPD2    H112892   0.173   1.922  14.917 -1.4047  1.5899  0.6329
  875MPD2    H212893   4.739   1.728  14.576 -2.5119  1.3879 -1.0025
  875MPD2    H312894   0.197   1.823  14.710 -0.9743  3.0142 -0.1947
  875MPD2     N12895   4.700   2.022  15.021  0.2039  0.3798  0.3891
  875MPD2    H512896   0.043   2.053  15.073 -0.4199 -2.5414  3.0735
  875MPD2    N112897   4.479   1.812  14.640  0.2337 -0.1264 -0.5120
  875MPD2    H712898   4.397   1.856  14.681 -0.2151 -0.1889 -1.3654
  876MPD2     C12899   3.281   2.991  15.894 -0.6000 -0.0094  0.7818
  876MPD2    C112900   3.410   2.944  15.901  0.4727 -0.0079  0.0648
  876MPD2    C212901   3.430   2.819  15.955  0.2430  0.0980 -0.2053
  876MPD2    C312902   3.322   2.730  15.979 -0.1422  0.2487 -0.1397
  876MPD2    C412903   3.193   2.772  15.961  0.3324 -0.1607  0.6966
  876MPD2    C512904   3.174   2.906  15.925 -0.3018 -0.1697  0.2408
  876MPD2     H12905   3.531   2.783  15.971  0.5455  0.6822 -0.8521
  876MPD2    H112906   3.106   2.708  15.966 -0.5968  1.1521  1.5563
  876MPD2    H212907   3.260   3.093  15.864  2.2720 -0.2239 -1.8765
  876MPD2    H312908   3.074   2.940  15.900 -0.6507 -2.1407 -1.0549
  876MPD2     N12909   3.359   2.598  16.010 -0.4688 -0.6019 -0.4020
  876MPD2    H512910   3.458   2.572  16.013 -0.3218  0.0905  0.7962
  876MPD2    N112911   3.517   3.034  15.861 -0.1583 -0.0439  0.6150
  876MPD2    H712912   3.499   3.132  15.842 -3.0831 -0.6715  0.0756
  877MPD2     C12913   3.625   3.580  15.393  0.9682 -0.7068 -0.8701
  877MPD2    C112914   3.748   3.558  15.433 -0.0406 -0.4197 -0.7715
  877MPD2    C212915   3.855   3.606  15.361  0.1160 -0.0118  0.2673
  877MPD2    C312916   3.827   3.698  15.257 -0.4956 -0.0297 -0.0093
  877MPD2    C412917   3.701   3.730  15.227 -0.5215 -0.3251  0.3206
  877MPD2    C512918   3.600   3.666  15.288 -0.8667  0.0697  0.2547
  877MPD2     H12919   3.952   3.582  15.402 -0.6742  1.0366  2.7575
  877MPD2    H112920   3.690   3.801  15.145 -0.6887 -0.6298  0.0795
  877MPD2    H212921   3.543   3.540  15.452  1.6733 -1.5507 -0.4614
  877MPD2    H312922   3.497   3.688  15.262 -0.3816  0.8131 -1.0582
  877MPD2     N12923   3.933   3.746  15.172  0.3480  0.0817 -0.3887
  877MPD2    H512924   3.907   3.809  15.097  3.3127 -0.0047 -1.4721
  877MPD2    N112925   3.779   3.470  15.537  0.2292 -0.0627  0.1958
  877MPD2    H712926   3.879   3.462  15.550 -0.2873 -2.4765  2.7391
  878MPD2     C12927   3.738   2.754  13.055 -0.2086  0.0170  0.8280
  878MPD2    C112928   3.741   2.880  13.007  0.1515 -0.5122 -0.9519
  878MPD2    C212929   3.782   2.987  13.094 -0.7322  0.0841 -0.6303
  878MPD2    C312930   3.809   2.957  13.224  0.2429  0.1984 -0.0124
  878MPD2    C412931   3.816   2.825  13.270 -0.5373 -0.2721  0.7218
  878MPD2    C512932   3.777   2.721  13.182 -0.0337 -0.1485 -0.1257
  878MPD2     H12933   3.803   3.087  13.060  0.8978  0.7905  2.4737
  878MPD2    H112934   3.839   2.790  13.370 -1.4415 -1.3601  0.5550
  878MPD2    H212935   3.702   2.673  12.993  1.6981 -0.3293  0.1630
  878MPD2    H312936   3.788   2.618  13.213 -0.1740 -0.1351 -0.0305
  878MPD2     N12937   3.850   3.058  13.311 -0.2394 -0.0469 -0.2617
  878MPD2    H512938   3.861   3.149  13.267 -1.7259  0.6311  0.7613
  878MPD2    N112939   3.660   2.906  12.897  0.6940  0.0013 -0.3592
  878MPD2    H712940   3.628   2.829  12.840  0.9520  0.1935 -0.7671
  879MPD2     C12941   3.802   3.932  17.215 -0.6911 -0.7465 -0.2630
  879MPD2    C112942   3.796   4.011  17.099  0.0347  0.1549 -0.2946
  879MPD2    C212943   3.778   3.950  16.977 -0.2436 -0.9883 -0.0968
  879MPD2    C312944   3.779   3.818  16.954 -0.8691 -0.3907 -0.3302
  879MPD2    C412945   3.797   3.740  17.073  0.2363 -0.4791  0.1062
  879MPD2    C512946   3.792   3.796  17.198  0.7997 -0.2950 -0.1726
  879MPD2     H12947   3.754   4.014  16.893 -0.5487 -0.1477  0.6301
  879MPD2    H112948   3.807   3.633  17.063  1.7708 -0.2147 -1.2364
  879MPD2    H212949   3.804   3.984  17.311  1.3292 -2.0096  0.3590
  879MPD2    H312950   3.792   3.736  17.288  2.2189  0.9083  0.6248
  879MPD2     N12951   3.768   3.753  16.827 -0.2580  0.2713 -0.3248
  879MPD2    H512952   3.767   3.652  16.826 -2.6464  0.2960  0.2443
  879MPD2    N112953   3.815   4.152  17.110  0.3914 -0.0141 -0.2948
  879MPD2    H712954   3.823   4.182  17.206 -1.2420 -1.0302  0.1766
  880MPD2     C12955   0.148   1.357  17.745  0.8127 -0.5723 -0.0900
  880MPD2    C112956   0.074   1.434   0.075  0.2786 -0.4131 -0.1144
  880MPD2    C212957   0.055   1.382   0.199 -0.4396  0.0100  0.3113
  880MPD2    C312958   0.103   1.248   0.222  0.4624  0.2156 -0.5132
  880MPD2    C412959   0.180   1.181   0.134 -0.4132  0.3849 -0.0426
  880MPD2    C512960   0.206   1.233   0.014  0.1212 -0.0835  0.1311
  880MPD2     H12961   0.009   1.442   0.276  2.1080 -0.7106  2.3671
  880MPD2    H112962   0.203   1.076   0.150  1.1174  0.4613 -1.6808
  880MPD2    H212963   0.171   1.396  17.646 -0.1998  0.1073 -0.0599
  880MPD2    H312964   0.258   1.180  17.690  0.5098  2.2996 -1.2081
  880MPD2     N12965   0.073   1.203   0.350  0.0774 -0.3239  0.7262
  880MPD2    H512966   4.738   1.252   0.399  1.0704  1.6435  0.2463
  880MPD2    N112967   0.053   1.575   0.044 -0.6490 -0.4451 -0.4406
  880MPD2    H712968   0.079   1.605  17.705 -0.6244 -0.9498 -0.6010
  881MPD2     C12969   0.514   2.309  17.307 -0.2464 -0.1856  0.7561
  881MPD2    C112970   0.463   2.181  17.295 -0.5999 -0.4111  0.3983
  881MPD2    C212971   0.379   2.128  17.393  0.1589  0.2994 -0.2760
  881MPD2    C312972   0.360   2.194  17.513  0.1499 -0.0419  0.3460
  881MPD2    C412973   0.406   2.328  17.517  0.9981 -0.2347 -0.1389
  881MPD2    C512974   0.475   2.377  17.415 -0.4085 -0.3175  0.4753
  881MPD2     H12975   0.330   2.033  17.372  1.4401 -0.6941  1.1771
  881MPD2    H112976   0.389   2.393  17.601 -2.4890 -0.8540 -0.3620
  881MPD2    H212977   0.557   2.367  17.226  0.4003  0.5858  1.6669
  881MPD2    H312978   0.506   2.481  17.422  2.5054 -1.1822  0.5272
  881MPD2     N12979   0.286   2.140  17.621  0.4791  0.4621  0.0190
  881MPD2    H512980   0.268   2.196  17.704 -0.1354 -2.0645  1.6101
  881MPD2    N112981   0.461   2.124  17.162 -0.1712  0.8557  0.0506
  881MPD2    H712982   0.524   2.172  17.098 -0.2513 -0.6971 -1.1984
  882MPD2     C12983   3.928   4.212  14.601 -0.3484  0.0335 -0.0493
  882MPD2    C112984   3.919   4.102  14.689  0.1822  0.0637 -0.2072
  882MPD2    C212985   3.798   4.036  14.698  0.7076 -0.6520 -0.2772
  882MPD2    C312986   3.691   4.068  14.618  0.2792  0.4902  0.4202
  882MPD2    C412987   3.704   4.169  14.522  0.3069 -0.0198 -0.3558
  882MPD2    C512988   3.824   4.241  14.518  0.4519  0.5589 -0.3122
  882MPD2     H12989   3.791   3.955  14.769  0.6864 -1.3945 -1.1285
  882MPD2    H112990   3.627   4.203  14.455  1.1388 -0.4004 -1.5076
  882MPD2    H212991   4.025   4.260  14.593 -0.3969  0.1749  0.2122
  882MPD2    H312992   3.827   4.318  14.441 -0.0633 -1.9303 -2.8480
  882MPD2     N12993   3.573   3.997  14.616  0.3974 -0.1550  0.2760
  882MPD2    H512994   3.510   4.011  14.538 -0.1210  1.2685  0.9553
  882MPD2    N112995   4.031   4.067  14.759  0.3899 -0.2642 -0.2250
  882MPD2    H712996   4.122   4.105  14.733 -0.0648  1.5938  0.9014
  883MPD2     C12997   0.669   3.455  15.804 -0.0258 -0.5744 -0.1106
  883MPD2    C112998   0.679   3.561  15.719 -0.1287  0.4775  0.3300
  883MPD2    C212999   0.777   3.650  15.736  0.4739 -0.3332 -0.7605
  883MPD2    C313000   0.874   3.634  15.836  0.4754  0.6294 -0.9785
  883MPD2    C413001   0.863   3.523  15.924  0.4573  0.6405 -0.4822
  883MPD2    C513002   0.761   3.432  15.899  0.2106  0.0556 -0.7512
  883MPD2     H13003   0.786   3.728  15.661 -1.1146 -0.6359 -1.2542
  883MPD2    H113004   0.928   3.501  16.008 -1.5212  2.1544  1.4404
  883MPD2    H213005   0.587   3.385  15.806 -1.6714  1.3760  1.3738
  883MPD2    H313006   0.751   3.344  15.961  0.2156  0.7839  0.2894
  883MPD2     N13007   0.968   3.733  15.851  0.0596 -0.1280 -0.2135
  883MPD2    H513008   0.975   3.801  15.776  0.2456 -1.7835 -1.7045
  883MPD2    N113009   0.598   3.597  15.613  0.3473  0.2853  0.0457
  883MPD2    H713010   0.618   3.675  15.552  1.7369 -0.9413 -1.0563
  884MPD2     C13011   2.884   4.292  14.831 -0.0049 -0.5196  0.4571
  884MPD2    C113012   2.882   4.430  14.816  0.3875  0.7141  0.6205
  884MPD2    C213013   2.757   4.487  14.834 -0.3828 -0.3705 -0.3376
  884MPD2    C313014   2.647   4.414  14.870  0.5408  1.0471  0.2278
  884MPD2    C413015   2.646   4.277  14.881 -0.3176  0.3838  0.5172
  884MPD2    C513016   2.772   4.214  14.857 -0.4085  0.0799 -0.1972
  884MPD2     H13017   2.733   4.592  14.832  1.9903  0.1455 -1.5503
  884MPD2    H113018   2.559   4.214  14.893  0.6973 -0.5408  2.9351
  884MPD2    H213019   2.978   4.239  14.836 -1.1439 -2.6191 -0.4088
  884MPD2    H313020   2.781   4.106  14.868 -0.2588  0.2604  1.3536
  884MPD2     N13021   2.532   4.485  14.911  0.8074  0.2948 -0.5335
  884MPD2    H513022   2.527   4.583  14.885 -0.1030  0.2091 -0.7029
  884MPD2    N113023   2.999   4.506  14.803 -0.0068 -0.2188  0.2800
  884MPD2    H713024   3.081   4.451  14.825  0.1162 -0.9049 -1.8929
  885MPD2     C13025   0.926   4.533   0.066  0.4424  0.6084  0.4425
  885MPD2    C113026   1.025   4.617   0.025  0.2501 -0.1756 -1.0299
  885MPD2    C213027   1.041   4.633  17.643 -0.2311 -0.0474 -0.7180
  885MPD2    C313028   0.958   4.570  17.550 -0.0838 -0.0187  0.1060
  885MPD2    C413029   0.859   4.486  17.603  0.3688  0.1516  0.4664
  885MPD2    C513030   0.858   4.455  17.733  0.2344 -0.4685  0.7525
  885MPD2     H13031   1.115   4.700  17.600  0.1956  0.4586  0.8019
  885MPD2    H113032   0.793   4.424  17.543 -1.4499  1.8776  0.6667
  885MPD2    H213033   0.924   4.505   0.171 -2.1764 -0.1877  0.1924
  885MPD2    H313034   0.786   4.383   0.014 -1.0198  0.6206  0.4290
  885MPD2     N13035   0.965   4.602  17.411 -0.3332  0.2781 -0.1742
  885MPD2    H513036   1.038   4.668  17.385  2.2013 -1.4229  2.5603
  885MPD2    N113037   1.106   4.676   0.124  0.5024  0.1602 -0.6051
  885MPD2    H713038   1.087   4.665   0.223  2.1239 -1.1486 -0.4357
  886MPD2     C13039   1.949   2.968  15.089 -0.3621  0.5528  0.0385
  886MPD2    C113040   2.083   2.964  15.127  0.3094 -0.7594  0.5155
  886MPD2    C213041   2.164   3.065  15.076  0.7840 -0.1477  0.2776
  886MPD2    C313042   2.123   3.170  14.993  0.4376 -1.0497  0.0051
  886MPD2    C413043   1.989   3.166  14.959 -0.2395  0.4192  0.0563
  886MPD2    C513044   1.909   3.069  15.008  0.2662  0.1778  0.7735
  886MPD2     H13045   2.266   3.073  15.113  0.6693  0.5973  0.4377
  886MPD2    H113046   1.941   3.246  14.904 -2.8006 -1.8571 -0.9925
  886MPD2    H213047   1.875   2.896  15.120  0.5439 -0.5504 -0.3639
  886MPD2    H313048   1.801   3.074  14.992  0.3521  0.3641  0.2511
  886MPD2     N13049   2.211   3.270  14.945  0.9391 -0.0487  0.3357
  886MPD2    H513050   2.310   3.256  14.964  0.4670 -2.0719  1.2782
  886MPD2    N113051   2.142   2.861  15.206 -0.3840  0.4832  0.0383
  886MPD2    H713052   2.243   2.861  15.221 -0.3589 -0.3961 -0.1194
  887MPD2     C13053   2.689   2.718  15.673 -0.2057 -0.2723 -0.3736
  887MPD2    C113054   2.633   2.776  15.562  0.3671 -0.4767  0.3773
  887MPD2    C213055   2.702   2.881  15.506  0.8860  0.5127 -0.0362
  887MPD2    C313056   2.820   2.932  15.561 -0.6922 -0.5254 -0.6673
  887MPD2    C413057   2.874   2.874  15.674  0.1962  0.3858  0.1621
  887MPD2    C513058   2.813   2.757  15.722  1.0842  0.0749 -0.6453
  887MPD2     H13059   2.671   2.919  15.410  3.5359 -0.5815 -1.3318
  887MPD2    H113060   2.964   2.897  15.730  1.1189 -3.4150  0.2755
  887MPD2    H213061   2.651   2.631  15.726 -0.7729  1.4545  2.0910
  887MPD2    H313062   2.859   2.714  15.810  2.9154  0.5317 -1.3878
  887MPD2     N13063   2.877   3.040  15.503  1.1960 -0.0643 -0.3793
  887MPD2    H513064   2.830   3.084  15.424 -1.2164 -1.2831  0.3730
  887MPD2    N113065   2.511   2.743  15.502  0.5512  0.4233 -0.0995
  887MPD2    H713066   2.482   2.797  15.421 -1.0305  2.2517  1.6942
  888MPD2     C13067   4.654   3.086  14.775 -0.4836 -0.0911 -0.8187
  888MPD2    C113068   4.699   3.113  14.898 -0.2599  0.4024  0.0320
  888MPD2    C213069   0.034   3.226  14.924  0.5033  0.4349 -0.8394
  888MPD2    C313070   0.064   3.317  14.825  0.1290  0.5076 -0.4308
  888MPD2    C413071   0.027   3.282  14.695  0.0974 -0.5304  0.1805
  888MPD2    C513072   4.704   3.160  14.674 -0.2506 -0.1838 -0.3097
  888MPD2     H13073   0.076   3.246  15.021 -2.3860  0.2866  0.4407
  888MPD2    H113074   0.032   3.356  14.616 -1.6490  0.3584  0.9004
  888MPD2    H213075   4.600   2.997  14.745 -0.6926 -0.2893  0.1246
  888MPD2    H313076   4.688   3.127  14.572  1.7445  1.8143 -1.2631
  888MPD2     N13077   0.127   3.438  14.860  0.0608 -0.0549  0.3445
  888MPD2    H513078   0.124   3.463  14.958  1.6932 -1.4704  0.7667
  888MPD2    N113079   4.679   3.028  15.003 -0.5825 -0.0585 -0.3239
  888MPD2    H713080   4.723   3.041  15.094 -1.1059  0.3026 -0.1219
  889MPD2     C13081   3.810   2.765  12.514 -0.2664 -0.3137  0.0322
  889MPD2    C113082   3.879   2.765  12.634 -0.3248 -0.4490  0.3241
  889MPD2    C213083   3.933   2.886  12.670  0.5705  0.0543 -0.9339
  889MPD2    C313084   3.868   3.005  12.632 -0.4914  0.0890 -0.3128
  889MPD2    C413085   3.781   3.000  12.523  0.2367 -0.2909  0.5869
  889MPD2    C513086   3.750   2.879  12.471  0.5409  0.5233 -0.5172
  889MPD2     H13087   3.980   2.884  12.768 -3.4705  0.7135  1.0073
  889MPD2    H113088   3.744   3.085  12.466  3.0738  1.6098  1.5971
  889MPD2    H213089   3.790   2.668  12.470  0.6985 -0.6529  0.3311
  889MPD2    H313090   3.693   2.861  12.381  0.1786  0.0625 -0.1948
  889MPD2     N13091   3.901   3.131  12.701  0.2938 -0.4591 -0.0334
  889MPD2    H513092   3.958   3.120  12.784  0.9200  0.3755 -0.3509
  889MPD2    N113093   3.928   2.637  12.672 -0.3235 -0.6615 -0.2870
  889MPD2    H713094   3.912   2.558  12.611  0.6453 -1.4730  0.5182
  890MPD2     C13095   3.365   4.503  14.500  0.1766 -0.4338 -0.2773
  890MPD2    C113096   3.485   4.558  14.543 -0.1035  0.1517 -0.8364
  890MPD2    C213097   3.553   4.489  14.638  0.1629 -0.3024  0.1778
  890MPD2    C313098   3.502   4.380  14.707 -0.2609  0.5098 -0.6353
  890MPD2    C413099   3.376   4.335  14.669  0.9204  0.0453  0.1621
  890MPD2    C513100   3.306   4.396  14.571 -0.0889  0.0074 -0.3606
  890MPD2     H13101   3.651   4.518  14.673  0.2744 -0.6245  0.1323
  890MPD2    H113102   3.327   4.248  14.710 -0.3278  2.2555  3.3491
  890MPD2    H213103   3.298   4.562  14.438 -0.8021  0.6315  1.7796
  890MPD2    H313104   3.203   4.366  14.551  0.1343 -0.6533 -0.5143
  890MPD2     N13105   3.569   4.323  14.820 -0.0692  0.1475 -0.0368
  890MPD2    H513106   3.657   4.368  14.840 -1.3221  2.1107  1.0580
  890MPD2    N113107   3.540   4.668  14.476  0.6408  0.3148 -0.9264
  890MPD2    H713108   3.498   4.700  14.389  2.1195 -0.0789 -1.7683
  891MPD2     C13109   1.851   3.201  16.241  1.2110  0.1178  0.4611
  891MPD2    C113110   1.751   3.175  16.331 -0.8148 -0.5304 -0.2806
  891MPD2    C213111   1.786   3.086  16.434 -0.2968  0.0545 -0.3033
  891MPD2    C313112   1.915   3.037  16.448  0.0257 -0.2589 -0.0143
  891MPD2    C413113   2.012   3.054  16.348 -0.5066 -0.1672  0.0933
  891MPD2    C513114   1.972   3.143  16.253  0.3818  0.2027  0.2876
  891MPD2     H13115   1.722   3.055  16.515 -1.0506  0.1022 -0.8824
  891MPD2    H113116   2.114   3.018  16.345  0.0260  1.2807  0.5321
  891MPD2    H213117   1.834   3.259  16.150  2.0157  0.4863  0.5465
  891MPD2    H313118   2.044   3.182  16.182  2.2446 -0.4513  1.8253
  891MPD2     N13119   1.941   2.954  16.557 -0.1007 -0.3902 -0.1959
  891MPD2    H513120   1.865   2.945  16.624 -0.1238  1.6026  0.0472
  891MPD2    N113121   1.621   3.231  16.308  0.0002 -0.3449  0.1486
  891MPD2    H713122   1.601   3.280  16.222 -0.0015  0.6469  0.7140
  892MPD2     C13123   2.879   4.321  14.332  0.4424 -0.2520  0.1852
  892MPD2    C113124   2.828   4.212  14.402  0.1511 -1.2679 -0.2736
  892MPD2    C213125   2.906   4.107  14.432  0.2679 -0.4805 -0.0000
  892MPD2    C313126   3.044   4.112  14.406 -0.0630  0.3979 -0.0114
  892MPD2    C413127   3.093   4.221  14.341 -0.2764 -0.6181 -0.0290
  892MPD2    C513128   3.015   4.327  14.303  0.3908 -0.2249 -0.7372
  892MPD2     H13129   2.869   4.013  14.471  1.3936 -1.7937 -2.0712
  892MPD2    H113130   3.201   4.227  14.327 -0.4576 -1.5636 -1.8342
  892MPD2    H213131   2.815   4.407  14.314  2.1368  0.7676 -0.9290
  892MPD2    H313132   3.054   4.419  14.261  1.1642 -0.5692 -0.7672
  892MPD2     N13133   3.140   4.012  14.442 -0.1086  0.8048 -0.3062
  892MPD2    H513134   3.238   4.032  14.423 -0.2290  0.8632 -0.8643
  892MPD2    N113135   2.691   4.219  14.439  0.5516 -0.6097  0.8940
  892MPD2    H713136   2.645   4.307  14.419  0.2934 -0.9052  0.2026
  893MPD2     C13137   4.111   2.490   1.628 -0.2204 -0.5025 -0.0560
  893MPD2    C113138   4.218   2.582   1.649  1.2042 -0.2347  0.1984
  893MPD2    C213139   4.195   2.709   1.686  0.5427 -0.1656  0.5997
  893MPD2    C313140   4.067   2.753   1.722 -0.2276 -0.4683  0.0456
  893MPD2    C413141   3.965   2.665   1.713 -0.2850 -0.0323  0.0002
  893MPD2    C513142   3.983   2.538   1.660  0.0186 -0.2901  0.4269
  893MPD2     H13143   4.276   2.781   1.685  1.0498 -0.7288  1.1328
  893MPD2    H113144   3.864   2.687   1.745 -0.8633 -0.7055 -1.3732
  893MPD2    H213145   4.130   2.391   1.587  0.0326 -0.1773 -0.7120
  893MPD2    H313146   3.903   2.466   1.656  0.5190 -0.7844 -0.8392
  893MPD2     N13147   4.034   2.883   1.768 -0.6118 -0.2335 -0.1627
  893MPD2    H513148   3.935   2.901   1.769 -0.4017  0.8025  1.6267
  893MPD2    N113149   4.343   2.524   1.622  0.4020 -0.5517 -0.4233
  893MPD2    H713150   4.345   2.429   1.586  1.1847 -0.9174  0.5737
  894MPD2     C13151   2.075   4.582   1.157  0.2914  0.0520  0.2426
  894MPD2    C113152   2.003   4.694   1.104 -0.4506 -0.2707 -0.7329
  894MPD2    C213153   2.069   0.075   1.076  0.2455 -0.2987 -0.9649
  894MPD2    C313154   2.202   0.085   1.099  0.2523 -0.1402  0.5777
  894MPD2    C413155   2.277   4.720   1.145  0.7574 -0.5882 -0.9249
  894MPD2    C513156   2.204   4.603   1.182 -0.3013 -0.4689  0.0668
  894MPD2     H13157   2.016   0.162   1.039  2.1367  1.1314 -0.2846
  894MPD2    H113158   2.382   4.733   1.167  0.3767  0.0807  0.5217
  894MPD2    H213159   2.022   4.490   1.181 -0.5952  0.2700 -0.8648
  894MPD2    H313160   2.271   4.520   1.204  2.8775  2.6240  1.9406
  894MPD2     N13161   2.261   0.206   1.058  0.1605  0.8715  0.1945
  894MPD2    H513162   2.200   0.282   1.029 -1.0460 -0.8430 -1.7743
  894MPD2    N113163   1.866   4.683   1.086  0.3551 -0.1963 -0.2714
  894MPD2    H713164   1.819   0.026   1.048  1.7550  0.6257 -0.2189
  895MPD2     C13165   2.307   3.038  13.583  0.6121 -0.2896 -0.0721
  895MPD2    C113166   2.185   2.991  13.545 -0.2123 -0.5760 -0.2094
  895MPD2    C213167   2.163   2.854  13.534 -0.0438  0.2224  0.1187
  895MPD2    C313168   2.256   2.768  13.577 -0.4701  1.2065 -0.0983
  895MPD2    C413169   2.377   2.814  13.625 -0.3790  0.4159  0.2149
  895MPD2    C513170   2.402   2.949  13.624 -0.5587  0.3037 -0.2764
  895MPD2     H13171   2.064   2.817  13.510 -1.1735  3.4595 -0.2147
  895MPD2    H113172   2.465   2.754  13.645  0.1754  1.1696  0.0580
  895MPD2    H213173   2.323   3.145  13.591 -3.0994  0.4536 -2.3712
  895MPD2    H313174   2.500   2.972  13.664 -0.5726  0.7615 -0.5102
  895MPD2     N13175   2.228   2.631  13.576 -0.5238  0.2113  0.3237
  895MPD2    H513176   2.130   2.617  13.553 -0.5328  0.3246  0.2947
  895MPD2    N113177   2.068   3.068  13.518  0.0078  0.0803 -0.3682
  895MPD2    H713178   1.980   3.019  13.507 -0.8985  1.7587 -0.4580
  896MPD2     C13179   3.816   1.364   0.704 -0.1812 -0.3506  0.6964
  896MPD2    C113180   3.841   1.242   0.653  0.6448  0.2638 -0.0973
  896MPD2    C213181   3.741   1.160   0.602 -0.3959  0.4140  0.4147
  896MPD2    C313182   3.616   1.199   0.619  0.2345  0.1391 -0.1981
  896MPD2    C413183   3.588   1.323   0.672 -0.2306  0.0035 -0.4868
  896MPD2    C513184   3.683   1.403   0.725 -0.3433 -0.6318  0.0629
  896MPD2     H13185   3.764   1.064   0.557 -1.8479 -0.8466  2.3845
  896MPD2    H113186   3.485   1.353   0.684  0.0178  0.2205  1.0265
  896MPD2    H213187   3.896   1.423   0.748 -2.6558  1.0593  3.2713
  896MPD2    H313188   3.642   1.489   0.777  1.2584  0.1303  0.0675
  896MPD2     N13189   3.509   1.105   0.584  0.3447 -0.0469 -0.4295
  896MPD2    H513190   3.535   1.010   0.561  1.0655  0.2369 -0.7593
  896MPD2    N113191   3.974   1.206   0.640 -0.1063  0.4013 -0.7059
  896MPD2    H713192   4.031   1.265   0.699 -1.5823  3.5782 -2.4735
  897MPD2     C13193   0.476   2.701  10.434 -0.1065  0.0793 -0.0606
  897MPD2    C113194   0.470   2.799  10.531 -0.0425 -0.1073 -0.1431
  897MPD2    C213195   0.391   2.771  10.641 -0.6310  0.6265 -0.1145
  897MPD2    C313196   0.313   2.656  10.644 -0.8918  0.6760  0.9408
  897MPD2    C413197   0.333   2.554  10.552  0.4405  0.0188 -0.2179
  897MPD2    C513198   0.418   2.579  10.453  0.3986  0.5042  0.3744
  897MPD2     H13199   0.350   2.853  10.700 -0.8942 -0.2569  0.9227
  897MPD2    H113200   0.273   2.464  10.556 -1.2677  1.1497 -0.5137
  897MPD2    H213201   0.551   2.714  10.357 -0.4851  0.7884 -0.3019
  897MPD2    H313202   0.429   2.503  10.377 -0.2294 -0.6609  1.4503
  897MPD2     N13203   0.244   2.637  10.762 -0.1226  0.6102  0.0275
  897MPD2    H513204   0.252   2.707  10.835 -0.1764 -1.4195  1.9720
  897MPD2    N113205   0.525   2.927  10.503  0.3943  0.5079  0.2433
  897MPD2    H713206   0.575   2.946  10.416  0.0218 -0.1155 -0.1047
  898MPD2     C13207   2.229   3.442   0.562 -0.0381  0.1689 -0.3579
  898MPD2    C113208   2.331   3.459   0.474  0.3880 -0.1601 -0.5253
  898MPD2    C213209   2.309   3.506   0.347 -0.0981  0.3828 -0.3274
  898MPD2    C313210   2.178   3.527   0.307  1.1576  0.6538  0.9590
  898MPD2    C413211   2.073   3.505   0.398 -0.2930 -0.6219  0.1566
  898MPD2    C513212   2.101   3.468   0.527 -0.3100  0.2468 -0.3983
  898MPD2     H13213   2.389   3.535   0.280  0.0703  1.1387  0.2023
  898MPD2    H113214   1.969   3.526   0.378 -0.5987 -1.3803  0.9832
  898MPD2    H213215   2.251   3.409   0.663  0.4416 -0.5389 -0.6935
  898MPD2    H313216   2.014   3.454   0.591  0.3067  1.0749  0.6273
  898MPD2     N13217   2.157   3.560   0.170 -0.0988 -0.0211 -0.3186
  898MPD2    H513218   2.243   3.567   0.117 -1.9719  0.9886 -3.2137
  898MPD2    N113219   2.462   3.423   0.516  0.3277 -0.3660 -0.5781
  898MPD2    H713220   2.536   3.417   0.447 -0.6511  1.0123 -1.7653
  899MPD2     C13221   3.212   3.504  16.741 -1.1092  0.4034  0.2547
  899MPD2    C113222   3.261   3.608  16.817 -0.0052  0.1399  0.5249
  899MPD2    C213223   3.260   3.587  16.950 -0.6134 -0.0951  1.1175
  899MPD2    C313224   3.214   3.471  17.015  0.2455 -0.7043 -0.1655
  899MPD2    C413225   3.158   3.368  16.934 -0.1399  0.1011  0.5841
  899MPD2    C513226   3.163   3.386  16.796 -0.6128  0.1557  0.0354
  899MPD2     H13227   3.312   3.659  17.013  1.7266 -1.0013  0.2066
  899MPD2    H113228   3.116   3.279  16.981  1.9943 -1.9351 -1.3835
  899MPD2    H213229   3.211   3.498  16.633  1.2109  1.3878  0.1698
  899MPD2    H313230   3.125   3.306  16.733 -1.2824  0.3898  0.1447
  899MPD2     N13231   3.218   3.455  17.150  0.2532 -0.3055 -0.7200
  899MPD2    H513232   3.159   3.381  17.186  1.0147 -0.5973 -0.0956
  899MPD2    N113233   3.292   3.726  16.748 -0.0063  0.1835  0.2406
  899MPD2    H713234   3.277   3.726  16.648  1.1798  1.8530  0.0635
  900MPD2     C13235   2.640   0.893  12.507 -0.0470  0.0139 -0.3582
  900MPD2    C113236   2.546   0.796  12.542  0.6466 -0.2375 -0.1344
  900MPD2    C213237   2.408   0.828  12.520 -0.3672  0.0135 -0.0716
  900MPD2    C313238   2.374   0.940  12.439 -0.2458  0.3261  0.0402
  900MPD2    C413239   2.477   1.028  12.401  0.0371  0.3927  0.3129
  900MPD2    C513240   2.606   1.002  12.430  0.0481 -0.0790 -0.2292
  900MPD2     H13241   2.332   0.757  12.550  2.2159 -1.8507  2.0070
  900MPD2    H113242   2.464   1.114  12.336  0.9323 -2.7013 -3.9670
  900MPD2    H213243   2.742   0.891  12.544  0.2004  1.0150 -0.9831
  900MPD2    H313244   2.690   1.065  12.403 -0.6243  0.5017 -0.9763
  900MPD2     N13245   2.244   0.941  12.380  0.0832 -0.1966  0.0199
  900MPD2    H513246   2.175   0.878  12.420  1.1603 -0.2926  1.6960
  900MPD2    N113247   2.588   0.680  12.604 -0.3360  0.3332 -0.0897
  900MPD2    H713248   2.685   0.672  12.633 -0.8400 -2.5869  0.7406
  901MPD2     C13249   2.436   4.410  12.370  0.4036 -0.4497 -0.0597
  901MPD2    C113250   2.562   4.399  12.430 -0.0956  0.6359  0.3304
  901MPD2    C213251   2.609   4.502  12.510 -0.1322  0.4760 -0.2090
  901MPD2    C313252   2.540   4.627  12.518 -0.2977  0.0317 -0.9058
  901MPD2    C413253   2.425   4.634  12.440  0.6536  0.3466 -0.2909
  901MPD2    C513254   2.372   4.526  12.373  0.3840  0.0558  0.7593
  901MPD2     H13255   2.693   4.486  12.577 -0.4776 -0.0965  0.0890
  901MPD2    H113256   2.375   4.730  12.431 -0.2336 -0.1941 -1.1635
  901MPD2    H213257   2.396   4.335  12.302 -0.3041 -1.0060  0.9762
  901MPD2    H313258   2.281   4.543  12.315  0.7613 -0.8615 -0.0995
  901MPD2     N13259   2.574   4.728  12.605  0.6843  0.1909  0.5639
  901MPD2    H513260   2.667   4.706  12.640  0.3481  0.7913  1.8285
  901MPD2    N113261   2.622   4.271  12.411  0.3717 -0.6224 -0.1653
  901MPD2    H713262   2.573   4.205  12.352  0.2744  1.7649 -2.7561
  902MPD2     C13263   0.994   3.854  12.837  0.5722  0.4527  0.3971
  902MPD2    C113264   1.138   3.873  12.854  0.2386  0.6158 -1.1258
  902MPD2    C213265   1.206   3.783  12.933 -0.1363 -0.1263 -0.1300
  902MPD2    C313266   1.135   3.675  12.994  0.6182 -0.7051  0.9336
  902MPD2    C413267   0.999   3.669  12.979 -0.3139  0.6424  0.3036
  902MPD2    C513268   0.925   3.752  12.903  0.2528 -0.5830  0.2310
  902MPD2     H13269   1.314   3.787  12.932 -0.1136 -0.2869  0.9974
  902MPD2    H113270   0.941   3.590  13.026  0.9397 -0.2096  0.4047
  902MPD2    H213271   0.936   3.914  12.766  1.4938 -1.1832 -1.7371
  902MPD2    H313272   0.818   3.737  12.892 -0.0107  1.3544  0.0537
  902MPD2     N13273   1.204   3.573  13.066  0.3234 -0.5558 -0.4254
  902MPD2    H513274   1.147   3.490  13.078  0.3492 -0.3725  0.9809
  902MPD2    N113275   1.202   3.976  12.790  0.5310  0.4380  0.1401
  902MPD2    H713276   1.144   4.040  12.737  2.0228  0.7768 -1.0710
  903MPD2     C13277   1.588   2.902  12.997 -0.2578  0.2435 -0.8040
  903MPD2    C113278   1.475   2.977  12.994  0.6356 -0.1155  0.0418
  903MPD2    C213279   1.444   3.040  12.873  0.1536  0.2770  0.8784
  903MPD2    C313280   1.527   3.026  12.762  0.6557  0.2930 -0.1828
  903MPD2    C413281   1.641   2.943  12.767 -0.1114 -0.6172 -0.4277
  903MPD2    C513282   1.678   2.888  12.894  0.0617 -0.7569  0.1606
  903MPD2     H13283   1.349   3.091  12.860 -1.0382 -2.2091  0.0007
  903MPD2    H113284   1.699   2.926  12.678 -0.2960 -2.3242 -0.2351
  903MPD2    H213285   1.604   2.850  13.091  1.6780 -2.5442 -2.6853
  903MPD2    H313286   1.766   2.826  12.897  0.3161 -0.3870  0.5103
  903MPD2     N13287   1.488   3.085  12.642 -0.4778  0.9249  0.2588
  903MPD2    H513288   1.399   3.134  12.648 -0.4870  1.0742 -1.2654
  903MPD2    N113289   1.405   3.021  13.110  0.0973  0.4440  0.0348
  903MPD2    H713290   1.447   2.982  13.194 -1.3758  0.4685  0.7701
  904MPD2     C13291   2.106   2.739  14.493  0.5221  0.4380  0.6548
  904MPD2    C113292   2.126   2.799  14.365 -0.4516 -0.9651  0.8083
  904MPD2    C213293   2.261   2.828  14.325 -0.2540 -0.2677  0.0576
  904MPD2    C313294   2.369   2.788  14.404 -0.0312 -0.2413 -0.8327
  904MPD2    C413295   2.344   2.717  14.524 -0.3297  0.1455 -0.2136
  904MPD2    C513296   2.214   2.697  14.568 -0.8909 -0.1441 -0.3485
  904MPD2     H13297   2.269   2.877  14.228 -0.6805 -1.1154 -0.4033
  904MPD2    H113298   2.421   2.670  14.584 -0.3371 -1.0616 -1.1374
  904MPD2    H213299   2.012   2.722  14.543 -0.4085  0.4102 -1.1181
  904MPD2    H313300   2.203   2.659  14.669 -2.7250 -0.5065 -0.6958
  904MPD2     N13301   2.494   2.820  14.353  0.3967 -0.6171 -0.1354
  904MPD2    H513302   2.496   2.874  14.267  0.5131 -1.6176 -0.7582
  904MPD2    N113303   2.026   2.846  14.279  0.0826 -0.5065 -0.0073
  904MPD2    H713304   2.051   2.877  14.186  0.8216 -0.3881  0.2276
  905MPD2     C13305   1.537   2.723  13.742 -0.6564  0.8468  0.4858
  905MPD2    C113306   1.671   2.757  13.732  0.1899  0.5927  0.4869
  905MPD2    C213307   1.754   2.683  13.650  0.3779 -0.3651  0.0511
  905MPD2    C313308   1.706   2.556  13.592 -0.2167  0.0951 -0.2399
  905MPD2    C413309   1.578   2.523  13.608  0.6265  0.7020  0.3981
  905MPD2    C513310   1.491   2.614  13.669 -0.2679 -0.6245  0.5161
  905MPD2     H13311   1.861   2.699  13.648  0.1533  1.0714 -0.6887
  905MPD2    H113312   1.527   2.430  13.584  0.9484  0.3822  0.9784
  905MPD2    H213313   1.467   2.785  13.796  0.9936  1.0178  2.4316
  905MPD2    H313314   1.388   2.581  13.674 -1.3419  2.1718 -2.9327
  905MPD2     N13315   1.792   2.461  13.534 -0.1836 -0.0731  0.0745
  905MPD2    H513316   1.749   2.369  13.528  0.3736 -0.3330  0.0949
  905MPD2    N113317   1.715   2.871  13.813 -0.2440 -0.9547  0.0930
  905MPD2    H713318   1.635   2.909  13.863 -1.0278 -0.2021 -1.7482
  906MPD2     C13319   3.443   3.135  11.433  0.1308 -0.1948 -0.4200
  906MPD2    C113320   3.561   3.072  11.416  0.5746  0.0592  0.1245
  906MPD2    C213321   3.600   2.973  11.512 -0.4892 -0.1338 -0.7159
  906MPD2    C313322   3.510   2.936  11.612  0.0528 -0.3936 -0.7455
  906MPD2    C413323   3.394   3.011  11.629  0.2311  0.6125 -0.0505
  906MPD2    C513324   3.361   3.110  11.542 -0.5172 -0.0851 -0.5154
  906MPD2     H13325   3.679   2.901  11.493  0.1932  0.8066 -1.4280
  906MPD2    H113326   3.322   2.993  11.708  0.4446  0.0612  0.0167
  906MPD2    H213327   3.404   3.211  11.367 -1.3584 -0.4425  0.1536
  906MPD2    H313328   3.268   3.166  11.547 -0.2328  0.2663  0.8673
  906MPD2     N13329   3.531   2.836  11.716  0.3064  0.0077  0.2010
  906MPD2    H513330   3.455   2.831  11.783  0.5465 -0.0215  0.4703
  906MPD2    N113331   3.646   3.077  11.297  0.6070  0.1365 -0.2930
  906MPD2    H713332   3.726   3.014  11.293 -2.0890 -3.3158 -0.1145
  907MPD2     C13333   2.839   1.940  15.257 -0.0628 -0.4664 -0.1674
  907MPD2    C113334   2.816   1.809  15.291  0.7871  0.0756 -0.0018
  907MPD2    C213335   2.857   1.770  15.421 -0.3295  0.2673  0.0068
  907MPD2    C313336   2.915   1.853  15.511  0.1176 -0.1604  0.0844
  907MPD2    C413337   2.940   1.981  15.476  0.5664  0.0735 -0.2488
  907MPD2    C513338   2.904   2.022  15.350 -0.4406  0.1162  0.2196
  907MPD2     H13339   2.854   1.664  15.441 -2.2393  0.6728  1.9210
  907MPD2    H113340   2.974   2.050  15.552 -0.7974  0.7916 -0.2976
  907MPD2    H213341   2.807   1.997  15.171 -1.2026 -1.2068 -0.2274
  907MPD2    H313342   2.915   2.128  15.331 -0.0724  0.2213  1.0208
  907MPD2     N13343   2.957   1.796  15.637 -0.0554  0.3674  0.1734
  907MPD2    H513344   2.943   1.697  15.653 -0.1188  0.0454 -1.9486
  907MPD2    N113345   2.765   1.714  15.199 -0.2659  0.4784  0.2221
  907MPD2    H713346   2.751   1.619  15.232  1.8205  0.6982  1.7500
  908MPD2     C13347   1.097   3.082   9.884 -0.6934 -0.5196  0.5498
  908MPD2    C113348   1.015   2.981   9.909 -0.2118  0.5528  0.3650
  908MPD2    C213349   0.920   3.005  10.013  0.6708 -0.0234  0.2706
  908MPD2    C313350   0.916   3.122  10.079 -0.1924 -0.2998  0.1321
  908MPD2    C413351   1.008   3.226  10.043  0.6132 -0.5225 -0.1785
  908MPD2    C513352   1.094   3.207   9.942 -0.1159  0.1083 -0.6581
  908MPD2     H13353   0.842   2.934  10.037  0.6719 -0.7976 -2.0081
  908MPD2    H113354   1.020   3.321  10.092  0.6642 -1.0461  0.8254
  908MPD2    H213355   1.170   3.069   9.804  0.9006  3.5377  1.3449
  908MPD2    H313356   1.164   3.285   9.912  0.4048 -0.2200 -0.2881
  908MPD2     N13357   0.817   3.140  10.182 -0.1386  0.0007  0.6345
  908MPD2    H513358   0.772   3.054  10.211  0.6202 -0.5608  0.1656
  908MPD2    N113359   1.025   2.861   9.835 -0.4275 -0.0002  0.1267
  908MPD2    H713360   1.093   2.858   9.761 -1.8050  0.2205 -1.1598
  909MPD2     C13361   0.594   0.809  11.476 -0.5219 -0.0932  0.6242
  909MPD2    C113362   0.514   0.926  11.472  0.0309 -0.4629 -0.1068
  909MPD2    C213363   0.452   0.972  11.585 -0.4598  0.7437 -0.5163
  909MPD2    C313364   0.472   0.904  11.707 -0.1354  0.4161  0.2049
  909MPD2    C413365   0.539   0.789  11.704 -0.4317 -0.6479 -0.6131
  909MPD2    C513366   0.603   0.740  11.595  0.3934 -0.1593 -0.2987
  909MPD2     H13367   0.416   1.074  11.578 -3.6033 -0.3618 -0.4040
  909MPD2    H113368   0.552   0.727  11.792  2.5110 -1.5197 -1.6827
  909MPD2    H213369   0.646   0.770  11.389  0.0075 -0.5917  1.1601
  909MPD2    H313370   0.684   0.669  11.601 -0.6020 -0.8075  5.9223
  909MPD2     N13371   0.429   0.960  11.826 -0.2266 -1.0405 -0.3437
  909MPD2    H513372   0.369   1.040  11.810 -2.7958 -3.0125 -0.5272
  909MPD2    N113373   0.514   1.016  11.357 -0.1815  0.3639  1.1254
  909MPD2    H713374   0.472   1.107  11.375 -1.7533  0.2034 -1.8420
  910MPD2     C13375   1.741   1.980  15.684 -0.2149  0.6127 -0.2236
  910MPD2    C113376   1.861   1.945  15.630 -0.0741 -0.7900 -0.7375
  910MPD2    C213377   1.890   1.980  15.498 -0.7830  0.2020 -0.8071
  910MPD2    C313378   1.801   2.058  15.427  0.1703 -0.1437 -0.5169
  910MPD2    C413379   1.678   2.100  15.486 -0.1716 -1.1376 -0.9020
  910MPD2    C513380   1.653   2.060  15.617 -0.4656  0.2008 -0.2121
  910MPD2     H13381   1.985   1.962  15.450  0.8967  2.1222  1.8125
  910MPD2    H113382   1.602   2.153  15.430 -2.8015 -2.7357  1.1317
  910MPD2    H213383   1.708   1.957  15.785  1.9389  1.9727  0.7825
  910MPD2    H313384   1.557   2.082  15.663  0.5650  0.0387  2.0209
  910MPD2     N13385   1.824   2.108  15.297  0.2991 -0.0570 -0.4393
  910MPD2    H513386   1.754   2.171  15.258 -0.5945 -1.3240 -0.8938
  910MPD2    N113387   1.966   1.870  15.696 -0.3714  0.1586 -0.3859
  910MPD2    H713388   2.055   1.864  15.647  0.2000 -0.6037  0.7512
  911MPD2     C13389   4.734   2.426  16.195  0.4111  0.0329 -0.1986
  911MPD2    C113390   0.067   2.540  16.220 -0.5874 -0.2824  0.4371
  911MPD2    C213391   4.733   2.658  16.226 -0.3870  0.2905 -0.4635
  911MPD2    C313392   4.597   2.656  16.195  0.3226 -0.8944  0.7698
  911MPD2    C413393   4.533   2.537  16.155 -0.4457  0.7781 -0.1075
  911MPD2    C513394   4.606   2.421  16.151  0.4504 -0.7249 -0.1712
  911MPD2     H13395   0.053   2.749  16.234 -0.0559  0.1536 -1.4526
  911MPD2    H113396   4.431   2.543  16.120 -0.8331  0.5609  0.9794
  911MPD2    H213397   0.045   2.330  16.189 -1.8666 -1.1245 -0.8419
  911MPD2    H313398   4.570   2.327  16.111 -0.1758 -0.4746 -0.1874
  911MPD2     N13399   4.517   2.770  16.162  0.0893  0.6387 -1.0072
  911MPD2    H513400   4.427   2.759  16.117  0.3558 -2.4793 -0.7454
  911MPD2    N113401   0.206   2.533  16.233 -0.3749  0.2466  0.2557
  911MPD2    H713402   0.240   2.441  16.205 -0.8816 -0.7152  2.7869
  912MPD2     C13403   4.089   2.705  15.604  0.6460  0.6544  0.4912
  912MPD2    C113404   4.115   2.691  15.737  0.1442 -0.3362  0.3597
  912MPD2    C213405   4.061   2.579  15.814  0.1247 -0.2990 -0.5905
  912MPD2    C313406   3.982   2.487  15.753  0.0678 -0.4789  0.6359
  912MPD2    C413407   3.944   2.513  15.614 -0.0842 -0.4681  0.0663
  912MPD2    C513408   4.000   2.615  15.551  0.2280 -0.0311 -0.6026
  912MPD2     H13409   4.086   2.562  15.919  2.0561 -0.0316 -1.0032
  912MPD2    H113410   3.866   2.453  15.570 -1.3166  0.0540  1.5268
  912MPD2    H213411   4.127   2.789  15.546 -0.0273  1.0414  0.6035
  912MPD2    H313412   3.969   2.615  15.447 -0.4774  0.6404 -0.3982
  912MPD2     N13413   3.931   2.374  15.832 -0.5744  0.0804 -0.4845
  912MPD2    H513414   3.941   2.363  15.933  1.2621  0.4069 -0.6313
  912MPD2    N113415   4.187   2.807  15.792 -0.0309  0.2044 -0.0466
  912MPD2    H713416   4.206   2.885  15.730  1.7318 -0.0880  0.1129
  913MPD2     C13417   4.395   4.460  10.880  0.0685  0.0892  0.7673
  913MPD2    C113418   4.491   4.542  10.936 -0.2208 -0.3969 -0.7688
  913MPD2    C213419   4.563   4.625  10.854 -0.6043 -0.2440  0.8284
  913MPD2    C313420   4.529   4.637  10.726  0.6276  0.0088 -0.1404
  913MPD2    C413421   4.428   4.560  10.670  0.0221 -0.8095 -0.2281
  913MPD2    C513422   4.358   4.475  10.747  0.3165  0.8990  0.0588
  913MPD2     H13423   4.640   4.689  10.896  0.2895 -0.5414 -0.3654
  913MPD2    H113424   4.401   4.550  10.566 -0.6845 -0.8168 -0.0439
  913MPD2    H213425   4.347   4.381  10.937  0.1973 -0.6880 -0.2051
  913MPD2    H313426   4.269   4.426  10.709  1.1064  0.0204 -0.6522
  913MPD2     N13427   4.588   0.000  10.641 -0.5521 -0.5373  0.5372
  913MPD2    H513428   4.560   0.002  10.544  0.2217  0.6362  0.3409
  913MPD2    N113429   4.523   4.512  11.073 -0.2764 -0.7463  0.2799
  913MPD2    H713430   4.483   4.434  11.124 -0.4532 -0.1957  0.9950
  914MPD2     C13431   3.099   4.399  11.867  0.3425  0.1152 -0.2562
  914MPD2    C113432   3.108   4.426  12.000  0.3053 -0.0739  0.0767
  914MPD2    C213433   3.079   4.325  12.091 -0.0582  0.5173  0.0064
  914MPD2    C313434   3.028   4.202  12.050  0.0539  0.1336 -0.7964
  914MPD2    C413435   3.018   4.178  11.913 -0.0584  0.2248 -0.5630
  914MPD2    C513436   3.055   4.279  11.822  0.4898 -0.4347 -0.3267
  914MPD2     H13437   3.085   4.339  12.199  1.8485 -0.3631  0.0083
  914MPD2    H113438   2.981   4.085  11.873  2.1785 -0.4739 -1.0075
  914MPD2    H213439   3.123   4.472  11.791  2.0689  0.9245  1.0813
  914MPD2    H313440   3.058   4.259  11.716 -0.3011  1.2999 -0.6825
  914MPD2     N13441   2.991   4.109  12.152  0.2537 -0.8173  0.2022
  914MPD2    H513442   3.033   4.122  12.244 -0.1045 -1.0075  0.3945
  914MPD2    N113443   3.146   4.557  12.042 -0.1339  0.0024  0.3281
  914MPD2    H713444   3.164   4.632  11.976 -1.3666 -0.3089 -0.3568
  915MPD2     C13445   1.233   4.383  15.278 -0.4817  0.0888 -0.4711
  915MPD2    C113446   1.111   4.433  15.228  0.4309 -0.3579  0.1297
  915MPD2    C213447   1.007   4.449  15.311 -0.4138  0.2583 -0.2842
  915MPD2    C313448   1.015   4.415  15.445  0.8768 -0.5947 -0.3212
  915MPD2    C413449   1.131   4.364  15.495 -0.3410  0.4146 -0.3856
  915MPD2    C513450   1.236   4.360  15.409 -0.3791  0.1824 -0.0359
  915MPD2     H13451   0.915   4.494  15.275  0.8220  0.6018 -3.0150
  915MPD2    H113452   1.135   4.334  15.599  0.6061  0.8446 -0.3046
  915MPD2    H213453   1.320   4.368  15.214 -1.0541 -0.1848 -1.1918
  915MPD2    H313454   1.334   4.335  15.450  0.0526 -0.4504 -1.4594
  915MPD2     N13455   0.896   4.431  15.523  0.5852 -0.0127  0.0161
  915MPD2    H513456   0.824   4.493  15.487  1.4228 -0.8595 -3.0498
  915MPD2    N113457   1.104   4.449  15.085  0.0822  0.4131 -0.3295
  915MPD2    H713458   1.181   4.420  15.025 -0.2270  1.9198 -1.4607
  916MPD2     C13459   3.601   2.348  15.487 -0.5938 -0.1305 -0.1673
  916MPD2    C113460   3.571   2.235  15.556  1.2453  0.1962  0.2459
  916MPD2    C213461   3.616   2.106  15.517  0.4177 -0.0684 -0.1963
  916MPD2    C313462   3.690   2.094  15.398 -0.5667 -0.1930 -0.0947
  916MPD2    C413463   3.714   2.205  15.321  0.3836  0.3134  0.1090
  916MPD2    C513464   3.669   2.331  15.370 -0.5155  0.1821  0.5272
  916MPD2     H13465   3.600   2.022  15.583  0.4923  1.5162  1.8621
  916MPD2    H113466   3.770   2.194  15.229  1.4794 -0.6472  0.9030
  916MPD2    H213467   3.567   2.444  15.523  1.1915 -0.0710  1.3561
  916MPD2    H313468   3.694   2.417  15.308 -2.5288 -0.0741 -0.6723
  916MPD2     N13469   3.727   1.960  15.355  0.0435 -0.1391 -0.1267
  916MPD2    H513470   3.711   1.887  15.425  2.8744 -0.5749  0.0492
  916MPD2    N113471   3.488   2.252  15.669  0.5123  0.1215 -0.9087
  916MPD2    H713472   3.460   2.346  15.696  1.1710 -0.1472  0.7000
  917MPD2     C13473   3.903   0.130  11.122 -0.5526  0.0916  0.5104
  917MPD2    C113474   3.970   0.168  11.233 -0.2683 -0.2302  0.2693
  917MPD2    C213475   4.046   0.280  11.228  0.0668 -0.3191 -0.0003
  917MPD2    C313476   4.060   0.342  11.105 -0.1010 -0.3483 -0.0581
  917MPD2    C413477   3.996   0.298  10.995  0.2359  0.0541  0.2537
  917MPD2    C513478   3.902   0.193  11.004 -0.4345 -1.0754  0.5000
  917MPD2     H13479   4.113   0.305  11.310  0.1202  2.2737 -0.8648
  917MPD2    H113480   4.006   0.351  10.901 -2.5065  0.9992  0.4983
  917MPD2    H213481   3.838   0.044  11.133  0.0994 -0.4618  0.0399
  917MPD2    H313482   3.841   0.159  10.921 -0.7038  0.7034 -0.0347
  917MPD2     N13483   4.149   0.449  11.078  0.8902 -0.6566  0.0687
  917MPD2    H513484   4.156   0.494  10.987  1.7674 -0.9111  0.0108
  917MPD2    N113485   3.951   0.085  11.348  0.2771  0.1163 -0.1702
  917MPD2    H713486   3.896   0.000  11.340 -0.9676  1.0894 -1.8103
  918MPD2     C13487   4.365   0.261  12.235 -0.3873  0.0272  0.4050
  918MPD2    C113488   4.375   0.312  12.102 -0.2648  0.0741  0.1045
  918MPD2    C213489   4.277   0.277  12.014 -0.0321  0.7055 -0.1172
  918MPD2    C313490   4.171   0.192  12.047  0.2831 -0.8795 -0.3049
  918MPD2    C413491   4.152   0.147  12.174 -0.3245  0.1722 -0.3786
  918MPD2    C513492   4.250   0.184  12.262 -0.7071  0.1036 -0.5088
  918MPD2     H13493   4.272   0.298  11.907  1.6912  1.7312 -0.0062
  918MPD2    H113494   4.068   0.087  12.206 -0.7098 -0.3995 -2.4123
  918MPD2    H213495   4.437   0.263  12.315 -1.7492 -0.9304  1.6685
  918MPD2    H313496   4.231   0.155  12.365  2.5773 -3.1880 -0.8233
  918MPD2     N13497   4.096   0.144  11.944 -0.3420 -0.8759 -0.3527
  918MPD2    H513498   4.103   0.195  11.857 -0.7907 -0.8204 -0.3536
  918MPD2    N113499   4.497   0.367  12.049 -0.3406 -0.0470 -0.0016
  918MPD2    H713500   4.489   0.405  11.955 -0.1605  1.1936  0.4845
  919MPD2     C13501   4.414   4.179  11.777  0.0702 -0.5192  0.1693
  919MPD2    C113502   4.395   4.044  11.757 -0.3582  0.2754  0.2059
  919MPD2    C213503   4.357   3.998  11.633 -0.0256  0.0221 -0.5936
  919MPD2    C313504   4.350   4.092  11.530  0.2651 -0.0135 -0.0529
  919MPD2    C413505   4.360   4.227  11.555  0.2278 -0.3374 -0.1348
  919MPD2    C513506   4.395   4.276  11.675 -0.2544 -0.5828  0.1554
  919MPD2     H13507   4.359   3.891  11.616 -1.6737 -0.1727  0.4129
  919MPD2    H113508   4.344   4.293  11.471  0.0740 -0.6868 -0.3805
  919MPD2    H213509   4.456   4.215  11.870  2.1678 -0.4424 -0.7848
  919MPD2    H313510   4.422   4.381  11.677 -0.3770 -0.5501  0.1068
  919MPD2     N13511   4.335   4.054  11.396 -0.2742 -0.2911  0.9176
  919MPD2    H513512   4.330   4.136  11.337 -0.2626 -0.9958 -0.0607
  919MPD2    N113513   4.419   3.948  11.860  0.4115  0.1369  0.5837
  919MPD2    H713514   4.394   3.852  11.843  0.1775  0.2572  0.2561
  920MPD2     C13515   4.457   4.257  10.451 -0.5678  0.2873 -0.2166
  920MPD2    C113516   4.326   4.254  10.490 -0.3626  0.3816  0.3073
  920MPD2    C213517   4.294   4.193  10.609 -0.3578 -0.1403  0.3130
  920MPD2    C313518   4.395   4.140  10.690 -0.2459  1.0105 -0.6717
  920MPD2    C413519   4.532   4.145  10.649  0.4600  0.5695  0.2765
  920MPD2    C513520   4.555   4.204  10.527 -0.1893 -0.4160  0.3580
  920MPD2     H13521   4.190   4.194  10.639 -0.5335 -0.3335 -0.2951
  920MPD2    H113522   4.611   4.093  10.702  0.6770  1.2200  0.5929
  920MPD2    H213523   4.490   4.311  10.363  1.1519  1.3516  1.0716
  920MPD2    H313524   4.658   4.213  10.497  0.3153 -2.3408  1.4967
  920MPD2     N13525   4.359   4.084  10.814 -0.3326 -0.2012  0.2988
  920MPD2    H513526   4.261   4.061  10.830 -0.4856 -0.7912 -1.4774
  920MPD2    N113527   4.233   4.324  10.425  0.2907 -0.7798  0.2508
  920MPD2    H713528   4.139   4.309  10.459  0.6969 -1.5898  1.0298
  921MPD2     C13529   0.865   3.179  16.664  1.2260 -1.0752  0.1083
  921MPD2    C113530   0.920   3.132  16.541 -0.2401 -0.7239  0.5606
  921MPD2    C213531   0.866   3.023  16.476  0.0012 -0.0735  0.4400
  921MPD2    C313532   0.766   2.955  16.539  0.1653 -0.3295 -0.5494
  921MPD2    C413533   0.711   2.990  16.662  0.1596  0.4253  0.1691
  921MPD2    C513534   0.763   3.102  16.722  0.6203 -0.4645  0.1698
  921MPD2     H13535   0.899   2.993  16.377  1.3273  1.2051  0.5073
  921MPD2    H113536   0.623   2.942  16.703 -1.1094  1.4651 -1.2992
  921MPD2    H213537   0.895   3.269  16.716  0.6474  0.2249 -1.8168
  921MPD2    H313538   0.731   3.119  16.825 -2.5117 -0.9238 -0.7181
  921MPD2     N13539   0.697   2.852  16.478  0.0327  0.6923  0.7648
  921MPD2    H513540   0.639   2.795  16.538  1.6465 -0.4768  1.2142
  921MPD2    N113541   1.018   3.220  16.484  0.1353 -0.4738 -0.3353
  921MPD2    H713542   1.061   3.292  16.542  1.0100 -1.8238  0.6931
  922MPD2     C13543   1.410   0.917  17.034 -0.1344  0.2673  0.9787
  922MPD2    C113544   1.311   0.894  17.125  0.4835 -0.5568 -0.5423
  922MPD2    C213545   1.265   0.767  17.142  0.0808 -0.5519  0.0094
  922MPD2    C313546   1.314   0.660  17.071  0.0231  0.2247  0.0625
  922MPD2    C413547   1.421   0.682  16.991  0.3909  0.2974  0.0063
  922MPD2    C513548   1.460   0.808  16.971  0.4822  0.4271  0.4813
  922MPD2     H13549   1.177   0.753  17.204  0.7099  1.4573  1.3395
  922MPD2    H113550   1.466   0.601  16.936 -1.5000 -1.0218  0.3846
  922MPD2    H213551   1.445   1.015  17.006 -1.2574  0.0769 -1.1318
  922MPD2    H313552   1.544   0.828  16.906  1.4205  0.4412  1.7187
  922MPD2     N13553   1.259   0.537  17.093 -0.7941  0.3080  0.1952
  922MPD2    H513554   1.187   0.535  17.165 -0.7632 -1.3815  0.1781
  922MPD2    N113555   1.254   0.994  17.200  0.2775  0.3261  0.2629
  922MPD2    H713556   1.190   0.954  17.268 -0.0323  0.0693 -0.1852
  923MPD2     C13557   2.538   2.918   9.505  0.4764  0.4419  0.0848
  923MPD2    C113558   2.550   3.051   9.524 -0.1023 -0.4511 -0.8154
  923MPD2    C213559   2.677   3.108   9.549 -0.0501 -0.1289  0.3270
  923MPD2    C313560   2.790   3.030   9.531 -0.3242  0.3657 -0.0153
  923MPD2    C413561   2.770   2.894   9.510  0.2736 -0.1752 -0.0551
  923MPD2    C513562   2.649   2.837   9.502 -0.9768 -0.2723  0.3561
  923MPD2     H13563   2.687   3.211   9.579 -1.3190 -0.3968  1.6327
  923MPD2    H113564   2.855   2.827   9.503  0.5263  0.2076 -0.7128
  923MPD2    H213565   2.442   2.870   9.489  1.0958 -1.3921  1.9168
  923MPD2    H313566   2.641   2.734   9.470 -1.3399  0.3159 -1.4315
  923MPD2     N13567   2.924   3.069   9.552 -0.2856  0.7534 -0.6755
  923MPD2    H513568   2.988   2.994   9.576 -1.7320 -0.8857 -1.9643
  923MPD2    N113569   2.433   3.122   9.512  0.6436  0.1836  0.3961
  923MPD2    H713570   2.350   3.066   9.498 -0.0756  1.6526 -1.2001
  924MPD2     C13571   3.363   1.240  15.558 -0.2810 -0.4751 -0.9712
  924MPD2    C113572   3.284   1.241  15.673 -0.3985  0.3538  0.4031
  924MPD2    C213573   3.280   1.351  15.761  0.3302 -0.4036 -0.1781
  924MPD2    C313574   3.352   1.459  15.731 -0.1628 -0.4979 -0.2135
  924MPD2    C413575   3.426   1.462  15.616  0.7669 -0.0919  1.0347
  924MPD2    C513576   3.431   1.354  15.533 -0.6008  0.2076 -0.3840
  924MPD2     H13577   3.212   1.343  15.844 -2.7403  1.3157 -2.5143
  924MPD2    H113578   3.490   1.549  15.602 -1.2170  1.4034  1.3849
  924MPD2    H213579   3.368   1.152  15.495 -2.4281 -0.9316 -0.4857
  924MPD2    H313580   3.499   1.353  15.448 -2.0566 -2.4488 -1.5234
  924MPD2     N13581   3.341   1.573  15.818 -0.2321 -0.1569 -0.3480
  924MPD2    H513582   3.383   1.656  15.776 -0.9235 -0.3251 -1.3763
  924MPD2    N113583   3.209   1.124  15.710 -0.0146  0.4046 -0.3572
  924MPD2    H713584   3.202   1.057  15.635  1.6047 -0.2230  0.0617
  925MPD2     C13585   1.862   3.862  14.536 -0.7242 -0.2859 -0.2229
  925MPD2    C113586   1.736   3.881  14.484 -0.5610 -0.3061  0.1992
  925MPD2    C213587   1.631   3.918  14.567 -0.3635  0.2975  0.6876
  925MPD2    C313588   1.648   3.930  14.700  0.2567 -0.5268 -0.6916
  925MPD2    C413589   1.774   3.902  14.752  0.3323  0.2097 -0.2316
  925MPD2    C513590   1.882   3.873  14.669 -0.3855 -0.3228  0.4581
  925MPD2     H13591   1.538   3.940  14.516  0.7611 -0.5194 -1.7231
  925MPD2    H113592   1.790   3.912  14.859  0.1938  3.0078 -0.4650
  925MPD2    H213593   1.950   3.830  14.482 -1.2947 -1.6838 -0.3006
  925MPD2    H313594   1.980   3.851  14.710 -0.0389  0.9413  0.2904
  925MPD2     N13595   1.542   3.944  14.786 -0.0612  0.2500 -1.0509
  925MPD2    H513596   1.564   3.916  14.881  2.8403  0.5611 -1.6220
  925MPD2    N113597   1.711   3.848  14.348 -0.1950  0.1755 -0.0856
  925MPD2    H713598   1.615   3.836  14.316 -0.7610  2.4375  0.7643
  926MPD2     C13599   0.163   1.801  13.838 -0.5982 -0.1676 -0.0336
  926MPD2    C113600   0.047   1.859  13.784  0.4248  0.3141  0.3040
  926MPD2    C213601   0.052   1.897  13.648 -0.0723 -0.5490  0.5930
  926MPD2    C313602   0.166   1.873  13.570 -0.4663 -0.0251 -0.2849
  926MPD2    C413603   0.279   1.838  13.635  0.3890  1.2164 -0.4902
  926MPD2    C513604   0.275   1.792  13.759 -0.3671  0.0169  0.4690
  926MPD2     H13605   4.713   1.961  13.609 -1.0875 -2.8865 -1.2181
  926MPD2    H113606   0.376   1.840  13.587  0.9823  0.1980  0.6789
  926MPD2    H213607   0.169   1.768  13.941  1.4152  2.7015  0.7737
  926MPD2    H313608   0.368   1.771  13.811 -0.0773 -0.6874 -0.3268
  926MPD2     N13609   0.185   1.922  13.441  0.3542 -0.0075 -0.1633
  926MPD2    H513610   0.279   1.921  13.403  1.1950  0.3979  1.9077
  926MPD2    N113611   4.671   1.887  13.859  0.1549 -0.1878 -0.2992
  926MPD2    H713612   4.594   1.934  13.813  0.4348  1.6643  1.1225
  927MPD2     C13613   0.509   3.805   0.084 -0.2498  0.5151 -0.1587
  927MPD2    C113614   0.442   3.903   0.014 -0.1145  0.1263  0.8878
  927MPD2    C213615   0.487   3.925  17.638  0.1214 -0.3245  0.2374
  927MPD2    C313616   0.591   3.848  17.577  0.2617  0.8271  0.7017
  927MPD2    C413617   0.656   3.755  17.649  1.3325  0.0167  0.1489
  927MPD2    C513618   0.615   3.738   0.026 -0.0648  0.5751  0.2397
  927MPD2     H13619   0.452   4.009  17.580  0.7057 -0.0274  0.3137
  927MPD2    H113620   0.741   3.700  17.610  1.3349 -0.1341  0.3717
  927MPD2    H213621   0.478   3.781   0.185  0.8899 -1.7162 -0.3440
  927MPD2    H313622   0.665   3.664   0.087 -3.8280 -1.6214  0.6870
  927MPD2     N13623   0.624   3.874  17.444 -0.1565 -0.7602  0.0583
  927MPD2    H513624   0.569   3.941  17.390 -1.4518  1.8941  4.6468
  927MPD2    N113625   0.345   3.983   0.082  0.4875 -0.5910  0.3099
  927MPD2    H713626   0.341   3.962   0.181  3.1817 -1.2097  0.2882
  928MPD2     C13627   3.062   3.048   1.266 -0.3647 -0.2280  1.0535
  928MPD2    C113628   2.980   2.988   1.179  0.3173  0.0806  0.1996
  928MPD2    C213629   3.022   2.957   1.055  0.2831 -0.2782  0.6745
  928MPD2    C313630   3.143   3.001   1.011  0.0127  0.7683 -0.3552
  928MPD2    C413631   3.232   3.058   1.100 -0.1463 -0.1631 -0.3705
  928MPD2    C513632   3.190   3.076   1.228 -0.8538  0.4604  0.6442
  928MPD2     H13633   2.957   2.897   0.992  3.0221 -1.3465 -1.1442
  928MPD2    H113634   3.334   3.067   1.066 -0.1951 -3.0231 -1.2745
  928MPD2    H213635   3.028   3.088   1.361 -1.9061  0.5733  0.1735
  928MPD2    H313636   3.249   3.135   1.296 -0.1754 -0.3594  0.7649
  928MPD2     N13637   3.186   2.989   0.876 -0.6079  0.7986  0.3084
  928MPD2    H513638   3.276   3.031   0.857  1.0041 -2.6622  0.4179
  928MPD2    N113639   2.846   2.980   1.229 -0.0993 -0.8031  0.4669
  928MPD2    H713640   2.834   3.007   1.326 -1.1138 -1.8279  0.6379
  929MPD2     C13641   2.839   3.179   9.883 -0.0412  0.0335  0.3665
  929MPD2    C113642   2.754   3.064   9.879  0.7076  0.3244  0.1671
  929MPD2    C213643   2.620   3.087   9.856  0.1390  0.7993 -0.0219
  929MPD2    C313644   2.570   3.216   9.860 -0.4473  0.0514  0.9557
  929MPD2    C413645   2.657   3.325   9.852 -0.5581 -0.3182  0.3724
  929MPD2    C513646   2.791   3.301   9.858  0.5911 -0.2169 -0.6690
  929MPD2     H13647   2.544   3.011   9.860 -0.4544  1.3204 -1.4304
  929MPD2    H113648   2.620   3.426   9.839 -1.1396 -0.7674 -1.5233
  929MPD2    H213649   2.946   3.161   9.882  0.0722  0.7062  0.2928
  929MPD2    H313650   2.862   3.383   9.850  0.4614 -0.1150 -0.7787
  929MPD2     N13651   2.431   3.240   9.871 -0.0490 -0.2135  0.1012
  929MPD2    H513652   2.410   3.338   9.885  0.5453 -0.0908  0.1220
  929MPD2    N113653   2.792   2.932   9.921  0.4656  0.4693  0.3993
  929MPD2    H713654   2.709   2.875   9.932  0.0536  0.9912  0.0128
  930MPD2     C13655   4.369   0.020  14.182 -0.7965  0.4714 -0.2262
  930MPD2    C113656   4.489   0.055  14.124 -0.5065  0.0260  0.0461
  930MPD2    C213657   4.507   0.019  13.992  0.2826 -0.2552  0.0925
  930MPD2    C313658   4.421   4.679  13.919 -0.1991  0.2695 -0.1520
  930MPD2    C413659   4.301   4.646  13.974 -0.5547 -0.8983 -0.0946
  930MPD2    C513660   4.275   4.680  14.111 -0.4114 -0.6424  0.0951
  930MPD2     H13661   4.593   0.053  13.936 -0.6388  1.2693 -0.4003
  930MPD2    H113662   4.229   4.587  13.918  1.0953 -2.3899 -0.6694
  930MPD2    H213663   4.338   0.060  14.278 -1.1960 -0.2381 -0.0594
  930MPD2    H313664   4.193   4.637  14.168  0.4794  0.0340  1.9069
  930MPD2     N13665   4.446   4.652  13.782 -0.5810 -0.0889  0.0710
  930MPD2    H513666   4.368   4.609  13.732 -0.1514  1.3366 -1.7963
  930MPD2    N113667   4.575   0.144  14.185 -0.0234 -0.0718  0.1134
  930MPD2    H713668   4.542   0.176  14.275  0.5995  1.7010 -0.2826
  931MPD2     C13669   0.579   4.358   0.529  0.3435 -0.5816 -0.2781
  931MPD2    C113670   0.447   4.358   0.552 -0.9070  0.4851  0.1257
  931MPD2    C213671   0.407   4.371   0.683 -0.1602  0.2738  0.2980
  931MPD2    C313672   0.492   4.390   0.789 -0.0287  0.2698 -0.5437
  931MPD2    C413673   0.628   4.376   0.764 -0.3992 -0.1233 -0.0256
  931MPD2    C513674   0.667   4.365   0.632 -0.3955 -0.3854 -0.2149
  931MPD2     H13675   0.302   4.387   0.703 -0.3394  1.4848 -1.5484
  931MPD2    H113676   0.701   4.404   0.840  0.4366  1.4378 -1.4134
  931MPD2    H213677   0.614   4.357   0.426 -1.5732 -2.3318 -0.9054
  931MPD2    H313678   0.772   4.351   0.610  0.2600 -0.3047  2.8653
  931MPD2     N13679   0.444   4.425   0.919 -0.2232  0.1912  0.6302
  931MPD2    H513680   0.518   4.445   0.986 -0.4867 -1.5166  1.4200
  931MPD2    N113681   0.356   4.349   0.438  0.5303 -0.1432 -0.3074
  931MPD2    H713682   0.399   4.340   0.346 -1.4325 -1.3492 -1.1259
  932MPD2     C13683   1.285   3.793  11.806  0.6805  0.9746  0.0436
  932MPD2    C113684   1.407   3.827  11.853 -0.5781 -0.7786 -0.3578
  932MPD2    C213685   1.475   3.729  11.927 -0.1801 -0.9508  0.0620
  932MPD2    C313686   1.425   3.605  11.948  0.0246  0.3465  0.5871
  932MPD2    C413687   1.297   3.575  11.908  0.0521 -0.7875  0.2264
  932MPD2    C513688   1.232   3.669  11.842  0.0622  0.0175  0.1420
  932MPD2     H13689   1.576   3.760  11.950 -0.2375  0.4586 -1.5611
  932MPD2    H113690   1.255   3.478  11.933 -2.5775 -0.0592 -1.3621
  932MPD2    H213691   1.218   3.861  11.755  4.2501  2.4992 -2.6719
  932MPD2    H313692   1.128   3.654  11.816  0.2350 -1.9092  0.5499
  932MPD2     N13693   1.487   3.503  12.025  0.2920  0.0691  0.3987
  932MPD2    H513694   1.439   3.415  12.036 -0.0558  0.1140 -0.7568
  932MPD2    N113695   1.469   3.948  11.834 -0.2344 -0.8516 -0.8170
  932MPD2    H713696   1.560   3.960  11.877 -0.5883  0.7614 -0.5473
  933MPD2     C13697   2.204   3.524   1.234  0.1750 -0.6216 -0.2084
  933MPD2    C113698   2.295   3.441   1.167  0.2085 -0.1498  0.3640
  933MPD2    C213699   2.332   3.475   1.035  1.1880 -0.5365  0.8041
  933MPD2    C313700   2.282   3.597   0.988 -0.3032  0.3901 -0.4642
  933MPD2    C413701   2.202   3.678   1.053  0.8545 -0.0686 -0.5649
  933MPD2    C513702   2.162   3.643   1.185  0.2589 -0.1648 -0.0962
  933MPD2     H13703   2.409   3.428   0.975 -0.4945 -0.4467 -1.4011
  933MPD2    H113704   2.162   3.770   1.013 -1.4873  0.5476  3.1407
  933MPD2    H213705   2.194   3.495   1.338 -1.4718  1.2024  0.1360
  933MPD2    H313706   2.111   3.713   1.250 -1.3447 -0.1209 -1.4098
  933MPD2     N13707   2.332   3.630   0.860 -0.4618 -0.4746  0.0966
  933MPD2    H513708   2.385   3.553   0.820  0.5935  0.3112 -0.0100
  933MPD2    N113709   2.346   3.325   1.234 -0.2861 -0.5696 -0.1587
  933MPD2    H713710   2.304   3.292   1.320 -0.3579  1.2175  0.4754
  934MPD2     C13711   3.827   1.227   1.042 -1.1237 -0.2539 -0.2114
  934MPD2    C113712   3.899   1.106   1.049  0.2458 -0.1847 -0.2520
  934MPD2    C213713   3.831   0.993   1.002 -0.3823  0.4110  0.3273
  934MPD2    C313714   3.715   0.995   0.926 -0.3837 -0.2446  0.0227
  934MPD2    C413715   3.642   1.109   0.936  0.3539 -0.3256  0.3451
  934MPD2    C513716   3.695   1.217   1.001  0.0954  0.2841 -0.9054
  934MPD2     H13717   3.893   0.905   1.009  0.8566  1.1756 -0.9182
  934MPD2    H113718   3.541   1.111   0.896  0.9594  3.4616 -1.0176
  934MPD2    H213719   3.859   1.320   1.088 -0.0569 -0.6927 -0.0761
  934MPD2    H313720   3.632   1.305   1.009  0.3535  0.2987  0.8872
  934MPD2     N13721   3.652   0.885   0.862 -0.1496 -0.8729  0.1113
  934MPD2    H513722   3.573   0.899   0.799  0.3124  0.0152 -0.2691
  934MPD2    N113723   4.030   1.092   1.109  0.1318 -0.0305  0.2665
  934MPD2    H713724   4.069   0.998   1.102  0.6760  0.2115 -0.0561
  935MPD2     C13725   3.918   4.678   0.578 -0.0153  0.3591  0.2559
  935MPD2    C113726   3.806   4.717   0.502  0.2707 -0.6311 -0.2555
  935MPD2    C213727   3.733   0.085   0.548  0.1426  0.3262  0.0974
  935MPD2    C313728   3.762   0.144   0.672 -0.0019  0.5865 -0.8023
  935MPD2    C413729   3.868   0.096   0.747 -0.7028 -0.4966 -0.4590
  935MPD2    C513730   3.947   0.001   0.693  0.7026  0.0830 -0.0938
  935MPD2     H13731   3.643   0.109   0.493 -0.1987  0.1470  0.5803
  935MPD2    H113732   3.892   0.133   0.846  1.4055  0.8569 -1.4757
  935MPD2    H213733   3.980   4.592   0.556  0.5809  0.9251 -0.2419
  935MPD2    H313734   4.033   4.699   0.744  2.0637  1.2232 -1.4757
  935MPD2     N13735   3.698   0.258   0.724 -0.9309  0.6309  1.0216
  935MPD2    H513736   3.732   0.284   0.816  1.7656  0.9753 -0.0490
  935MPD2    N113737   3.771   4.650   0.386 -0.4889 -0.0349 -0.5191
  935MPD2    H713738   3.699   4.693   0.329  0.5176  1.0463 -0.9639
  936MPD2     C13739   2.099   1.827  12.510 -0.0444 -0.4988 -0.0499
  936MPD2    C113740   2.153   1.861  12.634  0.3842  0.5198  0.2805
  936MPD2    C213741   2.291   1.870  12.639  0.0179 -0.5694  0.1185
  936MPD2    C313742   2.372   1.849  12.531  0.4097  0.3181 -0.5172
  936MPD2    C413743   2.312   1.831  12.405 -0.4165  0.7179  0.1954
  936MPD2    C513744   2.178   1.812  12.398  0.1448 -0.7029  0.2580
  936MPD2     H13745   2.327   1.899  12.736  0.0420  0.4946 -0.2134
  936MPD2    H113746   2.373   1.807  12.318  0.3840 -1.0458  1.2419
  936MPD2    H213747   1.991   1.814  12.508  0.1487 -2.1908  0.4042
  936MPD2    H313748   2.131   1.780  12.305  0.0129 -0.8793  0.3828
  936MPD2     N13749   2.513   1.860  12.557  0.6768 -0.7468 -0.1082
  936MPD2    H513750   2.533   1.891  12.652 -1.3015  0.9955 -0.2622
  936MPD2    N113751   2.080   1.884  12.748  0.1514 -0.1646  0.4974
  936MPD2    H713752   2.135   1.923  12.824 -1.0058 -0.4382  1.4658
  937MPD2     C13753   0.153   3.463  11.681  0.3633  0.1453  0.8555
  937MPD2    C113754   0.138   3.596  11.710 -0.0216  0.2994  0.0074
  937MPD2    C213755   0.174   3.690  11.610 -0.7678  0.2421  1.1908
  937MPD2    C313756   0.234   3.648  11.493  1.2011  0.4881 -0.4584
  937MPD2    C413757   0.247   3.506  11.470 -0.4059 -0.4021  0.4522
  937MPD2    C513758   0.198   3.421  11.561  0.2016 -0.7304 -0.2906
  937MPD2     H13759   0.140   3.793  11.615 -0.5970  0.3862 -0.5952
  937MPD2    H113760   0.291   3.465  11.380 -0.9462 -2.9069  1.3474
  937MPD2    H213761   0.118   3.385  11.748 -1.0349 -1.0783 -1.3416
  937MPD2    H313762   0.196   3.313  11.549 -0.7163 -0.4317 -2.7507
  937MPD2     N13763   0.270   3.746  11.400 -0.2414 -0.5294 -0.1324
  937MPD2    H513764   0.244   3.836  11.439  0.2977 -0.5066  0.1815
  937MPD2    N113765   0.049   3.650  11.809 -0.4607 -0.0391  0.0153
  937MPD2    H713766   0.032   3.750  11.811  0.2592  0.0722  0.8523
  938MPD2     C13767   3.088   4.311   0.483  0.3605 -0.1135  0.0924
  938MPD2    C113768   3.049   4.436   0.514  0.0532 -0.0384 -0.4358
  938MPD2    C213769   3.070   4.480   0.644  0.4310  0.2082 -0.2792
  938MPD2    C313770   3.144   4.400   0.736 -0.0902 -0.5023  0.7576
  938MPD2    C413771   3.193   4.276   0.691 -0.6521 -0.4170  0.2406
  938MPD2    C513772   3.160   4.233   0.568 -0.5835 -0.5526 -0.3567
  938MPD2     H13773   3.021   4.573   0.670 -2.3641 -0.8227 -1.8310
  938MPD2    H113774   3.242   4.206   0.758  2.4931  0.2760 -1.3392
  938MPD2    H213775   3.065   4.265   0.388  1.6466 -3.0585  1.2229
  938MPD2    H313776   3.184   4.136   0.526  1.3491 -0.7722  1.2346
  938MPD2     N13777   3.167   4.442   0.868  0.0715  0.2493  0.3075
  938MPD2    H513778   3.229   4.382   0.921  1.7299 -0.2467 -2.2022
  938MPD2    N113779   2.965   4.515   0.435 -0.0182 -0.0795 -0.4398
  938MPD2    H713780   2.955   4.612   0.464  0.3667  0.1830 -1.1764
  939MPD2     C13781   3.623   0.548   0.271 -0.7279  0.0323  0.5011
  939MPD2    C113782   3.652   0.591   0.144  0.2423  0.3762  0.1607
  939MPD2    C213783   3.736   0.511   0.070 -0.2257  0.7113 -0.3429
  939MPD2    C313784   3.803   0.404   0.125  0.3167 -0.2802 -0.0426
  939MPD2    C413785   3.780   0.374   0.258 -0.1084  0.0736  0.5027
  939MPD2    C513786   3.687   0.438   0.328 -0.2063  0.0219  0.0128
  939MPD2     H13787   3.751   0.536  17.720  2.9787 -0.4507 -0.1372
  939MPD2    H113788   3.825   0.289   0.308 -0.0919 -1.6882 -2.4526
  939MPD2    H213789   3.557   0.600   0.338  0.8707  2.0448  0.5135
  939MPD2    H313790   3.660   0.405   0.428  2.5954 -0.1816  0.6925
  939MPD2     N13791   3.904   0.340   0.042  0.3228 -0.6482  0.3800
  939MPD2    H513792   3.905   0.373  17.700 -0.4219 -1.2008  0.1822
  939MPD2    N113793   3.594   0.708   0.096  0.1839 -0.0635 -0.6425
  939MPD2    H713794   3.531   0.760   0.157  0.7161 -0.7396  0.4814
  940MPD2     C13795   3.386   2.229  13.235 -0.1540 -0.5690 -0.6399
  940MPD2    C113796   3.253   2.183  13.216 -0.2680  0.3096  0.3662
  940MPD2    C213797   3.223   2.099  13.108  0.0458 -0.4419  0.1168
  940MPD2    C313798   3.325   2.052  13.034 -0.3659 -0.1464 -0.0773
  940MPD2    C413799   3.458   2.085  13.057 -0.2696  0.0622  0.2364
  940MPD2    C513800   3.488   2.185  13.150  0.7440  0.1267 -0.4758
  940MPD2     H13801   3.122   2.065  13.091 -1.1703  3.2406  0.1314
  940MPD2    H113802   3.542   2.049  12.999  0.4189  2.5669 -0.3337
  940MPD2    H213803   3.418   2.311  13.298  1.9199 -0.8456 -1.3337
  940MPD2    H313804   3.587   2.228  13.159  0.4346  0.6672  0.3564
  940MPD2     N13805   3.308   1.947  12.943  0.0265 -0.9437 -0.1943
  940MPD2    H513806   3.389   1.891  12.919  1.7323  0.5675  1.9918
  940MPD2    N113807   3.153   2.228  13.300 -0.1579  0.1160  0.0759
  940MPD2    H713808   3.061   2.193  13.277 -0.1811  1.6745 -2.2240
  941MPD2     C13809   2.035   1.301  10.235  0.3483  0.0846  0.4555
  941MPD2    C113810   2.117   1.370  10.315 -0.1726 -0.8044  0.0817
  941MPD2    C213811   2.185   1.297  10.414  0.4616 -0.5013  0.4562
  941MPD2    C313812   2.156   1.155  10.432 -0.0789 -0.0078 -0.2526
  941MPD2    C413813   2.060   1.095  10.355  1.1734 -0.0405 -0.4909
  941MPD2    C513814   2.009   1.169  10.246  0.2579 -0.1444  0.2508
  941MPD2     H13815   2.245   1.355  10.483  0.7051  3.8327 -3.4156
  941MPD2    H113816   2.049   0.989  10.376  1.3070 -0.1609 -1.0195
  941MPD2    H213817   1.978   1.359  10.164 -2.0388 -0.4516  1.9479
  941MPD2    H313818   1.938   1.125  10.176  1.5243  0.0079 -1.1251
  941MPD2     N13819   2.215   1.088  10.539 -0.1126 -0.0381 -0.0703
  941MPD2    H513820   2.169   1.004  10.573  1.0090 -0.1566  1.2000
  941MPD2    N113821   2.138   1.509  10.312 -0.4308 -0.8710  0.2760
  941MPD2    H713822   2.204   1.555  10.375 -0.3480 -1.1182  0.3707
  942MPD2     C13823   2.362   3.730   8.806  0.0305 -0.4854  1.0673
  942MPD2    C113824   2.486   3.751   8.861 -0.2937 -0.6858  0.1413
  942MPD2    C213825   2.576   3.647   8.873 -0.6551 -0.1164  0.2347
  942MPD2    C313826   2.535   3.517   8.839 -0.4627 -0.2578 -0.1492
  942MPD2    C413827   2.406   3.495   8.796 -0.0317 -0.2894  0.5751
  942MPD2    C513828   2.320   3.601   8.786 -0.4768 -0.0291  0.2152
  942MPD2     H13829   2.670   3.670   8.922  0.0187 -0.5714 -0.8484
  942MPD2    H113830   2.365   3.401   8.760  0.5595 -0.4399  0.2821
  942MPD2    H213831   2.280   3.799   8.789 -0.3230 -1.6026 -1.7049
  942MPD2    H313832   2.219   3.584   8.752 -0.4392 -0.7022  0.4470
  942MPD2     N13833   2.616   3.408   8.849 -0.2029 -0.7122 -0.2485
  942MPD2    H513834   2.572   3.321   8.821 -1.5336 -0.7977  2.0918
  942MPD2    N113835   2.526   3.880   8.902  0.3916  0.1179 -0.2019
  942MPD2    H713836   2.625   3.902   8.903  0.5488 -0.5938 -0.9120
  943MPD2     C13837   1.154   1.342  10.961 -0.0390  0.6586 -0.1364
  943MPD2    C113838   1.117   1.255  10.862 -0.0235 -0.8380  0.1300
  943MPD2    C213839   1.175   1.268  10.736 -0.5589  0.2647 -0.2681
  943MPD2    C313840   1.265   1.366  10.710 -0.3927 -0.1581  0.7266
  943MPD2    C413841   1.302   1.445  10.810 -0.6349  0.2991 -0.1200
  943MPD2    C513842   1.241   1.440  10.935 -0.0989  0.8483  0.6681
  943MPD2     H13843   1.143   1.196  10.661 -0.6143  0.4319 -0.4040
  943MPD2    H113844   1.377   1.521  10.792 -2.9190  3.2244  2.5748
  943MPD2    H213845   1.101   1.335  11.055 -0.8071 -1.0240 -0.6881
  943MPD2    H313846   1.277   1.509  11.009  0.1337 -1.1908  2.4651
  943MPD2     N13847   1.328   1.386  10.589  0.0677  0.0516 -0.5101
  943MPD2    H513848   1.384   1.469  10.573 -1.2096  0.6966 -1.5949
  943MPD2    N113849   1.019   1.155  10.903 -0.2820  0.1919  0.2827
  943MPD2    H713850   0.994   1.152  11.001 -0.0855 -2.9508  0.2598
  944MPD2     C13851   0.053   1.156  11.134 -0.2486  0.3064  0.4107
  944MPD2    C113852   0.062   1.112  11.262 -0.9457 -0.2495 -0.2662
  944MPD2    C213853   4.728   1.187  11.355  1.0543  0.0836 -0.3459
  944MPD2    C313854   4.635   1.287  11.321  0.3042 -0.3450 -0.5037
  944MPD2    C413855   4.631   1.326  11.185  0.8151 -0.8794 -0.0383
  944MPD2    C513856   4.710   1.260  11.098  0.1841  0.3423 -0.0389
  944MPD2     H13857   4.716   1.153  11.457  2.0992 -1.6578 -0.8084
  944MPD2    H113858   4.565   1.405  11.150  0.9592 -0.6792  0.1393
  944MPD2    H213859   0.125   1.125  11.059 -1.1940  1.7132 -1.0618
  944MPD2    H313860   4.710   1.300  10.997  0.6939  2.1548  0.6750
  944MPD2     N13861   4.552   1.344  11.421  0.6247  0.3128  0.7300
  944MPD2    H513862   4.563   1.310  11.516 -1.2824 -2.1213  0.0726
  944MPD2    N113863   0.136   0.994  11.301 -0.0269 -0.0160  0.2267
  944MPD2    H713864   0.175   0.940  11.225 -1.8358 -0.2133 -0.5387
    1TMC1    C113865   4.205   0.615  14.450  0.0256 -0.2137 -0.4321
    1TMC1    C213866   4.140   0.595  14.333 -0.3364  0.3249  0.0292
    1TMC1    C313867   4.160   0.471  14.272  0.2577 -0.6346  0.4560
    1TMC1    C413868   4.280   0.516  14.514  0.6913 -0.4363 -0.0535
    1TMC1    C513869   4.302   0.400  14.452  1.2808 -0.8020  0.8780
    1TMC1    C613870   4.232   0.374  14.337  0.6207 -0.2786 -0.3333
    1TMC1     C13871   4.205   0.742  14.516  0.8633 -0.0742 -0.2620
    1TMC1     O13872   4.300   0.773  14.585  0.5356  0.1676 -0.6133
    1TMC1     H13873   4.124   0.680  14.267 -1.6431 -0.1529 -0.2628
    1TMC1    H113874   4.350   0.547  14.590 -0.1298 -0.7065  0.8024
    1TMC1    H213875   4.246   0.280  14.286 -0.1776  0.1308 -1.2865
    1TMC1    C713876   4.370   0.294  14.511 -0.0389 -0.3655 -0.5102
    1TMC1    C813877   4.066   0.433  14.163 -0.0198  0.6132 -0.3414
    1TMC1    O113878   4.459   0.243  14.442 -0.1037  0.4150  0.5367
    1TMC1    O213879   4.065   0.325  14.104  0.1800 -0.0575  0.2359
    1TMC1    O313880   4.356   0.294  14.646  0.3709  0.0565 -0.1582
    1TMC1    H313881   4.286   0.357  14.677  0.9049  0.5599  0.0178
    1TMC1    O513882   3.961   0.517  14.170 -0.2923 -0.4320 -0.0099
    1TMC1    H513883   3.972   0.592  14.233 -0.1816 -0.4611  0.0048
    2MPD2     C13884   3.986   1.174  14.676 -0.0934 -0.0214  0.2573
    2MPD2    C113885   3.902   1.123  14.584  0.3099 -0.4764 -0.5048
    2MPD2    C213886   3.934   1.000  14.527 -0.8595 -0.1045  0.5339
    2MPD2    C313887   4.049   0.928  14.569  0.3293 -0.3117 -0.0707
    2MPD2    C413888   4.126   0.983  14.666 -0.0468  0.5152  0.0508
    2MPD2    C513889   4.097   1.110  14.707 -1.1867  0.5328  0.0604
    2MPD2     H13890   3.861   0.946  14.468 -0.9201  0.5972 -0.0337
    2MPD2    H113891   4.223   0.944  14.693  0.3732  1.4017 -0.1672
    2MPD2    H213892   3.973   1.271  14.720  1.1457  0.4496 -0.4125
    2MPD2    H313893   4.167   1.161  14.772 -1.1271  2.1498 -1.2662
    2MPD2     N13894   4.085   0.805  14.502  0.4705 -0.3332  0.1554
    2MPD2    H513895   4.019   0.778  14.430  1.4643 -0.3098 -0.7733
    2MPD2    N113896   3.785   1.196  14.554  0.8970 -0.0444 -0.1660
    2MPD2    H713897   3.764   1.272  14.618 -0.1474 -1.3992  1.1186
    3TMC2    C113898   3.591   1.260  14.417 -0.2940 -0.0677  0.2597
    3TMC2    C213899   3.529   1.298  14.529  1.1114 -0.4833 -0.1468
    3TMC2    C313900   3.430   1.388  14.518  0.0892 -0.1133  0.3154
    3TMC2    C413901   3.561   1.310  14.292 -0.1945  0.1498 -0.3094
    3TMC2    C513902   3.465   1.407  14.287  0.3653 -0.2269 -0.0732
    3TMC2    C613903   3.399   1.448  14.396 -1.1017  0.1013 -0.2175
    3TMC2     C13904   3.714   1.182  14.437 -1.0741  0.5562  0.1517
    3TMC2     O13905   3.731   1.108  14.342  0.0570  0.4356  0.1956
    3TMC2     H13906   3.551   1.259  14.628  0.2922 -2.4442 -0.7442
    3TMC2    H113907   3.617   1.272  14.206  2.3928  1.3262  0.8670
    3TMC2    H213908   3.336   1.536  14.399  0.3940  1.2173 -1.3219
    3TMC2    C713909   3.465   1.487  14.168  0.0502  0.2388  0.8177
    3TMC2    C813910   3.378   1.450  14.632  0.5937 -0.4622 -0.0316
    3TMC2    O113911   3.541   1.447  14.083 -0.4282  0.3595 -0.6443
    3TMC2    O213912   3.438   1.483  14.734 -0.4174 -0.2116 -0.0375
    3TMC2    O513913   3.243   1.463  14.614 -0.4585 -0.2687  0.2904
    3TMC2    H513914   3.208   1.426  14.530 -1.6083  0.4540  0.4439
    4TMC2    C113915   3.107   2.422  14.224  0.2601 -0.5888  0.6558
    4TMC2    C213916   3.100   2.455  14.357 -0.1591 -0.3455 -0.3169
    4TMC2    C313917   3.087   2.349  14.439 -0.1836 -0.5943 -0.2078
    4TMC2    C413918   3.109   2.290  14.175  0.0062  0.0858  0.2271
    4TMC2    C513919   3.113   2.190  14.268  0.1523  0.3323  0.5568
    4TMC2    C613920   3.098   2.220  14.404 -0.2303 -0.3249 -0.6547
    4TMC2     C13921   3.010   2.506  14.160 -0.1915 -0.5380  0.5857
    4TMC2     O13922   2.934   2.546  14.245  0.1139 -0.0821 -0.6499
    4TMC2     H13923   3.096   2.554  14.400 -1.4282 -0.4131 -0.2754
    4TMC2    H113924   3.128   2.275  14.069  0.7532 -0.2315  0.4021
    4TMC2    H213925   3.096   2.146  14.483 -1.4413 -1.6452 -1.9110
    4TMC2    C713926   3.172   2.051  14.243  0.6504 -0.0965  0.0313
    4TMC2    C813927   2.991   2.378  14.541  0.2546  0.4501  0.8469
    4TMC2    O113928   3.183   1.965  14.330  0.1351 -0.2869 -0.1534
    4TMC2    O213929   2.986   2.300  14.635  0.1128  0.3151  0.1262
    4TMC2    O513930   2.893   2.458  14.491 -0.3183  0.3836 -0.0573
    4TMC2    H513931   2.923   2.477  14.399  4.1592  1.3589  1.5793
    5MPD2     C13932   2.755   2.710  13.773  0.3960  0.5729 -0.2493
    5MPD2    C113933   2.885   2.681  13.734  0.3785 -0.3509 -0.0956
    5MPD2    C213934   2.972   2.613  13.812  0.8016 -0.4380 -0.1246
    5MPD2    C313935   2.933   2.577  13.940  0.2971 -0.0579 -0.3239
    5MPD2    C413936   2.807   2.606  13.984 -0.1366  0.0381 -0.0623
    5MPD2    C513937   2.715   2.665  13.900 -0.3532  0.0253  0.6967
    5MPD2     H13938   3.063   2.579  13.762  0.8730 -0.8471  0.2864
    5MPD2    H113939   2.778   2.570  14.082  0.6193 -2.7604 -0.8581
    5MPD2    H213940   2.686   2.769  13.713 -0.5800 -1.5878 -1.2594
    5MPD2    H313941   2.609   2.662  13.924 -0.6297 -0.9055 -0.6264
    5MPD2     N13942   3.028   2.516  14.023  0.0095 -0.1716  0.3092
    5MPD2    H513943   3.118   2.486  13.986  0.2497 -1.1140  1.6279
    5MPD2    N113944   2.913   2.713  13.594  0.1781 -0.2394 -0.6028
    5MPD2    H713945   2.830   2.753  13.553 -0.1974 -0.5168 -0.1123
    6MPD1     C13946   1.779   3.985  13.060 -0.1295  0.4847 -0.4480
    6MPD1    C113947   1.713   3.870  13.088  0.6575  0.0605  0.4379
    6MPD1    C213948   1.786   3.751  13.094 -0.6506  0.4973  0.0519
    6MPD1    C313949   1.921   3.757  13.071  0.0208 -0.8340 -0.2716
    6MPD1    C413950   1.979   3.875  13.036  0.5397 -0.3188 -0.4167
    6MPD1    C513951   1.910   3.991  13.037  0.3655 -0.4172 -0.4239
    6MPD1     H13952   1.736   3.654  13.093 -2.6592  1.5307 -1.3191
    6MPD1    H113953   2.082   3.897  13.010  0.1058  1.0633 -0.9285
    6MPD1    H213954   1.728   4.079  13.040 -1.7180 -0.4409 -0.7150
    6MPD1    H313955   1.954   4.088  13.022  0.1405 -0.3121 -0.4026
    6MPD1     N13956   2.015   3.653  13.084  0.0441 -0.3428 -0.5483
    6MPD1    H513957   2.112   3.678  13.071  0.5698 -1.2999  1.4763
    6MPD1    N113958   1.577   3.879  13.115  0.0404 -0.1163  0.5121
    6MPD1    H613959   1.536   3.788  13.095 -2.1562  0.9244  0.3878
    6MPD1    H713960   1.526   3.944  13.056  1.0126  0.4693  0.3163
    7MPD2     C13961   2.270   2.785  13.224  0.1109 -0.1104  0.3829
    7MPD2    C113962   2.363   2.891  13.197 -0.8024 -0.0933  0.1328
    7MPD2    C213963   2.501   2.864  13.183 -0.1893  0.5979 -0.2304
    7MPD2    C313964   2.545   2.733  13.193 -1.6203 -0.5703  0.1139
    7MPD2    C413965   2.455   2.637  13.230 -0.4434  0.5624  0.4434
    7MPD2    C513966   2.315   2.657  13.230 -0.6339  0.0133 -0.3908
    7MPD2     H13967   2.569   2.947  13.170 -2.1486  2.3008  0.5400
    7MPD2    H113968   2.481   2.535  13.256  0.7511 -0.1823 -3.5112
    7MPD2    H213969   2.163   2.794  13.238  0.1407  2.1829 -0.8680
    7MPD2    H313970   2.252   2.574  13.260  0.1404 -0.4597 -0.0859
    7MPD2     N13971   2.681   2.701  13.193  0.4751 -0.2739 -0.1007
    7MPD2    H513972   2.697   2.610  13.236  1.4626 -0.3450 -0.6035
    7MPD2    N113973   2.338   3.032  13.201 -0.0666 -0.9351  0.4914
    7MPD2    H713974   2.417   3.092  13.182  0.1624 -1.8931 -1.5937
    8TMC3    C113975   2.923   2.750  13.187 -0.1756 -0.6947 -0.2838
    8TMC3    C213976   2.937   2.701  13.313  0.5456  0.1829  0.2283
    8TMC3    C313977   3.031   2.759  13.397  0.2608  0.3150  0.1935
    8TMC3    C413978   2.997   2.860  13.149 -1.1098  0.6086 -0.6434
    8TMC3    C513979   3.080   2.928  13.244  0.2598 -0.2374 -0.1897
    8TMC3    C613980   3.099   2.871  13.365  0.0303  0.0536 -0.0643
    8TMC3     C13981   2.790   2.770  13.134  0.8019 -0.0638  0.5938
    8TMC3     O13982   2.778   2.876  13.065 -0.5366  0.0716  0.2079
    8TMC3     H13983   2.886   2.609  13.338  1.3211 -1.2315 -3.4459
    8TMC3    H113984   3.016   2.882  13.044 -0.0479 -2.4728 -1.0917
    8TMC3    H213985   3.159   2.915  13.444 -1.5698 -1.2035  1.8421
    8TMC3    C713986   3.070   3.075  13.247  0.2264 -0.0272 -0.2341
    8TMC3    C813987   3.040   2.712  13.532 -0.3914  0.3333 -0.5737
    8TMC3    O113988   3.151   3.143  13.313  0.4916 -0.0215 -0.5480
    8TMC3    O213989   3.153   2.688  13.572  0.1329 -0.3887  0.1175
    9TMC3    C113990   2.121   3.446  13.161 -0.1474 -0.5348 -0.6715
    9TMC3    C213991   2.248   3.500  13.156  0.3540  0.1831 -0.0837
    9TMC3    C313992   2.356   3.419  13.173  0.2285  0.1013 -0.2109
    9TMC3    C413993   2.107   3.314  13.205 -0.1804  0.0272  0.3033
    9TMC3    C513994   2.217   3.234  13.221 -0.2354  0.0245 -0.6439
    9TMC3    C613995   2.343   3.289  13.205  0.1021 -0.7766 -0.0224
    9TMC3     C13996   1.993   3.527  13.145  0.7970 -0.2664 -0.2431
    9TMC3     O13997   1.890   3.485  13.199 -0.1837  1.2237 -0.0773
    9TMC3     H13998   2.265   3.603  13.127  1.3992 -0.5768 -2.2258
    9TMC3    H113999   2.008   3.271  13.219 -0.0014 -0.8113 -0.9384
    9TMC3    H214000   2.435   3.244  13.240  0.5561  1.6121  1.8935
    9TMC3    C714001   2.212   3.086  13.217 -0.3193  0.3181 -0.2456
    9TMC3    C814002   2.487   3.480  13.154 -0.4263  0.3379 -0.3939
    9TMC3    O114003   2.102   3.028  13.206 -0.2101 -0.4027 -0.3041
    9TMC3    O214004   2.508   3.597  13.183  0.2662  0.2005  0.1476
   10MPD2     C14005   2.975   3.358  13.231  0.4360  0.3838  0.7301
   10MPD2    C114006   2.903   3.239  13.188  0.3468 -0.3885 -0.0759
   10MPD2    C214007   2.780   3.250  13.132  0.2742  0.0663 -0.2331
   10MPD2    C314008   2.715   3.377  13.142 -0.7907 -0.4964 -0.6504
   10MPD2    C414009   2.787   3.485  13.182  0.1215 -0.0678  0.4989
   10MPD2    C514010   2.911   3.474  13.221  0.0740  0.2782 -0.0424
   10MPD2     H14011   2.728   3.159  13.105  0.3662 -0.3790  1.1021
   10MPD2    H114012   2.755   3.586  13.160 -1.1210 -1.4695 -4.0615
   10MPD2    H214013   3.078   3.355  13.264  0.2698 -0.0446  1.2318
   10MPD2    H314014   2.973   3.561  13.241  0.1793  0.3652 -0.7397
   10MPD2     N14015   2.575   3.379  13.108  0.9324 -0.8409  0.2243
   10MPD2    H514016   2.542   3.295  13.061  0.4073 -0.6476  0.2484
   10MPD2    N114017   2.954   3.113  13.186  0.8225 -0.5735  0.7126
   10MPD2    H714018   2.882   3.043  13.171  0.5916 -0.1043 -0.4060
   11MPD2     C14019   3.472   1.729  13.985 -0.1623  0.2504 -0.2610
   11MPD2    C114020   3.370   1.709  14.077 -0.2186  0.7002 -0.2464
   11MPD2    C214021   3.289   1.812  14.117 -0.1778 -0.5687  0.0757
   11MPD2    C314022   3.330   1.942  14.082 -0.1251 -0.3121 -0.8366
   11MPD2    C414023   3.431   1.959  13.988 -0.0796  0.5544  0.0497
   11MPD2    C514024   3.504   1.857  13.937  0.4810  0.6954  0.0795
   11MPD2     H14025   3.215   1.792  14.194  0.1183  0.3711  0.6089
   11MPD2    H114026   3.450   2.055  13.942  0.1960  1.6494  2.4432
   11MPD2    H214027   3.532   1.648  13.945 -0.0759  1.1282 -1.9080
   11MPD2    H314028   3.585   1.875  13.866  1.1575  0.8966  0.9064
   11MPD2     N14029   3.262   2.059  14.139  0.1877  0.1896 -0.2271
   11MPD2    H514030   3.291   2.149  14.100 -1.1917  0.3786 -0.8443
   11MPD2    N114031   3.366   1.586  14.157  0.4089 -0.0589 -0.3109
   11MPD2    H714032   3.299   1.577  14.232  0.6435  2.1182  0.1695
    1MPD1     C14033   1.914   3.273   0.119  0.3743  0.6847  0.0555
    1MPD1    C114034   1.995   3.232   0.012  0.8743 -0.6133  0.2859
    1MPD1    C214035   1.938   3.245  17.645  0.3899 -0.2808 -0.3212
    1MPD1    C314036   1.816   3.319  17.619 -0.1921 -0.4333 -0.4943
    1MPD1    C414037   1.747   3.368  17.728  0.5227 -0.3447 -0.0491
    1MPD1    C514038   1.796   3.347   0.102  0.2488 -0.6147  0.0200
    1MPD1     H14039   1.986   3.200  17.559  0.2299 -3.8437  1.4562
    1MPD1    H114040   1.663   3.435  17.713  1.4572  0.6613 -0.8131
    1MPD1    H214041   1.949   3.279   0.221  0.6949  0.7486 -0.0605
    1MPD1    H314042   1.745   3.391   0.187  0.9878 -1.6640  0.9996
    1MPD1     N14043   1.769   3.344  17.485 -0.0933  0.5802  0.2751
    1MPD1    H514044   1.677   3.387  17.479 -0.0079  0.4579 -1.9187
    1MPD1    N114045   2.107   3.151   0.041  0.1410 -0.2176  0.2718
    1MPD1    H614046   2.145   3.171   0.133 -0.5474  2.3426 -0.0108
    1MPD1    H714047   2.188   3.167  17.735 -1.6206  3.3073 -1.1468
    2MPD1     C14048   1.883   3.596  16.421  0.7206  0.3166 -0.5187
    2MPD1    C114049   1.755   3.576  16.452 -0.7592  0.2243 -0.0158
    2MPD1    C214050   1.725   3.503  16.565  1.0950  0.3346  0.3178
    2MPD1    C314051   1.826   3.471  16.654  0.1833 -0.2505 -0.4312
    2MPD1    C414052   1.952   3.520  16.630  0.1147 -0.4446  0.7669
    2MPD1    C514053   1.982   3.585  16.513  0.1387  0.7328  0.5678
    2MPD1     H14054   1.622   3.487  16.595  1.0416 -3.1318 -1.6694
    2MPD1    H114055   2.037   3.495  16.693  0.8660  0.3725  0.0732
    2MPD1    H214056   1.911   3.632  16.322  1.6619  0.4323 -0.2169
    2MPD1    H314057   2.080   3.619  16.483 -0.1552  1.7472  0.7743
    2MPD1     N14058   1.785   3.394  16.768  0.1273  0.1347  0.6246
    2MPD1    H514059   1.690   3.359  16.764  0.5088 -1.0409  1.8488
    2MPD1    N114060   1.649   3.596  16.359  0.6586 -0.0346  0.4420
    2MPD1    H614061   1.668   3.677  16.300 -0.7133 -0.5861 -0.7497
    2MPD1    H714062   1.559   3.617  16.402 -1.3640 -2.1700 -2.7609
    3TMC3    C114063   1.779   3.347  16.997  0.0884 -0.5037 -0.7878
    3TMC3    C214064   1.644   3.387  16.997  0.0569 -0.6130  0.1470
    3TMC3    C314065   1.572   3.379  17.110 -0.6863  0.6015  0.1941
    3TMC3    C414066   1.842   3.322  17.118 -0.3757 -0.1741  0.2280
    3TMC3    C514067   1.767   3.342  17.238 -0.5885  0.4660  0.0175
    3TMC3    C614068   1.634   3.365  17.233 -0.5759 -0.4322 -0.1179
    3TMC3     C14069   1.861   3.380  16.884  0.2401  0.2701 -1.2896
    3TMC3     O14070   1.979   3.360  16.892 -0.5140  0.0954 -0.4058
    3TMC3     H14071   1.601   3.431  16.908 -1.1333 -0.3696  0.8457
    3TMC3    H114072   1.947   3.295  17.114 -0.6150 -1.4730  2.8123
    3TMC3    H214073   1.584   3.357  17.329  2.8390  0.2971  1.7275
    3TMC3    C714074   1.841   3.321  17.365 -0.0401 -1.1072 -0.7714
    3TMC3    C814075   1.423   3.387  17.106  0.1506  0.6742  0.0034
    3TMC3    O114076   1.961   3.311  17.357 -0.4273 -0.2045 -0.3890
    3TMC3    O214077   1.359   3.397  17.212  0.1092  0.5563  0.0334
    4MPD1     C14078   1.005   3.483  16.832 -0.0909  0.1070 -0.6713
    4MPD1    C114079   1.110   3.478  16.745  0.3245 -0.3545 -0.0719
    4MPD1    C214080   1.228   3.429  16.802  0.0046 -0.2551 -0.0223
    4MPD1    C314081   1.244   3.414  16.938  0.4726 -0.2108  0.0822
    4MPD1    C414082   1.137   3.436  17.024  0.3420 -0.4783  0.2870
    4MPD1    C514083   1.021   3.472  16.967 -0.9403 -0.3745 -0.5012
    4MPD1     H14084   1.310   3.407  16.734 -1.3998 -0.3852 -1.6809
    4MPD1    H114085   1.144   3.420  17.131 -0.5254  0.0070  0.4167
    4MPD1    H214086   0.904   3.504  16.799 -0.0087  0.7495 -0.5226
    4MPD1    H314087   0.926   3.467  17.019 -0.9746 -0.8051 -0.5961
    4MPD1     N14088   1.376   3.381  16.979  0.5217 -0.0919  0.1394
    4MPD1    H514089   1.441   3.360  16.905  0.9644  1.6305  0.0594
    4MPD1    N114090   1.092   3.492  16.602  0.1288  0.2155  0.3756
    4MPD1    H614091   1.021   3.560  16.577 -2.2007 -1.6278  1.9305
    4MPD1    H714092   1.177   3.522  16.555  0.1767  0.5062  0.6461
    1TCq1    O114093   1.536   3.375  11.511  0.2504 -0.2052 -0.0138
    1TCq1    C114094   1.601   3.490  11.484  0.3076  0.6082  0.4312
    1TCq1    O214095   1.617   3.539  11.374  0.2096  0.1849 -0.2509
    1TCq1    C214096   1.650   3.566  11.598  0.2045  0.8275  0.1644
    1TCq1    C314097   1.705   3.503  11.705 -0.1617 -0.4759 -0.1206
    1TCq1    C414098   1.763   3.579  11.804 -0.1853 -0.0693  0.5776
    1TCq1    C514099   1.794   3.709  11.777 -0.5224  0.1331  0.0222
    1TCq1    C614100   1.726   3.771  11.674 -0.4424  0.1562  0.4293
    1TCq1    C714101   1.652   3.701  11.583 -0.7000  0.9552 -0.5484
    1TCq1    C814102   1.798   3.882  11.612  0.0121  0.4218  0.1777
    1TCq1    O414103   1.817   3.874  11.493 -0.2119  0.1116  0.2687
    1TCq1    C914104   1.856   3.510  11.893  0.0604 -0.6031 -0.2804
    1TCq1    O514105   1.956   3.572  11.938  0.0133 -0.4622  0.8209
    1TCq1    O614106   1.839   3.384  11.900  0.0215 -0.4008 -0.5248
    1TCq1    H114107   1.524   3.350  11.605  1.1454 -0.4397  0.0395
    1TCq1    H214108   1.707   3.395  11.710 -2.8060 -0.4726  0.8735
    1TCq1    H314109   1.866   3.763  11.838  0.8984 -1.3155 -0.3785
    1TCq1    H414110   1.613   3.736  11.488 -0.2990 -1.9664 -1.7715
    2MPD1     C14111   2.108   4.280  11.679  0.8205 -0.0265  0.0185
    2MPD1    C114112   2.047   4.247  11.799  0.0343  0.4164 -0.1042
    2MPD1    C214113   1.963   4.138  11.807 -0.2147 -0.4646 -0.2591
    2MPD1    C314114   1.934   4.069  11.695  0.1450  0.2654  0.2894
    2MPD1    C414115   2.002   4.087  11.578 -0.1018 -0.2946  0.4538
    2MPD1    C514116   2.087   4.201  11.571  0.1194  0.2390 -0.2421
    2MPD1     H14117   1.915   4.107  11.899 -1.2088  1.2373 -0.2113
    2MPD1    H114118   1.982   4.037  11.483 -2.7932  0.5672  0.5788
    2MPD1    H214119   2.172   4.366  11.664  0.5047  0.1691 -0.1946
    2MPD1    H314120   2.123   4.241  11.476  1.6687  3.2436  1.6189
    2MPD1     N14121   1.842   3.966  11.710 -0.3591 -0.5711 -0.1510
    2MPD1    H514122   1.810   3.950  11.805  1.2759 -0.2210  0.4577
    2MPD1    N114123   2.070   4.327  11.906 -0.0579  0.0619 -0.2444
    2MPD1    H614124   2.003   4.316  11.982 -0.6925  1.7073 -0.5654
    2MPD1    H714125   2.056   4.424  11.877 -1.1811 -0.3355 -1.0114
    1TMC1    C114126   1.112   4.533   0.787  0.9634  0.1702 -0.3581
    1TMC1    C214127   1.063   4.476   0.673 -0.0704 -0.3037 -0.3048
    1TMC1    C314128   0.965   4.536   0.603  0.1931 -0.2724 -0.4973
    1TMC1    C414129   1.057   4.645   0.842 -0.8593 -0.4011 -0.3310
    1TMC1    C514130   0.955   4.695   0.772  0.1022  0.7410  0.5759
    1TMC1    C614131   0.906   4.647   0.650  0.2420 -0.1035 -0.1213
    1TMC1     C14132   1.209   4.458   0.871  0.3801 -0.1522  0.4370
    1TMC1     O14133   1.269   4.535   0.947  0.8106 -0.2007  0.5581
    1TMC1     H14134   1.119   4.389   0.641 -0.0092 -0.9629  1.5561
    1TMC1    H114135   1.088   4.689   0.936  0.1849 -0.4896 -0.6330
    1TMC1    H214136   0.834   4.702   0.591  0.4603 -2.3432 -2.4900
    1TMC1    C714137   0.908   0.091   0.798  0.3075  0.0043 -0.0982
    1TMC1    C814138   0.947   4.492   0.468 -0.2292  0.2545 -0.5752
    1TMC1    O114139   0.968   0.183   0.751 -0.3346  0.0746  0.7040
    1TMC1    O214140   0.841   4.470   0.410  0.1415 -0.1198 -0.1292
    1TMC1    O314141   0.774   0.082   0.808  0.9846  0.6120  0.3833
    1TMC1    H314142   0.749   4.736   0.850 -1.3963  0.5331 -1.1657
    1TMC1    O514143   1.069   4.513   0.411 -0.2528 -0.0158  0.2266
    1TMC1    H514144   1.130   4.525   0.486  0.8442 -3.6445 -0.0641
    2MPD1     C14145   1.469   4.054   1.036 -0.5609  0.6808  0.4021
    2MPD1    C114146   1.367   4.008   0.954 -0.2012 -0.3808  0.5094
    2MPD1    C214147   1.279   4.096   0.895  1.0174 -0.7269 -0.5213
    2MPD1    C314148   1.288   4.232   0.927 -0.8394  0.2992  0.0051
    2MPD1    C414149   1.384   4.276   1.013 -0.2014 -0.1701  0.0297
    2MPD1    C514150   1.477   4.187   1.058  0.4060 -0.0744 -0.3526
    2MPD1     H14151   1.201   4.067   0.826  0.0456 -0.6673  0.5437
    2MPD1    H114152   1.397   4.381   1.038 -0.1274  0.0325 -0.8877
    2MPD1    H214153   1.560   3.998   1.055 -0.8436  1.1384  3.0969
    2MPD1    H314154   1.560   4.229   1.114  0.5337  0.0393 -0.6315
    2MPD1     N14155   1.196   4.321   0.863  0.2748 -0.1332  0.2452
    2MPD1    H514156   1.132   4.273   0.800  1.0474 -0.2088 -0.4907
    2MPD1    N114157   1.390   3.879   0.909  0.1471  0.1488  0.0349
    2MPD1    H614158   1.438   3.826   0.982 -0.6626  0.7763  1.0215
    2MPD1    H714159   1.306   3.826   0.887 -0.2072  0.7723 -0.1122
    1MPD1     C14160   0.305   2.503  12.435  0.1093  0.4956  0.1648
    1MPD1    C114161   0.178   2.453  12.425 -0.0600  0.5091 -0.3361
    1MPD1    C214162   0.112   2.463  12.304 -0.2468  0.4740 -1.0450
    1MPD1    C314163   0.175   2.511  12.190 -0.0156 -0.5834  0.1515
    1MPD1    C414164   0.305   2.568  12.204  0.3108  0.1006 -0.0452
    1MPD1    C514165   0.368   2.561  12.324  0.4337  0.0448 -0.9011
    1MPD1     H14166   0.018   2.409  12.296 -0.7829  1.4340 -1.1508
    1MPD1    H114167   0.355   2.619  12.123  0.3151  1.5930  0.9025
    1MPD1    H214168   0.368   2.502  12.524  0.4398  2.2920 -0.0589
    1MPD1    H314169   0.470   2.597  12.325  0.9522 -1.4133 -0.9019
    1MPD1     N14170   0.100   2.515  12.077 -0.6246  0.2899 -0.1348
    1MPD1    H514171   0.002   2.492  12.090 -0.2231  0.0254  2.3401
    1MPD1    N114172   0.108   2.399  12.535  0.0940 -0.0445  0.1874
    1MPD1    H614173   0.073   2.479  12.586 -0.8525 -0.2005 -0.2276
    1MPD1    H714174   0.024   2.359  12.494 -0.7611  2.2265 -0.2658
    2MPD1     C14175   3.228   3.461  11.699 -0.0568 -0.1863 -0.1017
    2MPD1    C114176   3.156   3.516  11.590 -0.2142 -0.1852 -0.1974
    2MPD1    C214177   3.225   3.520  11.467  0.2565 -0.2771  0.0488
    2MPD1    C314178   3.363   3.498  11.460 -0.0097 -0.4323  0.4259
    2MPD1    C414179   3.430   3.452  11.576 -0.3961  0.5209  0.1022
    2MPD1    C514180   3.360   3.420  11.690  0.3118  1.0622  0.3534
    2MPD1     H14181   3.179   3.558  11.377  0.7370  1.5643  0.5986
    2MPD1    H114182   3.534   3.424  11.563 -0.8040 -0.2539 -1.5117
    2MPD1    H214183   3.172   3.447  11.790  0.6611  0.2131  0.3966
    2MPD1    H314184   3.411   3.380  11.777  1.6671  0.8220 -0.5689
    2MPD1     N14185   3.434   3.515  11.333  0.4173  0.4100  0.4571
    2MPD1    H514186   3.531   3.486  11.337  0.9630  1.8592 -2.1934
    2MPD1    N114187   3.015   3.553  11.603  0.7565  0.5537  0.4356
    2MPD1    H614188   2.998   3.593  11.695 -1.8683  0.4605  0.0112
    2MPD1    H714189   2.973   3.607  11.527  1.1708  0.7425  0.3438
    3MPD1     C14190   3.399   3.356  10.249 -0.1783 -0.6902 -0.0038
    3MPD1    C114191   3.506   3.439  10.273 -0.6531  0.3987  0.9364
    3MPD1    C214192   3.538   3.469  10.406  0.4631  0.0499  0.3153
    3MPD1    C314193   3.459   3.432  10.511 -0.0826  0.0155  0.7533
    3MPD1    C414194   3.345   3.360  10.482  0.4682 -0.2324 -0.9017
    3MPD1    C514195   3.322   3.315  10.352 -0.4985 -0.4338 -0.3948
    3MPD1     H14196   3.620   3.534  10.436  2.3593 -2.8629  1.4177
    3MPD1    H114197   3.265   3.332  10.549  1.6265  2.2677  1.5369
    3MPD1    H214198   3.374   3.309  10.155  1.0594 -0.5660 -0.3990
    3MPD1    H314199   3.234   3.262  10.318 -0.2061 -0.2421 -1.4474
    3MPD1     N14200   3.493   3.476  10.643  0.6554 -0.3349  0.8139
    3MPD1    H514201   3.583   3.523  10.652 -0.5148  1.8668  0.9612
    3MPD1    N114202   3.592   3.471  10.171  0.6840  0.1766 -0.3546
    3MPD1    H614203   3.642   3.559  10.179  0.3792  0.3422 -0.2854
    3MPD1    H714204   3.558   3.456  10.076  0.4977 -2.4609  0.1260
    4MPD2     C14205   4.309   2.905  11.914 -0.4416  0.5690 -0.2920
    4MPD2    C114206   4.406   2.893  11.820 -0.1144 -0.1960  0.8968
    4MPD2    C214207   4.447   3.016  11.754 -0.6925 -0.0753  0.2417
    4MPD2    C314208   4.397   3.144  11.779 -0.7143 -0.1426  0.3642
    4MPD2    C414209   4.288   3.140  11.866 -0.2660 -0.0727  0.6359
    4MPD2    C514210   4.247   3.028  11.935  0.3415 -0.4015 -0.0623
    4MPD2     H14211   4.520   3.007  11.674  2.2625  0.6784  2.8829
    4MPD2    H114212   4.236   3.232  11.886  2.4825  1.9414 -1.4883
    4MPD2    H214213   4.290   2.821  11.981  1.1502 -0.2274 -0.8300
    4MPD2    H314214   4.173   3.037  12.013  2.3240 -0.1032  1.7602
    4MPD2     N14215   4.432   3.253  11.705  0.5009 -0.8262 -0.3566
    4MPD2    H514216   4.491   3.224  11.628  0.3300 -1.2516 -0.3305
    4MPD2    N114217   4.476   2.773  11.786 -0.0301  0.9191  0.5787
    4MPD2    H714218   4.538   2.782  11.706 -0.3695  0.6264  0.2793
    5TMC3    C114219   4.561   2.564  11.789 -0.4374  0.3455  0.0131
    5TMC3    C214220   4.646   2.531  11.881 -0.3761 -0.5763  0.0325
    5TMC3    C314221   0.041   2.546  11.850 -0.6308  0.1136 -0.3910
    5TMC3    C414222   4.597   2.606  11.664  0.1381  0.4041  0.3647
    5TMC3    C514223   4.729   2.627  11.637  0.1668  0.3598 -0.2459
    5TMC3    C614224   0.081   2.585  11.727  0.3124  0.3162  0.0697
    5TMC3     C14225   4.456   2.648  11.847 -0.2441 -0.3884 -0.1356
    5TMC3     O14226   4.412   2.617  11.956  0.0358 -0.3929 -0.2356
    5TMC3     H14227   4.616   2.516  11.984 -0.2045  0.3108  0.2177
    5TMC3    H114228   4.524   2.606  11.584 -0.4728 -2.7010  0.9317
    5TMC3    H214229   0.185   2.596  11.702  0.6088 -0.4552  0.9712
    5TMC3    C714230   0.009   2.750  11.562 -0.6690 -0.3073 -0.5294
    5TMC3    C814231   0.142   2.552  11.950  0.1438  0.0490 -0.6726
    5TMC3    O114232   4.646   2.816  11.566 -0.0775  0.1118 -0.7084
    5TMC3    O214233   0.258   2.575  11.917 -0.3793  0.3203  0.5792
    6TMC3    C114234   3.480   3.524  11.103 -0.3063 -0.2127 -0.0582
    6TMC3    C214235   3.425   3.527  10.977  0.0614 -0.0545  0.4069
    6TMC3    C314236   3.500   3.479  10.876 -0.2643  0.6768  0.8985
    6TMC3    C414237   3.611   3.491  11.122 -0.3270  0.0921 -0.0408
    6TMC3    C514238   3.684   3.452  11.014 -0.3468 -0.4462 -0.1705
    6TMC3    C614239   3.627   3.429  10.892 -0.1344 -0.2242 -0.1420
    6TMC3     C14240   3.393   3.563  11.210 -0.5434 -0.3479 -0.0794
    6TMC3     O14241   3.288   3.624  11.184  0.3078  0.5323 -0.2786
    6TMC3     H14242   3.327   3.572  10.964  0.6763  1.0000 -0.5137
    6TMC3    H114243   3.665   3.484  11.216  2.5183 -1.6988 -1.8552
    6TMC3    H214244   3.675   3.382  10.807  2.0901  3.7414 -1.0997
    6TMC3    C714245   3.831   3.467  11.024  0.2992  0.0768  0.1483
    6TMC3    C814246   3.421   3.453  10.758  0.2488  0.5970 -0.4670
    6TMC3    O114247   3.868   3.526  11.124 -0.1420  0.0265 -0.2640
    6TMC3    O214248   3.317   3.395  10.784  0.0387  0.1443  0.4253
    7MPD2     C14249   0.246   3.094  11.278  0.0412 -0.0632  0.4445
    7MPD2    C114250   0.123   3.108  11.343 -0.7613 -0.3594 -0.4205
    7MPD2    C214251   0.084   2.991  11.415  0.2136  0.1166 -0.0456
    7MPD2    C314252   0.167   2.878  11.432  0.4358  0.5195  0.8331
    7MPD2    C414253   0.295   2.878  11.372 -0.1686  0.8267  0.0254
    7MPD2    C514254   0.326   2.986  11.290  0.4587 -0.9529 -0.5504
    7MPD2     H14255   4.724   2.990  11.459  0.8506 -0.2351  1.3779
    7MPD2    H114256   0.369   2.799  11.381 -1.2331 -0.5612 -3.3220
    7MPD2    H214257   0.292   3.173  11.220  2.0933 -1.6483 -0.0646
    7MPD2    H314258   0.420   2.984  11.234 -1.4687  0.4885 -3.8558
    7MPD2     N14259   0.134   2.769  11.512  0.6604  0.2679 -0.7256
    7MPD2    H514260   0.198   2.690  11.511  1.3307  0.8084  0.7437
    7MPD2    N114261   0.041   3.225  11.352  0.0386 -0.6884 -0.4580
    7MPD2    H714262   0.065   3.304  11.293 -0.4233 -0.4840 -0.3695
    8TMC3    C114263   4.603   3.372  11.439  0.5720  0.3813  0.0665
    8TMC3    C214264   4.517   3.392  11.338 -0.5422 -0.7257 -0.1855
    8TMC3    C314265   4.390   3.441  11.369 -0.0552  0.3557  0.3263
    8TMC3    C414266   4.567   3.413  11.564  0.1723  0.6675 -1.2111
    8TMC3    C514267   4.440   3.457  11.597 -0.0797  0.3273 -0.0869
    8TMC3    C614268   4.348   3.472  11.499  1.1013 -0.6303  0.0627
    8TMC3     C14269   4.672   3.245  11.446  0.0388  0.2468  0.6736
    8TMC3     O14270   4.623   3.177  11.531 -0.4992  0.1430  0.1294
    8TMC3     H14271   4.551   3.390  11.235 -0.3833 -3.2697 -0.0911
    8TMC3    H114272   4.632   3.378  11.644  1.8271  2.3255 -1.8556
    8TMC3    H214273   4.251   3.511  11.528  0.3437 -2.1277 -0.4654
    8TMC3    C714274   4.382   3.377  11.710  0.2341  0.3935 -0.7331
    8TMC3    C814275   4.282   3.440  11.265  0.5911  0.0234  0.0630
    8TMC3    O114276   4.304   3.429  11.790 -0.1516 -0.3993 -0.4654
    8TMC3    O214277   4.172   3.465  11.302 -0.9295 -0.4127 -0.1507
    9MPD2     C14278   4.296   3.254  10.946  0.9003  0.0918 -0.3012
    9MPD2    C114279   4.246   3.344  11.033  0.2390 -0.2384  0.3900
    9MPD2    C214280   4.122   3.395  11.022 -0.1324  0.5576  0.3927
    9MPD2    C314281   4.032   3.345  10.926 -0.5542  0.1387  0.0408
    9MPD2    C414282   4.086   3.264  10.830 -0.3595 -0.1338 -0.0547
    9MPD2    C514283   4.215   3.220  10.837  0.8693  0.5400  0.6120
    9MPD2     H14284   4.094   3.471  11.094 -1.6546  0.1806  0.2006
    9MPD2    H114285   4.027   3.219  10.751 -1.6313 -0.5921  1.1696
    9MPD2    H214286   4.398   3.217  10.945  1.2674  1.0725  1.5190
    9MPD2    H314287   4.261   3.154  10.764  0.6610  0.9501  0.1039
    9MPD2     N14288   3.892   3.387  10.928  0.2616  0.7868  0.2569
    9MPD2    H514289   3.828   3.353  10.858  0.4607  0.5248  0.2047
    9MPD2    N114290   4.326   3.380  11.147  0.0557 -0.3277  0.2543
    9MPD2    H714291   4.419   3.337  11.146 -0.2107 -0.8161 -2.5312
    1MPD1     C14292   4.132   1.469  15.983 -0.4568 -0.4942  0.7897
    1MPD1    C114293   4.237   1.400  16.046 -0.4633  0.2857  0.1717
    1MPD1    C214294   4.281   1.441  16.162 -1.1306  0.3080  0.6877
    1MPD1    C314295   4.252   1.571  16.212 -0.4035 -0.1839  0.1382
    1MPD1    C414296   4.169   1.652  16.140 -0.0618 -0.3848  0.0145
    1MPD1    C514297   4.111   1.599  16.030  0.7472  0.8140  0.8273
    1MPD1     H14298   4.346   1.377  16.221 -2.9738 -0.6095  1.7385
    1MPD1    H114299   4.146   1.754  16.170  2.0911 -0.0296  0.4723
    1MPD1    H214300   4.091   1.427  15.892  1.6169 -1.7096  0.3978
    1MPD1    H314301   4.038   1.660  15.977  1.0543 -0.3212 -0.8986
    1MPD1     N14302   4.287   1.618  16.347  0.3338 -0.0665 -1.0193
    1MPD1    H514303   4.246   1.708  16.369 -0.4277 -0.9490  1.0732
    1MPD1    N114304   4.270   1.277  15.991  0.1916  0.5196  0.1531
    1MPD1    H614305   4.365   1.253  16.020 -0.0422 -0.4464  0.1221
    1MPD1    H714306   4.270   1.294  15.891 -0.0720 -0.9981 -0.1086
    2TMC2    C114307   4.316   1.820  16.672 -0.3333 -0.2345 -0.5684
    2TMC2    C214308   4.439   1.856  16.713  0.7360 -0.1070 -0.0401
    2TMC2    C314309   4.540   1.768  16.679 -0.5526  0.7774 -0.1334
    2TMC2    C414310   4.294   1.712  16.593  0.0327 -0.0912  0.5314
    2TMC2    C514311   4.399   1.632  16.549 -0.1362  0.2261  0.0404
    2TMC2    C614312   4.523   1.654  16.599 -0.2375  0.9662  0.5497
    2TMC2     C14313   4.198   1.881  16.734 -0.5584 -0.0480  0.2731
    2TMC2     O14314   4.221   1.966  16.817  0.5586  0.0140 -0.3128
    2TMC2     H14315   4.471   1.933  16.782  0.4447  0.1257 -0.1667
    2TMC2    H114316   4.193   1.681  16.573 -0.2904  1.0549  0.4037
    2TMC2    H214317   4.606   1.600  16.555  0.2800  3.0595 -1.0638
    2TMC2    C714318   4.386   1.557  16.427 -0.0065  0.3182  0.2584
    2TMC2    C814319   4.673   1.798  16.739 -0.2858  0.1549  0.1351
    2TMC2    O114320   4.450   1.452  16.410 -0.2383  0.5193  0.2493
    2TMC2    O214321   4.706   1.902  16.797  0.3361 -0.2964  0.0785
    2TMC2    O514322   4.712   1.679  16.787 -0.4782  0.1668 -0.1758
    2TMC2    H514323   4.644   1.609  16.779 -0.5676  0.4339 -1.7947
    3MPD1     C14324   3.695   1.971  16.774 -0.4529  0.2125  0.1938
    3MPD1    C114325   3.713   1.866  16.683  0.8705  0.5405  0.2532
    3MPD1    C214326   3.843   1.836  16.657 -1.0068  0.2860  0.3612
    3MPD1    C314327   3.951   1.897  16.714 -0.0418 -0.4249 -1.0402
    3MPD1    C414328   3.929   2.000  16.808 -0.7368  0.4545  0.4771
    3MPD1    C514329   3.801   2.026  16.844 -0.0472  0.6327  0.0116
    3MPD1     H14330   3.858   1.755  16.586 -0.0652 -1.3405  2.4023
    3MPD1    H114331   4.007   2.041  16.871  0.4431 -0.2629 -0.5263
    3MPD1    H214332   3.592   2.000  16.788  0.0466  1.6806  0.7908
    3MPD1    H314333   3.790   2.113  16.907  0.4389  0.4168  0.3988
    3MPD1     N14334   4.077   1.846  16.683 -0.4483  0.5499  0.5884
    3MPD1    H514335   4.072   1.794  16.596 -2.3065  0.1520  0.9265
    3MPD1    N114336   3.606   1.785  16.637 -0.0196 -0.0347  0.6987
    3MPD1    H614337   3.518   1.833  16.656 -0.1069  0.5478 -1.2543
    3MPD1    H714338   3.597   1.753  16.541 -1.3795 -0.0091  0.8183
    1TMC1    C114339   1.868   1.443  12.928  0.2475 -0.0989  0.3170
    1TMC1    C214340   1.785   1.420  12.820  0.4989  0.2331  0.3383
    1TMC1    C314341   1.655   1.394  12.844  0.3772 -0.0884  0.7315
    1TMC1    C414342   1.818   1.452  13.059 -0.3967 -0.1685 -0.5365
    1TMC1    C514343   1.687   1.413  13.077 -0.2515 -0.2632  0.9614
    1TMC1    C614344   1.600   1.381  12.972  0.3169  0.6417 -0.0332
    1TMC1     C14345   2.000   1.490  12.893 -0.0463  0.1159  0.2803
    1TMC1     O14346   2.016   1.538  12.783 -0.5375  0.1357 -0.4159
    1TMC1     H14347   1.835   1.420  12.723 -1.3846  2.1115 -0.6163
    1TMC1    H114348   1.879   1.487  13.141 -1.6255 -0.5769  0.5564
    1TMC1    H214349   1.492   1.384  12.983  0.1947  1.6632 -1.3715
    1TMC1    C714350   1.626   1.451  13.206 -0.2337  0.2119 -0.7132
    1TMC1    C814351   1.581   1.316  12.746 -0.6266 -0.6582  1.0227
    1TMC1    O114352   1.698   1.506  13.287  0.7779 -0.1662  0.0640
    1TMC1    O214353   1.463   1.279  12.758  0.8281 -0.3357  0.5261
    1TMC1    O314354   1.513   1.385  13.238  0.7687  0.0689 -0.3026
    1TMC1    H314355   1.484   1.330  13.162  1.9195  1.4006 -1.7085
    1TMC1    O514356   1.666   1.265  12.657 -0.3383  0.2525  0.2170
    1TMC1    H514357   1.759   1.280  12.683 -0.3526  0.4355  0.1655
    2MPD2     C14358   2.288   1.540  12.859 -0.3738 -0.3791  0.5659
    2MPD2    C114359   2.230   1.500  12.981 -0.2182  0.0188 -0.6032
    2MPD2    C214360   2.314   1.464  13.081  0.3478 -0.4477 -0.6140
    2MPD2    C314361   2.453   1.475  13.068 -0.5571 -0.4058 -0.1042
    2MPD2    C414362   2.500   1.516  12.943  0.6561  0.1925  0.2190
    2MPD2    C514363   2.420   1.537  12.833  0.4376 -0.0855 -0.7344
    2MPD2     H14364   2.268   1.435  13.174  2.4777  0.1803  0.6357
    2MPD2    H114365   2.608   1.520  12.931  0.7223 -2.8367 -0.1964
    2MPD2    H214366   2.227   1.558  12.771  2.2978  0.4686 -1.1318
    2MPD2    H314367   2.453   1.554  12.731 -1.7878  1.4025 -1.2239
    2MPD2     N14368   2.545   1.422  13.164 -0.5692  0.0260 -0.7480
    2MPD2    H514369   2.640   1.420  13.128 -0.1393 -1.2420  0.4677
    2MPD2    N114370   2.092   1.485  12.998  0.3903  0.0634  0.0018
    2MPD2    H714371   2.063   1.458  13.091 -1.0532  2.3866  0.2429
    3TCq1    O114372   2.857   1.153  13.718 -0.8235 -0.4014 -0.6591
    3TCq1    C114373   2.779   1.251  13.678 -0.1721  0.8989 -0.4812
    3TCq1    O214374   2.774   1.364  13.728  0.4518 -0.3765  0.1390
    3TCq1    C214375   2.750   1.220  13.540 -0.2531  0.2731  0.1169
    3TCq1    C314376   2.848   1.173  13.467 -0.2146 -0.4245 -0.3882
    3TCq1    C414377   2.842   1.191  13.330 -0.1299  0.5032 -0.8491
    3TCq1    C514378   2.750   1.268  13.267  0.3866  0.4567  0.3508
    3TCq1    C614379   2.643   1.312  13.347  0.2209 -0.5832  0.8040
    3TCq1    C714380   2.648   1.285  13.484 -0.0885  0.7184  0.3269
    3TCq1    C814381   2.528   1.386  13.295 -0.2395 -0.5328  0.0291
    3TCq1    O414382   2.436   1.411  13.372  0.0224 -0.1895  0.4522
    3TCq1    C914383   2.944   1.127  13.255  0.4965  0.0194 -0.1428
    3TCq1    O514384   3.022   1.046  13.309  0.3100  0.2631  0.1688
    3TCq1    O614385   2.964   1.156  13.134 -0.0564  0.0968 -0.2769
    3TCq1    H114386   2.824   1.067  13.683  0.9389 -0.4999 -2.1053
    3TCq1    H214387   2.939   1.132  13.510 -0.2187  0.2028  0.2202
    3TCq1    H314388   2.758   1.273  13.159  1.8508  1.7344  0.5233
    3TCq1    H414389   2.571   1.322  13.552 -0.2702  0.9143  0.0102
    1MPD2     C14390   1.528   2.021  14.759 -1.2210  0.2720  0.1873
    1MPD2    C114391   1.393   1.987  14.743 -0.2186  0.1196  0.5266
    1MPD2    C214392   1.355   1.860  14.761 -0.4393 -0.3205 -0.0658
    1MPD2    C314393   1.447   1.767  14.800  0.0231  0.4029 -0.0319
    1MPD2    C414394   1.579   1.799  14.821  0.0695 -0.1760  0.4479
    1MPD2    C514395   1.613   1.924  14.808 -0.3128 -0.2687 -0.5848
    1MPD2     H14396   1.251   1.835  14.741 -0.7654 -0.5102  1.8461
    1MPD2    H114397   1.657   1.737  14.865 -0.9123 -1.0657  0.9233
    1MPD2    H214398   1.553   2.126  14.752  1.1827 -0.4262 -1.4779
    1MPD2    H314399   1.717   1.949  14.827 -0.0752 -2.2000  0.6565
    1MPD2     N14400   1.388   1.639  14.819 -0.0837 -0.0730  0.1305
    1MPD2    H514401   1.290   1.632  14.793 -0.5637  0.8653  1.7367
    1MPD2    N114402   1.301   2.085  14.695 -0.0378 -0.5303 -0.5241
    1MPD2    H714403   1.339   2.178  14.682 -1.3079  0.2358  1.0936
    2TMC3    C114404   1.101   2.170  14.600  0.4470 -0.2853  0.0260
    2TMC3    C214405   0.974   2.129  14.594 -0.1540  0.6330  0.0285
    2TMC3    C314406   0.920   2.126  14.468  0.0344  0.2029  0.4554
    2TMC3    C414407   1.180   2.198  14.490 -0.4248 -0.0658  0.4803
    2TMC3    C514408   1.119   2.198  14.366 -0.0601 -0.1147  0.4424
    2TMC3    C614409   0.991   2.147  14.354  0.0124  0.1952  0.6207
    2TMC3     C14410   1.166   2.070  14.680 -0.5295  0.5310  0.6032
    2TMC3     O14411   1.094   1.970  14.701 -0.4097  0.3331 -0.0647
    2TMC3     H14412   0.916   2.124  14.686 -1.3864 -0.2721 -0.7984
    2TMC3    H114413   1.276   2.246  14.505 -0.5330 -0.1928  1.5774
    2TMC3    H214414   0.951   2.135  14.253  2.3417 -0.2090 -0.2454
    2TMC3    C714415   1.166   2.282  14.261  0.6398  0.1105  0.1643
    2TMC3    C814416   0.822   2.018  14.462 -0.4924  0.2973 -0.5220
    2TMC3    O114417   1.084   2.311  14.171 -0.3213 -0.0123  0.3318
    2TMC3    O214418   0.741   2.026  14.367 -0.6670  0.3734 -0.1920
    3TCq1    O114419   2.376   2.445  14.092  0.4693 -1.1074 -0.2328
    3TCq1    C114420   2.296   2.549  14.138 -0.4218 -0.4639 -0.2394
    3TCq1    O214421   2.281   2.653  14.074 -0.1625  0.4495 -0.3047
    3TCq1    C214422   2.178   2.490  14.186  0.5170  0.5675  0.7854
    3TCq1    C314423   2.180   2.396  14.289  0.2145 -0.1664  0.1937
    3TCq1    C414424   2.076   2.312  14.297 -0.2060 -0.0676 -1.1596
    3TCq1    C514425   1.968   2.321  14.213 -0.0924 -0.1084  0.4504
    3TCq1    C614426   1.962   2.416  14.115 -0.0605 -0.5118 -0.1181
    3TCq1    C714427   2.072   2.496  14.093 -0.3483  0.5348  0.6442
    3TCq1    C814428   1.836   2.456  14.061 -0.4185  0.0206 -0.0057
    3TCq1    O414429   1.846   2.528  13.960 -0.1567  0.0548 -0.2490
    3TCq1    C914430   2.070   2.212  14.405 -0.5058 -0.3592 -0.6379
    3TCq1    O514431   1.970   2.132  14.411 -0.7514 -0.2025 -0.1284
    3TCq1    O614432   2.135   2.243  14.511 -0.8534 -0.4504  0.0455
    3TCq1    H114433   2.396   2.368  14.149  0.8844 -0.0897  0.9870
    3TCq1    H214434   2.266   2.379  14.353  0.2669  0.5716  0.3152
    3TCq1    H314435   1.890   2.249  14.230 -1.4732  1.0335 -1.0659
    3TCq1    H414436   2.064   2.577  14.021  0.1742 -0.6804 -0.7799
    4MPD2     C14437   1.543   2.493  13.997  0.8489  0.0686  0.3277
    4MPD2    C114438   1.598   2.434  14.109 -0.3838  0.8892 -0.1952
    4MPD2    C214439   1.503   2.386  14.200  0.0312 -0.0126  0.1587
    4MPD2    C314440   1.368   2.394  14.186 -0.4358  0.4993 -0.6174
    4MPD2    C414441   1.317   2.461  14.079 -0.4044  0.4321 -0.1735
    4MPD2    C514442   1.404   2.519  13.991  0.2538  0.1965  0.7783
    4MPD2     H14443   1.550   2.343  14.287 -2.7112 -1.3643  0.9698
    4MPD2    H114444   1.213   2.465  14.048 -0.4752  2.0601  0.2942
    4MPD2    H214445   1.600   2.523  13.909  0.6681  0.5280  0.3659
    4MPD2    H314446   1.353   2.565  13.907  0.8162 -0.9179 -0.1751
    4MPD2     N14447   1.295   2.315  14.274 -0.3354  0.1657  0.3532
    4MPD2    H514448   1.350   2.261  14.340 -4.2655 -0.7434  2.9000
    4MPD2    N114449   1.731   2.407  14.128 -0.2130  0.0685  0.2596
    4MPD2    H714450   1.750   2.344  14.205  0.6509  0.2530  0.2058
    5TMC2    C114451   1.138   1.409  14.818  0.5342  0.0809  0.6776
    5TMC2    C214452   1.083   1.387  14.945  0.0789  0.6808 -0.1105
    5TMC2    C314453   1.172   1.395  15.054  0.1076  0.3954 -0.0095
    5TMC2    C414454   1.271   1.416  14.799 -0.9391  0.2102 -0.0830
    5TMC2    C514455   1.358   1.429  14.902  0.5851  0.5607 -0.4982
    5TMC2    C614456   1.311   1.418  15.031  0.2108 -0.1253  0.0412
    5TMC2     C14457   1.069   1.509  14.750 -0.2432  0.7131 -0.1339
    5TMC2     O14458   1.125   1.613  14.758 -0.0951  0.1021 -0.5269
    5TMC2     H14459   0.976   1.393  14.959 -0.2470 -1.0861 -1.7790
    5TMC2    H114460   1.302   1.436  14.697  2.5959 -1.3668  0.6970
    5TMC2    H214461   1.375   1.442  15.115 -1.3756 -0.8396  1.4404
    5TMC2    C714462   1.450   1.536  14.887 -0.8036  0.3813 -0.1720
    5TMC2    C814463   1.133   1.400  15.184 -0.6683 -0.3282  0.1629
    5TMC2    O114464   1.558   1.526  14.946  0.6059  0.2007  0.0439
    5TMC2    O214465   1.208   1.441  15.273  0.3553 -0.4552  0.1505
    5TMC2    O514466   1.005   1.352  15.203 -0.2943  0.2318 -0.2061
    5TMC2    H514467   0.976   1.294  15.129 -3.3599 -1.5743  2.3934
    6MPD2     C14468   0.722   1.729  14.455  0.2088  0.3243  0.3200
    6MPD2    C114469   0.822   1.780  14.536 -0.1227 -0.4840  0.1155
    6MPD2    C214470   0.894   1.698  14.616  0.5677 -0.3851  0.1903
    6MPD2    C314471   0.862   1.562  14.628 -0.0313 -0.2036 -0.2164
    6MPD2    C414472   0.755   1.513  14.555 -0.4252  0.7012  0.5069
    6MPD2    C514473   0.687   1.595  14.469  0.3512 -0.3864 -0.0020
    6MPD2     H14474   0.975   1.745  14.670 -0.9050  0.0567  2.0179
    6MPD2    H114475   0.725   1.410  14.574 -1.8396  0.6506 -2.0413
    6MPD2    H214476   0.656   1.791  14.395  0.0588 -1.1671 -1.0562
    6MPD2    H314477   0.603   1.546  14.422  0.2545 -1.1486  0.9642
    6MPD2     N14478   0.940   1.477  14.709 -0.5246 -0.2417  0.0800
    6MPD2    H514479   0.916   1.378  14.715 -0.2995 -0.2590  0.6516
    6MPD2    N114480   0.861   1.915  14.545  0.3835 -0.2546  0.2650
    6MPD2    H714481   0.942   1.932  14.604  0.4066  0.8990 -0.1018
  945NH3     N114482   4.337   4.518  16.856  0.1728  0.0848  0.2237
  945NH3     H214483   4.340   4.614  16.889 -0.2790 -0.1755  1.0436
  945NH3     H314484   4.293   4.536  16.767  2.3857 -3.9402 -1.6535
  945NH3     H414485   4.259   4.474  16.903  0.5001  1.2228  1.8665
  946SOD     NA14486   1.746   2.896  14.628  0.5135 -0.3278 -0.0451
  947SOD     NA14487   2.825   3.915  16.469  0.0134 -0.3567  0.5685
  948SOD     NA14488   0.961   2.111   9.365 -0.5917  0.6824 -0.1071
  949SOD     NA14489   3.847   1.946   2.853  0.2167 -0.5638  0.3268
  950SOD     NA14490   1.257   2.705  14.609  0.0610  0.0936  0.2128
  951SOD     NA14491   1.512   0.493  10.850 -0.2745 -0.5002  0.0112
  952SOD     NA14492   2.068   3.073  11.951 -0.1335  0.1947  0.4458
  953SOD     NA14493   3.559   3.028   4.970  0.0465 -0.3196 -0.5099
  954SOL     OW14494   1.267   0.421   2.724  0.1829 -0.1889  0.2558
  954SOL    HW114495   1.206   0.478   2.677 -0.9207 -1.8223 -0.2916
  954SOL    HW214496   1.323   0.484   2.771 -2.2866  1.8691  0.4256
  955SOL     OW14497   2.332   3.200  12.781 -0.3779  0.1123  0.2501
  955SOL    HW114498   2.321   3.290  12.811 -1.9363 -0.2687  0.8591
  955SOL    HW214499   2.319   3.203  12.686  1.2135  0.0326  0.0322
  956SOL     OW14500   4.484   0.260   6.815 -0.0473 -0.4436  0.0542
  956SOL    HW114501   4.524   0.346   6.825 -0.6342 -0.0642 -0.8695
  956SOL    HW214502   4.560   0.204   6.799  0.3492 -0.5695  2.3387
  957SOL     OW14503   3.526   0.195   7.176 -0.0804 -0.5256 -0.1612
  957SOL    HW114504   3.526   0.099   7.180  2.9740 -0.5474 -0.3580
  957SOL    HW214505   3.576   0.218   7.097 -3.1993  0.9233 -1.6928
  958SOL     OW14506   0.001   0.397   9.660 -0.2000  0.3852 -0.5416
  958SOL    HW114507   0.003   0.448   9.741 -2.1730 -0.0226 -0.2314
  958SOL    HW214508   4.646   0.401   9.644 -0.5632  0.5145  1.6153
  959SOL     OW14509   1.072   0.494   9.401 -0.3530  0.5950 -0.2307
  959SOL    HW114510   1.019   0.557   9.354 -0.4176  1.2130  0.6672
  959SOL    HW214511   1.003   0.459   9.458  1.6164 -0.4235  1.5688
  960SOL     OW14512   3.164   0.121   5.343 -0.1189  0.2923 -0.6831
  960SOL    HW114513   3.094   0.059   5.324  0.6888 -0.5511 -0.9236
  960SOL    HW214514   3.178   0.100   5.435 -1.1766 -0.8947 -0.7891
  961SOL     OW14515   2.826   4.480   1.214  0.0046  0.0143  0.1080
  961SOL    HW114516   2.804   4.407   1.272 -1.6003  1.3750  1.2107
  961SOL    HW214517   2.750   4.494   1.159  0.0950  0.4350  0.0888
  962SOL     OW14518   4.032   0.720   5.222  0.0569  0.1726  0.1332
  962SOL    HW114519   4.084   0.799   5.210  0.6361 -0.1260  0.6499
  962SOL    HW214520   4.023   0.715   5.317  0.4398 -0.4329  0.1415
  963SOL     OW14521   2.450   1.971   9.022 -0.2739 -0.4665 -0.3279
  963SOL    HW114522   2.355   1.961   9.026 -0.3035 -0.4427 -0.9267
  963SOL    HW214523   2.477   1.913   9.093 -0.7094  0.4414  0.5741
  964SOL     OW14524   1.199   2.603   5.844 -0.3598  0.0214 -0.5956
  964SOL    HW114525   1.238   2.528   5.888  0.1831  0.2051 -0.7644
  964SOL    HW214526   1.131   2.555   5.797 -2.0351  1.5053  0.2956
  965SOL     OW14527   1.985   2.857   2.855  0.2009  0.2385  0.6722
  965SOL    HW114528   2.055   2.798   2.884  0.1337 -0.5085 -0.7004
  965SOL    HW214529   1.937   2.806   2.791 -0.4431 -1.4439  2.4982
  966SOL     OW14530   3.213   1.195  16.408 -0.4684 -0.2099  0.4969
  966SOL    HW114531   3.130   1.161  16.376 -0.3138  0.5126 -0.6813
  966SOL    HW214532   3.250   1.210  16.321 -3.2290  2.0959 -0.2651
  967SOL     OW14533   3.639   1.696   2.475  0.3856  0.4677  0.2565
  967SOL    HW114534   3.677   1.722   2.390 -0.4746  1.0612  0.0530
  967SOL    HW214535   3.706   1.633   2.501  0.4377  1.1231  1.6950
  968SOL     OW14536   3.376   4.509   6.150 -0.1498  0.3417  0.3591
  968SOL    HW114537   3.399   4.517   6.242  0.2522 -0.9586  0.3769
  968SOL    HW214538   3.443   4.454   6.109 -2.0775 -2.2857  0.7530
  969SOL     OW14539   4.488   2.698   5.761 -0.1056  0.8300 -0.0062
  969SOL    HW114540   4.534   2.757   5.820  1.0072  0.0447 -0.0884
  969SOL    HW214541   4.547   2.715   5.687  1.5804 -2.6470  0.5269
  970SOL     OW14542   1.534   1.608   5.625 -0.6881  0.1162  0.0764
  970SOL    HW114543   1.447   1.646   5.633 -0.6453  0.5662 -1.6626
  970SOL    HW214544   1.511   1.517   5.645 -0.5028  0.4696  1.9641
  971SOL     OW14545   3.434   2.269   4.897 -0.1056 -0.6921  0.0306
  971SOL    HW114546   3.430   2.231   4.984  0.7038 -0.6226  0.0989
  971SOL    HW214547   3.408   2.202   4.834  0.8631  0.3558 -1.5002
  972SOL     OW14548   1.228   1.075   7.170 -0.1465  0.2168 -0.1544
  972SOL    HW114549   1.280   1.122   7.105 -0.0913  1.0145  0.4692
  972SOL    HW214550   1.266   1.113   7.249 -0.0134  2.5094 -1.3489
  973SOL     OW14551   1.895   1.130   1.852 -0.1422  0.4598 -0.2787
  973SOL    HW114552   1.864   1.076   1.779 -1.0980 -0.7709  1.0242
  973SOL    HW214553   1.834   1.097   1.919  0.3041 -1.8980 -1.0068
  974SOL     OW14554   0.898   0.564   2.059  0.3563  0.8609 -0.0531
  974SOL    HW114555   0.891   0.645   2.009 -1.4517  1.1632  0.6964
  974SOL    HW214556   0.880   0.590   2.149 -0.3431 -1.3372  0.4357
  975SOL     OW14557   2.472   1.047   0.030 -0.3059 -0.3885  0.0688
  975SOL    HW114558   2.390   1.011  17.751 -0.5248  0.1257  0.0500
  975SOL    HW214559   2.538   1.011  17.725  0.3878  0.9283  0.0130
  976SOL     OW14560   0.471   3.278   2.036 -0.4021  0.2706 -0.7801
  976SOL    HW114561   0.559   3.261   2.071 -0.3441  0.2807 -0.9214
  976SOL    HW214562   0.425   3.198   2.061 -1.3251  1.1938  0.5339
  977SOL     OW14563   1.064   0.448   4.065 -0.4725 -0.3574  0.0330
  977SOL    HW114564   1.027   0.388   4.001  1.9652  0.0593 -1.7535
  977SOL    HW214565   1.148   0.405   4.081 -0.2867  0.3097  0.8820
  978SOL     OW14566   2.242   3.329  10.552  0.4538 -0.2448 -0.3918
  978SOL    HW114567   2.171   3.324  10.616  1.6919  0.7558  1.0704
  978SOL    HW214568   2.325   3.313  10.598  0.8150  1.2157 -0.5286
  979SOL     OW14569   3.026   1.509   5.474  0.3886 -0.0765  0.3686
  979SOL    HW114570   3.085   1.584   5.485  1.7702 -1.2406  0.9278
  979SOL    HW214571   2.944   1.538   5.513 -0.3872 -1.3094 -0.3540
  980SOL     OW14572   4.283   0.654   2.512 -0.0692  0.3371  0.2663
  980SOL    HW114573   4.344   0.722   2.541  0.0498  0.8953 -1.2768
  980SOL    HW214574   4.283   0.593   2.585  1.4515 -0.5023 -0.4223
  981SOL     OW14575   2.099   0.739   1.166 -0.6689  0.7006  0.3070
  981SOL    HW114576   2.009   0.772   1.159 -1.2050 -0.5776  1.1591
  981SOL    HW214577   2.145   0.801   1.109 -0.5256  0.4577  0.1590
  982SOL     OW14578   0.116   1.124   2.732  0.2548 -0.2374  0.0472
  982SOL    HW114579   0.076   1.194   2.681  3.7770  0.1547 -2.1799
  982SOL    HW214580   0.058   1.125   2.808  1.0143  0.7131  0.6197
  983SOL     OW14581   2.100   1.457  11.402 -0.3994  0.1484  0.4321
  983SOL    HW114582   2.095   1.402  11.323 -1.9037  1.3216 -0.2812
  983SOL    HW214583   2.006   1.465  11.417 -0.2690 -1.0136  1.9041
  984SOL     OW14584   3.957   1.577   4.661 -0.3345  0.2535  0.3147
  984SOL    HW114585   3.922   1.510   4.719  0.2378  0.6860  1.1632
  984SOL    HW214586   4.034   1.539   4.618  1.8124  1.4135  3.1080
  985SOL     OW14587   2.647   4.559   3.824 -0.1398 -0.3520 -0.1731
  985SOL    HW114588   2.588   4.626   3.859 -0.3371  0.1732 -1.5032
  985SOL    HW214589   2.641   4.492   3.893  1.1587 -2.3036 -1.9628
  986SOL     OW14590   4.661   2.396   3.119 -0.2873 -0.2566  0.4155
  986SOL    HW114591   0.007   2.435   3.139  0.6048 -1.0910 -1.7108
  986SOL    HW214592   4.668   2.314   3.169 -0.5965 -0.5918 -0.0905
  987SOL     OW14593   0.481   1.526   9.862 -0.2231  0.1516  0.2885
  987SOL    HW114594   0.506   1.609   9.822 -0.9550  0.2431  0.0278
  987SOL    HW214595   0.513   1.466   9.794  2.3259  1.3198  0.4535
  988SOL     OW14596   0.550   1.643  14.801 -0.0888  1.0960 -0.0000
  988SOL    HW114597   0.590   1.585  14.866 -1.6017 -1.4270 -1.3145
  988SOL    HW214598   0.628   1.692  14.776 -0.1459  1.5077  0.6541
  989SOL     OW14599   1.909   3.784   8.909  0.0666 -0.3506  0.4640
  989SOL    HW114600   1.857   3.832   8.974 -0.2863  0.1382 -0.1835
  989SOL    HW214601   1.906   3.697   8.948 -2.2342 -0.3777  0.2180
  990SOL     OW14602   1.437   1.461   6.666  0.2399 -0.0255  0.2636
  990SOL    HW114603   1.407   1.524   6.731 -0.6511 -1.6738  1.4531
  990SOL    HW214604   1.501   1.410   6.715  1.9823  3.0017  1.1034
  991SOL     OW14605   1.711   1.076  13.457 -0.0987  0.4459 -0.5411
  991SOL    HW114606   1.656   0.999  13.442 -1.3793  1.7833 -2.8258
  991SOL    HW214607   1.703   1.124  13.374 -2.9767 -0.5461 -0.8268
  992SOL     OW14608   3.035   2.474   7.500  0.6688 -0.4298 -0.7498
  992SOL    HW114609   2.957   2.501   7.548  2.0134  0.0622  1.1227
  992SOL    HW214610   3.098   2.545   7.509 -1.5511  1.2300  1.6070
  993SOL     OW14611   0.582   1.771  11.908 -0.4725  0.4412  0.3171
  993SOL    HW114612   0.607   1.746  11.819 -1.3205 -0.4855  0.3365
  993SOL    HW214613   0.500   1.722  11.918  0.0341 -0.6828 -1.0283
  994SOL     OW14614   0.098   4.729   8.419  0.3305 -0.1957 -0.0630
  994SOL    HW114615   0.060   4.642   8.425  0.1912 -0.0709  0.8579
  994SOL    HW214616   0.097   4.722   8.323 -1.5660 -0.2466 -0.0246
  995SOL     OW14617   2.990   0.538   7.153 -0.5923 -0.0924 -0.3429
  995SOL    HW114618   3.014   0.466   7.096 -3.5094 -0.8517 -0.6346
  995SOL    HW214619   2.910   0.568   7.110 -2.2425 -0.6907  2.2930
  996SOL     OW14620   0.959   2.863   6.716 -0.2411 -0.5088 -0.5664
  996SOL    HW114621   1.025   2.932   6.711 -1.0072  0.3484  1.1924
  996SOL    HW214622   0.913   2.896   6.793 -0.5489 -0.9319 -0.5706
  997SOL     OW14623   3.936   1.060   6.606  0.5479 -0.0730 -0.3739
  997SOL    HW114624   3.991   1.112   6.664 -2.7587  1.6072  1.2427
  997SOL    HW214625   3.961   1.093   6.520  0.8784 -0.9385 -0.6093
  998SOL     OW14626   3.723   4.082  13.781 -0.6421  0.6606  0.2412
  998SOL    HW114627   3.730   3.996  13.738 -0.6953  0.7017  0.1495
  998SOL    HW214628   3.646   4.059  13.832 -1.2879  1.1480 -0.5164
  999SOL     OW14629   2.136   2.643   2.965 -0.2764  0.1496 -0.4642
  999SOL    HW114630   2.164   2.693   3.042  0.3135 -0.0486 -0.5518
  999SOL    HW214631   2.047   2.619   2.993 -0.3185 -0.0613 -0.7690
 1000SOL     OW14632   0.550   1.380   8.626 -0.3884  0.2346 -1.1806
 1000SOL    HW114633   0.502   1.417   8.552  0.5524  1.0567 -1.3751
 1000SOL    HW214634   0.611   1.452   8.641  1.6732 -2.0834  1.6586
 1001SOL     OW14635   4.242   0.801   8.661  0.1780  0.0376  0.5550
 1001SOL    HW114636   4.281   0.727   8.613  1.5819  0.3953  1.1463
 1001SOL    HW214637   4.233   0.866   8.592 -0.7168 -1.3043 -0.5982
 1002SOL     OW14638   3.183   2.116   7.235  0.3370 -0.1368 -0.5451
 1002SOL    HW114639   3.147   2.122   7.147  1.5481 -0.1075 -1.0431
 1002SOL    HW214640   3.153   2.204   7.257  0.9735 -0.4654  1.5825
 1003SOL     OW14641   2.531   1.879   7.228  0.3621  0.0539 -0.3902
 1003SOL    HW114642   2.618   1.894   7.267 -0.0093  0.8224  0.1528
 1003SOL    HW214643   2.509   1.972   7.227  3.2837  0.7468 -1.0988
 1004SOL     OW14644   4.473   3.695  16.006 -0.2178 -0.5600  0.1040
 1004SOL    HW114645   4.388   3.698  15.961 -0.4070  1.0667  0.5633
 1004SOL    HW214646   4.495   3.788  16.012 -0.1778 -0.3558 -3.0876
 1005SOL     OW14647   2.636   0.777   4.565  0.6971  0.1363  0.2686
 1005SOL    HW114648   2.679   0.832   4.500 -0.6613  0.6530 -0.1835
 1005SOL    HW214649   2.621   0.833   4.642 -2.2059  1.8336 -1.5495
 1006SOL     OW14650   1.816   0.694   9.333  0.0472  0.0550  0.2317
 1006SOL    HW114651   1.857   0.778   9.356  0.7406 -0.3540  0.4754
 1006SOL    HW214652   1.789   0.663   9.420 -0.7223  2.0223  0.6987
 1007SOL     OW14653   2.164   3.354   2.572  0.0925  0.0767  0.5878
 1007SOL    HW114654   2.093   3.320   2.518  0.6115 -2.6806  1.6359
 1007SOL    HW214655   2.144   3.335   2.663  1.3476  1.6721  1.1782
 1008SOL     OW14656   2.999   2.554   1.226 -0.1731 -0.1545  0.3688
 1008SOL    HW114657   3.006   2.624   1.161  1.7177 -0.0397  0.6942
 1008SOL    HW214658   3.048   2.484   1.183 -0.5576  0.2724 -0.7636
 1009SOL     OW14659   4.192   2.686   8.766  0.5206  0.1103 -0.0166
 1009SOL    HW114660   4.197   2.643   8.680 -1.8412 -0.2180  0.0110
 1009SOL    HW214661   4.098   2.705   8.772  0.0690 -1.8636 -0.6429
 1010SOL     OW14662   4.644   0.039   1.181  0.3736  0.2787  0.7985
 1010SOL    HW114663   4.652   0.109   1.117  0.5135  0.6836  1.2558
 1010SOL    HW214664   4.593   4.714   1.132  1.2899  0.1596  0.0071
 1011SOL     OW14665   1.491   0.548  13.302  0.1543  0.3568 -0.2760
 1011SOL    HW114666   1.427   0.499  13.250  1.4771  2.3338 -3.7163
 1011SOL    HW214667   1.558   0.479  13.296  1.4288  1.4881  0.8177
 1012SOL     OW14668   3.487   4.275   7.884 -0.0384 -0.1087  0.1274
 1012SOL    HW114669   3.463   4.291   7.975  0.7280 -1.7502  0.6341
 1012SOL    HW214670   3.453   4.356   7.846  0.0537  0.4042  1.1278
 1013SOL     OW14671   0.436   2.623   0.326 -0.4870 -0.0424  0.2159
 1013SOL    HW114672   0.530   2.619   0.339 -0.7240 -2.5226  1.0703
 1013SOL    HW214673   0.429   2.609   0.231  0.5155 -1.2680  0.3252
 1014SOL     OW14674   0.717   4.657   7.802  0.2633  0.7158  0.4035
 1014SOL    HW114675   0.716   4.711   7.723  0.4947  0.6326  0.3409
 1014SOL    HW214676   0.721   4.721   7.873 -0.9976 -0.4007  1.4767
 1015SOL     OW14677   2.028   0.647   5.577  0.2176 -0.5112 -0.1014
 1015SOL    HW114678   1.981   0.651   5.493 -1.9850  2.2756  1.2470
 1015SOL    HW214679   1.951   0.658   5.633  0.5486 -0.2218  0.2991
 1016SOL     OW14680   4.290   2.325   2.244  0.7279  0.0266 -0.3594
 1016SOL    HW114681   4.197   2.334   2.267  1.0688  1.9022  0.2351
 1016SOL    HW214682   4.284   2.313   2.149  0.5654 -1.2195 -0.1886
 1017SOL     OW14683   0.272   2.203   1.416 -0.0768 -0.7398  0.6607
 1017SOL    HW114684   0.362   2.184   1.442 -0.1714 -1.6433  0.3350
 1017SOL    HW214685   0.284   2.224   1.323 -0.8005 -0.1456  0.6998
 1018SOL     OW14686   4.134   0.693   8.906  0.0301 -0.1683  0.4716
 1018SOL    HW114687   4.046   0.661   8.886  1.0808 -2.1688 -0.9123
 1018SOL    HW214688   4.169   0.723   8.822  0.0682 -0.5386  0.3538
 1019SOL     OW14689   2.177   3.693  11.887 -0.1746  0.4240  0.0337
 1019SOL    HW114690   2.092   3.651  11.901  1.3431 -1.8226  2.4572
 1019SOL    HW214691   2.229   3.634  11.833 -0.9179  1.0040 -1.3047
 1020SOL     OW14692   4.585   4.461   9.872  0.5147  0.3103 -0.0640
 1020SOL    HW114693   4.572   4.522   9.798  0.5061  0.6786  0.2394
 1020SOL    HW214694   4.667   4.501   9.900  0.0160  2.8690 -2.1908
 1021SOL     OW14695   1.463   1.014  17.541  0.0669  0.3565  0.5229
 1021SOL    HW114696   1.472   1.109  17.549 -3.1125  0.6331  0.8316
 1021SOL    HW214697   1.537   1.004  17.481 -1.0286 -1.4758 -0.5386
 1022SOL     OW14698   3.175   1.148   6.689 -0.3943  0.0423 -0.0760
 1022SOL    HW114699   3.101   1.155   6.749  0.2993  1.9092  0.5846
 1022SOL    HW214700   3.214   1.066   6.719  3.3528  2.2365  1.0794
 1023SOL     OW14701   3.610   2.441   8.187  0.3774 -0.6422 -0.5183
 1023SOL    HW114702   3.562   2.408   8.112 -2.0565 -1.4994  1.4086
 1023SOL    HW214703   3.593   2.380   8.259 -1.8986 -1.5017 -1.8045
 1024SOL     OW14704   1.245   3.743   4.711  0.2286  0.2897  0.0477
 1024SOL    HW114705   1.153   3.719   4.700 -0.0646  1.3663  0.1528
 1024SOL    HW214706   1.246   3.835   4.683 -2.8324  0.3583  0.1057
 1025SOL     OW14707   3.442   1.399   1.554 -0.7221  0.1605 -0.4895
 1025SOL    HW114708   3.498   1.322   1.553  0.7655  1.2324  1.0096
 1025SOL    HW214709   3.508   1.466   1.539  0.5485 -1.1855 -0.8600
 1026SOL     OW14710   2.875   1.934  17.307 -0.2571  0.3111 -0.5355
 1026SOL    HW114711   2.824   1.962  17.231 -0.9002  1.2389  0.2323
 1026SOL    HW214712   2.852   2.010  17.361  1.6486 -0.0520  0.8033
 1027SOL     OW14713   1.931   4.507   4.587  0.7826  0.6208 -0.1841
 1027SOL    HW114714   1.911   4.465   4.503 -0.5992  1.0380 -0.0744
 1027SOL    HW214715   1.862   4.457   4.632 -1.2149  1.7892 -1.9162
 1028SOL     OW14716   4.634   2.171  13.778  0.2943 -0.1923 -0.6489
 1028SOL    HW114717   4.586   2.248  13.808  1.4161  0.0881  0.4255
 1028SOL    HW214718   4.658   2.188  13.686  2.1070  1.8113  0.1706
 1029SOL     OW14719   1.154   0.249   8.300 -0.2479 -0.0926  0.1240
 1029SOL    HW114720   1.216   0.309   8.259 -1.5799  1.1680 -0.0362
 1029SOL    HW214721   1.191   0.245   8.388  1.6066  2.7598 -0.4961
 1030SOL     OW14722   2.939   3.960   4.649 -0.7008 -0.1480 -0.3549
 1030SOL    HW114723   2.876   4.015   4.603  1.8855  2.5256 -0.7238
 1030SOL    HW214724   2.996   3.922   4.583 -0.8376  0.0180 -0.5689
 1031SOL     OW14725   1.648   1.295   7.720  0.7879  0.0722 -0.1345
 1031SOL    HW114726   1.585   1.256   7.780  0.4247 -0.1732 -0.6809
 1031SOL    HW214727   1.667   1.383   7.754 -1.9562 -0.2352  2.1157
 1032SOL     OW14728   0.634   3.587   2.334  0.6299 -0.3941 -0.4446
 1032SOL    HW114729   0.602   3.623   2.252  1.3600  1.3161 -0.0091
 1032SOL    HW214730   0.560   3.533   2.359  1.3722 -1.4109 -0.4314
 1033SOL     OW14731   0.806   4.507   5.267  0.4085  0.0759 -0.0186
 1033SOL    HW114732   0.799   4.433   5.328  1.8374  1.4812  1.8760
 1033SOL    HW214733   0.764   4.473   5.188 -2.7528  1.3093  1.1379
 1034SOL     OW14734   0.748   2.373  12.199 -0.1681  0.3595  0.2463
 1034SOL    HW114735   0.749   2.445  12.262  1.7654  1.3924 -0.9901
 1034SOL    HW214736   0.814   2.411  12.141 -0.9839  1.9543  0.3807
 1035SOL     OW14737   4.608   2.291   8.629  0.7511  0.2408 -0.5531
 1035SOL    HW114738   4.571   2.244   8.704  0.5709  4.0061  1.7216
 1035SOL    HW214739   4.572   2.379   8.645 -1.1278 -0.7220  0.5210
 1036SOL     OW14740   3.604   1.584   1.930 -0.5089 -0.2849 -0.6904
 1036SOL    HW114741   3.676   1.564   1.870  1.4670  1.0682  1.2409
 1036SOL    HW214742   3.555   1.502   1.938  0.9765 -0.9707  1.1944
 1037SOL     OW14743   3.796   0.957   5.246 -1.2810  0.1265 -0.0354
 1037SOL    HW114744   3.747   0.874   5.250  0.8503 -1.0934  1.1850
 1037SOL    HW214745   3.801   0.963   5.151 -2.0537 -0.2810 -0.1066
 1038SOL     OW14746   1.729   1.789   5.732 -0.1314  0.1528  0.2913
 1038SOL    HW114747   1.739   1.731   5.808  2.2170 -0.6747 -0.6561
 1038SOL    HW214748   1.689   1.721   5.679  0.1839  1.3254 -1.4453
 1039SOL     OW14749   1.107   0.655   8.152 -0.5585 -0.1846 -0.3261
 1039SOL    HW114750   1.052   0.725   8.115 -1.7143  0.5668  2.8538
 1039SOL    HW214751   1.147   0.613   8.076  0.9860 -0.7926  0.8332
 1040SOL     OW14752   0.222   2.599   5.841 -0.2884 -0.2124 -0.0731
 1040SOL    HW114753   0.262   2.529   5.892  0.0867  0.8333  1.0580
 1040SOL    HW214754   0.275   2.608   5.762  0.2194 -0.0491  0.2907
 1041SOL     OW14755   1.453   0.710   4.307 -0.0815  0.6546 -0.6298
 1041SOL    HW114756   1.523   0.740   4.249  0.9655 -0.5225  0.0176
 1041SOL    HW214757   1.498   0.712   4.391  0.1760  0.5823 -0.7657
 1042SOL     OW14758   3.439   0.365  10.468 -0.0098  0.3280  0.2053
 1042SOL    HW114759   3.415   0.369  10.560 -0.2360 -2.1841  0.2396
 1042SOL    HW214760   3.361   0.360  10.413  0.4115  0.4970 -0.4197
 1043SOL     OW14761   1.531   2.486   9.363  0.5565  0.2078 -0.2627
 1043SOL    HW114762   1.460   2.451   9.416  0.2697 -0.4996 -1.1113
 1043SOL    HW214763   1.537   2.418   9.295 -3.7371  0.2502 -0.6488
 1044SOL     OW14764   0.994   3.781  15.542  0.4054 -0.3634 -0.0662
 1044SOL    HW114765   1.060   3.782  15.472  0.4920  0.5279  0.0334
 1044SOL    HW214766   0.936   3.709  15.515  1.7338 -1.5473  0.2399
 1045SOL     OW14767   1.827   1.085   2.604  0.1360 -0.2253  0.6102
 1045SOL    HW114768   1.871   1.002   2.581 -0.2907  0.1452 -1.5455
 1045SOL    HW214769   1.855   1.109   2.692  0.8779 -3.4675  1.2799
 1046SOL     OW14770   0.453   2.849  17.726  0.5672 -0.2217 -0.7622
 1046SOL    HW114771   0.385   2.904   0.010 -1.2817 -2.6457 -0.5619
 1046SOL    HW214772   0.509   2.893  17.662  2.4629 -2.6746 -0.7825
 1047SOL     OW14773   3.683   4.680  12.815 -0.6019  0.5044 -0.2741
 1047SOL    HW114774   3.694   0.014  12.876  1.0671  2.0981 -2.4734
 1047SOL    HW214775   3.773   4.649  12.810 -0.8630  0.0217 -1.9426
 1048SOL     OW14776   2.062   3.765   2.493  0.2226 -0.6912 -0.2601
 1048SOL    HW114777   2.092   3.821   2.421  2.1975 -0.0003  1.1048
 1048SOL    HW214778   1.985   3.812   2.525  1.2550  0.4691  0.5209
 1049SOL     OW14779   0.789   2.550   1.120  0.2354  0.0669 -0.3501
 1049SOL    HW114780   0.862   2.569   1.061  2.0264 -1.9676  1.2263
 1049SOL    HW214781   0.748   2.481   1.069 -1.0818  0.0943  0.6788
 1050SOL     OW14782   0.890   2.668   9.177  0.9904 -0.1282  0.1743
 1050SOL    HW114783   0.971   2.625   9.204  0.4082 -1.0975  0.3758
 1050SOL    HW214784   0.831   2.605   9.218 -0.5042 -0.1576 -2.0287
 1051SOL     OW14785   4.362   3.470   3.926  0.2341 -0.1725  0.1430
 1051SOL    HW114786   4.351   3.396   3.867 -0.5706 -0.2701  0.4096
 1051SOL    HW214787   4.402   3.427   4.002  1.2199  0.7278  0.1429
 1052SOL     OW14788   1.202   4.435  12.931  0.1648 -0.1739 -0.1167
 1052SOL    HW114789   1.223   4.357  12.983  0.1314 -0.2526 -0.2225
 1052SOL    HW214790   1.108   4.445  12.946  0.3114 -1.3950  1.6447
 1053SOL     OW14791   4.144   4.380   4.633 -0.1437  0.0201 -0.3006
 1053SOL    HW114792   4.172   4.461   4.677 -2.5752  1.5021 -1.4744
 1053SOL    HW214793   4.108   4.329   4.705 -0.3899  2.3501  1.2549
 1054SOL     OW14794   4.361   4.420  11.993 -0.6726  0.2712 -0.7773
 1054SOL    HW114795   4.334   4.329  11.995 -2.1581  0.7658  1.4360
 1054SOL    HW214796   4.388   4.434  12.084 -0.5911 -1.2306 -0.5734
 1055SOL     OW14797   0.662   1.613   3.917  0.6183  0.1640  0.2010
 1055SOL    HW114798   0.757   1.606   3.915  0.5942 -0.3781  0.9680
 1055SOL    HW214799   0.645   1.564   3.837 -0.7355 -1.2754  1.3558
 1056SOL     OW14800   0.634   0.589  12.105 -0.1692  0.2348  0.5746
 1056SOL    HW114801   0.582   0.642  12.044  1.6156  0.3563 -0.8196
 1056SOL    HW214802   0.608   0.639  12.183 -1.2978  2.9670 -1.5419
 1057SOL     OW14803   1.555   4.670   7.451  0.9510  0.2311 -0.2441
 1057SOL    HW114804   1.522   4.580   7.454  0.5628  0.4920  4.0616
 1057SOL    HW214805   1.539   4.699   7.361  2.8270  1.2197 -0.2506
 1058SOL     OW14806   3.983   3.949  11.339 -0.3360  0.7909  0.2624
 1058SOL    HW114807   4.023   4.036  11.334  2.4803 -0.5241 -0.0467
 1058SOL    HW214808   4.008   3.935  11.431 -1.7112 -1.4585  0.2830
 1059SOL     OW14809   3.478   2.219   7.540 -0.2985 -0.2201 -0.3890
 1059SOL    HW114810   3.418   2.293   7.547  0.0807 -0.1552  2.0086
 1059SOL    HW214811   3.543   2.253   7.478 -2.5025  1.5734 -1.7152
 1060SOL     OW14812   1.797   2.687   4.224 -0.6832 -0.0844 -0.4962
 1060SOL    HW114813   1.709   2.665   4.254 -1.2323  2.3711 -0.3166
 1060SOL    HW214814   1.778   2.769   4.178  0.3423  1.0634  1.1294
 1061SOL     OW14815   2.534   2.633   1.734 -0.6027 -0.5578  0.3543
 1061SOL    HW114816   2.552   2.564   1.797 -1.0304  0.2016  1.3068
 1061SOL    HW214817   2.440   2.618   1.720 -0.5534 -0.5925  0.0611
 1062SOL     OW14818   3.164   1.043   5.631  0.0188 -0.0920  0.6068
 1062SOL    HW114819   3.183   0.961   5.585 -3.3067 -0.3515 -0.3103
 1062SOL    HW214820   3.172   1.001   5.717  0.2368 -0.0008  0.6328
 1063SOL     OW14821   0.170   0.337   8.239  0.0598 -0.2378 -0.0126
 1063SOL    HW114822   0.175   0.421   8.195 -2.0520 -1.0573 -1.8016
 1063SOL    HW214823   0.104   0.294   8.186  2.2003 -1.6424 -1.5190
 1064SOL     OW14824   1.120   0.044   7.239 -0.2911  0.1212  0.3940
 1064SOL    HW114825   1.089   4.695   7.261  2.1029 -0.7020  0.4595
 1064SOL    HW214826   1.156   0.077   7.322  3.4214  0.9425 -1.5562
 1065SOL     OW14827   0.064   3.387   2.840 -0.2561  0.0786 -0.0012
 1065SOL    HW114828   0.068   3.394   2.935 -2.9495  0.5935  0.0684
 1065SOL    HW214829   4.734   3.322   2.831  1.1848 -1.3790 -0.4695
 1066SOL     OW14830   3.507   0.035   1.884  0.6257 -0.4208 -0.6851
 1066SOL    HW114831   3.507   0.060   1.792 -1.3160 -1.5510 -0.9852
 1066SOL    HW214832   3.482   0.108   1.941 -1.7449 -0.7947 -1.2759
 1067SOL     OW14833   1.553   1.270   5.663  0.2660  0.4026  0.1669
 1067SOL    HW114834   1.476   1.316   5.696  0.0551  0.0840  0.1127
 1067SOL    HW214835   1.606   1.285   5.742  1.4254  1.4102 -0.7997
 1068SOL     OW14836   1.350   1.964   9.493 -0.2497  0.0773 -0.2275
 1068SOL    HW114837   1.408   1.970   9.569 -1.4195  0.3890  0.6375
 1068SOL    HW214838   1.277   1.918   9.534 -0.8862  0.4178 -0.9668
 1069SOL     OW14839   4.258   1.795  15.232 -0.3345  0.0889 -0.1708
 1069SOL    HW114840   4.203   1.873  15.234  1.4803  1.3097  2.0186
 1069SOL    HW214841   4.259   1.773  15.139 -0.4605  0.7701 -0.3337
 1070SOL     OW14842   3.868   0.953   3.628 -0.3326 -0.6801 -0.0776
 1070SOL    HW114843   3.854   0.965   3.534  0.2546  1.3246  0.0854
 1070SOL    HW214844   3.786   0.980   3.670 -0.4862  0.2263 -0.9576
 1071SOL     OW14845   3.114   4.108   9.194 -0.2331 -0.1086 -0.2224
 1071SOL    HW114846   3.191   4.147   9.237  0.3405  1.1083 -2.3648
 1071SOL    HW214847   3.045   4.167   9.225 -0.0615 -0.3831  0.6761
 1072SOL     OW14848   1.544   4.509   6.100 -0.1365 -0.8608 -0.3139
 1072SOL    HW114849   1.451   4.495   6.084 -0.2332 -0.8788  0.2480
 1072SOL    HW214850   1.537   4.500   6.195  0.5911  1.1314 -0.0715
 1073SOL     OW14851   4.125   1.667   0.494 -0.3866 -0.5643 -0.3324
 1073SOL    HW114852   4.081   1.692   0.575  1.1979  1.5685 -0.1067
 1073SOL    HW214853   4.215   1.673   0.526 -0.3377  1.5624 -0.9032
 1074SOL     OW14854   4.007   2.134  17.590  0.4649  0.0087  0.0574
 1074SOL    HW114855   4.004   2.229  17.603 -2.2093 -0.0454 -0.1452
 1074SOL    HW214856   3.927   2.131  17.538  0.5413 -1.6560  0.0439
 1075SOL     OW14857   0.100   0.992   1.624 -0.6430 -0.1964  0.5625
 1075SOL    HW114858   0.146   1.050   1.563  0.5861 -0.0440  1.6428
 1075SOL    HW214859   0.118   1.037   1.707  2.6773 -1.8649  0.7540
 1076SOL     OW14860   3.317   3.412   0.154 -0.3710  0.2056 -0.4273
 1076SOL    HW114861   3.345   3.359   0.228 -0.8096  2.0932  1.0975
 1076SOL    HW214862   3.399   3.457   0.132 -0.3542  1.0047  1.2818
 1077SOL     OW14863   0.259   4.179   3.233  0.1674  0.1194 -0.2300
 1077SOL    HW114864   0.194   4.248   3.240  1.0995  0.9036  0.6588
 1077SOL    HW214865   0.298   4.212   3.152  0.7566  1.3514  0.5659
 1078SOL     OW14866   1.445   1.197   6.999 -0.0675 -1.0212  0.4994
 1078SOL    HW114867   1.488   1.221   6.917 -0.8198  1.5428  0.8699
 1078SOL    HW214868   1.479   1.262   7.060 -0.2417  0.4690 -1.0116
 1079SOL     OW14869   1.228   0.163   6.981  0.5331  0.3464  0.3856
 1079SOL    HW114870   1.211   0.118   7.064  1.1701 -1.1836 -0.3177
 1079SOL    HW214871   1.188   0.106   6.915 -0.0989 -1.7939  2.6252
 1080SOL     OW14872   0.361   4.576   1.773 -0.2339  0.3251 -0.6889
 1080SOL    HW114873   0.347   4.492   1.729 -1.6774 -0.6655  1.6594
 1080SOL    HW214874   0.276   4.617   1.789 -1.3410 -2.1747 -0.2156
 1081SOL     OW14875   1.377   4.013   6.843  0.1382 -0.1007  0.2217
 1081SOL    HW114876   1.304   4.013   6.781 -0.0623  0.7508  0.4601
 1081SOL    HW214877   1.351   3.946   6.907  1.4116  0.7759  1.6601
 1082SOL     OW14878   0.518   2.086   2.202 -0.0542  0.8435  0.2212
 1082SOL    HW114879   0.475   2.013   2.247  0.9288  0.2099  0.1287
 1082SOL    HW214880   0.465   2.165   2.215 -2.6978 -0.8631 -0.1449
 1083SOL     OW14881   4.674   0.094   9.328  0.2959  0.0903  0.4424
 1083SOL    HW114882   0.014   0.113   9.379  0.3959 -2.3516  1.1777
 1083SOL    HW214883   4.613   0.159   9.362  0.6352  0.2561  0.7318
 1084SOL     OW14884   2.577   3.469   6.044  0.3243 -0.3350 -0.0271
 1084SOL    HW114885   2.622   3.528   6.104 -1.1430 -1.1693  1.9018
 1084SOL    HW214886   2.498   3.519   6.021  0.5649 -0.5933 -1.4204
 1085SOL     OW14887   1.581   2.275   2.605  0.0491 -0.7389  0.0601
 1085SOL    HW114888   1.624   2.190   2.617  1.2241 -0.2083 -0.3610
 1085SOL    HW214889   1.509   2.252   2.546  1.0948 -2.5579 -0.5375
 1086SOL     OW14890   2.391   0.294   5.329  0.5491  0.3610 -0.1519
 1086SOL    HW114891   2.388   0.291   5.233  1.0020 -2.8281 -0.0785
 1086SOL    HW214892   2.330   0.366   5.340  0.1399  0.4691 -3.2031
 1087SOL     OW14893   2.847   3.534   4.165  0.5094 -0.3286 -0.2615
 1087SOL    HW114894   2.812   3.590   4.094 -4.2666 -2.4137  0.4405
 1087SOL    HW214895   2.838   3.447   4.128 -1.0804 -0.7647  1.1452
 1088SOL     OW14896   4.001   2.801   6.992 -0.6893 -0.1858 -0.6164
 1088SOL    HW114897   3.948   2.748   7.051  1.5489 -0.8601  0.7745
 1088SOL    HW214898   4.045   2.856   7.055 -1.7535 -0.0402  0.0057
 1089SOL     OW14899   0.836   3.207  12.453  0.0110 -0.3539 -0.4448
 1089SOL    HW114900   0.899   3.136  12.439  0.3649  0.0847 -1.0726
 1089SOL    HW214901   0.900   3.271  12.482 -0.7663 -0.2802  1.0864
 1090SOL     OW14902   1.701   2.076   6.912 -0.3678 -0.2162  0.1212
 1090SOL    HW114903   1.762   2.136   6.955  2.2297 -0.9931 -2.4903
 1090SOL    HW214904   1.709   2.095   6.819  1.6891 -3.4449 -0.3646
 1091SOL     OW14905   3.678   2.428   1.504  0.3121 -0.6723  0.9150
 1091SOL    HW114906   3.730   2.355   1.535  3.2156  0.7114 -0.6948
 1091SOL    HW214907   3.630   2.375   1.440 -0.8237  0.3842  0.8941
 1092SOL     OW14908   3.332   2.549   2.927  0.1066 -1.0413  0.3899
 1092SOL    HW114909   3.387   2.608   2.876 -0.5333 -0.4517  0.3865
 1092SOL    HW214910   3.246   2.581   2.901 -0.7321 -1.6470  2.4372
 1093SOL     OW14911   3.036   2.573   6.742 -0.6419  0.0387 -0.3070
 1093SOL    HW114912   3.119   2.542   6.704  0.1076  0.7056  0.7821
 1093SOL    HW214913   3.059   2.645   6.800  1.9740  0.0734 -1.3797
 1094SOL     OW14914   0.287   1.358   5.382  0.0079 -0.7777 -0.7476
 1094SOL    HW114915   0.197   1.357   5.350 -0.3313 -0.6107  0.2100
 1094SOL    HW214916   0.330   1.420   5.323  0.3378  0.4209  0.7344
 1095SOL     OW14917   3.552   1.530   7.915 -0.2819  0.1556 -0.1854
 1095SOL    HW114918   3.574   1.443   7.949 -1.5512  0.4603  1.4267
 1095SOL    HW214919   3.639   1.544   7.879  0.8035  0.8755  2.7590
 1096SOL     OW14920   1.789   1.467   0.206  0.1641 -1.0594 -0.6863
 1096SOL    HW114921   1.770   1.529   0.137 -0.3809 -0.4180  0.0414
 1096SOL    HW214922   1.813   1.391   0.153  0.1545 -1.1626 -0.5443
 1097SOL     OW14923   2.062   2.394  16.453  0.2802 -0.4704 -0.1416
 1097SOL    HW114924   2.116   2.320  16.424 -0.6613 -0.7967 -1.0423
 1097SOL    HW214925   2.098   2.475  16.417 -2.2874  0.9944  0.5949
 1098SOL     OW14926   2.390   2.876  17.507  0.7590 -0.5223  0.3035
 1098SOL    HW114927   2.485   2.877  17.501  0.8871 -0.9410  1.9973
 1098SOL    HW214928   2.372   2.875  17.602  1.9714  0.3773  0.5308
 1099SOL     OW14929   3.157   1.372   7.846 -0.2806  0.3813  0.0903
 1099SOL    HW114930   3.082   1.408   7.893  0.2385  4.7567 -2.3513
 1099SOL    HW214931   3.208   1.453   7.850 -2.4339  1.7905 -0.6236
 1100SOL     OW14932   4.046   4.637   3.025  0.3114  0.7035 -0.0481
 1100SOL    HW114933   4.030   4.718   2.977  1.2836  0.8093 -0.1915
 1100SOL    HW214934   3.977   4.573   3.008  0.8485  0.7768 -2.5871
 1101SOL     OW14935   2.607   2.795   0.086  0.4364 -0.0678  0.4317
 1101SOL    HW114936   2.643   2.865   0.140  0.9199 -0.5911  0.7913
 1101SOL    HW214937   2.512   2.809   0.089  0.7419  2.1835 -0.8250
 1102SOL     OW14938   4.060   1.312  13.566  0.2753  0.6178  1.0015
 1102SOL    HW114939   3.998   1.319  13.493  2.5820 -0.6455 -1.0528
 1102SOL    HW214940   4.054   1.220  13.591 -1.8541  0.0097 -1.7376
 1103SOL     OW14941   1.368   0.914   1.442 -0.1511  0.0256  0.3841
 1103SOL    HW114942   1.434   0.934   1.508 -0.5215  1.6243  0.2599
 1103SOL    HW214943   1.351   1.000   1.405 -0.6105 -1.0923 -1.9904
 1104SOL     OW14944   4.477   1.187  16.705 -0.3352 -0.1561  0.0634
 1104SOL    HW114945   4.524   1.162  16.784  2.3833 -0.8668 -1.7825
 1104SOL    HW214946   4.421   1.258  16.735 -0.3179 -0.4777  0.8705
 1105SOL     OW14947   1.398   2.798   4.457  0.0923 -0.3135 -0.4382
 1105SOL    HW114948   1.377   2.709   4.487  0.3133 -0.5134 -0.8795
 1105SOL    HW214949   1.331   2.819   4.392  0.5024  1.6378 -0.2061
 1106SOL     OW14950   3.575   3.405   3.199 -0.1667 -0.4491  0.2804
 1106SOL    HW114951   3.651   3.461   3.215 -0.2024 -0.0439 -1.0175
 1106SOL    HW214952   3.542   3.408   3.289  0.7403  0.6666  0.5709
 1107SOL     OW14953   0.804   4.249  10.476 -0.4620 -0.1090  0.0160
 1107SOL    HW114954   0.836   4.162  10.498 -4.1862 -1.7533 -1.0446
 1107SOL    HW214955   0.846   4.312  10.534  2.5446 -2.9323  0.9038
 1108SOL     OW14956   3.110   1.853   8.760  0.3773 -0.4919  0.4959
 1108SOL    HW114957   3.183   1.886   8.812 -0.8275 -1.1219  2.6063
 1108SOL    HW214958   3.047   1.925   8.762  1.8570  0.7788  1.2980
 1109SOL     OW14959   3.971   3.481   3.734  0.1248 -0.4325  0.1625
 1109SOL    HW114960   4.017   3.555   3.775  2.4665 -2.4266  1.1275
 1109SOL    HW214961   3.882   3.513   3.750  0.3692 -0.1073  0.9178
 1110SOL     OW14962   4.344   0.450   6.595  0.0178 -0.5367  0.4191
 1110SOL    HW114963   4.375   0.387   6.660  0.4873 -1.8390 -1.0882
 1110SOL    HW214964   4.350   0.532   6.644 -0.0604  0.2401 -0.8640
 1111SOL     OW14965   1.417   3.770   4.093 -0.4943 -0.0500  0.2389
 1111SOL    HW114966   1.493   3.740   4.142  0.5883  0.3594 -1.1707
 1111SOL    HW214967   1.348   3.745   4.154 -1.4622 -1.1641 -1.3063
 1112SOL     OW14968   4.235   0.847   9.998 -0.6898  0.0864  0.0417
 1112SOL    HW114969   4.307   0.910   9.987 -1.4684  0.4878 -2.6949
 1112SOL    HW214970   4.160   0.905  10.003 -0.7202  0.0706 -0.2768
 1113SOL     OW14971   4.156   0.488   6.404 -0.4743  0.1811 -0.8196
 1113SOL    HW114972   4.230   0.458   6.456 -1.5013  1.1335  1.1974
 1113SOL    HW214973   4.167   0.417   6.340 -1.4722 -2.4788  1.9673
 1114SOL     OW14974   2.909   4.719   7.861 -0.2410  0.3391  0.5178
 1114SOL    HW114975   2.891   4.627   7.840  0.1643  0.3657  0.0580
 1114SOL    HW214976   2.981   4.700   7.922  0.2180  0.9617  0.1631
 1115SOL     OW14977   1.715   3.124   5.157  0.1086  0.2350 -0.5334
 1115SOL    HW114978   1.678   3.109   5.244  1.1574 -0.4378 -0.1908
 1115SOL    HW214979   1.706   3.216   5.134 -0.8939 -0.0814 -1.3919
 1116SOL     OW14980   2.751   1.103   1.996  0.3494 -0.6676 -0.5027
 1116SOL    HW114981   2.795   1.149   2.068 -1.3758 -0.9245  0.7193
 1116SOL    HW214982   2.666   1.090   2.039  0.2785  0.6413 -0.2257
 1117SOL     OW14983   3.343   2.283   2.438 -0.5231 -0.0094 -0.2363
 1117SOL    HW114984   3.310   2.218   2.375 -2.3350  0.6859 -0.0093
 1117SOL    HW214985   3.406   2.330   2.383 -0.0413  0.7159  0.9404
 1118SOL     OW14986   4.521   2.082   4.736 -0.6426 -0.0451  0.2272
 1118SOL    HW114987   4.524   2.152   4.802  0.2448 -0.8321  1.0082
 1118SOL    HW214988   4.578   2.016   4.774  1.1708  1.2033 -0.2893
 1119SOL     OW14989   1.473   4.483   9.410 -0.0774 -0.2256 -0.4915
 1119SOL    HW114990   1.415   4.410   9.431  2.2181 -1.6803  0.7711
 1119SOL    HW214991   1.530   4.436   9.350  0.8446  0.9131 -0.4965
 1120SOL     OW14992   3.088   1.644   4.174  0.3840  0.3018 -0.2437
 1120SOL    HW114993   3.019   1.710   4.185  0.2400  0.4024 -1.6749
 1120SOL    HW214994   3.168   1.695   4.178  0.6790 -0.2123  0.4056
 1121SOL     OW14995   2.895   3.223   5.635 -0.0264  0.1022  0.3039
 1121SOL    HW114996   2.864   3.312   5.620  0.4459  0.2183  0.0121
 1121SOL    HW214997   2.815   3.182   5.603 -1.3300  1.4132  1.8436
 1122SOL     OW14998   3.426   2.732  16.837  0.1440 -0.1830  0.1507
 1122SOL    HW114999   3.502   2.749  16.893 -0.0585 -0.9846  0.6773
 1122SOL    HW215000   3.466   2.732  16.750  0.1893 -2.0300  0.1577
 1123SOL     OW15001   1.975   0.076   7.093 -0.1065  0.2170 -0.9186
 1123SOL    HW115002   1.970   4.719   7.089 -2.6182  0.2870  0.4811
 1123SOL    HW215003   1.902   0.102   7.037 -1.5296 -2.1915 -0.2093
 1124SOL     OW15004   1.262   3.479  11.558  0.0186 -0.0822  0.0616
 1124SOL    HW115005   1.252   3.481  11.463  2.9923  0.8053 -0.2387
 1124SOL    HW215006   1.324   3.549  11.580  0.0124 -0.0385 -0.0572
 1125SOL     OW15007   2.468   0.439   8.808 -0.0682  0.0074  0.1718
 1125SOL    HW115008   2.510   0.506   8.754 -0.6641 -1.2504 -1.8952
 1125SOL    HW215009   2.439   0.382   8.737 -0.3371 -0.3443  0.5671
 1126SOL     OW15010   0.522   2.922  13.556  0.6595  0.2080  0.1297
 1126SOL    HW115011   0.602   2.892  13.601 -0.7056 -2.4947  0.7562
 1126SOL    HW215012   0.515   3.009  13.594  0.7528 -0.2456  1.1812
 1127SOL     OW15013   4.020   3.225   4.775 -0.1608  0.2057 -0.3181
 1127SOL    HW115014   4.016   3.132   4.754 -0.4748 -0.2849  1.9252
 1127SOL    HW215015   3.926   3.242   4.786  0.1999  1.9863  0.0927
 1128SOL     OW15016   2.658   0.858   2.334 -0.7690 -0.2613  1.1126
 1128SOL    HW115017   2.678   0.882   2.424 -0.6106  3.1485  0.1673
 1128SOL    HW215018   2.564   0.849   2.344 -1.0306 -0.1326 -1.0611
 1129SOL     OW15019   3.468   1.597  10.480  0.4977 -0.1250  0.5462
 1129SOL    HW115020   3.447   1.632  10.567 -0.1857 -0.1355  0.3805
 1129SOL    HW215021   3.406   1.634  10.417  2.1833  0.6903 -0.6493
 1130SOL     OW15022   0.815   2.512  17.297 -0.6278 -1.1136  0.0597
 1130SOL    HW115023   0.821   2.434  17.352  0.1899  0.6132  2.3971
 1130SOL    HW215024   0.797   2.579  17.363 -1.4536 -0.2550 -1.0346
 1131SOL     OW15025   0.961   3.913   0.796  0.0015  0.8948  0.4443
 1131SOL    HW115026   0.880   3.865   0.776  2.1721 -1.3256 -2.9730
 1131SOL    HW215027   1.026   3.851   0.830  0.1992  1.6264  1.3704
 1132SOL     OW15028   1.279   1.276   2.499  0.1292 -0.1728  0.0347
 1132SOL    HW115029   1.371   1.285   2.521 -0.0872 -1.9536  1.6625
 1132SOL    HW215030   1.288   1.284   2.404 -3.2855 -0.5745 -0.3479
 1133SOL     OW15031   2.899   4.506   8.639 -0.1461  0.1252 -0.3836
 1133SOL    HW115032   2.826   4.466   8.686  2.1502 -0.0822  3.0210
 1133SOL    HW215033   2.860   4.592   8.625 -0.8344 -0.0431  0.4767
 1134SOL     OW15034   2.110   1.880  13.753 -0.4016 -0.9311  1.0329
 1134SOL    HW115035   2.104   1.859  13.846 -0.0996 -0.8021  1.0818
 1134SOL    HW215036   2.096   1.974  13.762 -0.9337 -0.8423 -0.6929
 1135SOL     OW15037   1.054   1.061  14.769  0.6668 -0.0021  0.0651
 1135SOL    HW115038   1.047   1.068  14.674 -1.6299 -0.8060  0.1794
 1135SOL    HW215039   1.093   0.974  14.779  1.9632  0.3278 -2.1606
 1136SOL     OW15040   3.879   0.131  16.552 -0.0735  0.3049  0.5865
 1136SOL    HW115041   3.886   0.176  16.468 -0.2296  0.3788  0.6129
 1136SOL    HW215042   3.798   0.172  16.582  0.7294  1.0620  1.7221
 1137SOL     OW15043   0.042   0.845  15.257 -0.5531  0.0771  0.3069
 1137SOL    HW115044   0.056   0.926  15.209 -2.0736  0.9085  1.2595
 1137SOL    HW215045   0.111   0.790  15.219 -0.2656  1.1332 -0.6909
 1138SOL     OW15046   1.200   3.827   2.507 -0.1813 -0.2366 -0.1813
 1138SOL    HW115047   1.236   3.752   2.554  0.0060  0.4489  0.7493
 1138SOL    HW215048   1.106   3.810   2.515 -0.2012 -0.0889 -0.1037
 1139SOL     OW15049   0.577   3.300   9.531 -0.1277 -0.1993  0.1563
 1139SOL    HW115050   0.504   3.255   9.489  0.0606 -0.5753  0.2258
 1139SOL    HW215051   0.632   3.328   9.458  2.5862 -2.1839  1.4294
 1140SOL     OW15052   3.983   1.147  17.435  0.5905 -0.0352 -0.0577
 1140SOL    HW115053   3.890   1.134  17.419  0.2451 -0.1367  1.9594
 1140SOL    HW215054   3.974   1.206  17.510 -3.9894  0.0136 -0.6991
 1141SOL     OW15055   4.188   0.842   9.683  0.2698  0.7848 -0.6100
 1141SOL    HW115056   4.179   0.903   9.610  0.8114 -0.0914 -1.4103
 1141SOL    HW215057   4.173   0.897   9.760  1.0175  1.4750 -0.9664
 1142SOL     OW15058   2.217   2.323   1.629 -0.5032 -0.0408  0.3740
 1142SOL    HW115059   2.280   2.287   1.692 -0.3809 -2.2461 -1.0075
 1142SOL    HW215060   2.138   2.296   1.675 -0.7700  0.4498  0.2129
 1143SOL     OW15061   0.804   2.488  17.623  0.4781 -0.2942  0.0878
 1143SOL    HW115062   0.896   2.469  17.602  1.1838 -0.8033  3.7389
 1143SOL    HW215063   0.770   2.399  17.626  0.9826 -0.5365 -1.1777
 1144SOL     OW15064   2.353   0.399   2.064 -0.3129  0.2892  0.4740
 1144SOL    HW115065   2.414   0.452   2.115  0.2781  1.2402 -1.2691
 1144SOL    HW215066   2.298   0.355   2.130  1.2946 -2.6887 -0.2031
 1145SOL     OW15067   4.375   4.644   6.752 -0.2293  0.0809 -0.3069
 1145SOL    HW115068   4.377   4.735   6.781  2.7794 -0.5080  1.3592
 1145SOL    HW215069   4.462   4.618   6.781 -0.5917 -0.6388  0.1299
 1146SOL     OW15070   0.281   3.602   5.457  0.6355 -0.1971  0.2647
 1146SOL    HW115071   0.212   3.625   5.395 -0.1964 -3.0583  0.1300
 1146SOL    HW215072   0.340   3.551   5.401  1.2451 -0.0593  0.7857
 1147SOL     OW15073   2.114   0.717   7.766  0.2898  0.3200  0.4831
 1147SOL    HW115074   2.159   0.781   7.711  0.8063 -2.6694 -2.5699
 1147SOL    HW215075   2.028   0.760   7.774  0.4573  0.8824 -0.7279
 1148SOL     OW15076   0.768   0.676   0.097  0.3186  0.3874  0.0832
 1148SOL    HW115077   0.778   0.600   0.155  4.5697 -0.3347 -1.5625
 1148SOL    HW215078   0.759   0.739   0.168  1.4579 -0.2141  0.7733
 1149SOL     OW15079   1.165   4.230   8.398 -0.2742 -0.0735  0.4306
 1149SOL    HW115080   1.085   4.260   8.441 -0.1929  2.5269 -1.1669
 1149SOL    HW215081   1.177   4.303   8.337 -1.1645 -0.7821 -0.5960
 1150SOL     OW15082   0.779   3.186   2.994 -0.0877 -0.1874  0.1067
 1150SOL    HW115083   0.792   3.243   3.070 -1.4839 -0.2203  0.3729
 1150SOL    HW215084   0.778   3.099   3.033 -1.9325 -0.5363 -0.7395
 1151SOL     OW15085   3.700   4.345   5.072 -0.4449  0.1780  0.1072
 1151SOL    HW115086   3.774   4.366   5.130 -0.7401 -0.8583  0.8494
 1151SOL    HW215087   3.710   4.417   5.010  0.3392 -0.7980 -0.8748
 1152SOL     OW15088   0.761   3.429  16.529 -0.0300 -0.0274 -0.4314
 1152SOL    HW115089   0.793   3.467  16.447  3.6635  0.6229  1.2647
 1152SOL    HW215090   0.805   3.344  16.532  0.5073  0.3346  2.0699
 1153SOL     OW15091   4.581   3.585   5.430  0.6085  0.7959  0.4306
 1153SOL    HW115092   4.565   3.492   5.417  0.7995  0.6482  1.2920
 1153SOL    HW215093   4.494   3.618   5.450  0.6588  0.7217  0.7707
 1154SOL     OW15094   1.503   0.064  11.487  0.4599 -0.0007 -0.4682
 1154SOL    HW115095   1.483   4.710  11.493  0.7864 -0.2233 -2.7707
 1154SOL    HW215096   1.596   0.045  11.494  0.3779 -0.1542  0.2212
 1155SOL     OW15097   4.472   0.840   4.132  0.3198  0.0458 -0.0683
 1155SOL    HW115098   4.537   0.846   4.202 -0.7154  0.3062  0.8556
 1155SOL    HW215099   4.407   0.782   4.170  0.0525  0.5093  0.1759
 1156SOL     OW15100   3.611   4.183  11.045  0.3469 -0.3212  0.0734
 1156SOL    HW115101   3.526   4.203  11.005  1.6754  2.1553 -1.5040
 1156SOL    HW215102   3.597   4.092  11.072 -2.9045  0.5267  1.3005
 1157SOL     OW15103   2.823   1.250  16.963  0.1254 -0.2776  0.1049
 1157SOL    HW115104   2.875   1.304  17.023  1.5159 -0.8105 -0.6050
 1157SOL    HW215105   2.897   1.199  16.929  1.9760  2.3400  0.1772
 1158SOL     OW15106   0.174   0.134   7.489  0.3181 -0.3045 -0.0399
 1158SOL    HW115107   0.190   0.221   7.453 -1.5909 -0.0122 -0.1522
 1158SOL    HW215108   0.255   0.091   7.461  0.0008  1.0172 -2.9558
 1159SOL     OW15109   4.164   1.006  16.912  0.0024  0.1406 -0.0873
 1159SOL    HW115110   4.096   0.974  16.972 -0.1868  0.8028  0.0514
 1159SOL    HW215111   4.151   0.956  16.832  0.7231 -0.1659 -0.0127
 1160SOL     OW15112   2.515   4.551  12.929 -0.1732 -0.0775  0.2862
 1160SOL    HW115113   2.483   4.638  12.953  0.0660  0.3260 -0.8794
 1160SOL    HW215114   2.460   4.536  12.853  0.8159 -0.6885 -0.3148
 1161SOL     OW15115   1.597   2.779   2.045  0.4681 -0.2730 -0.4763
 1161SOL    HW115116   1.517   2.816   2.008  2.6074  3.1829 -1.6802
 1161SOL    HW215117   1.619   2.846   2.110 -1.6441 -0.0061 -0.0157
 1162SOL     OW15118   4.584   0.027   5.619 -0.5885 -0.5083 -0.1845
 1162SOL    HW115119   4.626   4.724   5.543 -3.1818  0.4988 -2.1854
 1162SOL    HW215120   4.576   4.694   5.681  0.1605  0.4658  1.0277
 1163SOL     OW15121   4.139   3.714  11.585 -0.0754  0.1549  0.1788
 1163SOL    HW115122   4.070   3.778  11.600  1.6361  1.3231  3.1388
 1163SOL    HW215123   4.186   3.753  11.512 -0.6046  1.5608  0.5945
 1164SOL     OW15124   1.186   1.240  15.477 -0.2472 -0.3410 -0.1419
 1164SOL    HW115125   1.160   1.321  15.434 -1.2731 -1.3976 -1.4967
 1164SOL    HW215126   1.217   1.190  15.402  0.6806 -0.3979  0.2853
 1165SOL     OW15127   0.149   4.445   3.722 -0.2305 -0.0473  0.0153
 1165SOL    HW115128   0.127   4.483   3.637 -0.6529 -0.0781  0.1099
 1165SOL    HW215129   0.154   4.520   3.781  1.0217  1.1317 -1.6090
 1166SOL     OW15130   3.808   2.245   7.534  0.3118  0.3279  0.1513
 1166SOL    HW115131   3.783   2.212   7.448 -0.3668  1.9414 -0.2745
 1166SOL    HW215132   3.758   2.327   7.540  0.9170  0.6970  0.1429
 1167SOL     OW15133   0.916   1.944   0.646  0.1018  0.1523  0.0768
 1167SOL    HW115134   0.902   1.938   0.551 -2.3997 -0.4910  0.4868
 1167SOL    HW215135   0.946   2.035   0.654  5.2380 -1.7610  2.2270
 1168SOL     OW15136   1.759   2.495   5.098 -0.8716  0.1324  0.4255
 1168SOL    HW115137   1.796   2.516   5.184  0.2623 -0.5143  0.0898
 1168SOL    HW215138   1.674   2.460   5.127 -1.1062  1.1614  0.9898
 1169SOL     OW15139   3.062   4.539   1.510  0.2360  0.3962 -0.5330
 1169SOL    HW115140   2.973   4.536   1.544  0.0833 -0.7921 -1.0325
 1169SOL    HW215141   3.081   4.615   1.564 -0.3564 -1.1882  1.9312
 1170SOL     OW15142   0.432   1.234   8.804 -0.6715 -0.2965 -0.2784
 1170SOL    HW115143   0.414   1.146   8.771  1.0644 -0.9788  0.6187
 1170SOL    HW215144   0.478   1.275   8.731 -1.0358  0.3528 -0.1547
 1171SOL     OW15145   1.292   4.174   5.599  0.2302  0.0281  0.8068
 1171SOL    HW115146   1.208   4.148   5.636 -0.4420 -0.4433 -1.0678
 1171SOL    HW215147   1.268   4.238   5.532  0.4935 -0.9852 -0.2538
 1172SOL     OW15148   0.306   2.320   0.100 -0.4027 -0.7577 -0.0644
 1172SOL    HW115149   0.308   2.410   0.067  1.4006 -1.2871 -1.3756
 1172SOL    HW215150   0.398   2.319   0.127 -0.0641  1.8686 -1.0590
 1173SOL     OW15151   3.179   0.661  14.356 -0.0476 -0.4642 -0.2306
 1173SOL    HW115152   3.106   0.649  14.417  0.6547  1.5284  0.9940
 1173SOL    HW215153   3.142   0.617  14.280 -2.8983  1.9426 -0.2802
 1174SOL     OW15154   2.750   2.126   7.182  0.6932 -0.2536  0.1653
 1174SOL    HW115155   2.704   2.205   7.209 -1.3270 -2.0351  2.0042
 1174SOL    HW215156   2.770   2.085   7.266 -0.6196  0.7525  0.9651
 1175SOL     OW15157   3.838   0.959   4.227  0.3057  0.4973 -0.6515
 1175SOL    HW115158   3.831   1.053   4.211  0.0029  0.1713 -2.3944
 1175SOL    HW215159   3.792   0.927   4.150  0.1864  1.1042 -0.8336
 1176SOL     OW15160   3.233   2.795  17.095  0.2609  0.1934 -0.2005
 1176SOL    HW115161   3.140   2.811  17.081  0.3025 -0.8703 -1.7220
 1176SOL    HW215162   3.247   2.701  17.083 -0.6940 -0.1178  1.2109
 1177SOL     OW15163   1.002   3.258   6.337 -0.4392  0.1161  0.4476
 1177SOL    HW115164   0.952   3.241   6.418 -1.3740 -0.9973 -0.3639
 1177SOL    HW215165   0.926   3.278   6.283  0.0239  0.4021 -0.0897
 1178SOL     OW15166   3.293   2.804   6.518 -0.8571 -0.3564 -0.5275
 1178SOL    HW115167   3.350   2.730   6.498  1.5327  1.4715 -0.5293
 1178SOL    HW215168   3.318   2.867   6.450  2.8258 -1.6242 -0.3379
 1179SOL     OW15169   2.645   3.314   7.138  0.1289 -0.3007 -0.3928
 1179SOL    HW115170   2.647   3.229   7.094  1.2609 -0.6464  0.3415
 1179SOL    HW215171   2.566   3.358   7.104  0.6703 -0.2249 -1.5724
 1180SOL     OW15172   3.185   3.490   3.843 -0.4000  0.0249  0.2936
 1180SOL    HW115173   3.142   3.575   3.851 -0.6527 -0.1112  0.3778
 1180SOL    HW215174   3.276   3.511   3.865 -0.9994  1.7485  1.1768
 1181SOL     OW15175   1.698   0.104   5.098  0.0098 -0.5341  0.6584
 1181SOL    HW115176   1.685   0.055   5.178  1.3493  1.9115  2.3735
 1181SOL    HW215177   1.636   0.052   5.047 -0.2139  0.0840  0.3023
 1182SOL     OW15178   2.701   2.199   5.005  0.2439  0.0687  0.0946
 1182SOL    HW115179   2.748   2.204   5.088  2.2045 -0.9153 -0.9418
 1182SOL    HW215180   2.680   2.105   5.006  0.0129  0.1277  0.7322
 1183SOL     OW15181   3.544   0.251   1.396  0.1524 -0.3562 -0.3119
 1183SOL    HW115182   3.514   0.191   1.328 -0.7544 -1.2658  0.8763
 1183SOL    HW215183   3.602   0.305   1.343  1.0507  0.2005  1.2163
 1184SOL     OW15184   4.605   0.950   7.026 -0.4653  0.2262  0.2389
 1184SOL    HW115185   4.600   0.970   7.119 -6.9746  1.3969 -0.3202
 1184SOL    HW215186   4.694   0.916   7.024  0.3854  2.4686  0.3420
 1185SOL     OW15187   3.984   3.618   8.474  0.0697  0.3381 -0.1375
 1185SOL    HW115188   4.057   3.608   8.413  0.6957 -0.7660  0.7906
 1185SOL    HW215189   4.018   3.701   8.508  0.4301  0.0169  0.2801
 1186SOL     OW15190   2.659   1.279   9.892 -0.2372 -0.0144 -0.2851
 1186SOL    HW115191   2.585   1.263   9.951  0.4968  0.5665  0.7884
 1186SOL    HW215192   2.705   1.195   9.883 -3.9190 -1.9211 -1.2565
 1187SOL     OW15193   2.039   0.507   8.085  0.1858  0.4969  0.6426
 1187SOL    HW115194   1.985   0.509   8.005  0.8822  1.8894  0.2089
 1187SOL    HW215195   2.076   0.419   8.073 -0.7063  0.0374  1.2336
 1188SOL     OW15196   1.811   2.303   4.933  0.1884  0.0436  0.0142
 1188SOL    HW115197   1.803   2.372   4.999 -0.6740 -1.3037  1.3389
 1188SOL    HW215198   1.854   2.338   4.855 -2.3257  0.7771 -1.0376
 1189SOL     OW15199   0.951   3.423   9.685  0.1497 -0.1445  0.1680
 1189SOL    HW115200   1.031   3.454   9.727  0.7757  0.6898 -1.6655
 1189SOL    HW215201   0.896   3.440   9.762 -0.8509 -0.0338 -0.5754
 1190SOL     OW15202   2.109   2.107   8.311  0.1562  0.2966 -0.3891
 1190SOL    HW115203   2.160   2.035   8.275 -1.5722 -1.7936  1.3248
 1190SOL    HW215204   2.175   2.170   8.337  1.7094 -1.1424 -0.8512
 1191SOL     OW15205   3.064   3.849  15.681 -0.2809 -0.4588 -0.0979
 1191SOL    HW115206   3.158   3.842  15.663  0.0045 -0.6990  1.4760
 1191SOL    HW215207   3.066   3.812  15.769  0.9963 -0.6795 -0.2206
 1192SOL     OW15208   0.833   0.926  15.216  0.3053 -0.0624  0.0351
 1192SOL    HW115209   0.746   0.886  15.228 -0.1174  0.9959  0.4648
 1192SOL    HW215210   0.870   0.891  15.135  0.7948  2.5904 -0.8853
 1193SOL     OW15211   4.023   1.944   1.559  0.8334 -0.5612 -0.3304
 1193SOL    HW115212   4.075   1.976   1.633 -0.0828 -0.4118  0.2461
 1193SOL    HW215213   4.060   1.998   1.489  0.9468  0.6186  0.6328
 1194SOL     OW15214   1.625   1.493   7.492  0.1682  0.2679  0.2397
 1194SOL    HW115215   1.605   1.568   7.548  0.2481 -0.0859  0.7437
 1194SOL    HW215216   1.622   1.417   7.549 -0.0944  0.1622  0.0854
 1195SOL     OW15217   2.335   2.221   6.719  1.0307  0.0426 -0.1334
 1195SOL    HW115218   2.341   2.129   6.691  0.5494  0.7856 -2.7149
 1195SOL    HW215219   2.427   2.243   6.704  0.3811  3.3577  0.7009
 1196SOL     OW15220   3.211   1.732   8.530  0.1036 -0.1192 -0.6005
 1196SOL    HW115221   3.168   1.776   8.603  0.2669  0.7835 -1.0440
 1196SOL    HW215222   3.297   1.712   8.566 -0.1395  1.4459  0.8595
 1197SOL     OW15223   0.995   3.610   8.291  0.1027 -0.5347  0.2294
 1197SOL    HW115224   1.064   3.668   8.324 -0.4101 -0.2867  0.8718
 1197SOL    HW215225   1.034   3.584   8.208 -0.4651  0.8851 -0.4756
 1198SOL     OW15226   1.020   3.926  11.990  0.6997  0.4226  0.0933
 1198SOL    HW115227   0.995   4.018  11.984  1.8339  0.6460 -1.1441
 1198SOL    HW215228   1.009   3.900  11.898  0.3186 -0.9994  0.5372
 1199SOL     OW15229   3.536   1.338   1.868  0.5346  0.1913  0.6414
 1199SOL    HW115230   3.462   1.288   1.904 -1.2227  2.7073  0.5536
 1199SOL    HW215231   3.602   1.275   1.840  1.5128  1.7287 -0.4673
 1200SOL     OW15232   4.643   1.945   8.482  0.0883  0.0809  0.1303
 1200SOL    HW115233   4.562   1.991   8.506  0.4776  0.5316  0.5865
 1200SOL    HW215234   4.655   1.872   8.542 -1.5644 -1.1052 -0.9674
 1201SOL     OW15235   2.969   1.181  11.095  0.0626  0.6899  0.3794
 1201SOL    HW115236   2.928   1.220  11.018 -0.0392  0.2001  0.1891
 1201SOL    HW215237   3.010   1.257  11.137  1.8603  0.4665 -0.9547
 1202SOL     OW15238   4.345   0.910   4.757  0.5199 -0.3887 -0.2527
 1202SOL    HW115239   4.406   0.974   4.792 -1.1188  0.0344  1.8409
 1202SOL    HW215240   4.393   0.867   4.686  1.6659  1.5626 -0.6305
 1203SOL     OW15241   0.025   0.447   2.661 -0.4429 -0.1944  0.4765
 1203SOL    HW115242   0.117   0.459   2.684 -0.8146  2.0468  0.7653
 1203SOL    HW215243   4.720   0.464   2.744 -0.2593 -1.8750  0.9270
 1204SOL     OW15244   4.199   1.346  14.948  0.0847 -0.1039 -0.2912
 1204SOL    HW115245   4.214   1.416  14.884  0.0452 -0.7930 -1.0688
 1204SOL    HW215246   4.108   1.370  14.967  0.2737 -0.6870  1.2901
 1205SOL     OW15247   4.603   0.565   6.498 -0.2788 -0.6807  0.2582
 1205SOL    HW115248   4.564   0.483   6.471 -1.6538  0.3343 -0.7753
 1205SOL    HW215249   4.694   0.547   6.474 -0.0721  2.0319 -0.9709
 1206SOL     OW15250   0.581   1.223   1.259 -0.6667 -0.0833  0.0303
 1206SOL    HW115251   0.489   1.248   1.244 -0.7585 -0.6984 -0.4112
 1206SOL    HW215252   0.577   1.128   1.255  0.7495 -0.0942 -1.0030
 1207SOL     OW15253   2.580   2.807  16.482  0.6898 -0.4422 -0.0964
 1207SOL    HW115254   2.576   2.900  16.502  0.3397 -0.4467 -0.1537
 1207SOL    HW215255   2.501   2.792  16.432 -0.1203  0.6192  0.8595
 1208SOL     OW15256   2.339   1.864   3.315  0.7930 -0.1009  0.1234
 1208SOL    HW115257   2.389   1.944   3.330  0.1312  0.7591 -2.2335
 1208SOL    HW215258   2.320   1.849   3.408  1.1406  0.6949  0.3257
 1209SOL     OW15259   2.248   2.213   2.449  0.2075  0.3333  0.7073
 1209SOL    HW115260   2.320   2.257   2.402 -1.3775  3.3681  1.1040
 1209SOL    HW215261   2.292   2.171   2.522  1.0731 -1.5098 -0.8654
 1210SOL     OW15262   1.684   1.168  10.478  0.3695  0.0446 -0.6821
 1210SOL    HW115263   1.680   1.105  10.550  0.7763 -1.3822 -1.9076
 1210SOL    HW215264   1.764   1.218  10.494  0.7560 -0.5178 -0.8288
 1211SOL     OW15265   4.651   2.442   4.472 -0.9776 -0.6585  0.3330
 1211SOL    HW115266   4.714   2.450   4.400 -0.8263  3.2189  0.8947
 1211SOL    HW215267   4.698   2.481   4.545  0.0052 -0.7375 -0.2490
 1212SOL     OW15268   0.586   0.306   3.576  0.2874 -0.5343 -0.2461
 1212SOL    HW115269   0.513   0.343   3.627 -0.7523 -1.7425 -0.8527
 1212SOL    HW215270   0.613   0.390   3.539 -1.9440  0.0726 -0.5327
 1213SOL     OW15271   3.246   0.467   5.674  0.6607  0.2659 -0.1460
 1213SOL    HW115272   3.173   0.407   5.684  1.7754 -0.6685  2.5580
 1213SOL    HW215273   3.313   0.431   5.732  0.5261  1.6093  0.8453
 1214SOL     OW15274   2.977   2.044   5.805  0.1953 -0.0663  0.6554
 1214SOL    HW115275   3.042   2.113   5.817 -1.4535  1.4143  1.0400
 1214SOL    HW215276   3.030   1.976   5.763 -0.7200  0.2927 -1.0808
 1215SOL     OW15277   1.810   4.597  13.654 -0.5468  0.0827  0.0835
 1215SOL    HW115278   1.768   4.586  13.568 -0.2222 -1.5334  0.1433
 1215SOL    HW215279   1.803   4.506  13.683 -0.0741  0.2546  0.7212
 1216SOL     OW15280   0.595   2.738  16.884 -0.4205 -0.0655 -0.0767
 1216SOL    HW115281   0.568   2.698  16.802 -0.2104 -1.9376  0.7537
 1216SOL    HW215282   0.514   2.782  16.910  0.1608  1.9010 -1.6118
 1217SOL     OW15283   0.026   1.700   8.935 -0.3688  0.3220 -0.3208
 1217SOL    HW115284   0.036   1.659   9.021 -2.9472  0.2381 -0.0411
 1217SOL    HW215285   0.102   1.672   8.884 -0.3963 -1.2131  0.4781
 1218SOL     OW15286   0.459   2.316  10.847 -0.5203  0.4328  0.4651
 1218SOL    HW115287   0.481   2.285  10.759  0.3447  0.3872  0.6951
 1218SOL    HW215288   0.403   2.241  10.869  2.2501 -1.6585  0.5234
 1219SOL     OW15289   3.166   0.515   3.742 -0.7023  0.6338  0.0052
 1219SOL    HW115290   3.166   0.422   3.719  0.8981 -0.1909  3.3344
 1219SOL    HW215291   3.248   0.543   3.702 -0.3158 -0.1539  0.2314
 1220SOL     OW15292   0.010   2.495   6.910  0.2425  0.0769  0.1010
 1220SOL    HW115293   4.667   2.486   6.957  0.7149 -0.1116  0.9003
 1220SOL    HW215294   0.077   2.530   6.970 -1.2017  1.9253  0.6311
 1221SOL     OW15295   2.650   3.748   6.445 -0.5370  0.6553  0.9966
 1221SOL    HW115296   2.678   3.840   6.444 -2.1913  1.1594  0.9962
 1221SOL    HW215297   2.708   3.703   6.384 -0.6017 -1.4057  2.4758
 1222SOL     OW15298   1.115   1.942   7.014 -0.1403 -0.9768 -0.0049
 1222SOL    HW115299   1.089   1.980   6.930 -1.1441  0.1433  0.8241
 1222SOL    HW215300   1.174   1.873   6.984  0.4655  0.0101 -1.1204
 1223SOL     OW15301   2.324   3.309  15.292 -0.0793  0.6236 -0.4453
 1223SOL    HW115302   2.364   3.358  15.364 -2.7151 -1.5306  2.4827
 1223SOL    HW215303   2.263   3.372  15.254  1.3578  2.5676  0.4324
 1224SOL     OW15304   3.609   3.680   9.485  0.6482 -0.6076  0.5833
 1224SOL    HW115305   3.553   3.684   9.407  0.8595  2.1292  0.5597
 1224SOL    HW215306   3.565   3.616   9.542 -0.7243  0.0616  0.2723
 1225SOL     OW15307   0.404   3.388  13.546  0.2275  0.0019  0.4378
 1225SOL    HW115308   0.400   3.306  13.498  1.4635  0.0320  0.2943
 1225SOL    HW215309   0.313   3.418  13.558 -0.0592 -0.5300 -0.3838
 1226SOL     OW15310   0.545   3.605  10.116  0.4054 -0.1484  0.5129
 1226SOL    HW115311   0.563   3.667  10.046 -0.2745 -1.3078 -0.6756
 1226SOL    HW215312   0.492   3.546  10.063 -0.2637  0.1693  0.8290
 1227SOL     OW15313   3.515   0.600   5.541 -0.0010  0.3373 -0.3133
 1227SOL    HW115314   3.529   0.547   5.620 -2.0944 -0.1919 -0.2928
 1227SOL    HW215315   3.546   0.687   5.565 -1.6111  0.2393  2.1161
 1228SOL     OW15316   2.258   4.734   4.911  0.0047  0.3530  0.2303
 1228SOL    HW115317   2.263   0.085   4.878 -3.0283  0.4208 -0.0342
 1228SOL    HW215318   2.303   4.692   4.838 -1.2610 -0.3617 -0.1373
 1229SOL     OW15319   2.050   3.451   7.092  0.2282 -0.8660  0.2444
 1229SOL    HW115320   1.970   3.475   7.045  1.3495  0.2879 -1.0667
 1229SOL    HW215321   2.086   3.540   7.099 -0.2998 -0.4418 -2.4639
 1230SOL     OW15322   0.354   1.602   1.987  0.1870 -0.6332 -0.1521
 1230SOL    HW115323   0.320   1.690   1.969 -1.8997 -1.5242 -0.5603
 1230SOL    HW215324   0.329   1.598   2.079  0.0098 -1.0584 -0.2207
 1231SOL     OW15325   2.572   0.212  13.655  0.4252  0.3474  0.2358
 1231SOL    HW115326   2.587   0.249  13.567 -0.6999 -0.3308 -0.2299
 1231SOL    HW215327   2.573   0.117  13.658  2.4809  0.3448 -0.5947
 1232SOL     OW15328   1.958   2.692   1.480  0.6061 -0.3595 -0.4838
 1232SOL    HW115329   1.982   2.699   1.572  0.0968  1.3489 -0.4871
 1232SOL    HW215330   1.975   2.598   1.471  1.1583 -0.5787  2.8976
 1233SOL     OW15331   3.285   1.262  16.659  0.0624  0.1942  0.3661
 1233SOL    HW115332   3.345   1.336  16.670 -0.0728 -0.1053  3.0163
 1233SOL    HW215333   3.281   1.261  16.563 -1.3793 -0.3711  0.4256
 1234SOL     OW15334   0.027   3.985  11.772  0.4458  0.3044 -0.4748
 1234SOL    HW115335   4.689   4.014  11.821  0.0536  1.3294 -1.6894
 1234SOL    HW215336   0.010   4.033  11.690 -0.1627  0.9257  0.0146
 1235SOL     OW15337   3.222   4.457   7.752 -0.1204 -0.3865 -0.1516
 1235SOL    HW115338   3.143   4.410   7.779  1.3188 -2.2482  0.8490
 1235SOL    HW215339   3.240   4.429   7.662 -1.9207 -0.3518 -0.5102
 1236SOL     OW15340   4.256   1.244   0.191 -0.2539 -0.1730  0.6381
 1236SOL    HW115341   4.230   1.325   0.147  0.7577 -0.1711  0.0382
 1236SOL    HW215342   4.252   1.275   0.282 -0.9387 -0.5082  0.7188
 1237SOL     OW15343   2.590   3.401  17.478 -0.5512 -0.4139  0.1840
 1237SOL    HW115344   2.590   3.493  17.451 -1.4937  0.2762  2.5437
 1237SOL    HW215345   2.495   3.395  17.473 -0.3538 -1.5639 -2.4621
 1238SOL     OW15346   4.068   3.419   4.081  0.3837  0.7134 -0.0777
 1238SOL    HW115347   3.978   3.435   4.111  0.3979  0.1929  0.2465
 1238SOL    HW215348   4.072   3.480   4.008  0.2945  1.9235  0.9194
 1239SOL     OW15349   4.302   2.371   4.793  0.0717 -0.9689 -0.0262
 1239SOL    HW115350   4.211   2.398   4.794  0.1011 -0.9918  2.3925
 1239SOL    HW215351   4.299   2.288   4.841 -2.5690 -1.3765 -0.9123
 1240SOL     OW15352   3.532   1.910   2.590 -0.1735  0.1894  0.5486
 1240SOL    HW115353   3.559   1.849   2.522 -1.5728 -1.8772  1.8223
 1240SOL    HW215354   3.503   1.862   2.668 -0.1150 -2.3870 -1.0137
 1241SOL     OW15355   0.243   3.859   7.083 -0.4392  0.3860 -0.2930
 1241SOL    HW115356   0.185   3.836   7.010 -0.1819  0.2897 -0.4663
 1241SOL    HW215357   0.233   3.954   7.087 -1.2110  0.3403 -1.0427
 1242SOL     OW15358   4.321   4.670   5.385  0.5294 -0.7389 -0.1633
 1242SOL    HW115359   4.395   4.727   5.364  1.2281 -1.4692  0.3274
 1242SOL    HW215360   4.309   4.680   5.479  0.7838 -1.9874 -0.0053
 1243SOL     OW15361   2.634   4.140   7.261 -0.0475  0.5673 -0.6284
 1243SOL    HW115362   2.674   4.223   7.235  2.2653 -0.0627  0.8994
 1243SOL    HW215363   2.707   4.087   7.293 -0.7310  0.5209  0.8590
 1244SOL     OW15364   4.347   2.191   1.604  0.5517 -0.8891 -0.0349
 1244SOL    HW115365   4.272   2.158   1.654  0.2914  1.7138  1.3435
 1244SOL    HW215366   4.418   2.129   1.616  0.9674 -0.6812 -1.4906
 1245SOL     OW15367   3.698   1.811   1.422 -0.0914  0.2209  0.0009
 1245SOL    HW115368   3.611   1.826   1.458  0.0320  0.2985  0.2686
 1245SOL    HW215369   3.716   1.892   1.373 -1.5356 -0.1991 -1.2487
 1246SOL     OW15370   4.204   1.786   8.760 -0.1694 -0.1072  0.6585
 1246SOL    HW115371   4.272   1.725   8.789  1.8388  1.6882 -0.2477
 1246SOL    HW215372   4.146   1.724   8.715  1.0821  0.7023 -2.0788
 1247SOL     OW15373   4.350   3.259   7.598 -0.4529 -0.0818  0.1559
 1247SOL    HW115374   4.445   3.272   7.590 -0.9912  3.8111  0.1882
 1247SOL    HW215375   4.347   3.201   7.674  2.3027  1.6679  1.6192
 1248SOL     OW15376   3.099   4.002  12.922 -0.3632 -0.0123 -0.2138
 1248SOL    HW115377   3.110   3.990  12.828  0.9003  1.1517 -0.2115
 1248SOL    HW215378   3.005   4.015  12.936 -0.2252  1.3205 -0.5061
 1249SOL     OW15379   0.797   4.649   9.311  0.2823  0.6477 -0.2278
 1249SOL    HW115380   0.774   4.570   9.262  0.7031 -0.0059  0.6087
 1249SOL    HW215381   0.876   4.677   9.267  1.1409  0.8822  1.4549
 1250SOL     OW15382   2.948   1.929   8.200  0.0267 -0.9434 -0.0008
 1250SOL    HW115383   3.036   1.900   8.175  0.4130  0.7888 -0.6739
 1250SOL    HW215384   2.959   1.937   8.295  0.3381 -0.3684 -0.0808
 1251SOL     OW15385   3.588   3.604   4.667  0.0431  0.2083  0.1044
 1251SOL    HW115386   3.570   3.686   4.620  1.1275  0.4220  0.0609
 1251SOL    HW215387   3.664   3.618   4.724 -0.4041  2.6462  0.1251
 1252SOL     OW15388   2.290   1.374   7.652  0.6883 -0.1130 -0.3336
 1252SOL    HW115389   2.195   1.369   7.653  0.7467 -1.5439 -1.2679
 1252SOL    HW215390   2.315   1.418   7.733 -1.6832  1.5128 -0.4824
 1253SOL     OW15391   1.160   1.894   5.209 -0.8147 -0.0104 -0.3198
 1253SOL    HW115392   1.208   1.920   5.288 -0.6853 -1.9082  0.2383
 1253SOL    HW215393   1.157   1.801   5.232  0.3622 -0.4609 -1.9826
 1254SOL     OW15394   2.059   1.880   4.863  0.0497 -0.3261  1.0502
 1254SOL    HW115395   2.047   1.786   4.874  0.1016 -0.6612 -1.7336
 1254SOL    HW215396   1.972   1.921   4.858  0.0480 -0.4552 -0.0624
 1255SOL     OW15397   1.103   2.338  14.857 -0.2200 -0.2291  0.2093
 1255SOL    HW115398   1.084   2.264  14.914  1.6532 -0.0117  1.1221
 1255SOL    HW215399   1.148   2.396  14.919  0.2315 -1.1302  0.7167
 1256SOL     OW15400   1.159   1.159   4.460 -0.0043  0.3035  0.2165
 1256SOL    HW115401   1.140   1.098   4.388 -1.0710  0.2235  0.5566
 1256SOL    HW215402   1.110   1.118   4.532  1.4769  0.9644  1.6024
 1257SOL     OW15403   0.415   3.353   5.750 -0.5019 -0.4954  0.1364
 1257SOL    HW115404   0.444   3.437   5.786 -1.5698 -1.6166  3.6034
 1257SOL    HW215405   0.497   3.306   5.757 -0.7911 -0.7246  1.9704
 1258SOL     OW15406   4.647   3.614   4.516  0.4246 -0.0674  0.5814
 1258SOL    HW115407   4.687   3.551   4.455  0.3296 -1.4908  1.9863
 1258SOL    HW215408   4.557   3.608   4.484  0.1896  0.8969  1.0598
 1259SOL     OW15409   3.117   2.975   3.395  0.0515 -0.1712 -0.6172
 1259SOL    HW115410   3.029   2.975   3.358 -1.4609  0.0159  3.0121
 1259SOL    HW215411   3.143   3.065   3.373 -0.1845  0.3965  1.4110
 1260SOL     OW15412   0.373   1.788  14.517  0.3152 -0.3401 -0.4981
 1260SOL    HW115413   0.389   1.694  14.530 -0.0123 -0.1552  1.2469
 1260SOL    HW215414   0.280   1.793  14.493  0.6546  0.8696 -1.5474
 1261SOL     OW15415   4.505   2.799   8.942  0.5047  0.6213 -0.3330
 1261SOL    HW115416   4.578   2.742   8.922  0.4379 -0.4306  2.4070
 1261SOL    HW215417   4.454   2.756   9.011  0.9981  2.4995  1.1938
 1262SOL     OW15418   1.803   2.388  10.170  0.1155 -0.3632  0.2150
 1262SOL    HW115419   1.788   2.319  10.235 -1.2384  0.0016  0.2868
 1262SOL    HW215420   1.825   2.332  10.095  0.5195 -0.3407  0.3211
 1263SOL     OW15421   1.713   2.695  15.350 -0.0776 -0.4219  0.0311
 1263SOL    HW115422   1.805   2.679  15.327 -0.2778 -1.8111  0.2234
 1263SOL    HW215423   1.675   2.623  15.300 -1.7478 -1.3479  2.6625
 1264SOL     OW15424   3.498   1.593   5.640  0.4102 -0.0896 -0.2782
 1264SOL    HW115425   3.476   1.676   5.598 -0.2003  0.8134  1.7931
 1264SOL    HW215426   3.433   1.588   5.711  1.0066 -0.6402  0.2310
 1265SOL     OW15427   3.145   3.015   4.000 -0.0703 -0.0119  0.0477
 1265SOL    HW115428   3.149   3.110   4.017  0.5352 -0.1549  0.7532
 1265SOL    HW215429   3.051   3.006   3.983 -0.3912  0.0963  1.7534
 1266SOL     OW15430   3.808   1.962   4.539 -0.6695 -0.3014  0.3869
 1266SOL    HW115431   3.807   1.966   4.635  0.1703 -1.3976  0.4413
 1266SOL    HW215432   3.720   1.927   4.521 -0.1685 -1.2426 -0.2326
 1267SOL     OW15433   0.675   2.579   3.192  0.4160 -0.1075 -0.1985
 1267SOL    HW115434   0.673   2.556   3.099 -0.3959 -0.1205 -0.1786
 1267SOL    HW215435   0.757   2.540   3.222  1.0292  0.3744 -1.2369
 1268SOL     OW15436   4.084   1.695   0.117 -0.2280 -0.4173  0.2984
 1268SOL    HW115437   4.091   1.744   0.199  0.4240 -0.3712  0.2142
 1268SOL    HW215438   4.026   1.759   0.076  1.2835  1.0564  0.4712
 1269SOL     OW15439   0.461   3.785  16.395  0.9050  0.2939 -0.3790
 1269SOL    HW115440   0.542   3.835  16.404  0.1011  1.4653  0.2495
 1269SOL    HW215441   0.492   3.694  16.400 -0.2355 -0.0108  0.9946
 1270SOL     OW15442   2.633   1.880   8.842  0.0236  0.2941  0.0381
 1270SOL    HW115443   2.687   1.847   8.914  1.6009 -0.7077 -1.5987
 1270SOL    HW215444   2.553   1.907   8.888  0.7398  1.9278  0.3012
 1271SOL     OW15445   3.660   2.354   5.170  0.5076 -0.2180  0.8237
 1271SOL    HW115446   3.671   2.447   5.153  1.8370 -0.7062 -0.9852
 1271SOL    HW215447   3.567   2.342   5.149  0.4655  1.4236  0.1179
 1272SOL     OW15448   3.041   4.023   2.249  0.5754  0.0687  0.5580
 1272SOL    HW115449   3.065   4.116   2.241 -0.7073  0.3939  0.3859
 1272SOL    HW215450   3.116   3.993   2.299 -0.3556 -0.3066  1.7355
 1273SOL     OW15451   0.248   1.922   1.370  0.3083  0.2968 -0.2716
 1273SOL    HW115452   0.256   2.017   1.361 -2.2433  0.7550  2.1885
 1273SOL    HW215453   0.154   1.920   1.353  0.2689  1.3257 -0.1985
 1274SOL     OW15454   0.525   0.793   6.043 -0.8392 -0.5952 -0.3622
 1274SOL    HW115455   0.520   0.705   6.081 -1.0197  0.0791  1.1930
 1274SOL    HW215456   0.437   0.823   6.022 -0.8450 -0.6831 -0.4629
 1275SOL     OW15457   1.075   2.016   4.870 -0.6066 -0.1993  0.1566
 1275SOL    HW115458   1.079   1.922   4.884 -1.2183 -0.1258  0.8331
 1275SOL    HW215459   1.072   2.055   4.958  0.8608  2.5825 -1.0229
 1276SOL     OW15460   1.728   3.464   9.530 -0.3076 -0.1923  0.5266
 1276SOL    HW115461   1.666   3.504   9.591 -0.5286  2.3993 -1.4104
 1276SOL    HW215462   1.767   3.391   9.578 -0.6196  1.4094  3.2690
 1277SOL     OW15463   2.415   3.642   9.871  0.9128 -0.0038 -0.2889
 1277SOL    HW115464   2.368   3.725   9.869 -3.0831 -2.2410  1.4085
 1277SOL    HW215465   2.502   3.673   9.845  1.5095 -1.6554 -0.2910
 1278SOL     OW15466   3.302   1.863   1.778  0.1374 -0.0406 -0.2824
 1278SOL    HW115467   3.241   1.800   1.816 -0.4927 -0.0972 -1.3884
 1278SOL    HW215468   3.288   1.833   1.688 -0.9669 -0.9952  0.2083
 1279SOL     OW15469   4.473   4.354  13.538  0.2812  0.0995  0.2267
 1279SOL    HW115470   4.482   4.317  13.626 -0.8380  0.2103  0.3838
 1279SOL    HW215471   4.388   4.397  13.546  0.7235  0.5078  2.7373
 1280SOL     OW15472   0.792   2.150   7.109  0.3216  0.1431 -0.4014
 1280SOL    HW115473   0.714   2.203   7.119 -0.5310 -1.0427 -0.8335
 1280SOL    HW215474   0.800   2.155   7.014  0.4287 -0.0134 -0.4007
 1281SOL     OW15475   2.576   4.376  10.119  0.0025 -0.5032  0.4499
 1281SOL    HW115476   2.616   4.389  10.033 -3.5167 -1.2652 -1.3066
 1281SOL    HW215477   2.520   4.453  10.112  0.6842 -0.1110 -0.6873
 1282SOL     OW15478   0.899   2.431   3.079 -0.3128  0.6108  0.3169
 1282SOL    HW115479   0.967   2.402   3.019  0.9539 -0.9416  2.4813
 1282SOL    HW215480   0.824   2.401   3.027  1.1648 -3.3065  0.4073
 1283SOL     OW15481   2.216   2.010   6.567 -0.0883  0.0912 -0.1341
 1283SOL    HW115482   2.131   1.974   6.542 -0.7170  2.3743 -1.2466
 1283SOL    HW215483   2.247   2.046   6.484  0.1845 -2.8122 -1.3034
 1284SOL     OW15484   1.534   1.735   1.700  0.5286  0.2249 -0.1399
 1284SOL    HW115485   1.530   1.830   1.689  0.4031  0.4822  2.0294
 1284SOL    HW215486   1.500   1.716   1.787  0.5964  0.4775 -0.0563
 1285SOL     OW15487   1.200   2.470  17.103  0.0024  0.2700  0.6384
 1285SOL    HW115488   1.246   2.418  17.037  0.4800 -0.3509  1.4610
 1285SOL    HW215489   1.260   2.540  17.126  0.1156 -0.2329  1.8700
 1286SOL     OW15490   4.189   1.261   6.300  0.7204  0.4628  0.0028
 1286SOL    HW115491   4.228   1.331   6.354  1.9329  0.0448 -0.3259
 1286SOL    HW215492   4.143   1.315   6.236  1.4822 -1.2151 -1.9485
 1287SOL     OW15493   4.110   4.192   4.838 -0.0392  0.0880  0.1617
 1287SOL    HW115494   4.148   4.104   4.835 -1.4133 -0.5124  0.4780
 1287SOL    HW215495   4.069   4.184   4.924  1.6159 -2.5493  0.7299
 1288SOL     OW15496   1.527   0.936   9.914 -0.3294 -0.0700 -0.1421
 1288SOL    HW115497   1.488   0.944   9.826  1.5732 -1.5485 -1.1058
 1288SOL    HW215498   1.446   0.929   9.964 -0.2727 -1.6792 -0.2863
 1289SOL     OW15499   1.911   0.419   2.413  0.2415  0.3205 -0.4451
 1289SOL    HW115500   1.928   0.327   2.395  0.7811  0.4719 -0.7093
 1289SOL    HW215501   1.865   0.445   2.333  1.7697  0.1031 -1.3894
 1290SOL     OW15502   2.617   1.425  16.901  0.1948 -0.2819 -0.5646
 1290SOL    HW115503   2.612   1.488  16.974  1.4443 -0.6187 -0.1760
 1290SOL    HW215504   2.689   1.370  16.934 -0.5574 -1.2670 -0.5838
 1291SOL     OW15505   3.797   2.079   9.014 -0.1126  0.4090  0.2280
 1291SOL    HW115506   3.756   2.136   9.079  0.3524 -0.6781  1.4788
 1291SOL    HW215507   3.826   2.001   9.062  1.6853  0.1331 -1.3092
 1292SOL     OW15508   0.254   0.855   6.070 -0.5764 -0.2217  0.7163
 1292SOL    HW115509   0.220   0.943   6.088  1.4010  1.0150 -1.6774
 1292SOL    HW215510   0.164   0.822   6.077 -0.7694 -0.1422 -1.5850
 1293SOL     OW15511   0.388   2.046  11.607  0.0262 -0.2562  0.4991
 1293SOL    HW115512   0.457   1.980  11.610  0.4256  0.1281 -0.1413
 1293SOL    HW215513   0.395   2.077  11.697  1.9488  0.4654  0.0960
 1294SOL     OW15514   3.195   2.097   6.442  0.2286  0.0245  0.2545
 1294SOL    HW115515   3.193   2.017   6.389  1.1217 -0.1978  0.5751
 1294SOL    HW215516   3.228   2.055   6.521 -1.5133 -0.9382  0.4938
 1295SOL     OW15517   4.127   2.284   7.261  0.4249  0.0012  0.2421
 1295SOL    HW115518   4.137   2.370   7.303  0.4238 -0.0845  0.4196
 1295SOL    HW215519   4.031   2.280   7.266  0.3085  0.7713 -1.3279
 1296SOL     OW15520   4.527   0.661   8.825  0.0252  0.0380 -0.2059
 1296SOL    HW115521   4.477   0.626   8.899  2.0996 -0.5206  0.9404
 1296SOL    HW215522   4.583   0.722   8.874  1.2570 -1.0324 -0.2706
 1297SOL     OW15523   2.830   1.016  11.252  0.0187 -0.6223 -0.7214
 1297SOL    HW115524   2.836   0.926  11.218  1.1202  0.0698 -2.3803
 1297SOL    HW215525   2.883   1.069  11.192 -1.6168 -0.0013 -1.6280
 1298SOL     OW15526   0.702   1.485   5.976  0.4647  0.1209 -0.3416
 1298SOL    HW115527   0.661   1.484   5.889  0.6405 -1.7583 -0.4012
 1298SOL    HW215528   0.650   1.421   6.023 -0.9486 -1.2270 -3.7255
 1299SOL     OW15529   2.844   2.166   0.387  0.1944  0.2026  0.7283
 1299SOL    HW115530   2.907   2.120   0.441  0.6597  0.5783  0.5124
 1299SOL    HW215531   2.814   2.096   0.329 -1.1590  0.1619  1.4688
 1300SOL     OW15532   3.010   4.569   2.035 -0.0601  0.0288  0.4164
 1300SOL    HW115533   3.028   4.546   2.126  0.4105  1.5027  0.7085
 1300SOL    HW215534   3.076   4.514   1.992  0.0003 -0.5740  1.2796
 1301SOL     OW15535   1.987   3.792   8.630  0.0765 -0.9654 -0.3399
 1301SOL    HW115536   1.985   3.771   8.723 -1.4799 -1.5677 -0.5029
 1301SOL    HW215537   1.925   3.723   8.606 -0.3751 -1.5692  2.6025
 1302SOL     OW15538   1.516   2.142  16.261 -0.1171  0.1375  0.4097
 1302SOL    HW115539   1.567   2.081  16.315  1.0075  2.7620  2.2974
 1302SOL    HW215540   1.568   2.221  16.250  1.4415 -1.2647 -2.3184
 1303SOL     OW15541   1.864   4.102   3.207 -0.2027 -0.0611 -0.5384
 1303SOL    HW115542   1.864   4.145   3.292 -2.7158 -1.0871 -0.0350
 1303SOL    HW215543   1.857   4.181   3.154  3.9496  1.2392  0.8554
 1304SOL     OW15544   1.619   4.052  17.230  0.7923  0.2504 -0.1685
 1304SOL    HW115545   1.668   3.999  17.294  0.0124 -0.4098 -0.1114
 1304SOL    HW215546   1.695   4.072  17.176  1.7946 -1.9181  0.4106
 1305SOL     OW15547   1.522   2.294   3.008  0.3495  0.3949  0.0486
 1305SOL    HW115548   1.540   2.349   3.084 -0.8225  1.7649 -0.6697
 1305SOL    HW215549   1.509   2.213   3.058 -2.1656 -0.5379 -2.0794
 1306SOL     OW15550   3.971   1.170   5.292  0.6049 -0.3052  0.0601
 1306SOL    HW115551   3.935   1.227   5.360 -0.1721 -1.3917  0.5664
 1306SOL    HW215552   3.898   1.118   5.259  1.9566 -2.0185 -0.2419
 1307SOL     OW15553   2.405   3.516  10.900 -0.3130 -0.5719  0.3276
 1307SOL    HW115554   2.334   3.497  10.961 -0.9312 -0.0388 -0.2357
 1307SOL    HW215555   2.452   3.580  10.954  0.5626 -1.0758  0.1663
 1308SOL     OW15556   2.658   0.580  16.189  0.1316 -0.3060  0.3461
 1308SOL    HW115557   2.734   0.523  16.197 -1.0155 -1.6300  1.7742
 1308SOL    HW215558   2.624   0.585  16.279 -0.8185 -1.9832  0.0576
 1309SOL     OW15559   3.391   4.261  11.922 -0.1447  0.4706 -0.5592
 1309SOL    HW115560   3.351   4.342  11.953 -0.6108 -0.8655  2.3731
 1309SOL    HW215561   3.369   4.270  11.829 -1.9200  2.3913  0.0596
 1310SOL     OW15562   1.984   1.847  17.226 -0.8747 -0.2658 -0.5167
 1310SOL    HW115563   1.906   1.800  17.197 -0.4690 -0.3459 -1.4869
 1310SOL    HW215564   2.010   1.886  17.143  0.3530  3.6062  1.7258
 1311SOL     OW15565   1.648   3.422   5.989  0.1001  0.6589 -0.4233
 1311SOL    HW115566   1.624   3.511   6.014  1.0713  1.1166 -1.1193
 1311SOL    HW215567   1.628   3.385   6.075  1.7316  0.3175 -0.1925
 1312SOL     OW15568   2.039   4.514   6.584  0.5445  0.0810  0.5272
 1312SOL    HW115569   2.070   4.597   6.547 -0.8058  0.7607  0.9186
 1312SOL    HW215570   2.059   4.535   6.675  0.1863  0.2262  0.5728
 1313SOL     OW15571   3.976   0.880  17.419  0.1283 -0.0169  0.6695
 1313SOL    HW115572   4.013   0.967  17.431 -1.0750  0.6805 -0.8404
 1313SOL    HW215573   3.916   0.895  17.347  1.0483 -1.2253 -0.3567
 1314SOL     OW15574   2.894   0.712   9.206  0.0532 -0.1065  0.1399
 1314SOL    HW115575   2.905   0.794   9.158  1.4563 -0.8830 -0.8917
 1314SOL    HW215576   2.890   0.650   9.133  2.7971 -0.2064  0.0944
 1315SOL     OW15577   3.396   2.540   5.101 -0.0083  0.1883  0.5132
 1315SOL    HW115578   3.477   2.572   5.140  0.8848  0.1018 -1.2736
 1315SOL    HW215579   3.329   2.592   5.146  0.7067  1.0196  0.6074
 1316SOL     OW15580   1.319   2.443   4.784 -0.2412  0.1885  0.5163
 1316SOL    HW115581   1.383   2.381   4.819  0.6730 -0.3566 -2.1046
 1316SOL    HW215582   1.238   2.405   4.819 -0.2194 -1.6246 -1.4281
 1317SOL     OW15583   3.778   1.480  14.593 -0.8091 -0.6343  0.6271
 1317SOL    HW115584   3.711   1.538  14.557 -1.2826 -1.5971 -0.0351
 1317SOL    HW215585   3.855   1.522  14.556  0.1410 -2.4805  0.4943
 1318SOL     OW15586   3.601   0.715   5.207 -0.0324 -0.1178 -0.2868
 1318SOL    HW115587   3.573   0.804   5.188  0.8395  0.2618  0.2103
 1318SOL    HW215588   3.592   0.665   5.125  2.5998  0.6508 -1.0553
 1319SOL     OW15589   3.328   4.657   2.064 -0.0718 -0.0002 -0.0923
 1319SOL    HW115590   3.296   4.569   2.043  0.5718 -0.1366 -0.4913
 1319SOL    HW215591   3.403   4.672   2.006 -0.8391  0.8339 -0.8572
 1320SOL     OW15592   2.315   4.069   0.999  0.2440 -1.0026  0.2518
 1320SOL    HW115593   2.261   4.019   0.939  1.4402 -3.4388  1.1878
 1320SOL    HW215594   2.396   4.019   1.011 -0.7670 -3.5050 -3.4370
 1321SOL     OW15595   1.537   2.002   1.618  0.4911 -0.0667  0.2651
 1321SOL    HW115596   1.472   1.992   1.549  1.0030 -3.0531  0.1748
 1321SOL    HW215597   1.499   2.083   1.652 -0.6558 -0.9793  1.1575
 1322SOL     OW15598   1.166   3.635   8.849  0.4746  0.2825  0.1046
 1322SOL    HW115599   1.156   3.559   8.792  0.2010  0.2086  0.2526
 1322SOL    HW215600   1.256   3.662   8.830  0.0797 -0.5149 -2.9073
 1323SOL     OW15601   4.679   2.594   2.150  0.1375 -0.2354  0.0610
 1323SOL    HW115602   4.707   2.677   2.111 -2.3904  1.4118  1.7303
 1323SOL    HW215603   4.587   2.612   2.172  0.3875 -0.4136  1.2554
 1324SOL     OW15604   3.620   0.792   3.828 -0.2698  0.0322 -0.3201
 1324SOL    HW115605   3.662   0.725   3.775 -1.1359 -2.5421  2.2590
 1324SOL    HW215606   3.677   0.801   3.905 -0.2053  1.7168 -0.5527
 1325SOL     OW15607   4.127   1.631  11.200 -0.2956  0.2530  0.2723
 1325SOL    HW115608   4.088   1.574  11.265 -1.2361 -0.0292 -0.5352
 1325SOL    HW215609   4.182   1.567  11.155  1.3473  2.0037 -0.2242
 1326SOL     OW15610   2.495   1.736  16.861  0.3697  0.2460 -0.0188
 1326SOL    HW115611   2.574   1.687  16.838 -0.4610 -0.2455 -1.7931
 1326SOL    HW215612   2.525   1.789  16.935 -0.3366 -2.1739  1.9876
 1327SOL     OW15613   1.444   0.353   8.847  0.0051  0.1715  0.3128
 1327SOL    HW115614   1.520   0.295   8.847  1.3930  1.9619 -2.4455
 1327SOL    HW215615   1.479   0.423   8.792  1.1271  0.8637  1.8930
 1328SOL     OW15616   2.735   3.910   8.413 -0.2016  0.3894  0.0580
 1328SOL    HW115617   2.781   3.831   8.441 -0.5552 -0.2481 -1.1416
 1328SOL    HW215618   2.659   3.905   8.470  0.9796  0.7694  1.6466
 1329SOL     OW15619   0.652   2.198  16.219  0.7546  0.4121 -0.1423
 1329SOL    HW115620   0.624   2.278  16.175  0.8752  0.6223  0.1686
 1329SOL    HW215621   0.738   2.196  16.177  0.6197  2.0050 -0.5015
 1330SOL     OW15622   3.809   2.724   5.413  0.1486 -0.3612 -0.0510
 1330SOL    HW115623   3.713   2.730   5.408  0.1857  1.5106  1.6874
 1330SOL    HW215624   3.832   2.815   5.396  0.1058  0.0329  1.9695
 1331SOL     OW15625   4.156   1.437   4.252  0.2356 -0.0043 -0.1659
 1331SOL    HW115626   4.197   1.356   4.224 -2.4116 -1.3868 -0.0450
 1331SOL    HW215627   4.062   1.422   4.240  0.5496 -0.9742 -1.3849
 1332SOL     OW15628   3.430   4.497   8.400  0.3474  0.2349  0.1202
 1332SOL    HW115629   3.454   4.588   8.417  1.5445  0.1182 -0.9746
 1332SOL    HW215630   3.397   4.467   8.484 -1.8933  2.5371  0.0731
 1333SOL     OW15631   0.627   1.834   2.839 -0.1457 -0.0430 -0.7028
 1333SOL    HW115632   0.587   1.771   2.779 -2.3918  0.2325  0.4736
 1333SOL    HW215633   0.709   1.789   2.856 -0.2452  0.0996  0.1948
 1334SOL     OW15634   0.443   3.533   3.452 -0.7347 -0.3902 -0.1100
 1334SOL    HW115635   0.525   3.571   3.420 -0.2260 -0.6606  0.8823
 1334SOL    HW215636   0.386   3.556   3.378 -0.5567  1.4574  0.3131
 1335SOL     OW15637   3.268   0.167   6.494 -0.6140  0.3081  0.1502
 1335SOL    HW115638   3.210   0.097   6.523 -0.4572  0.7575  1.5303
 1335SOL    HW215639   3.263   0.159   6.398 -1.4022 -2.7682  0.4437
 1336SOL     OW15640   3.877   0.828  16.279  0.0968  0.5695  0.1359
 1336SOL    HW115641   3.784   0.839  16.298  0.2276  1.6618  0.1192
 1336SOL    HW215642   3.923   0.795  16.357 -0.6950 -0.2223  0.2657
 1337SOL     OW15643   2.126   1.286   4.218 -0.1839  0.2673 -0.0852
 1337SOL    HW115644   2.152   1.257   4.306 -1.1266 -0.7637 -0.1438
 1337SOL    HW215645   2.060   1.350   4.245 -1.5529 -1.7726  1.4139
 1338SOL     OW15646   1.896   1.607   8.845  0.0619  0.0604  0.0899
 1338SOL    HW115647   1.982   1.649   8.845 -0.8916  2.0317 -4.2849
 1338SOL    HW215648   1.897   1.538   8.912 -0.0493  1.0907  1.1374
 1339SOL     OW15649   1.210   3.781   7.921 -0.4039 -0.6274  0.0036
 1339SOL    HW115650   1.144   3.717   7.949 -1.7718  1.2352  1.0692
 1339SOL    HW215651   1.162   3.827   7.852 -0.7028 -1.2496 -0.2054
 1340SOL     OW15652   3.765   3.434  16.852  0.3137  0.8257  0.9243
 1340SOL    HW115653   3.694   3.444  16.915  1.6830  0.5742  2.5005
 1340SOL    HW215654   3.840   3.428  16.911  0.8800 -0.9930  0.0173
 1341SOL     OW15655   0.582   0.814   9.004 -0.0188 -0.1150  0.2701
 1341SOL    HW115656   0.562   0.793   8.913 -1.2203 -1.0589  0.7530
 1341SOL    HW215657   0.637   0.739   9.025  0.7746 -0.0353 -1.5416
 1342SOL     OW15658   0.790   2.356   4.419 -0.6405  0.0077 -0.1996
 1342SOL    HW115659   0.735   2.305   4.478 -2.6824  2.5171  0.0397
 1342SOL    HW215660   0.786   2.295   4.345 -0.1138 -1.8830  1.3268
 1343SOL     OW15661   0.104   2.826   2.513 -0.1029 -0.5061 -0.6459
 1343SOL    HW115662   0.119   2.732   2.522 -1.3811 -0.7985 -1.6071
 1343SOL    HW215663   0.054   2.827   2.431 -0.5244  0.3290 -0.3800
 1344SOL     OW15664   3.439   4.255   0.953  0.3431  0.0199  0.5690
 1344SOL    HW115665   3.474   4.295   0.873  0.4777 -1.5881 -0.1854
 1344SOL    HW215666   3.491   4.175   0.951 -1.7959 -1.3187 -0.9487
 1345SOL     OW15667   2.687   1.953   5.347  0.3699  0.1458  0.5551
 1345SOL    HW115668   2.711   1.982   5.435  1.0350 -1.3548  0.8666
 1345SOL    HW215669   2.610   1.900   5.366  2.1699 -2.4250  0.6225
 1346SOL     OW15670   2.801   1.220   4.689 -0.1365  0.1587  0.0107
 1346SOL    HW115671   2.766   1.297   4.734  3.8312  1.2479  1.2996
 1346SOL    HW215672   2.890   1.220   4.725 -0.9343  1.0187  1.9716
 1347SOL     OW15673   0.289   3.601  14.344  0.5478  0.0687  0.2648
 1347SOL    HW115674   0.363   3.643  14.387  1.2145 -2.6000  1.6985
 1347SOL    HW215675   0.300   3.509  14.369 -1.1718  0.9860  4.2960
 1348SOL     OW15676   3.029   3.623  14.262 -0.2255  0.1843  0.1535
 1348SOL    HW115677   2.996   3.542  14.222  0.1740  1.2774 -2.3800
 1348SOL    HW215678   2.983   3.625  14.345 -0.0188  2.0757  0.2119
 1349SOL     OW15679   2.991   1.677   5.779  1.4036 -0.1216 -0.6422
 1349SOL    HW115680   2.954   1.589   5.775 -0.6080  0.6214  1.1737
 1349SOL    HW215681   3.051   1.662   5.853  0.1785 -0.0318  0.3757
 1350SOL     OW15682   4.358   3.080   5.384  0.2747  0.0538  0.0434
 1350SOL    HW115683   4.329   3.124   5.304  1.3316  1.4128  0.4112
 1350SOL    HW215684   4.278   3.050   5.427  0.4393 -0.3566  0.0651
 1351SOL     OW15685   3.301   4.416   7.241  0.0818 -0.2479 -0.0129
 1351SOL    HW115686   3.271   4.329   7.268 -0.9961  0.1945  0.2407
 1351SOL    HW215687   3.360   4.384   7.174  1.1066 -0.0337  0.7894
 1352SOL     OW15688   1.151   3.237   1.254  0.5143 -0.1834  0.3025
 1352SOL    HW115689   1.135   3.152   1.297  0.0424 -1.1539 -1.8308
 1352SOL    HW215690   1.160   3.208   1.164  1.3294  0.4578  0.1774
 1353SOL     OW15691   0.917   3.652   2.810  0.1577  0.1042  0.0680
 1353SOL    HW115692   0.860   3.604   2.871 -0.4193 -0.4397 -0.8964
 1353SOL    HW215693   0.968   3.696   2.878  3.8442 -0.3211 -2.4332
 1354SOL     OW15694   4.347   1.740  17.332  0.7286  0.2730  0.3055
 1354SOL    HW115695   4.283   1.792  17.380 -0.4894  0.6969 -1.7857
 1354SOL    HW215696   4.318   1.651  17.351  0.1634 -0.2001 -2.8885
 1355SOL     OW15697   2.060   4.592   5.564  0.0833 -0.0725  0.1020
 1355SOL    HW115698   2.129   4.539   5.524  0.4429 -0.4729  1.2418
 1355SOL    HW215699   2.094   4.679   5.540 -3.5397  1.3940  0.2944
 1356SOL     OW15700   1.949   3.547   7.909 -0.1515 -0.0680  0.3543
 1356SOL    HW115701   1.886   3.617   7.894  0.3277 -0.1907 -2.3319
 1356SOL    HW215702   1.938   3.494   7.829 -0.8918 -1.4869  1.3974
 1357SOL     OW15703   0.612   0.178   4.421  0.1153 -0.4680  0.1071
 1357SOL    HW115704   0.708   0.177   4.432  0.3026  4.1214 -1.1275
 1357SOL    HW215705   0.597   0.166   4.328 -2.3832 -1.5882  0.6601
 1358SOL     OW15706   3.115   3.238   3.708 -0.1536  0.0073 -0.1489
 1358SOL    HW115707   3.189   3.254   3.649  0.4418  1.4900  1.0024
 1358SOL    HW215708   3.152   3.296   3.775 -1.6114  0.9560 -0.1731
 1359SOL     OW15709   3.166   2.923   5.911  0.1031  0.2723 -0.5581
 1359SOL    HW115710   3.129   2.949   5.996 -1.3847 -2.1225 -0.4561
 1359SOL    HW215711   3.117   2.841   5.899 -1.1059  0.7808  0.8349
 1360SOL     OW15712   1.076   0.372   5.966 -0.5117  0.3794  0.0929
 1360SOL    HW115713   1.009   0.398   5.903  0.6196  0.4193 -1.0733
 1360SOL    HW215714   1.131   0.326   5.903 -0.9226  0.9568 -0.6856
 1361SOL     OW15715   3.861   1.696   7.172 -0.3162  0.1410 -0.2472
 1361SOL    HW115716   3.915   1.772   7.150 -0.5513  0.9268  1.9204
 1361SOL    HW215717   3.883   1.709   7.264  0.7944 -1.3846 -0.3025
 1362SOL     OW15718   4.339   3.886  15.659  0.1296 -0.7367  0.2604
 1362SOL    HW115719   4.278   3.834  15.606  0.1042 -1.9956  1.5379
 1362SOL    HW215720   4.338   3.974  15.622 -0.3993 -1.0311 -0.4342
 1363SOL     OW15721   4.328   2.245  16.008 -1.0498 -0.2188  0.0883
 1363SOL    HW115722   4.421   2.246  15.985 -0.6547 -0.2637  1.6259
 1363SOL    HW215723   4.302   2.177  15.946 -1.7878 -1.1608  1.3992
 1364SOL     OW15724   2.553   4.672   9.354  0.5080  0.3990 -0.1444
 1364SOL    HW115725   2.477   4.724   9.379 -0.8092  0.2010 -3.8014
 1364SOL    HW215726   2.515   4.618   9.285 -0.9108  0.2317  0.7723
 1365SOL     OW15727   1.345   1.160   1.295 -0.0123  0.3570 -0.1974
 1365SOL    HW115728   1.436   1.188   1.291 -0.4220  1.4977 -1.5041
 1365SOL    HW215729   1.300   1.234   1.255  1.2422  0.4733 -1.4153
 1366SOL     OW15730   1.520   2.733  10.134 -0.2007  0.0218 -0.5093
 1366SOL    HW115731   1.528   2.825  10.160 -3.0056 -0.0737  0.6581
 1366SOL    HW215732   1.488   2.750  10.046  0.8233  0.3039 -0.8320
 1367SOL     OW15733   0.624   3.572   4.203 -0.0843 -0.4172  0.2667
 1367SOL    HW115734   0.677   3.606   4.131 -0.3820  1.6030  1.0191
 1367SOL    HW215735   0.541   3.615   4.186  1.0396  0.1654 -3.6100
 1368SOL     OW15736   1.551   3.786   9.441  0.4674  0.2295 -0.5220
 1368SOL    HW115737   1.604   3.729   9.385 -1.3423 -1.8457 -0.1372
 1368SOL    HW215738   1.492   3.833   9.382 -0.9164  1.3143  1.7355
 1369SOL     OW15739   0.887   4.556   7.568 -0.7476 -0.6017  0.0428
 1369SOL    HW115740   0.862   4.648   7.563 -1.4655 -0.5530  4.0682
 1369SOL    HW215741   0.933   4.540   7.486 -1.5062 -3.5304  0.1760
 1370SOL     OW15742   3.569   3.480   6.086  0.3709  0.7074 -0.1076
 1370SOL    HW115743   3.574   3.387   6.108  2.9334  1.1577  1.2589
 1370SOL    HW215744   3.656   3.509   6.116  1.1039 -0.6009 -0.9902
 1371SOL     OW15745   0.451   2.129  13.591 -0.5386 -0.4193 -0.7754
 1371SOL    HW115746   0.423   2.151  13.680  0.2441  1.8175 -1.0794
 1371SOL    HW215747   0.399   2.195  13.546 -2.3863  0.2040  2.2478
 1372SOL     OW15748   4.498   2.325   8.164  0.0934  0.1432 -0.2847
 1372SOL    HW115749   4.540   2.294   8.245 -1.0954 -0.0760  0.2373
 1372SOL    HW215750   4.575   2.351   8.113  0.4214 -1.0586 -0.4145
 1373SOL     OW15751   0.924   0.753   7.390 -0.1198  0.0532  0.2286
 1373SOL    HW115752   0.882   0.798   7.463  0.5523  0.6101  0.2689
 1373SOL    HW215753   0.899   0.667   7.422 -1.5842 -0.1514 -1.4130
 1374SOL     OW15754   2.143   0.245   8.067 -0.3442 -0.4802  0.2031
 1374SOL    HW115755   2.083   0.173   8.046 -0.0155 -0.5114 -0.6377
 1374SOL    HW215756   2.200   0.191   8.122 -0.4349 -1.0291 -0.2333
 1375SOL     OW15757   2.184   2.671   6.527 -0.1227  0.2577 -0.7830
 1375SOL    HW115758   2.119   2.639   6.590  1.8357  1.5221  1.8606
 1375SOL    HW215759   2.208   2.588   6.486 -1.3990 -1.2823  1.5803
 1376SOL     OW15760   2.585   0.436   1.288  0.4406  0.1554 -0.0861
 1376SOL    HW115761   2.619   0.354   1.251  1.2329  2.5421 -4.6197
 1376SOL    HW215762   2.667   0.480   1.312 -0.7275  0.9224  2.5214
 1377SOL     OW15763   0.051   1.739   6.449 -0.5110  0.3579  0.4808
 1377SOL    HW115764   0.015   1.675   6.389 -0.2566  0.7269 -0.0633
 1377SOL    HW215765   0.140   1.709   6.466 -0.4100  1.6527  2.2504
 1378SOL     OW15766   1.398   4.220   8.967 -0.4711  0.1607  0.3308
 1378SOL    HW115767   1.494   4.216   8.970 -0.5444 -2.2854 -0.6997
 1378SOL    HW215768   1.374   4.161   8.895 -0.9117  1.6065 -0.6887
 1379SOL     OW15769   4.551   0.168   1.940 -0.0321 -0.0283 -0.4318
 1379SOL    HW115770   4.561   0.253   1.897  0.3619  0.0951 -0.1014
 1379SOL    HW215771   4.564   0.204   2.028 -1.4394 -3.1134  1.0566
 1380SOL     OW15772   1.555   2.008   7.172 -0.4285  0.0933 -0.1315
 1380SOL    HW115773   1.636   1.987   7.218  0.5118  0.8280 -1.4422
 1380SOL    HW215774   1.549   1.938   7.107  3.1122  0.6206 -1.0213
 1381SOL     OW15775   1.775   2.028   8.150  0.6199 -0.7433 -0.4011
 1381SOL    HW115776   1.832   1.956   8.124 -0.0090 -0.9382 -1.2624
 1381SOL    HW215777   1.700   1.981   8.186  0.6062 -0.0485  0.4791
 1382SOL     OW15778   0.706   0.072   1.478 -0.1710 -0.5733 -0.1437
 1382SOL    HW115779   0.619   0.038   1.494 -1.0258  1.7421  0.1368
 1382SOL    HW215780   0.718   0.132   1.551  1.3000 -0.4431 -0.4836
 1383SOL     OW15781   2.235   4.576   3.402 -0.4295 -0.2654 -0.1967
 1383SOL    HW115782   2.294   4.520   3.352  1.0507  0.8103  0.3476
 1383SOL    HW215783   2.301   4.630   3.446  1.2490 -2.1872 -0.3346
 1384SOL     OW15784   1.660   0.273   9.074  0.1129  0.1369 -0.4888
 1384SOL    HW115785   1.727   0.341   9.068 -1.0388  1.1392 -1.9120
 1384SOL    HW215786   1.671   0.234   8.988 -0.1111 -0.6607 -0.1569
 1385SOL     OW15787   2.122   2.778   0.907  0.4871  0.0320 -0.5726
 1385SOL    HW115788   2.084   2.741   0.987 -1.0522  0.9613 -0.8638
 1385SOL    HW215789   2.097   2.706   0.849 -1.3600  0.7757 -0.7061
 1386SOL     OW15790   4.147   0.705   7.446 -0.1423 -0.0672 -0.5151
 1386SOL    HW115791   4.075   0.724   7.506 -0.0729 -0.6178 -0.2587
 1386SOL    HW215792   4.205   0.650   7.498  0.7922  3.8219  2.5038
 1387SOL     OW15793   2.337   3.362   5.780  0.1731 -0.5175  0.2105
 1387SOL    HW115794   2.338   3.267   5.768  2.1177 -0.9085  3.3735
 1387SOL    HW215795   2.324   3.387   5.689  1.1754 -1.7398 -0.2788
 1388SOL     OW15796   1.287   4.304   7.605  0.2392 -0.4848 -0.3360
 1388SOL    HW115797   1.285   4.367   7.534 -0.3909 -1.3990 -1.1400
 1388SOL    HW215798   1.296   4.358   7.683 -3.5126  0.1806 -0.3684
 1389SOL     OW15799   2.537   1.589  17.395  0.1697 -0.4878 -0.2758
 1389SOL    HW115800   2.474   1.647  17.440 -0.2415 -0.2987 -1.1040
 1389SOL    HW215801   2.507   1.501  17.418  1.9151 -0.8369  0.6627
 1390SOL     OW15802   2.004   2.290   2.553 -0.4285  0.5961  0.0206
 1390SOL    HW115803   2.086   2.256   2.518 -0.4110  0.8633 -0.1897
 1390SOL    HW215804   1.988   2.225   2.622  1.1770 -0.3566 -0.5023
 1391SOL     OW15805   2.744   3.993  13.178  0.4276  0.1572 -0.2051
 1391SOL    HW115806   2.720   4.084  13.158  1.3405  0.4387 -0.0063
 1391SOL    HW215807   2.735   3.993  13.273  1.0209 -0.4877 -0.1542
 1392SOL     OW15808   2.233   3.688   7.363  0.5189  0.3303  0.2962
 1392SOL    HW115809   2.327   3.701   7.364  0.5024  0.4301  0.4677
 1392SOL    HW215810   2.231   3.660   7.271  0.5260  0.2541  0.3198
 1393SOL     OW15811   1.318   0.871   6.448  0.3337 -0.3536  0.4399
 1393SOL    HW115812   1.356   0.784   6.439  3.3678  0.7783  2.4844
 1393SOL    HW215813   1.273   0.882   6.364  0.2690 -3.8703  0.0144
 1394SOL     OW15814   2.248   2.881  10.326 -0.2711 -0.6423  0.2408
 1394SOL    HW115815   2.225   2.974  10.337 -0.7799 -0.5526 -1.6787
 1394SOL    HW215816   2.308   2.886  10.401 -0.4102  0.1185  0.3090
 1395SOL     OW15817   4.562   2.507   2.500 -0.3930  0.3142 -0.6415
 1395SOL    HW115818   4.517   2.451   2.437  0.4566 -1.2475  0.1588
 1395SOL    HW215819   4.494   2.516   2.568 -1.1320 -0.8953 -1.2276
 1396SOL     OW15820   3.889   2.551  15.102 -0.2242  0.1165  0.1792
 1396SOL    HW115821   3.818   2.587  15.155  2.2240 -0.0188  3.5808
 1396SOL    HW215822   3.876   2.609  15.027  2.7223  2.5605  1.5532
 1397SOL     OW15823   3.634   0.988   4.448 -0.0028 -0.3163  0.1119
 1397SOL    HW115824   3.553   1.032   4.423 -0.2094  0.2304  1.7589
 1397SOL    HW215825   3.649   0.941   4.366 -3.4447 -1.6349  0.2289
 1398SOL     OW15826   4.503   4.088   0.829 -0.2388 -0.2346 -0.2152
 1398SOL    HW115827   4.471   4.014   0.779  1.1095 -0.7951 -0.2528
 1398SOL    HW215828   4.572   4.045   0.879 -0.4402 -1.9869 -1.4631
 1399SOL     OW15829   0.528   0.364   5.568  0.1967  0.0666  0.1423
 1399SOL    HW115830   0.466   0.320   5.626  0.7087 -0.8325  0.0110
 1399SOL    HW215831   0.516   0.292   5.505  2.6749  1.6997 -2.2190
 1400SOL     OW15832   4.685   1.038   5.878  0.2478 -0.1111  0.2926
 1400SOL    HW115833   4.637   1.104   5.927 -0.1219 -1.5227  1.8389
 1400SOL    HW215834   4.734   0.983   5.940 -1.6578 -1.1777  0.8473
 1401SOL     OW15835   1.363   3.414   4.103  1.1764 -0.4526  0.0152
 1401SOL    HW115836   1.308   3.367   4.166 -0.7972  1.2766 -0.4287
 1401SOL    HW215837   1.450   3.396   4.139  1.3153  0.0821 -0.0629
 1402SOL     OW15838   2.504   4.034  11.648 -0.6261  0.0387  0.0886
 1402SOL    HW115839   2.550   4.002  11.726 -0.7439 -2.0214 -0.6913
 1402SOL    HW215840   2.421   3.991  11.669 -0.2726  0.0030  1.4531
 1403SOL     OW15841   0.666   2.335   3.813 -0.4087  0.2702 -0.7319
 1403SOL    HW115842   0.600   2.349   3.745  0.4843 -1.3292 -1.9516
 1403SOL    HW215843   0.687   2.244   3.790  2.5912  0.7250  0.2134
 1404SOL     OW15844   2.987   2.082   9.069  0.2389  0.2594 -0.4271
 1404SOL    HW115845   3.033   2.165   9.057  0.7136  0.2360  1.2027
 1404SOL    HW215846   2.974   2.058   8.977 -0.3390  0.3609 -0.3717
 1405SOL     OW15847   2.682   4.688   8.694  0.1302  0.0681 -0.0459
 1405SOL    HW115848   2.628   4.692   8.773  1.7805  1.6081  1.0087
 1405SOL    HW215849   2.706   0.041   8.686  0.2383 -0.1506 -2.2765
 1406SOL     OW15850   1.863   2.494   7.051  0.4048  0.0630 -0.2144
 1406SOL    HW115851   1.939   2.513   6.996 -0.6001  1.6571 -1.0514
 1406SOL    HW215852   1.830   2.581   7.071 -0.9339 -0.5399  0.2518
 1407SOL     OW15853   1.495   0.171  12.326 -0.2603 -0.0158 -0.4156
 1407SOL    HW115854   1.519   0.191  12.417 -1.5206 -1.0501  0.1576
 1407SOL    HW215855   1.456   0.254  12.300  0.2584  0.5675  0.6520
 1408SOL     OW15856   4.041   4.678  13.697  0.1811 -0.2016 -0.0809
 1408SOL    HW115857   4.059   0.003  13.766  0.9324  0.2525 -0.6943
 1408SOL    HW215858   3.947   4.668  13.707  0.2373  0.3528  1.0070
 1409SOL     OW15859   2.402   4.252   2.631 -0.1134  0.2333  0.3054
 1409SOL    HW115860   2.417   4.157   2.640  1.3082  0.5487  1.2761
 1409SOL    HW215861   2.335   4.267   2.697 -0.7851 -1.9903  0.1348
 1410SOL     OW15862   1.412   2.439   0.042  0.1532  0.0022  0.2359
 1410SOL    HW115863   1.382   2.351   0.019 -1.2913 -0.2724  3.1217
 1410SOL    HW215864   1.373   2.501  17.735 -2.7705  0.0630  2.0960
 1411SOL     OW15865   0.784   2.910  12.470  0.0876 -0.2385  0.0570
 1411SOL    HW115866   0.805   2.873  12.384  0.8776  0.4897 -0.0549
 1411SOL    HW215867   0.872   2.914  12.507  0.0631 -0.7879  0.1784
 1412SOL     OW15868   1.156   0.251   9.229 -0.0177  0.0980  0.0615
 1412SOL    HW115869   1.132   0.343   9.219 -2.0913 -0.4137  0.3498
 1412SOL    HW215870   1.248   0.252   9.256 -0.0888 -1.5588  0.3910
 1413SOL     OW15871   1.355   2.074   1.432 -0.0705  0.1823  0.4351
 1413SOL    HW115872   1.303   1.998   1.409  0.5333  0.0254 -0.4232
 1413SOL    HW215873   1.395   2.086   1.346 -0.4122 -0.4432  0.1947
 1414SOL     OW15874   4.175   0.028  14.528  0.2104  0.2753 -0.5460
 1414SOL    HW115875   4.110   4.697  14.523  3.0105 -2.2611 -1.1796
 1414SOL    HW215876   4.258   4.719  14.526 -0.0800 -0.3383  2.3158
 1415SOL     OW15877   3.861   0.384  10.628  0.5768 -0.2955  0.3839
 1415SOL    HW115878   3.847   0.437  10.549 -1.9672 -0.4980  0.7024
 1415SOL    HW215879   3.888   0.296  10.603  0.8705  0.7363 -2.9153
 1416SOL     OW15880   4.339   0.619  12.275  0.3981  0.5002  0.7391
 1416SOL    HW115881   4.339   0.539  12.328 -0.4213  1.2534  1.8818
 1416SOL    HW215882   4.421   0.656  12.307  0.1536  1.5945  0.0751
 1417SOL     OW15883   1.094   3.684  16.335 -0.0079  1.0707  0.4696
 1417SOL    HW115884   1.009   3.682  16.379 -0.2551 -3.3868 -0.2127
 1417SOL    HW215885   1.078   3.694  16.241 -4.2165 -0.4872  1.0113
 1418SOL     OW15886   1.631   4.329  15.818 -0.5609  0.0911  0.1310
 1418SOL    HW115887   1.582   4.408  15.797 -0.6656 -0.5273 -1.9897
 1418SOL    HW215888   1.560   4.271  15.846  0.5255 -0.0518  2.6508
 1419SOL     OW15889   1.499   1.550   7.021  0.3028 -0.8559  0.3478
 1419SOL    HW115890   1.507   1.496   7.100  1.3581 -1.0600  0.1129
 1419SOL    HW215891   1.416   1.593   7.039  0.5381  0.5521 -1.8460
 1420SOL     OW15892   3.036   0.484   7.688 -0.4058  0.1470 -0.0574
 1420SOL    HW115893   2.946   0.499   7.716 -0.5099 -0.7362  0.0738
 1420SOL    HW215894   3.034   0.506   7.594 -1.5628 -0.3041 -0.1405
 1421SOL     OW15895   1.567   1.549  11.393  0.5472 -0.4539 -0.4679
 1421SOL    HW115896   1.569   1.624  11.452 -0.1863 -0.5605 -0.3113
 1421SOL    HW215897   1.497   1.587  11.340 -0.1082 -0.6016  0.3096
 1422SOL     OW15898   1.754   1.822  11.821 -0.3546  0.4287  0.0481
 1422SOL    HW115899   1.822   1.782  11.768  2.7547  0.8402  3.7446
 1422SOL    HW215900   1.764   1.910  11.784 -0.9459  1.7031  2.8847
 1423SOL     OW15901   3.856   0.829   3.973  0.4443  0.1555 -0.0211
 1423SOL    HW115902   3.931   0.886   3.984  0.8320  0.0490 -2.0628
 1423SOL    HW215903   3.891   0.741   3.957 -0.0725 -0.1994  0.7885
 1424SOL     OW15904   0.575   3.204  13.670 -0.1293  0.2031 -0.4275
 1424SOL    HW115905   0.650   3.240  13.622  0.5834 -0.2489  0.3499
 1424SOL    HW215906   0.512   3.276  13.668 -0.9179 -0.5066 -1.2129
 1425SOL     OW15907   2.774   1.861  11.119  0.2384  0.4146 -0.6549
 1425SOL    HW115908   2.844   1.817  11.069 -0.5905  0.8157 -2.1668
 1425SOL    HW215909   2.761   1.928  11.052 -0.2547  2.0274  1.0589
 1426SOL     OW15910   1.741   0.820   3.734  0.2522 -0.0211  0.2505
 1426SOL    HW115911   1.794   0.755   3.780 -0.4785  0.7929  2.2544
 1426SOL    HW215912   1.709   0.875   3.805  0.6755  1.2519 -0.5418
 1427SOL     OW15913   4.676   0.669   7.737  0.1785  0.0135 -0.4086
 1427SOL    HW115914   0.004   0.729   7.768  1.0733 -1.3274  0.2677
 1427SOL    HW215915   4.694   0.588   7.785  2.0810  0.9725  0.4775
 1428SOL     OW15916   2.570   3.766   2.094 -0.0404  0.0140 -0.3066
 1428SOL    HW115917   2.581   3.679   2.133  0.6238  0.0209 -0.4858
 1428SOL    HW215918   2.476   3.759   2.077 -0.6205 -0.1389  2.9304
 1429SOL     OW15919   1.243   1.168   2.174  0.5279 -0.2394 -0.5061
 1429SOL    HW115920   1.253   1.264   2.173  2.0902 -0.3714  1.7041
 1429SOL    HW215921   1.166   1.155   2.119  1.3775  1.8490 -2.1731
 1430SOL     OW15922   3.969   4.144   8.706  0.1324  0.1054 -0.2771
 1430SOL    HW115923   3.976   4.152   8.801  1.1689 -2.0954 -0.1705
 1430SOL    HW215924   4.056   4.170   8.677 -0.6948  1.1735 -1.7897
 1431SOL     OW15925   3.127   2.160  12.228 -0.0990 -0.1139 -0.9222
 1431SOL    HW115926   3.170   2.082  12.264 -0.2226 -0.0542 -0.6403
 1431SOL    HW215927   3.091   2.196  12.309  0.6752  1.5826 -1.3489
 1432SOL     OW15928   1.907   1.441   6.826  0.0324  0.3815 -0.5656
 1432SOL    HW115929   1.817   1.467   6.845  0.0495  1.4459 -1.9523
 1432SOL    HW215930   1.890   1.358   6.782 -0.1249  0.5127 -0.7500
 1433SOL     OW15931   1.864   3.172   6.199  0.3051 -0.0415 -0.2797
 1433SOL    HW115932   1.909   3.097   6.162 -0.9338 -0.3136 -1.2416
 1433SOL    HW215933   1.794   3.116   6.234 -1.7549  2.1209 -0.9000
 1434SOL     OW15934   1.414   2.211   5.202  0.2732 -0.3421 -0.2825
 1434SOL    HW115935   1.383   2.216   5.293 -2.2238 -0.6669 -1.1194
 1434SOL    HW215936   1.438   2.303   5.186  1.2153 -0.2774  1.5121
 1435SOL     OW15937   4.676   3.305  12.234 -0.6338 -0.4738  0.6290
 1435SOL    HW115938   4.670   3.257  12.151 -0.9943 -0.1787  0.4835
 1435SOL    HW215939   4.618   3.255  12.292 -0.3218 -2.4128 -0.7226
 1436SOL     OW15940   3.978   1.935   0.477  0.2497 -0.4797  0.2148
 1436SOL    HW115941   3.974   1.854   0.528  0.9863 -0.6197  0.0568
 1436SOL    HW215942   3.907   1.921   0.414 -0.6997  0.2811  1.1063
 1437SOL     OW15943   4.262   4.601  12.880 -0.5961  0.3925  0.4264
 1437SOL    HW115944   4.308   4.517  12.882  1.0398  1.2945  0.3007
 1437SOL    HW215945   4.250   4.616  12.974  2.3177  1.1863  0.6630
 1438SOL     OW15946   4.374   0.571   6.985  0.2295 -0.2899  0.1858
 1438SOL    HW115947   4.343   0.648   7.032  1.4500  0.0172  0.5042
 1438SOL    HW215948   4.332   0.592   6.902  0.1552 -1.2943 -0.0287
 1439SOL     OW15949   0.751   3.690   4.789  0.0723 -0.0810 -0.2554
 1439SOL    HW115950   0.675   3.748   4.791 -0.4770 -0.8168 -0.2568
 1439SOL    HW215951   0.733   3.650   4.873 -0.5464  0.6534 -0.0377
 1440SOL     OW15952   2.588   2.786   2.482  0.0082 -0.1130 -0.2419
 1440SOL    HW115953   2.666   2.805   2.429 -1.4390  2.8527 -1.3052
 1440SOL    HW215954   2.634   2.717   2.529  2.0486  0.6579 -1.1082
 1441SOL     OW15955   4.293   0.709   7.206  0.3832  0.0158 -0.2489
 1441SOL    HW115956   4.305   0.616   7.227  1.2844  0.0037 -0.7850
 1441SOL    HW215957   4.251   0.738   7.287 -0.5199  1.1937 -1.1309
 1442SOL     OW15958   3.735   3.476  11.431  0.2370 -0.4584  0.4967
 1442SOL    HW115959   3.760   3.504  11.519  0.6249 -1.4686  0.7028
 1442SOL    HW215960   3.779   3.552  11.392 -1.0525  0.1829  0.2862
 1443SOL     OW15961   2.289   3.269   3.236  0.7332 -0.3942  0.5196
 1443SOL    HW115962   2.308   3.360   3.258  1.5275 -0.8212  1.5984
 1443SOL    HW215963   2.282   3.281   3.141 -0.7699  0.1257  0.6841
 1444SOL     OW15964   3.298   1.770  17.375 -0.1427 -0.2672 -0.8842
 1444SOL    HW115965   3.244   1.714  17.432  0.1831 -1.2476 -1.5434
 1444SOL    HW215966   3.382   1.752  17.416  0.3404 -0.6051 -2.0403
 1445SOL     OW15967   4.465   3.614   7.970 -0.1329  0.4151  0.3341
 1445SOL    HW115968   4.370   3.614   7.965 -0.2787 -0.1322  3.4262
 1445SOL    HW215969   4.478   3.571   7.886  0.3322 -1.0885  1.1835
 1446SOL     OW15970   4.354   3.480  10.137  0.1799 -0.3126  0.5163
 1446SOL    HW115971   4.358   3.449  10.227 -1.1032 -1.4828  0.1777
 1446SOL    HW215972   4.390   3.566  10.158  0.7617 -0.7359  1.2426
 1447SOL     OW15973   3.040   0.887  12.162  0.0765  0.2507  0.3046
 1447SOL    HW115974   2.956   0.866  12.202  0.0796 -0.7300 -0.1934
 1447SOL    HW215975   3.085   0.805  12.181 -1.5170 -1.0277 -1.4493
 1448SOL     OW15976   3.612   3.378   8.675  0.6218 -0.0457 -0.4886
 1448SOL    HW115977   3.664   3.441   8.726  0.7607  0.5333 -1.3474
 1448SOL    HW215978   3.653   3.387   8.589 -1.6836  0.5823 -1.5061
 1449SOL     OW15979   2.421   2.737   7.089 -0.1621  0.0016 -0.4150
 1449SOL    HW115980   2.433   2.653   7.045  0.7499 -0.3857  0.5606
 1449SOL    HW215981   2.342   2.766   7.043  0.2817  0.2670 -1.0120
 1450SOL     OW15982   3.364   4.515   9.853  0.5869 -0.2697 -0.0316
 1450SOL    HW115983   3.327   4.590   9.807 -2.7812 -2.0911 -0.2745
 1450SOL    HW215984   3.424   4.554   9.916  0.8056  1.1038 -1.1144
 1451SOL     OW15985   4.473   1.756   7.087  0.8345  0.0050 -0.3377
 1451SOL    HW115986   4.425   1.824   7.039 -1.4386  0.6297  2.7888
 1451SOL    HW215987   4.476   1.693   7.015  0.9533 -0.6565  0.2483
 1452SOL     OW15988   4.583   4.565   9.379 -0.2081 -0.5069  0.1870
 1452SOL    HW115989   4.611   4.653   9.354 -0.9781 -0.6710 -1.2551
 1452SOL    HW215990   4.526   4.546   9.304 -0.5400  1.2880 -0.0272
 1453SOL     OW15991   4.549   1.829   3.566  0.0752 -0.3028  0.3099
 1453SOL    HW115992   4.633   1.865   3.537  0.6305  0.1818  2.5502
 1453SOL    HW215993   4.575   1.738   3.580  1.3325  0.3648  2.3481
 1454SOL     OW15994   4.652   1.805  10.389 -0.2870  0.0954 -0.2389
 1454SOL    HW115995   4.659   1.761  10.305  0.5604  0.5434 -0.4103
 1454SOL    HW215996   4.690   1.733  10.440  2.0851  1.7713  0.3878
 1455SOL     OW15997   3.209   0.617  12.242  0.7723  0.8181  0.0177
 1455SOL    HW115998   3.223   0.589  12.333 -0.3277 -2.0000 -0.6808
 1455SOL    HW215999   3.289   0.669  12.241  0.1443  1.8566  2.9221
 1456SOL     OW16000   1.933   1.475   9.084  0.3259  0.0658 -0.3944
 1456SOL    HW116001   1.912   1.489   9.176 -3.6239 -3.4461 -0.7439
 1456SOL    HW216002   1.942   1.380   9.090  3.3647  0.1487 -3.5480
 1457SOL     OW16003   1.545   4.044   6.634 -0.5463  0.0305 -0.2502
 1457SOL    HW116004   1.500   4.030   6.717 -3.3767  0.3733 -1.7214
 1457SOL    HW216005   1.502   3.978   6.579 -0.9595 -1.2578  1.6273
 1458SOL     OW16006   0.421   2.092   3.212  0.1385 -0.2857  0.0612
 1458SOL    HW116007   0.372   2.158   3.162 -2.3498 -0.0354  2.8261
 1458SOL    HW216008   0.478   2.059   3.143 -0.9255 -0.7252 -0.6068
 1459SOL     OW16009   3.821   0.914   2.101 -0.5456 -0.0543  0.7707
 1459SOL    HW116010   3.818   0.844   2.166  0.5776 -0.8844 -0.0673
 1459SOL    HW216011   3.823   0.863   2.019 -1.5765 -1.3784  1.5746
 1460SOL     OW16012   3.498   1.034   9.138 -0.5955  0.3072 -0.0160
 1460SOL    HW116013   3.408   1.057   9.164  0.3539  5.9949 -1.7825
 1460SOL    HW216014   3.518   0.961   9.197  0.6530 -0.5327 -1.4907
 1461SOL     OW16015   2.230   1.257   6.204 -0.0607  0.5052 -0.0275
 1461SOL    HW116016   2.228   1.290   6.294 -0.9768  0.9673 -0.2131
 1461SOL    HW216017   2.187   1.172   6.215  0.1371  0.2310 -1.4209
 1462SOL     OW16018   1.100   1.086  13.595 -0.0030 -0.2049  0.2302
 1462SOL    HW116019   1.179   1.112  13.547 -0.9213  0.7928 -0.7608
 1462SOL    HW216020   1.041   1.146  13.550  0.0044  0.4416  1.0808
 1463SOL     OW16021   1.429   2.614   3.277  0.0117 -0.0833  0.4570
 1463SOL    HW116022   1.435   2.633   3.371  1.6815 -2.7936  0.8735
 1463SOL    HW216023   1.337   2.639   3.265  0.4160  0.3839 -1.6220
 1464SOL     OW16024   3.243   3.694  10.331 -0.6358 -0.4396  0.2221
 1464SOL    HW116025   3.290   3.719  10.251 -3.6299  3.1951 -0.4370
 1464SOL    HW216026   3.271   3.605  10.351  1.5721 -0.3357 -2.3883
 1465SOL     OW16027   0.140   3.708   2.507  0.3088 -0.3463  0.0540
 1465SOL    HW116028   0.116   3.703   2.415 -1.4259 -1.3039  0.5558
 1465SOL    HW216029   0.152   3.615   2.527  0.3530 -0.4046 -0.2435
 1466SOL     OW16030   1.094   0.739   9.935  0.3097 -0.4366 -0.2971
 1466SOL    HW116031   1.121   0.650   9.910  1.5747  0.2371 -1.2934
 1466SOL    HW216032   1.000   0.721   9.940  0.5228 -1.9529 -1.6655
 1467SOL     OW16033   0.391   2.509   7.937 -0.2876 -0.4034  0.1213
 1467SOL    HW116034   0.314   2.559   7.911  1.1820  0.1293 -3.1773
 1467SOL    HW216035   0.354   2.422   7.951 -3.6118  1.0861  0.5914
 1468SOL     OW16036   3.765   0.395   3.937 -0.0315 -0.2468 -0.0365
 1468SOL    HW116037   3.688   0.447   3.913  1.6993  1.5692 -1.6759
 1468SOL    HW216038   3.746   0.313   3.892  1.4412  0.2962 -1.6908
 1469SOL     OW16039   2.185   2.924   6.721  0.5336 -0.3355 -0.0673
 1469SOL    HW116040   2.204   2.855   6.657 -0.1104 -0.9832  0.4390
 1469SOL    HW216041   2.109   2.965   6.678 -0.4865  0.3106  2.3827
 1470SOL     OW16042   1.314   1.507  12.536  0.0254  0.4761  0.2096
 1470SOL    HW116043   1.346   1.514  12.626  1.6055 -0.2267 -0.3087
 1470SOL    HW216044   1.372   1.439  12.503 -0.7259  1.1195 -2.4510
 1471SOL     OW16045   3.913   2.978  10.551  0.2970  0.2393  0.3030
 1471SOL    HW116046   3.932   2.991  10.458 -0.3908  4.4089  0.7478
 1471SOL    HW216047   3.999   2.948  10.581 -0.5770 -0.8666  1.6969
 1472SOL     OW16048   2.461   3.245   8.557  0.5356 -0.0646 -0.3574
 1472SOL    HW116049   2.500   3.202   8.481 -0.7784 -2.5020  0.3491
 1472SOL    HW216050   2.485   3.335   8.532 -1.4171 -0.1212 -2.3933
 1473SOL     OW16051   0.270   3.469   9.756  0.3011 -0.3210 -0.0064
 1473SOL    HW116052   0.357   3.484   9.717  0.4592 -0.7034  0.2027
 1473SOL    HW216053   0.243   3.555   9.789 -0.9890 -0.6960 -0.0992
 1474SOL     OW16054   4.609   2.892   2.334  0.5264  0.6300 -0.2987
 1474SOL    HW116055   4.562   2.841   2.268  1.4234 -2.3011  1.3326
 1474SOL    HW216056   4.562   2.860   2.411 -0.2609  1.5401 -0.3983
 1475SOL     OW16057   2.102   3.702   1.901 -0.0820 -0.0501 -0.1038
 1475SOL    HW116058   2.065   3.647   1.833 -0.1835 -2.3188  1.7665
 1475SOL    HW216059   2.027   3.703   1.961 -0.1870  0.0353 -0.2402
 1476SOL     OW16060   1.498   3.387  17.540  0.2877  0.0662  0.0909
 1476SOL    HW116061   1.414   3.388  17.493  0.7665  0.9304 -0.7323
 1476SOL    HW216062   1.493   3.305  17.590 -0.0478  0.1968  0.2733
 1477SOL     OW16063   4.437   1.669  12.858 -0.4086  0.3829 -0.0971
 1477SOL    HW116064   4.358   1.704  12.900 -1.2120  0.6223 -1.7928
 1477SOL    HW216065   4.392   1.630  12.783  0.4282  1.4361 -1.1429
 1478SOL     OW16066   0.134   4.372  14.358 -0.4177  0.7832 -0.2671
 1478SOL    HW116067   0.135   4.286  14.315  0.0560  0.0834  1.1463
 1478SOL    HW216068   0.189   4.411  14.290  0.0714 -1.1792 -1.0166
 1479SOL     OW16069   3.968   1.891  14.855  0.6194  0.6542 -0.3423
 1479SOL    HW116070   3.917   1.971  14.862 -0.0395  0.3496 -1.7804
 1479SOL    HW216071   4.057   1.922  14.842  0.8996  0.2185  0.5163
 1480SOL     OW16072   3.223   0.521   9.817  0.4583 -0.3386  0.4433
 1480SOL    HW116073   3.295   0.463   9.841  0.2255 -0.6967  0.2687
 1480SOL    HW216074   3.236   0.591   9.881  1.1952 -0.4052  0.3636
 1481SOL     OW16075   1.905   1.816  11.578 -0.1771  0.2467 -0.6788
 1481SOL    HW116076   1.995   1.833  11.605  0.4808 -2.9172 -0.8387
 1481SOL    HW216077   1.905   1.793  11.485 -0.4153  2.5266 -1.2392
 1482SOL     OW16078   4.006   1.460   2.256  0.3770  0.4179  0.3703
 1482SOL    HW116079   4.035   1.397   2.323 -0.2994 -0.4994 -0.1952
 1482SOL    HW216080   3.953   1.414   2.192  1.2728 -1.4653  0.9664
 1483SOL     OW16081   2.245   0.486   3.566 -0.2941  0.3690  0.1853
 1483SOL    HW116082   2.294   0.441   3.635  0.7663  4.4763  2.1380
 1483SOL    HW216083   2.249   0.425   3.493 -1.5575  1.3087 -0.6623
 1484SOL     OW16084   3.019   3.591   2.989 -0.1141 -0.0652  1.2242
 1484SOL    HW116085   3.053   3.665   3.039  1.3996  0.5698 -0.8021
 1484SOL    HW216086   3.097   3.554   2.947  0.5732  1.2636  1.3494
 1485SOL     OW16087   4.081   3.876   1.594 -0.1872  0.0916  0.3994
 1485SOL    HW116088   4.029   3.956   1.589 -1.0934 -0.5907 -1.3420
 1485SOL    HW216089   4.048   3.830   1.516  1.4845 -0.6094  0.1152
 1486SOL     OW16090   0.620   1.610   6.319  0.2606  0.9616 -1.0353
 1486SOL    HW116091   0.593   1.550   6.388  1.1247  0.1485 -1.3988
 1486SOL    HW216092   0.540   1.623   6.269 -0.7484 -1.6586 -0.0928
 1487SOL     OW16093   4.470   0.765   0.799 -0.0763  0.4042 -0.1688
 1487SOL    HW116094   4.387   0.741   0.758 -1.6957  1.8750  2.2307
 1487SOL    HW216095   4.519   0.683   0.794 -1.5523 -0.6314  2.2793
 1488SOL     OW16096   3.667   0.142   9.590 -0.7762  0.0438 -0.3432
 1488SOL    HW116097   3.681   0.063   9.536 -2.8905  1.1677 -2.5464
 1488SOL    HW216098   3.696   0.111   9.675  2.2637  0.2790 -1.2784
 1489SOL     OW16099   0.324   2.247  16.253 -0.8114  0.1640  0.4813
 1489SOL    HW116100   0.375   2.167  16.243  0.4121  1.0391 -0.2183
 1489SOL    HW216101   0.279   2.221  16.334  0.8744 -3.0477  0.3887
 1490SOL     OW16102   0.891   4.670   6.920  0.6129 -0.2131 -0.2541
 1490SOL    HW116103   0.896   4.733   6.992  0.0723 -0.7908  0.2926
 1490SOL    HW216104   0.811   4.621   6.941  1.3778 -0.9233  0.9918
 1491SOL     OW16105   2.669   2.956   6.514 -0.2968 -0.8176 -0.4819
 1491SOL    HW116106   2.588   3.003   6.493 -1.3225 -1.6012  1.7136
 1491SOL    HW216107   2.644   2.915   6.597 -1.3066  2.4994  0.8491
 1492SOL     OW16108   3.785   3.548   8.816 -0.5757  0.1497  0.2229
 1492SOL    HW116109   3.865   3.504   8.787  0.1798  1.3929  0.4022
 1492SOL    HW216110   3.823   3.610   8.878 -0.8374  1.0238 -0.4899
 1493SOL     OW16111   2.517   1.340   3.167  0.4843  0.1952  0.4401
 1493SOL    HW116112   2.574   1.398   3.218 -0.3516  0.7542  0.7501
 1493SOL    HW216113   2.501   1.278   3.239 -0.8474  0.1959  0.1589
 1494SOL     OW16114   4.452   2.623   6.201  0.3719  0.1914  0.0735
 1494SOL    HW116115   4.514   2.634   6.129 -0.4714 -0.8665 -0.8321
 1494SOL    HW216116   4.369   2.606   6.156  0.4790 -3.2325  1.1280
 1495SOL     OW16117   0.472   0.112  15.615  0.2295 -0.4470  0.5083
 1495SOL    HW116118   0.565   0.105  15.635  1.2942  0.8003 -4.1009
 1495SOL    HW216119   0.462   0.204  15.637 -1.2595 -0.1955 -1.2408
 1496SOL     OW16120   2.041   2.490   8.939  0.4683 -0.1600 -0.1373
 1496SOL    HW116121   2.091   2.567   8.911 -0.5398 -0.7769 -3.6443
 1496SOL    HW216122   1.967   2.484   8.879  1.7043  0.2923 -1.7318
 1497SOL     OW16123   4.630   3.743   2.577  0.4042  0.0240  0.3890
 1497SOL    HW116124   4.725   3.736   2.577  0.4618  0.8138  0.6610
 1497SOL    HW216125   4.606   3.805   2.508 -0.8034  0.1497  0.9047
 1498SOL     OW16126   2.715   2.498   2.396 -0.4505 -0.3438 -0.2228
 1498SOL    HW116127   2.671   2.453   2.468  0.2128  0.2084  0.5212
 1498SOL    HW216128   2.709   2.437   2.322  0.5777  0.7823 -1.2253
 1499SOL     OW16129   0.947   2.239   7.357  0.2314  0.2209  0.2515
 1499SOL    HW116130   0.897   2.269   7.433  1.3270 -0.3320  1.2011
 1499SOL    HW216131   0.926   2.145   7.353  0.7598  0.0935  0.3771
 1500SOL     OW16132   3.399   3.871  15.081  0.1232  0.3296 -0.6445
 1500SOL    HW116133   3.448   3.845  15.003  0.8045  1.8114 -0.7073
 1500SOL    HW216134   3.356   3.787  15.099  0.8631  0.3002  0.9244
 1501SOL     OW16135   0.516   0.857   2.735  0.6907  0.0039  0.5841
 1501SOL    HW116136   0.507   0.928   2.799 -0.2054  1.6164 -1.3165
 1501SOL    HW216137   0.492   0.900   2.653 -1.4553 -1.2970  0.5445
 1502SOL     OW16138   3.109   3.732   1.535 -0.0172 -0.4040 -0.0123
 1502SOL    HW116139   3.131   3.814   1.579 -0.8723  1.1174 -2.4396
 1502SOL    HW216140   3.014   3.737   1.544 -0.0089 -2.0558  1.0046
 1503SOL     OW16141   3.618   2.397   1.845 -0.0987 -0.3378 -0.4546
 1503SOL    HW116142   3.671   2.361   1.774  1.9621  0.1760  0.8169
 1503SOL    HW216143   3.644   2.342   1.919  0.1686 -0.6549 -0.7800
 1504SOL     OW16144   3.183   3.550   6.084 -0.1097 -0.1859 -0.2387
 1504SOL    HW116145   3.150   3.631   6.123  2.5801  0.9830 -0.3107
 1504SOL    HW216146   3.235   3.595   6.016 -0.3626  1.6005  0.7590
 1505SOL     OW16147   3.571   1.341   6.360 -0.8515  0.4834  0.1760
 1505SOL    HW116148   3.497   1.328   6.301 -0.8625  0.2487  0.2418
 1505SOL    HW216149   3.540   1.295   6.438 -1.1341 -0.7480 -0.6664
 1506SOL     OW16150   1.824   1.001   5.829 -0.0699  0.0935 -0.4234
 1506SOL    HW116151   1.875   1.082   5.833  0.8194 -0.4653 -0.3119
 1506SOL    HW216152   1.754   1.001   5.895  1.7712  0.3525  1.5384
 1507SOL     OW16153   4.500   0.806   1.833  0.1861  0.0129  0.5429
 1507SOL    HW116154   4.429   0.749   1.805  0.3272 -0.3079  0.8345
 1507SOL    HW216155   4.485   0.793   1.927 -0.6071 -0.8975  0.2808
 1508SOL     OW16156   1.473   3.431  12.819  0.2670  0.2501 -0.1873
 1508SOL    HW116157   1.404   3.373  12.788 -0.9483  1.3769  0.4208
 1508SOL    HW216158   1.439   3.520  12.813 -0.7113 -0.1657 -0.8307
 1509SOL     OW16159   4.445   1.615   3.237  0.0921  0.2283  0.3891
 1509SOL    HW116160   4.352   1.601   3.223  0.2866 -1.1452  0.5006
 1509SOL    HW216161   4.482   1.532   3.267  1.4610  0.7357  0.1449
 1510SOL     OW16162   3.364   2.707   0.998 -0.2522 -0.7817 -0.3532
 1510SOL    HW116163   3.421   2.639   1.032 -0.8569 -1.6408 -1.0521
 1510SOL    HW216164   3.416   2.742   0.926  0.4364  0.3221  0.6864
 1511SOL     OW16165   1.333   1.534   0.176  0.3140  0.0919  0.1461
 1511SOL    HW116166   1.253   1.571   0.214  0.8284  1.8895 -0.4879
 1511SOL    HW216167   1.339   1.449   0.219  1.7220 -0.1386 -0.5148
 1512SOL     OW16168   0.589   3.447   8.124  0.7482  0.1209  0.0958
 1512SOL    HW116169   0.529   3.501   8.072  1.0187  1.6701  1.3900
 1512SOL    HW216170   0.619   3.391   8.052 -2.8883 -1.1039 -0.4883
 1513SOL     OW16171   1.025   2.533   2.676  0.5852  0.2833  0.3590
 1513SOL    HW116172   1.073   2.464   2.629 -1.0448 -1.6536  1.5158
 1513SOL    HW216173   1.026   2.615   2.627  0.6215 -0.8072 -1.4444
 1514SOL     OW16174   0.943   3.010  14.617  0.2846  0.0896 -0.1666
 1514SOL    HW116175   0.951   3.084  14.557  0.2743  0.7526  0.6569
 1514SOL    HW216176   0.902   3.044  14.697 -0.9836 -0.9715 -0.3697
 1515SOL     OW16177   0.972   2.408  11.998 -0.4860  0.4196  0.2055
 1515SOL    HW116178   1.014   2.456  11.927 -1.1745 -2.3396 -2.0541
 1515SOL    HW216179   1.026   2.444  12.068 -1.8938 -0.1932  1.6174
 1516SOL     OW16180   0.376   1.399   8.418  0.0939  0.0442  0.5742
 1516SOL    HW116181   0.436   1.356   8.356 -0.2232 -1.7917  1.5485
 1516SOL    HW216182   0.298   1.346   8.402 -0.0262 -0.1842  1.9438
 1517SOL     OW16183   1.411   2.184  16.597 -0.2562 -0.2678  0.4612
 1517SOL    HW116184   1.330   2.162  16.551 -0.4473  0.2035  0.5786
 1517SOL    HW216185   1.465   2.233  16.534  1.1498 -0.6538  1.3577
 1518SOL     OW16186   0.009   3.709   7.569 -0.2853  0.1457 -0.5552
 1518SOL    HW116187   0.060   3.771   7.516  2.9974 -0.6732  1.6236
 1518SOL    HW216188   0.016   3.757   7.652 -1.6034  1.3864 -1.1573
 1519SOL     OW16189   4.020   3.122   6.199 -0.1688  0.3423  0.0513
 1519SOL    HW116190   4.062   3.098   6.281  3.8760  0.5330 -1.9516
 1519SOL    HW216191   3.950   3.182   6.226  3.2603  4.7223 -0.7980
 1520SOL     OW16192   1.714   4.189   2.894 -0.2314  0.0539 -0.1249
 1520SOL    HW116193   1.742   4.101   2.920  1.9266  0.3026 -1.5426
 1520SOL    HW216194   1.797   4.236   2.895  0.4039 -1.0214 -1.2822
 1521SOL     OW16195   0.346   2.863   8.906  0.1764  0.4033  0.1158
 1521SOL    HW116196   0.330   2.950   8.869  0.0601 -1.0684 -3.2281
 1521SOL    HW216197   0.259   2.824   8.898  0.9916 -1.1391 -1.1392
 1522SOL     OW16198   2.194   0.047  11.247  0.3181 -0.3237 -0.1564
 1522SOL    HW116199   2.271   4.737  11.275  0.3962 -0.0162  0.1640
 1522SOL    HW216200   2.193   0.006  11.160 -0.7598  1.5053 -1.0012
 1523SOL     OW16201   3.015   2.115   6.114 -0.1890  0.4745  0.8164
 1523SOL    HW116202   2.942   2.067   6.075  1.2222  0.1699 -1.4230
 1523SOL    HW216203   2.988   2.109   6.206 -0.2240 -0.5608  0.7448
 1524SOL     OW16204   0.961   4.678  13.127 -0.1231 -0.2800  0.0695
 1524SOL    HW116205   0.922   4.654  13.211 -0.7941 -3.1879 -1.0567
 1524SOL    HW216206   0.933   4.601  13.078 -1.3264  1.6631 -2.2866
 1525SOL     OW16207   4.609   4.201   3.444  0.4535  0.6634  0.1549
 1525SOL    HW116208   4.532   4.144   3.435  0.7198  0.0946  1.4104
 1525SOL    HW216209   4.674   4.165   3.384  2.2597  2.3265  1.1036
 1526SOL     OW16210   1.850   2.455   8.722 -0.3395  0.3745 -0.7014
 1526SOL    HW116211   1.776   2.395   8.718 -1.1294  1.0847  4.1155
 1526SOL    HW216212   1.860   2.480   8.630 -4.3387  0.7774 -1.0197
 1527SOL     OW16213   0.130   3.980  16.964 -0.6537  0.3397 -0.1997
 1527SOL    HW116214   0.110   3.968  17.057 -0.6646  0.4233 -0.1909
 1527SOL    HW216215   0.109   4.073  16.952  0.9942  0.6044 -0.9670
 1528SOL     OW16216   2.750   3.602  16.102  0.3411  0.1158 -0.1429
 1528SOL    HW116217   2.702   3.662  16.046  1.4373  2.6787  1.6601
 1528SOL    HW216218   2.701   3.612  16.184  0.4304  2.5375 -0.3872
 1529SOL     OW16219   0.593   3.566   3.693 -0.0626 -0.3964  0.2564
 1529SOL    HW116220   0.521   3.536   3.638  1.1107 -0.7410 -1.0959
 1529SOL    HW216221   0.643   3.487   3.714 -0.4405 -0.7996 -0.3533
 1530SOL     OW16222   1.586   4.583  10.438 -0.0575 -0.7064  0.0727
 1530SOL    HW116223   1.585   4.521  10.511 -0.2149 -1.2991 -0.4354
 1530SOL    HW216224   1.658   4.552  10.382 -0.4182  1.4734 -1.5745
 1531SOL     OW16225   3.432   1.202   6.590  0.0585 -0.2525  0.0752
 1531SOL    HW116226   3.349   1.175   6.631 -0.6457  3.4876  1.0590
 1531SOL    HW216227   3.482   1.238   6.662  0.0365 -1.0334  0.4847
 1532SOL     OW16228   3.353   2.444   3.942  0.1743 -0.7628  0.9198
 1532SOL    HW116229   3.366   2.377   3.875 -0.2864 -0.2558  0.3216
 1532SOL    HW216230   3.411   2.514   3.912  1.4991 -1.8769  0.8779
 1533SOL     OW16231   0.595   3.569  11.446 -0.3362 -0.0732 -0.0019
 1533SOL    HW116232   0.538   3.640  11.477  1.0040  1.7615 -1.7486
 1533SOL    HW216233   0.619   3.534  11.532 -2.8098 -1.4250  0.1285
 1534SOL     OW16234   2.980   2.636  17.392  0.2702 -0.0043 -0.3645
 1534SOL    HW116235   3.003   2.727  17.376  0.4648 -0.5148 -3.0216
 1534SOL    HW216236   3.040   2.581  17.340 -0.1011 -0.8865  0.1368
 1535SOL     OW16237   2.700   3.389   2.392 -0.4601 -0.0921  0.2600
 1535SOL    HW116238   2.634   3.402   2.460 -1.3771 -2.4093 -0.1665
 1535SOL    HW216239   2.663   3.460   2.340  1.8145  0.3361 -0.7739
 1536SOL     OW16240   0.144   2.738  14.412 -0.0202  0.1630 -0.3679
 1536SOL    HW116241   0.106   2.813  14.457  0.3772  0.6561 -0.8548
 1536SOL    HW216242   0.207   2.772  14.348  2.7659 -3.6411  0.3674
 1537SOL     OW16243   4.083   2.277   8.278  0.0601  0.0479  0.2890
 1537SOL    HW116244   4.004   2.281   8.332 -0.0196  0.4117  0.1451
 1537SOL    HW216245   4.119   2.195   8.312  3.3359  0.9029 -1.1756
 1538SOL     OW16246   1.117   1.767   2.370  0.1401 -0.0962 -0.1629
 1538SOL    HW116247   1.207   1.735   2.379  0.2898  0.7466  1.3452
 1538SOL    HW216248   1.117   1.823   2.293 -0.8946  0.0677 -0.0450
 1539SOL     OW16249   0.238   1.973   1.763  0.2427  0.2787 -0.0200
 1539SOL    HW116250   0.173   1.938   1.823  0.2511  1.7018  0.8111
 1539SOL    HW216251   0.313   1.973   1.822  1.4917 -0.9006 -1.5763
 1540SOL     OW16252   1.225   3.896   1.682  0.2237 -0.1089  0.4225
 1540SOL    HW116253   1.163   3.903   1.609  1.7241 -1.2372 -0.9686
 1540SOL    HW216254   1.228   3.989   1.700 -0.0109  0.4551 -2.4692
 1541SOL     OW16255   0.207   4.348   2.750  0.0130 -0.2615 -0.1074
 1541SOL    HW116256   0.187   4.427   2.801  2.3332  1.6013 -2.0938
 1541SOL    HW216257   0.118   4.318   2.736  0.5876 -0.5181 -3.1302
 1542SOL     OW16258   0.281   1.180   1.074 -0.2019 -0.3218  0.0527
 1542SOL    HW116259   0.284   1.154   1.166  1.3980 -1.9062 -0.4489
 1542SOL    HW216260   0.352   1.133   1.031 -0.7778 -0.5102 -0.6971
 1543SOL     OW16261   1.536   3.268   2.855 -0.7264 -0.0092  0.3351
 1543SOL    HW116262   1.453   3.266   2.808 -0.9761  0.6254  0.7588
 1543SOL    HW216263   1.521   3.197   2.917 -0.3446 -1.4043 -1.1365
 1544SOL     OW16264   0.395   1.278  11.408 -0.5437  0.7475  0.9452
 1544SOL    HW116265   0.406   1.326  11.491 -0.4163  0.1979  1.2483
 1544SOL    HW216266   0.349   1.341  11.354 -0.2892  0.1839  0.0815
 1545SOL     OW16267   1.444   3.092   9.768  0.8811 -0.0174  0.1073
 1545SOL    HW116268   1.441   3.171   9.714 -2.2310  0.3319  0.8065
 1545SOL    HW216269   1.439   3.025   9.699  0.7869  0.7532 -0.6247
 1546SOL     OW16270   4.377   1.894   4.611  0.0705 -0.7327  0.0616
 1546SOL    HW116271   4.400   1.974   4.658 -1.1957  1.5128 -3.1148
 1546SOL    HW216272   4.282   1.893   4.595  0.1391  1.0368 -0.4405
 1547SOL     OW16273   1.629   2.272   8.673 -0.6123 -0.1675  0.0038
 1547SOL    HW116274   1.611   2.280   8.580  0.4572  0.7485 -0.1319
 1547SOL    HW216275   1.651   2.179   8.676  0.3205  0.0538  0.1171
 1548SOL     OW16276   1.318   1.380   4.550  0.5722 -0.0428  0.0207
 1548SOL    HW116277   1.364   1.326   4.614  1.6356 -1.4782 -1.9308
 1548SOL    HW216278   1.265   1.308   4.517  3.5683 -2.4699  0.4958
 1549SOL     OW16279   1.447   4.234   7.961 -0.0730  0.2815 -0.8703
 1549SOL    HW116280   1.377   4.284   7.918  2.0833  3.1594 -1.0210
 1549SOL    HW216281   1.413   4.144   7.965  2.6548 -0.6840  0.3706
 1550SOL     OW16282   0.028   2.962  11.052 -0.4446  0.0596  0.3238
 1550SOL    HW116283   0.116   2.936  11.080  0.0281  0.4779 -0.7414
 1550SOL    HW216284   0.026   2.946  10.958  0.4822  0.2505  0.2730
 1551SOL     OW16285   0.980   4.662   9.084 -0.2437 -0.2663 -0.3923
 1551SOL    HW116286   1.018   4.602   9.020  0.4828  1.0585 -1.2050
 1551SOL    HW216287   1.057   4.665   9.140  0.6858 -1.5388 -1.5974
 1552SOL     OW16288   1.448   2.893   9.574  0.2786 -0.2963  0.1694
 1552SOL    HW116289   1.413   2.804   9.584 -1.8999  0.6538  1.0336
 1552SOL    HW216290   1.517   2.882   9.508 -0.0525  2.3921 -0.6154
 1553SOL     OW16291   0.664   2.430   7.998  0.6379  0.1376 -1.0115
 1553SOL    HW116292   0.600   2.441   7.928  0.5164  1.3924 -0.7042
 1553SOL    HW216293   0.654   2.501   8.061 -2.0139 -1.2689  0.1207
 1554SOL     OW16294   3.795   1.584   7.813  0.3488 -0.2878  0.1083
 1554SOL    HW116295   3.786   1.530   7.734  2.9122 -0.0658 -0.3223
 1554SOL    HW216296   3.889   1.602   7.811 -0.0645  1.8579 -0.3478
 1555SOL     OW16297   0.727   4.173   7.307  0.3584  0.1031  0.1869
 1555SOL    HW116298   0.789   4.137   7.370 -2.0469 -3.6674  0.4313
 1555SOL    HW216299   0.673   4.218   7.371  0.9823 -0.2712  0.9830
 1556SOL     OW16300   3.575   4.458   6.805 -0.0496 -0.7046 -0.5254
 1556SOL    HW116301   3.604   4.548   6.789 -0.5620  0.2643  4.1163
 1556SOL    HW216302   3.517   4.444   6.730  0.8390  0.4483 -1.4346
 1557SOL     OW16303   2.214   1.644   5.921  0.3638 -0.1652  0.0856
 1557SOL    HW116304   2.227   1.587   5.997 -1.5231 -0.9390 -0.1594
 1557SOL    HW216305   2.302   1.680   5.922  0.4263 -0.2132 -3.2230
 1558SOL     OW16306   2.006   4.119   7.718 -0.3569 -0.5133  0.0661
 1558SOL    HW116307   1.930   4.147   7.668 -1.3123 -1.9884  0.6823
 1558SOL    HW216308   2.070   4.123   7.646  2.1781 -1.6638  2.2254
 1559SOL     OW16309   2.531   1.865  16.618 -0.2063  0.1867  1.1325
 1559SOL    HW116310   2.516   1.824  16.703 -0.0361  1.6644  1.8681
 1559SOL    HW216311   2.534   1.783  16.569  2.1010  0.4414  0.8782
 1560SOL     OW16312   4.178   3.593   7.973 -0.1944  0.3333 -0.4587
 1560SOL    HW116313   4.099   3.614   7.925  0.7989  1.3310 -1.6618
 1560SOL    HW216314   4.186   3.498   7.960  0.3994  0.1005  1.4911
 1561SOL     OW16315   2.909   2.029   4.823  0.3547  0.6903 -0.3609
 1561SOL    HW116316   2.930   2.032   4.730  0.3011 -1.9318 -0.4664
 1561SOL    HW216317   2.875   2.118   4.835 -0.8223 -0.0897  2.1861
 1562SOL     OW16318   4.184   1.530   4.887 -0.3695  0.3603 -0.2442
 1562SOL    HW116319   4.204   1.551   4.795  1.2509 -2.9492 -0.6431
 1562SOL    HW216320   4.197   1.436   4.881 -2.1811  0.0951  0.0396
 1563SOL     OW16321   0.702   3.353   5.875  0.0067  0.5319 -0.0558
 1563SOL    HW116322   0.741   3.429   5.831  0.2516 -0.8413 -2.1817
 1563SOL    HW216323   0.783   3.311   5.904 -0.4628 -1.9737 -2.4475
 1564SOL     OW16324   2.108   0.625  17.633  0.0652 -0.4460  0.0440
 1564SOL    HW116325   2.067   0.550  17.590  0.1909 -0.5229  0.0582
 1564SOL    HW216326   2.083   0.611  17.724 -2.0228  0.5896 -0.3572
 1565SOL     OW16327   3.247   3.153   2.843  0.1853  0.1530  0.1211
 1565SOL    HW116328   3.179   3.184   2.784 -0.3580  0.4854  0.9229
 1565SOL    HW216329   3.307   3.227   2.839 -1.1805  1.2885  0.3566
 1566SOL     OW16330   3.399   1.827  12.115  0.2080 -0.0275  0.1844
 1566SOL    HW116331   3.425   1.755  12.173 -0.6297 -1.2803 -1.0125
 1566SOL    HW216332   3.346   1.883  12.171 -0.6975  1.8262 -2.5261
 1567SOL     OW16333   4.129   1.328   8.827 -0.0167 -0.4842 -0.4307
 1567SOL    HW116334   4.078   1.256   8.865 -1.6654  0.0058 -1.7020
 1567SOL    HW216335   4.181   1.268   8.772  1.3827 -0.4203  0.8278
 1568SOL     OW16336   1.365   3.863  15.334 -0.5032  0.2492  0.1902
 1568SOL    HW116337   1.274   3.842  15.316 -0.4795  0.7280 -0.5009
 1568SOL    HW216338   1.352   3.900  15.421 -0.2352  0.4918  0.1258
 1569SOL     OW16339   2.740   2.111  17.138 -0.1348 -0.0668 -0.7158
 1569SOL    HW116340   2.833   2.134  17.142 -0.1703 -0.5778  3.4296
 1569SOL    HW216341   2.715   2.183  17.080 -3.0822  0.9076  1.7733
 1570SOL     OW16342   3.490   1.671  13.642 -0.1880  0.4476 -0.0648
 1570SOL    HW116343   3.550   1.733  13.683 -3.9943  2.4591  2.4563
 1570SOL    HW216344   3.469   1.717  13.560 -1.1562  0.5457  0.2412
 1571SOL     OW16345   4.649   3.016   8.323  0.1051  0.2502  0.2830
 1571SOL    HW116346   4.709   3.091   8.317 -1.2905  1.0559 -3.6505
 1571SOL    HW216347   4.702   2.937   8.314 -0.6576 -0.1757 -0.4674
 1572SOL     OW16348   1.328   1.252   6.512 -0.3799  0.0701  0.0125
 1572SOL    HW116349   1.236   1.265   6.536 -1.0380 -1.1538 -1.7778
 1572SOL    HW216350   1.364   1.325   6.562 -1.1243  0.3110  0.2124
 1573SOL     OW16351   3.469   0.523   3.019  0.9462  0.1467  0.0673
 1573SOL    HW116352   3.387   0.512   3.067  1.5669 -2.7398  0.4889
 1573SOL    HW216353   3.458   0.596   2.958  1.5656 -1.3247 -1.8320
 1574SOL     OW16354   2.041   1.348  14.813 -0.1976  0.2721  0.5474
 1574SOL    HW116355   2.096   1.388  14.881 -1.0270  0.6798  0.9749
 1574SOL    HW216356   2.090   1.349  14.731  0.3914 -1.4097  0.8698
 1575SOL     OW16357   4.682   1.340  15.572  0.5292 -0.2607 -0.8184
 1575SOL    HW116358   4.623   1.265  15.564  1.5044 -1.2134  1.0719
 1575SOL    HW216359   0.017   1.296  15.614  0.8537  1.0681 -0.0016
 1576SOL     OW16360   1.461   2.314  17.110  0.1411 -0.4749 -0.0775
 1576SOL    HW116361   1.527   2.301  17.179  0.8740  1.7781 -0.3752
 1576SOL    HW216362   1.510   2.346  17.035  1.1294  1.0244  1.2055
 1577SOL     OW16363   1.062   2.043   6.497 -0.2237 -0.3090 -0.4134
 1577SOL    HW116364   1.010   2.023   6.420  0.5638 -1.1031 -0.7330
 1577SOL    HW216365   1.144   2.077   6.459 -0.1414  1.4628  1.2936
 1578SOL     OW16366   1.709   4.244   5.732  0.2649  0.3994  0.5814
 1578SOL    HW116367   1.730   4.184   5.660  0.1937 -2.2826  2.7695
 1578SOL    HW216368   1.639   4.194   5.775 -1.4706  0.0498 -2.5995
 1579SOL     OW16369   4.297   4.177  12.146  0.1435 -0.6747  0.3722
 1579SOL    HW116370   4.286   4.113  12.216  3.3036 -2.1520 -0.4680
 1579SOL    HW216371   4.379   4.218  12.176 -0.7022 -1.4005  3.6509
 1580SOL     OW16372   4.613   1.729   2.530  0.4765  0.4483  0.2849
 1580SOL    HW116373   4.561   1.673   2.587 -1.3940  1.7618 -0.1550
 1580SOL    HW216374   4.620   1.806   2.587  2.4914  1.4357 -1.2622
 1581SOL     OW16375   2.917   0.121   5.049 -0.5249  0.0518  0.7306
 1581SOL    HW116376   2.842   0.063   5.035 -0.7971  0.4279  0.6404
 1581SOL    HW216377   2.871   0.195   5.088 -2.2462  0.1881 -1.5554
 1582SOL     OW16378   2.351   3.797   3.333  0.3366 -0.0623 -0.5551
 1582SOL    HW116379   2.398   3.851   3.270  0.9883 -1.2105 -1.0417
 1582SOL    HW216380   2.298   3.866   3.374  0.0227 -0.5317 -0.1681
 1583SOL     OW16381   4.123   1.690   1.663 -0.0090  0.0837  0.0268
 1583SOL    HW116382   4.104   1.717   1.753 -2.0607  0.7960 -0.6250
 1583SOL    HW216383   4.082   1.765   1.621 -1.8321 -0.9287 -0.0015
 1584SOL     OW16384   3.408   2.518   7.050  0.5998 -0.8378 -0.2231
 1584SOL    HW116385   3.322   2.493   7.016  0.2913 -0.9414  0.6244
 1584SOL    HW216386   3.377   2.540   7.138  0.6542 -2.6605  0.2506
 1585SOL     OW16387   0.065   1.853   3.534  0.2910  0.3477  0.0477
 1585SOL    HW116388   0.055   1.809   3.450 -0.1173  1.0696 -0.2807
 1585SOL    HW216389   0.156   1.832   3.552  0.7311  2.5395  0.3218
 1586SOL     OW16390   1.435   2.571   2.092  0.1425 -0.5358 -0.5596
 1586SOL    HW116391   1.446   2.546   2.183 -0.8399 -0.4823 -0.4321
 1586SOL    HW216392   1.496   2.642   2.072 -0.8993  0.3252 -0.6827
 1587SOL     OW16393   2.406   3.887  16.656 -0.3875 -0.4225  0.5392
 1587SOL    HW116394   2.440   3.933  16.733 -0.0303  0.0060  0.1268
 1587SOL    HW216395   2.375   3.961  16.604  2.7897 -0.0346 -0.8310
 1588SOL     OW16396   1.598   1.664   9.590  0.6049 -0.2710 -0.2757
 1588SOL    HW116397   1.539   1.610   9.537 -1.3481 -0.6994  2.3301
 1588SOL    HW216398   1.581   1.616   9.671  0.0526 -0.3296 -0.4292
 1589SOL     OW16399   2.575   1.869  17.083 -0.6923  0.4214 -0.3060
 1589SOL    HW116400   2.554   1.907  17.169  0.3864  1.8235 -0.6687
 1589SOL    HW216401   2.646   1.920  17.045 -1.5252  1.0171 -1.0834
 1590SOL     OW16402   0.217   3.898  16.723 -0.0749 -0.4424 -0.0380
 1590SOL    HW116403   0.243   3.988  16.703 -0.0304 -0.2548  0.8807
 1590SOL    HW216404   0.213   3.891  16.818  0.6775  0.4865  0.0568
 1591SOL     OW16405   4.103   4.178   8.013  0.8032 -0.2566  0.3497
 1591SOL    HW116406   4.048   4.187   8.091 -1.2513 -2.2766 -0.8406
 1591SOL    HW216407   4.081   4.086   8.001 -0.7966  0.5610 -2.9191
 1592SOL     OW16408   0.301   4.263   6.659 -0.4662 -0.3989  0.0260
 1592SOL    HW116409   0.357   4.186   6.664 -0.2439 -0.2457 -0.0849
 1592SOL    HW216410   0.248   4.250   6.738 -0.3355  2.1362  0.5373
 1593SOL     OW16411   0.986   2.590  13.222  0.1507 -0.1715 -0.0953
 1593SOL    HW116412   0.933   2.581  13.144  0.2397  0.4846 -0.2298
 1593SOL    HW216413   1.012   2.682  13.217 -2.6689  0.6862  0.9723
 1594SOL     OW16414   1.640   1.015   3.944 -0.1037  0.0930 -0.2979
 1594SOL    HW116415   1.700   1.080   3.908 -1.1667  2.2602  1.8212
 1594SOL    HW216416   1.680   0.996   4.029 -0.5254  0.0508 -0.1120
 1595SOL     OW16417   3.158   0.114   1.915 -0.5329  0.0707  0.8706
 1595SOL    HW116418   3.214   0.125   1.991  0.0697  3.1313 -0.0172
 1595SOL    HW216419   3.097   0.045   1.942 -0.8981  0.8703  2.0695
 1596SOL     OW16420   2.127   3.038  11.288 -0.3506  0.2327  0.3482
 1596SOL    HW116421   2.071   2.991  11.348  0.7648 -1.6791 -0.1081
 1596SOL    HW216422   2.188   3.082  11.347  0.2082  0.7222 -0.5958
 1597SOL     OW16423   4.008   3.465  16.566 -0.0567 -0.1138 -0.1862
 1597SOL    HW116424   4.026   3.506  16.481  2.2020 -1.9021 -0.5646
 1597SOL    HW216425   3.940   3.405  16.536  0.2579 -1.2267  1.3304
 1598SOL     OW16426   2.152   3.314  15.922  0.4719 -0.0226  0.2534
 1598SOL    HW116427   2.062   3.303  15.890  0.4112  0.2283  0.3366
 1598SOL    HW216428   2.190   3.318  15.835 -0.9006 -0.2979 -0.3578
 1599SOL     OW16429   0.326   3.474  10.999  0.2301  0.1953  0.0947
 1599SOL    HW116430   0.321   3.534  11.074  2.7856 -0.6112  0.9058
 1599SOL    HW216431   0.415   3.440  10.999  1.0992  2.5073 -1.4388
 1600SOL     OW16432   3.861   0.698  13.331  0.2735  0.7271  0.0727
 1600SOL    HW116433   3.802   0.633  13.294 -0.7871  0.7545  1.7483
 1600SOL    HW216434   3.802   0.768  13.358 -1.4072  0.2408 -2.2976
 1601SOL     OW16435   2.185   3.443   4.447  0.0759 -0.1093  0.3914
 1601SOL    HW116436   2.157   3.373   4.507 -2.4355  0.2077 -0.4317
 1601SOL    HW216437   2.204   3.521   4.500 -0.7018 -0.0489  0.5884
 1602SOL     OW16438   3.943   0.281   9.405 -0.0152  0.5484  0.1081
 1602SOL    HW116439   3.962   0.244   9.492 -0.9222  0.3510  0.2201
 1602SOL    HW216440   4.031   0.282   9.367  0.0698 -2.4541  0.2205
 1603SOL     OW16441   4.702   2.852   6.374  0.5786  0.2873  0.2110
 1603SOL    HW116442   4.630   2.886   6.426  2.7108  0.5000  3.0310
 1603SOL    HW216443   4.668   2.883   6.290 -1.3475  2.0178  1.6263
 1604SOL     OW16444   2.809   2.992   5.839 -0.0915 -0.3491 -0.1683
 1604SOL    HW116445   2.769   3.078   5.839  1.9140  0.5933  0.4532
 1604SOL    HW216446   2.802   2.968   5.932 -0.9001  1.0588  0.1266
 1605SOL     OW16447   3.992   0.795   1.253 -0.7838  0.4332 -0.0544
 1605SOL    HW116448   4.022   0.742   1.326  2.2952  0.0039 -1.6415
 1605SOL    HW216449   4.023   0.742   1.179 -0.9635 -1.1880  1.0315
 1606SOL     OW16450   1.813   0.494   4.345 -0.1361 -0.7147  0.0097
 1606SOL    HW116451   1.864   0.413   4.349  0.6277 -0.1246  2.2561
 1606SOL    HW216452   1.872   0.557   4.305  1.9330 -2.5190  0.2513
 1607SOL     OW16453   3.527   3.132   4.756 -0.6230  0.4759 -0.7416
 1607SOL    HW116454   3.512   3.057   4.699 -0.9645 -1.0547  1.3622
 1607SOL    HW216455   3.469   3.200   4.724  0.3613  1.7124  0.0860
 1608SOL     OW16456   2.664   0.120   7.470 -0.8317  0.6300 -0.6906
 1608SOL    HW116457   2.691   0.148   7.557  0.2411  0.2530 -0.9064
 1608SOL    HW216458   2.598   0.185   7.447 -1.7216  0.3137  0.9255
 1609SOL     OW16459   3.510   2.796   0.554  0.1400  0.1469  0.1996
 1609SOL    HW116460   3.497   2.711   0.512  0.2542 -1.6103  3.7190
 1609SOL    HW216461   3.597   2.823   0.522 -0.2090  0.5555 -0.4110
 1610SOL     OW16462   0.396   0.481   8.983  0.2209  0.3700  0.1166
 1610SOL    HW116463   0.439   0.410   9.032 -0.4491 -1.9872 -2.7488
 1610SOL    HW216464   0.397   0.555   9.045  1.0401 -0.0363  0.6028
 1611SOL     OW16465   3.749   4.177   9.587 -0.1337 -0.3471  0.3919
 1611SOL    HW116466   3.656   4.195   9.599  0.0285  0.5985  0.2070
 1611SOL    HW216467   3.743   4.090   9.548 -0.1033 -0.0132 -0.3564
 1612SOL     OW16468   2.394   3.964   2.622  0.0213  0.1089 -0.2062
 1612SOL    HW116469   2.407   3.944   2.529  0.7374 -0.6767  0.0601
 1612SOL    HW216470   2.320   3.905   2.638  1.4688 -1.3346  1.1749
 1613SOL     OW16471   3.227   1.986   0.054  0.2467  0.6195  0.1694
 1613SOL    HW116472   3.148   2.041   0.056 -0.9560 -1.1178 -0.3055
 1613SOL    HW216473   3.190   1.904   0.087  0.2324  1.7899  3.0919
 1614SOL     OW16474   0.213   2.067   8.491 -1.0182  0.0107  0.2432
 1614SOL    HW116475   0.254   2.147   8.524 -3.4178  1.0640  0.7387
 1614SOL    HW216476   0.152   2.042   8.562 -0.7903  1.3579  0.9046
 1615SOL     OW16477   2.228   1.099   5.285 -0.4616  0.2130  0.1200
 1615SOL    HW116478   2.298   1.143   5.335 -0.7802  0.2094  0.5692
 1615SOL    HW216479   2.195   1.031   5.343  1.4539 -0.8008  0.0069
 1616SOL     OW16480   0.361   0.134   9.362  0.6153  0.2884 -0.0627
 1616SOL    HW116481   0.368   0.080   9.283 -2.9107  0.5310 -0.5387
 1616SOL    HW216482   0.347   0.071   9.432 -1.9765  2.4333  1.3557
 1617SOL     OW16483   3.397   0.342   7.470  0.2125  0.0371 -0.0910
 1617SOL    HW116484   3.348   0.398   7.409  0.6448 -0.1913 -0.6375
 1617SOL    HW216485   3.313   0.309   7.503  1.1070  0.0352  2.2099
 1618SOL     OW16486   1.508   4.297   4.891 -0.5523  0.0042  0.9224
 1618SOL    HW116487   1.424   4.335   4.869 -0.3940  0.1224  0.5170
 1618SOL    HW216488   1.479   4.206   4.880  0.6145 -0.2181 -0.3188
 1619SOL     OW16489   1.813   1.048  14.077  0.5834 -0.3399 -0.0084
 1619SOL    HW116490   1.758   1.058  14.155  0.3121 -3.3568  0.1792
 1619SOL    HW216491   1.886   0.996  14.111  1.7906  1.7931  0.6848
 1620SOL     OW16492   2.257   4.585   7.773 -0.1819 -0.2155 -0.0466
 1620SOL    HW116493   2.281   4.503   7.729 -0.7685  0.0941 -0.9278
 1620SOL    HW216494   2.228   4.543   7.855 -2.9940  0.3958 -0.7302
 1621SOL     OW16495   3.377   0.940   9.575 -0.6073 -0.4723  0.1598
 1621SOL    HW116496   3.285   0.933   9.551 -0.6868  1.0519  0.0058
 1621SOL    HW216497   3.411   0.881   9.509 -2.7254 -0.7845 -0.6441
 1622SOL     OW16498   0.418   0.907   2.192 -0.3365 -0.1680 -0.4078
 1622SOL    HW116499   0.388   0.836   2.136  1.1897 -0.6220 -0.6584
 1622SOL    HW216500   0.469   0.946   2.122 -2.0666 -0.2277 -1.6990
 1623SOL     OW16501   4.468   3.624   4.946 -0.1917 -0.5727  0.2032
 1623SOL    HW116502   4.423   3.668   5.017  2.4163  1.0497  0.8332
 1623SOL    HW216503   4.402   3.563   4.914 -0.4914  0.4605 -1.1125
 1624SOL     OW16504   0.332   1.247   9.201  0.7802 -0.3450  0.7682
 1624SOL    HW116505   0.425   1.257   9.180  0.5101 -0.9422 -0.7493
 1624SOL    HW216506   0.327   1.152   9.193 -0.5790 -0.0996 -1.2348
 1625SOL     OW16507   1.666   2.539   1.882 -0.3450 -0.4401  0.1681
 1625SOL    HW116508   1.608   2.530   1.957 -0.1324  2.6792  0.7330
 1625SOL    HW216509   1.727   2.603   1.919  2.1087 -1.4113 -2.2196
 1626SOL     OW16510   2.464   2.652  16.680 -0.0107  0.5455 -0.0832
 1626SOL    HW116511   2.508   2.622  16.759 -0.1257 -1.0456 -0.6204
 1626SOL    HW216512   2.531   2.710  16.642 -0.9694  0.2392 -2.2447
 1627SOL     OW16513   3.193   3.978  10.319  0.2281 -0.6520 -0.4827
 1627SOL    HW116514   3.196   3.882  10.327  0.0490 -0.4392  2.0242
 1627SOL    HW216515   3.125   4.002  10.381  1.0700 -2.0766  0.9960
 1628SOL     OW16516   2.956   0.603   4.417  0.0541  0.4011  0.4030
 1628SOL    HW116517   3.050   0.588   4.409  0.2009  2.1818 -1.1691
 1628SOL    HW216518   2.916   0.519   4.438 -0.0492 -0.2364 -2.2637
 1629SOL     OW16519   4.525   3.133   2.533 -0.5239  0.1641 -0.1231
 1629SOL    HW116520   4.456   3.103   2.593 -0.3496 -0.1259 -0.0663
 1629SOL    HW216521   4.480   3.137   2.449  0.5850 -1.2214 -0.7712
 1630SOL     OW16522   4.311   3.687  11.788 -0.0627 -0.4297  0.2444
 1630SOL    HW116523   4.242   3.694  11.723  2.1487  1.2038 -1.9374
 1630SOL    HW216524   4.297   3.593  11.798  1.0408 -0.7283 -1.0526
 1631SOL     OW16525   2.206   3.911  17.291  0.6112 -0.5896  0.2123
 1631SOL    HW116526   2.113   3.916  17.315  0.4054 -1.6037 -0.3696
 1631SOL    HW216527   2.220   3.976  17.222  1.7595  0.4011  1.3807
 1632SOL     OW16528   2.528   4.308   3.544  0.4183  0.6496 -0.0373
 1632SOL    HW116529   2.548   4.314   3.638  0.1194  1.1262 -0.0037
 1632SOL    HW216530   2.433   4.297   3.547  0.5302 -0.2227  0.3940
 1633SOL     OW16531   1.805   3.195   8.124 -0.3270  0.3948 -0.1739
 1633SOL    HW116532   1.895   3.161   8.127 -0.1333  0.8067 -1.2613
 1633SOL    HW216533   1.809   3.289   8.144  1.8692  0.4263 -0.8244
 1634SOL     OW16534   3.970   0.736  17.699  0.2523 -0.3403 -0.1208
 1634SOL    HW116535   3.999   0.823  17.727  0.7821  0.0594 -1.9106
 1634SOL    HW216536   3.879   0.755  17.678  0.4945 -0.2493 -1.1043
 1635SOL     OW16537   1.972   1.904   6.541  0.0767  1.2278 -0.5812
 1635SOL    HW116538   1.962   1.830   6.600 -2.3348  1.6217 -0.4996
 1635SOL    HW216539   1.881   1.920   6.515 -0.0352  1.6129  0.0211
 1636SOL     OW16540   1.822   2.212   9.033 -0.2606  0.2417 -0.0894
 1636SOL    HW116541   1.903   2.218   8.983 -0.3496 -0.2062 -0.2860
 1636SOL    HW216542   1.831   2.139   9.095 -1.1688 -0.6962 -1.0758
 1637SOL     OW16543   3.208   4.119   3.861  0.2627 -0.7307  0.4563
 1637SOL    HW116544   3.184   4.180   3.791  0.9027  0.3779  1.1968
 1637SOL    HW216545   3.122   4.100   3.897  1.0591  0.6005  3.0820
 1638SOL     OW16546   1.328   3.090   4.021 -0.2033 -0.1197 -0.1199
 1638SOL    HW116547   1.370   3.149   3.958 -1.0446  0.2224 -0.3682
 1638SOL    HW216548   1.304   3.148   4.093 -0.0994 -1.5650  1.0690
 1639SOL     OW16549   3.829   1.250   1.643  0.4808  0.2463  0.1096
 1639SOL    HW116550   3.856   1.267   1.553 -1.5563  2.5779 -0.0900
 1639SOL    HW216551   3.743   1.209   1.634  0.1255  1.2352 -0.9617
 1640SOL     OW16552   0.043   4.047   4.852 -0.3643  0.6360 -0.0142
 1640SOL    HW116553   4.721   3.978   4.825 -1.1248  1.6005 -0.7653
 1640SOL    HW216554   0.104   3.989   4.897 -1.1556 -0.6499 -0.6024
 1641SOL     OW16555   0.872   3.713  16.508  0.2910 -0.0971  0.0209
 1641SOL    HW116556   0.814   3.789  16.504  1.0873  0.5083 -0.0024
 1641SOL    HW216557   0.805   3.649  16.531 -1.0952  1.9346  1.6027
 1642SOL     OW16558   4.626   1.644   8.368 -0.1260 -0.5353 -0.5317
 1642SOL    HW116559   4.535   1.674   8.370  0.9226  2.4644  1.4141
 1642SOL    HW216560   4.610   1.566   8.422 -2.5514  0.5456  0.3002
 1643SOL     OW16561   1.558   1.585   1.164  0.4402  0.2836 -0.0370
 1643SOL    HW116562   1.526   1.675   1.157  0.1457  0.1258 -0.7847
 1643SOL    HW216563   1.558   1.572   1.258  1.0339  2.6925  0.2736
 1644SOL     OW16564   2.322   4.493   5.491  0.2890  0.1859 -0.0840
 1644SOL    HW116565   2.355   4.429   5.554 -0.4088 -0.6183 -0.5388
 1644SOL    HW216566   2.357   4.469   5.405  1.3270 -2.9474  1.2053
 1645SOL     OW16567   1.362   3.978   3.928  0.2946 -0.3085  0.5162
 1645SOL    HW116568   1.365   3.897   3.980  0.3755  0.4453  1.6776
 1645SOL    HW216569   1.301   3.968   3.855  2.6163 -1.0649 -1.3260
 1646SOL     OW16570   2.665   0.439   5.941  0.0501 -0.0868 -0.3306
 1646SOL    HW116571   2.707   0.358   5.972 -3.0724 -1.3488  0.7041
 1646SOL    HW216572   2.638   0.474   6.026 -1.1802 -0.7044 -0.4654
 1647SOL     OW16573   3.321   2.364   7.715  0.3373  0.8075  0.3225
 1647SOL    HW116574   3.243   2.344   7.767 -0.4854  1.4949 -0.6726
 1647SOL    HW216575   3.323   2.459   7.704 -0.1071  0.6002 -1.5516
 1648SOL     OW16576   2.438   1.392   6.982 -0.0535 -0.1820 -0.0036
 1648SOL    HW116577   2.351   1.400   6.943  0.4946  1.1227 -1.0046
 1648SOL    HW216578   2.414   1.350   7.064  1.1623 -0.8069  0.0269
 1649SOL     OW16579   0.056   1.651   4.512  0.5910 -0.1635 -0.2932
 1649SOL    HW116580   0.106   1.686   4.437 -1.8232 -0.4280 -2.0220
 1649SOL    HW216581   0.031   1.734   4.553  0.3774 -0.0213 -0.7117
 1650SOL     OW16582   0.054   1.456   2.841 -0.5909 -0.2165  0.4281
 1650SOL    HW116583   0.147   1.435   2.855 -0.0572  1.7720 -0.1520
 1650SOL    HW216584   0.070   1.488   2.752 -0.0921 -0.7640  0.3149
 1651SOL     OW16585   2.966   3.295   2.405 -0.6786 -0.0022  0.4372
 1651SOL    HW116586   2.884   3.316   2.361 -0.0701 -0.3851 -0.8809
 1651SOL    HW216587   2.947   3.306   2.499 -0.3941 -1.0638  0.6164
 1652SOL     OW16588   3.449   1.777   9.159  0.1711 -0.2990  0.2282
 1652SOL    HW116589   3.534   1.734   9.148  0.4578  0.5230 -0.7451
 1652SOL    HW216590   3.385   1.720   9.202  0.3505 -0.6005  0.0997
 1653SOL     OW16591   2.819   0.518   1.842 -0.1155 -0.2580  0.3050
 1653SOL    HW116592   2.833   0.613   1.851  1.0205 -0.1812 -1.9769
 1653SOL    HW216593   2.837   0.510   1.748 -0.2304 -1.8607  0.4285
 1654SOL     OW16594   4.056   0.703   7.805  0.5028 -0.7727  0.0668
 1654SOL    HW116595   4.078   0.717   7.897 -0.2983  0.3316  0.0840
 1654SOL    HW216596   4.133   0.737   7.759  0.1725  0.6390  0.5757
 1655SOL     OW16597   3.497   2.692   2.761  0.4776  0.3482  0.2022
 1655SOL    HW116598   3.410   2.729   2.748 -0.2271 -0.7683  1.8315
 1655SOL    HW216599   3.526   2.676   2.671 -0.3473  0.8546 -0.1569
 1656SOL     OW16600   2.023   2.525   0.768  0.5436  0.1032 -0.4236
 1656SOL    HW116601   2.041   2.533   0.674 -0.6907 -0.1447 -0.6742
 1656SOL    HW216602   2.064   2.441   0.787 -1.6225 -0.6832  0.7182
 1657SOL     OW16603   2.903   0.573  10.254 -0.1655  0.2368  0.1348
 1657SOL    HW116604   2.863   0.561  10.340  1.1874  1.0164  0.8732
 1657SOL    HW216605   2.990   0.536  10.262  0.2373  1.0764 -0.3020
 1658SOL     OW16606   2.378   4.178   6.411 -0.6902 -0.3652 -0.3943
 1658SOL    HW116607   2.313   4.180   6.481  0.9927  1.5194  1.0976
 1658SOL    HW216608   2.323   4.166   6.333 -1.3514 -0.7051  0.1258
 1659SOL     OW16609   2.832   0.589  16.734 -0.3547 -0.0589  0.7760
 1659SOL    HW116610   2.741   0.602  16.762 -1.0127  0.0975 -1.4792
 1659SOL    HW216611   2.869   0.675  16.719  0.4723 -0.3850  0.9614
 1660SOL     OW16612   4.310   2.759  14.785  0.5098 -0.2246 -0.2019
 1660SOL    HW116613   4.274   2.720  14.864  1.9182  1.1724  1.1314
 1660SOL    HW216614   4.375   2.812  14.830 -0.8876  1.8830 -0.6623
 1661SOL     OW16615   3.279   1.695   3.668 -0.0336 -0.2236 -0.0724
 1661SOL    HW116616   3.250   1.625   3.608  0.9937  1.4068 -2.4848
 1661SOL    HW216617   3.334   1.747   3.609 -0.0890  1.7252  1.6193
 1662SOL     OW16618   1.160   2.595   5.447 -0.0041 -0.3866  0.3286
 1662SOL    HW116619   1.192   2.675   5.487 -0.4469 -1.5375  3.0039
 1662SOL    HW216620   1.113   2.628   5.371  2.8500 -0.7048 -1.5426
 1663SOL     OW16621   4.653   3.310   4.706 -0.6803  0.2465  0.2979
 1663SOL    HW116622   4.691   3.346   4.787 -2.3438  0.5957  0.9237
 1663SOL    HW216623   4.699   3.227   4.719  1.1943  1.4147  1.2197
 1664SOL     OW16624   2.347   0.847  16.632  0.1924  0.3269  1.0202
 1664SOL    HW116625   2.351   0.752  16.648 -0.8715  0.0115 -0.6399
 1664SOL    HW216626   2.253   0.853  16.614  0.6383 -0.8632 -1.6864
 1665SOL     OW16627   4.734   2.142   3.858 -0.0206 -0.0254 -0.6203
 1665SOL    HW116628   4.687   2.154   3.775 -1.6589 -3.6854 -0.2420
 1665SOL    HW216629   0.089   2.134   3.842  0.0301  2.9004 -1.7496
 1666SOL     OW16630   1.282   4.289  14.632  0.4372  0.5516 -0.1961
 1666SOL    HW116631   1.326   4.205  14.624  0.0358  0.5740 -2.4162
 1666SOL    HW216632   1.295   4.318  14.542  0.3079 -3.4702 -1.5207
 1667SOL     OW16633   3.962   2.460   8.095 -0.3220 -1.0698 -0.3958
 1667SOL    HW116634   4.008   2.388   8.138 -1.4373 -2.0264 -0.8095
 1667SOL    HW216635   3.917   2.510   8.164  2.1848 -1.7715  1.7505
 1668SOL     OW16636   2.100   0.735   1.919 -0.3274  0.1444  0.3954
 1668SOL    HW116637   2.015   0.753   1.958 -0.1532  0.2958  0.6991
 1668SOL    HW216638   2.160   0.761   1.989  0.2016  0.9725 -0.3549
 1669SOL     OW16639   3.650   2.548   3.422 -0.7604  0.0434 -0.3770
 1669SOL    HW116640   3.610   2.632   3.445  0.6199  0.3301  0.9786
 1669SOL    HW216641   3.595   2.490   3.473 -1.0110 -0.7413 -1.5416
 1670SOL     OW16642   4.169   1.582   2.740  0.6692 -0.7075 -0.0358
 1670SOL    HW116643   4.206   1.624   2.818  1.1904 -1.5982  0.1903
 1670SOL    HW216644   4.207   1.497   2.761  2.2649  0.0536  0.1540
 1671SOL     OW16645   1.390   0.744   1.151  0.2191  0.2586 -0.1170
 1671SOL    HW116646   1.424   0.699   1.073 -0.4700  0.1405 -0.3442
 1671SOL    HW216647   1.471   0.777   1.190  0.0340  1.5749 -0.8436
 1672SOL     OW16648   2.848   0.340   2.521 -0.2846  0.2298 -0.5770
 1672SOL    HW116649   2.784   0.343   2.449 -0.8771 -2.6660 -0.1505
 1672SOL    HW216650   2.918   0.328   2.457 -0.5539  0.4984 -0.9320
 1673SOL     OW16651   3.844   0.908   6.849  0.0073 -0.6355 -0.1217
 1673SOL    HW116652   3.909   0.841   6.870  3.7074  1.8622 -3.4479
 1673SOL    HW216653   3.866   0.937   6.760 -0.2263 -0.2468 -0.0515
 1674SOL     OW16654   3.444   3.196  11.929 -0.3271 -0.2622 -0.0814
 1674SOL    HW116655   3.495   3.249  11.990  0.8939 -0.4181 -0.9622
 1674SOL    HW216656   3.504   3.199  11.854 -0.5686  0.1640 -0.2636
 1675SOL     OW16657   2.446   0.308   9.295  0.0490  0.5110 -0.4449
 1675SOL    HW116658   2.399   0.234   9.334 -1.1672  0.8841 -1.1966
 1675SOL    HW216659   2.488   0.341   9.374 -0.6484  1.3287 -0.4097
 1676SOL     OW16660   0.201   2.852   0.759  0.0338 -0.2739 -0.0656
 1676SOL    HW116661   0.248   2.817   0.683 -2.1166  0.1690 -1.5826
 1676SOL    HW216662   0.150   2.912   0.706  1.1586  0.4674 -0.3148
 1677SOL     OW16663   0.458   3.148   0.969 -0.0916  0.4766  0.0546
 1677SOL    HW116664   0.393   3.196   1.021 -1.5142  0.7398 -1.9638
 1677SOL    HW216665   0.512   3.217   0.930  0.1780  2.0990  3.3392
 1678SOL     OW16666   4.635   1.482   5.353  0.3365 -0.0516  0.1709
 1678SOL    HW116667   4.674   1.413   5.406 -1.7287 -1.5958 -0.3266
 1678SOL    HW216668   4.594   1.539   5.418 -1.8561 -0.7388 -0.6326
 1679SOL     OW16669   3.270   1.005  12.021  0.2050 -0.4529  0.0044
 1679SOL    HW116670   3.186   1.005  11.977 -0.7360 -2.3442  1.7730
 1679SOL    HW216671   3.241   0.965  12.104  0.6333  0.6773  0.6962
 1680SOL     OW16672   4.350   3.566   4.417  0.9230  0.2464 -0.3664
 1680SOL    HW116673   4.317   3.498   4.358 -1.1517 -1.0345  2.2593
 1680SOL    HW216674   4.332   3.647   4.370  0.9812  0.9231  0.7764
 1681SOL     OW16675   3.131   1.621   2.512 -0.3100 -0.3084  0.3921
 1681SOL    HW116676   3.078   1.655   2.584  1.2437 -0.9472  1.8403
 1681SOL    HW216677   3.167   1.544   2.556  0.7902 -0.4735 -0.7856
 1682SOL     OW16678   4.532   4.022   6.083  0.0106 -0.2914  0.8375
 1682SOL    HW116679   4.507   3.930   6.096 -0.9427 -0.2009 -0.4069
 1682SOL    HW216680   4.621   4.018   6.047 -0.3498  2.2177 -0.2888
 1683SOL     OW16681   4.280   1.003   6.347 -0.4319  0.1079  0.1536
 1683SOL    HW116682   4.244   1.089   6.326  0.3780  0.2582 -0.6140
 1683SOL    HW216683   4.329   1.017   6.428  2.4143 -0.2525 -1.5460
 1684SOL     OW16684   1.221   1.131   6.847  0.0964 -0.0191  0.4217
 1684SOL    HW116685   1.303   1.138   6.896  0.1437  0.0363  0.3322
 1684SOL    HW216686   1.231   1.046   6.804 -2.2850  0.2819 -0.7420
 1685SOL     OW16687   1.122   2.048   3.928 -0.1517 -0.4802  0.3823
 1685SOL    HW116688   1.074   2.080   3.852  0.1314  0.3568  0.5616
 1685SOL    HW216689   1.169   1.974   3.889  0.6414  0.7972 -1.1172
 1686SOL     OW16690   1.970   0.566   6.057  0.0380  0.0829  0.3545
 1686SOL    HW116691   1.904   0.510   6.017  0.6000  0.3174 -0.9246
 1686SOL    HW216692   2.043   0.504   6.059  0.3583  0.4403  0.0216
 1687SOL     OW16693   0.815   1.987   3.445 -0.4478  0.6234 -0.6703
 1687SOL    HW116694   0.857   2.009   3.361 -1.0049 -0.9007 -1.3617
 1687SOL    HW216695   0.723   1.988   3.418 -0.3597  0.8863 -0.9638
 1688SOL     OW16696   2.848   2.488  16.692  0.3986 -0.7318 -0.0118
 1688SOL    HW116697   2.892   2.540  16.625 -1.3902 -2.7534 -2.7747
 1688SOL    HW216698   2.816   2.416  16.638 -2.7365  0.5136  0.1809
 1689SOL     OW16699   2.155   1.776   6.302  0.4648 -0.1415 -0.1683
 1689SOL    HW116700   2.186   1.866   6.297  0.3536 -0.2170 -2.1614
 1689SOL    HW216701   2.085   1.795   6.365  0.7977  2.0674 -0.4930
 1690SOL     OW16702   3.176   0.266   3.622 -0.0714  0.0111  0.1272
 1690SOL    HW116703   3.134   0.190   3.660  0.8631 -1.6931 -2.2651
 1690SOL    HW216704   3.253   0.233   3.576 -2.9575 -2.3478 -3.0322
 1691SOL     OW16705   4.127   4.511   6.832 -0.0228 -0.3180 -0.5199
 1691SOL    HW116706   4.144   4.431   6.882 -0.1628  0.4564  0.7757
 1691SOL    HW216707   4.213   4.533   6.796 -0.5436  2.9093  0.2696
 1692SOL     OW16708   3.663   4.508   8.683 -0.3338 -0.2686  0.4537
 1692SOL    HW116709   3.568   4.501   8.695 -0.1011  1.1171  3.1035
 1692SOL    HW216710   3.687   4.421   8.650  2.4009  0.2605  1.0379
 1693SOL     OW16711   3.812   1.562   0.112 -0.4241  0.1277  0.4691
 1693SOL    HW116712   3.905   1.562   0.134  0.0605 -1.6064 -1.5949
 1693SOL    HW216713   3.809   1.645   0.065  4.7564 -0.4053 -0.7264
 1694SOL     OW16714   0.953   3.523   3.603 -0.4473  0.5102  0.0099
 1694SOL    HW116715   0.953   3.618   3.615 -0.7089  0.1592  2.9137
 1694SOL    HW216716   0.889   3.503   3.672  0.6324  1.8217  1.4071
 1695SOL     OW16717   3.379   4.350   8.188  0.1330 -0.1966 -0.0088
 1695SOL    HW116718   3.466   4.310   8.192  1.1818  2.4131  3.5815
 1695SOL    HW216719   3.383   4.407   8.265  0.4698 -0.2830  0.0404
 1696SOL     OW16720   1.212   1.804  11.521  0.6958 -0.3861 -0.4206
 1696SOL    HW116721   1.133   1.759  11.552  0.4073  0.3287 -0.1144
 1696SOL    HW216722   1.276   1.733  11.517  1.8512  0.5950  0.7903
 1697SOL     OW16723   2.858   3.451   7.066  0.2158 -0.2426 -0.5896
 1697SOL    HW116724   2.873   3.507   7.142  1.8378 -0.1577 -0.9679
 1697SOL    HW216725   2.796   3.389   7.104 -0.0077  1.0468  1.1835
 1698SOL     OW16726   1.961   3.298  14.640  0.4402  0.5384  0.8946
 1698SOL    HW116727   1.981   3.314  14.732 -1.9428 -1.6911  1.8190
 1698SOL    HW216728   2.029   3.236  14.613  0.9952  0.8103  1.6855
 1699SOL     OW16729   0.638   0.938   1.149 -0.3649 -0.0950 -0.2998
 1699SOL    HW116730   0.721   0.894   1.130 -1.0069 -1.0118 -0.9949
 1699SOL    HW216731   0.656   0.974   1.236 -0.4816  1.0704 -0.7596
 1700SOL     OW16732   4.076   2.880  12.359  0.1887  0.7599  0.7053
 1700SOL    HW116733   4.034   2.838  12.284  0.6885  0.3448  0.6558
 1700SOL    HW216734   4.006   2.860  12.421 -0.7985 -0.9071 -0.9590
 1701SOL     OW16735   3.495   4.272   0.491 -0.2486  0.2707  0.0033
 1701SOL    HW116736   3.497   4.333   0.565  0.4641 -0.7400  0.8230
 1701SOL    HW216737   3.519   4.192   0.538 -1.1656 -0.6473 -1.0964
 1702SOL     OW16738   3.863   2.449  10.414  0.1854 -0.0585  0.0865
 1702SOL    HW116739   3.839   2.360  10.388  0.0110 -0.3841  1.3647
 1702SOL    HW216740   3.784   2.484  10.455 -0.1536 -2.1479  1.2098
 1703SOL     OW16741   3.615   2.299   4.358 -0.1271 -0.1208 -0.9092
 1703SOL    HW116742   3.611   2.297   4.262  0.9574  0.2560 -0.9535
 1703SOL    HW216743   3.575   2.217   4.387  3.3135 -0.5499  2.5153
 1704SOL     OW16744   2.195   4.557   5.940  0.0661 -0.2415 -0.4891
 1704SOL    HW116745   2.111   4.585   5.903 -0.7435  0.7167  2.0481
 1704SOL    HW216746   2.225   4.640   5.978  0.5374  0.0479 -1.5191
 1705SOL     OW16747   0.662   3.807   2.107  0.0178  0.1661 -0.2827
 1705SOL    HW116748   0.569   3.814   2.130  0.1726 -0.1606  0.4688
 1705SOL    HW216749   0.657   3.759   2.025 -0.2810 -0.9167  0.3616
 1706SOL     OW16750   3.869   2.127  14.923 -0.4420  0.0120  0.0702
 1706SOL    HW116751   3.808   2.090  14.987 -0.9821 -0.3988 -0.6771
 1706SOL    HW216752   3.930   2.178  14.975 -0.6064  0.2584  0.0198
 1707SOL     OW16753   4.235   3.754   4.274 -0.4094 -0.0926  0.0270
 1707SOL    HW116754   4.197   3.753   4.186 -0.6487 -1.3776  0.1448
 1707SOL    HW216755   4.250   3.848   4.283  0.6636 -0.4823  2.3061
 1708SOL     OW16756   0.719   1.267   0.461  0.3806  0.0606 -0.2794
 1708SOL    HW116757   0.728   1.305   0.374  0.2238  0.1490 -0.2568
 1708SOL    HW216758   0.624   1.278   0.467  0.7899  1.3235  3.7807
 1709SOL     OW16759   1.720   0.985   3.211 -0.4742  0.1041 -0.4537
 1709SOL    HW116760   1.722   0.964   3.304 -3.5014  0.6440 -0.2893
 1709SOL    HW216761   1.688   0.901   3.178  2.6363 -0.8099 -1.1817
 1710SOL     OW16762   3.419   2.490   0.689  0.0886 -0.6041  0.9855
 1710SOL    HW116763   3.394   2.494   0.597  1.1740 -1.2480  0.6639
 1710SOL    HW216764   3.513   2.491   0.672  0.2364 -0.3085  1.8439
 1711SOL     OW16765   3.034   0.037   6.255  0.2335  0.0686 -0.1988
 1711SOL    HW116766   3.001   0.021   6.343  0.4069  0.5543 -0.0493
 1711SOL    HW216767   3.086   4.696   6.241  0.5227  0.1344  0.5368
 1712SOL     OW16768   3.213   2.899   7.043 -0.2732 -0.0078 -0.1458
 1712SOL    HW116769   3.127   2.864   7.021 -0.1596  0.3970 -1.2355
 1712SOL    HW216770   3.215   2.881   7.137  0.2853 -2.0694 -0.5512
 1713SOL     OW16771   2.622   3.689   5.309  0.2986  0.1252  0.0712
 1713SOL    HW116772   2.582   3.647   5.385 -0.4346  1.3495  0.3607
 1713SOL    HW216773   2.712   3.696   5.340  0.8058 -0.9476 -1.1245
 1714SOL     OW16774   0.647   0.736  14.857  0.0024 -0.0280 -0.7527
 1714SOL    HW116775   0.732   0.724  14.813  1.0354  1.3386  0.8601
 1714SOL    HW216776   0.645   0.645  14.887  0.4796 -0.1163 -0.9796
 1715SOL     OW16777   3.655   2.625   5.124 -0.2530 -0.4321  0.0098
 1715SOL    HW116778   3.736   2.658   5.163 -0.9393  1.8833 -0.4873
 1715SOL    HW216779   3.628   2.701   5.071 -1.2042 -1.0957 -0.4615
 1716SOL     OW16780   1.963   2.441   3.266 -0.0737 -0.0945  0.3326
 1716SOL    HW116781   2.050   2.402   3.276 -0.6867 -1.0563  1.9793
 1716SOL    HW216782   1.979   2.521   3.317 -1.6621 -1.6287  3.2389
 1717SOL     OW16783   4.321   0.714  10.228 -0.0397  0.8785 -0.4132
 1717SOL    HW116784   4.416   0.709  10.212  0.1370 -2.9403  1.6388
 1717SOL    HW216785   4.304   0.803  10.197 -1.4233  0.6398 -0.3372
 1718SOL     OW16786   0.834   1.661   5.342 -0.7378  0.2267  0.3037
 1718SOL    HW116787   0.915   1.692   5.303 -0.7328 -0.2796 -0.0775
 1718SOL    HW216788   0.854   1.568   5.354  0.7183  0.5918  0.7385
 1719SOL     OW16789   4.705   3.985  10.251  1.0656 -0.2614 -0.4758
 1719SOL    HW116790   0.062   3.989  10.248  1.0251  1.0883 -0.0154
 1719SOL    HW216791   4.678   3.945  10.333  1.2165 -0.2293 -0.4099
 1720SOL     OW16792   4.370   4.055   3.406 -0.6343  0.3066 -0.7283
 1720SOL    HW116793   4.389   3.970   3.444 -0.2229  0.6327 -0.2138
 1720SOL    HW216794   4.302   4.030   3.344  1.6090 -2.1359 -2.2098
 1721SOL     OW16795   3.615   0.037   8.611  0.6010 -0.0582 -0.3998
 1721SOL    HW116796   3.649   0.066   8.696  3.1059  0.0008 -1.4332
 1721SOL    HW216797   3.643   4.685   8.621  0.3509 -0.0237  0.6521
 1722SOL     OW16798   0.141   2.326  12.814  0.1401  0.3080 -0.1972
 1722SOL    HW116799   0.063   2.380  12.828 -0.2148  0.0115 -1.0494
 1722SOL    HW216800   0.159   2.322  12.720  2.0984  0.3977  0.1841
 1723SOL     OW16801   1.128   3.018  14.926  0.2985 -0.2598 -0.0040
 1723SOL    HW116802   1.093   3.091  14.874  0.6792  1.1359  1.6908
 1723SOL    HW216803   1.106   2.945  14.869 -0.3394 -0.1104  0.0491
 1724SOL     OW16804   3.563   0.250   4.882 -0.0681 -0.6885  0.5600
 1724SOL    HW116805   3.566   0.200   4.964  0.5793  0.0317  0.9849
 1724SOL    HW216806   3.471   0.274   4.895  0.4628  1.4159  0.5459
 1725SOL     OW16807   2.457   3.455  12.379  0.2562  0.1251 -0.1090
 1725SOL    HW116808   2.523   3.513  12.417  0.6872 -0.2537 -0.2940
 1725SOL    HW216809   2.372   3.499  12.388  0.3022  0.0152  0.9196
 1726SOL     OW16810   2.634   1.226   7.713 -0.2458 -0.1267  0.6595
 1726SOL    HW116811   2.572   1.198   7.781 -0.8802 -0.0421  0.1195
 1726SOL    HW216812   2.700   1.273   7.764 -2.5385  1.8609  1.8049
 1727SOL     OW16813   3.981   1.702   2.418 -0.2374  0.6706  0.1365
 1727SOL    HW116814   3.974   1.612   2.389  0.1747  0.8951 -0.6656
 1727SOL    HW216815   4.007   1.747   2.337 -0.8749  1.0746  0.1570
 1728SOL     OW16816   4.247   4.574   4.840  0.0150  0.1933 -0.2982
 1728SOL    HW116817   4.286   4.609   4.920  0.9876  0.6681 -0.9797
 1728SOL    HW216818   4.166   4.548   4.883 -1.4703  2.3580 -1.7549
 1729SOL     OW16819   3.198   3.128  11.968  0.3029  0.1003  0.0709
 1729SOL    HW116820   3.291   3.126  11.947  0.3463  0.4441  0.2373
 1729SOL    HW216821   3.191   3.221  11.990 -1.1150  0.0680 -0.2587
 1730SOL     OW16822   3.877   2.378   6.827 -0.9479 -0.3757  0.1378
 1730SOL    HW116823   3.963   2.350   6.796 -0.7163  0.7639 -0.2314
 1730SOL    HW216824   3.854   2.304   6.883 -1.2111  1.3452  2.3305
 1731SOL     OW16825   0.643   3.242   3.701  0.1875 -0.5637  0.1749
 1731SOL    HW116826   0.607   3.171   3.648 -1.5405 -0.5302  1.3051
 1731SOL    HW216827   0.583   3.242   3.776 -0.7378 -0.6412 -0.5809
 1732SOL     OW16828   3.969   4.172   7.031  0.2029  0.5587  0.1113
 1732SOL    HW116829   3.967   4.084   6.993 -1.4954  0.3493  0.7071
 1732SOL    HW216830   3.891   4.208   6.989 -1.4289 -0.1214  2.5547
 1733SOL     OW16831   0.049   1.958   0.573  0.2602 -0.5169  0.1030
 1733SOL    HW116832   0.132   1.983   0.532  1.8318 -0.5129  3.3443
 1733SOL    HW216833   4.733   1.971   0.495 -0.0593 -0.6192  0.3131
 1734SOL     OW16834   2.846   0.711   4.202  0.6887 -0.3616  0.2145
 1734SOL    HW116835   2.875   0.689   4.291  1.2299  0.4117  0.2246
 1734SOL    HW216836   2.863   0.625   4.163  1.0388  0.6248 -1.7957
 1735SOL     OW16837   2.884   3.353   3.091 -0.8138 -0.0886  0.4167
 1735SOL    HW116838   2.956   3.320   3.145 -0.4307  0.1160  0.0316
 1735SOL    HW216839   2.916   3.428   3.042 -1.5243  0.6450  1.0761
 1736SOL     OW16840   2.302   0.081   3.019 -0.5052 -0.2283 -0.3008
 1736SOL    HW116841   2.344   0.115   2.940 -1.6549 -0.2916 -0.9326
 1736SOL    HW216842   2.347   4.735   3.026  0.1491  0.1968  0.7145
 1737SOL     OW16843   0.477   1.791   5.652 -0.3072 -0.5455 -0.8546
 1737SOL    HW116844   0.570   1.795   5.630 -0.1855 -1.3091 -0.5036
 1737SOL    HW216845   0.430   1.786   5.569 -0.8523 -0.0262 -0.5691
 1738SOL     OW16846   0.176   0.192   5.902 -0.1240 -0.3964  0.1225
 1738SOL    HW116847   0.211   0.234   5.981 -0.2399 -2.3617  1.2165
 1738SOL    HW216848   0.118   0.132   5.948 -2.1166  1.7014  0.3426
 1739SOL     OW16849   1.936   0.962  14.358 -0.2250  0.0809 -0.0313
 1739SOL    HW116850   1.928   1.052  14.389  2.9864  0.7071 -1.0522
 1739SOL    HW216851   1.905   0.905  14.429 -0.1515  0.2606  0.1428
 1740SOL     OW16852   2.688   0.148  14.374 -0.0737  0.2066  0.9243
 1740SOL    HW116853   2.759   0.144  14.310  0.8599 -0.0384  1.9678
 1740SOL    HW216854   2.616   0.169  14.315  0.8728 -0.7915 -0.5832
 1741SOL     OW16855   1.221   2.132   4.186  0.2152  0.3935 -0.1334
 1741SOL    HW116856   1.163   2.144   4.111  1.9328 -0.8499 -1.6565
 1741SOL    HW216857   1.241   2.039   4.177  1.3012  0.4694  1.4453
 1742SOL     OW16858   1.210   1.310   3.750 -0.3549 -0.0613  0.4424
 1742SOL    HW116859   1.275   1.271   3.808  1.2144  0.2356 -1.1128
 1742SOL    HW216860   1.201   1.240   3.686 -2.4248  0.5719  0.0516
 1743SOL     OW16861   0.934   3.482  11.841  0.0793  0.2905 -0.2916
 1743SOL    HW116862   0.935   3.390  11.869  1.2681  0.1415 -0.8152
 1743SOL    HW216863   0.926   3.525  11.926 -0.4318 -0.7082  0.1587
 1744SOL     OW16864   4.308   0.282   4.093 -0.1070  1.0925  0.0725
 1744SOL    HW116865   4.263   0.198   4.103  1.0099  0.5555  0.6379
 1744SOL    HW216866   4.356   0.286   4.176  0.4360 -1.0150 -0.1417
 1745SOL     OW16867   4.564   0.373  13.114 -0.0927 -0.1124 -0.2414
 1745SOL    HW116868   4.655   0.350  13.095  0.6124  3.0181 -0.5374
 1745SOL    HW216869   4.564   0.464  13.086  0.0276 -1.3360 -4.1269
 1746SOL     OW16870   4.304   4.258   0.898  0.1392 -0.1658 -0.5570
 1746SOL    HW116871   4.351   4.315   0.838 -0.3497 -0.3241 -1.0866
 1746SOL    HW216872   4.374   4.194   0.908 -0.8632 -1.2582 -0.5853
 1747SOL     OW16873   1.308   4.572  10.305  0.3670  0.5086  0.6887
 1747SOL    HW116874   1.264   4.642  10.354 -2.1913 -0.7711  0.2463
 1747SOL    HW216875   1.402   4.591  10.309  0.3735 -0.0697  2.9039
 1748SOL     OW16876   4.458   3.477  12.428  0.0213 -0.0308 -0.7515
 1748SOL    HW116877   4.430   3.386  12.421 -1.6526  0.3265  1.3770
 1748SOL    HW216878   4.397   3.524  12.485 -0.0549 -1.2884  0.2140
 1749SOL     OW16879   2.675   0.636   9.547  0.2123 -0.0080  0.4978
 1749SOL    HW116880   2.639   0.548   9.545 -0.6948  0.3594  0.3974
 1749SOL    HW216881   2.591   0.682   9.540  0.8832  0.7783 -2.1121
 1750SOL     OW16882   3.383   0.072   2.397 -0.0470 -0.4610  0.2422
 1750SOL    HW116883   3.391   0.159   2.436  1.3097  0.9126 -3.0443
 1750SOL    HW216884   3.472   0.045   2.373 -0.5818 -2.4162  0.4631
 1751SOL     OW16885   2.081   3.684   6.516  0.2568 -0.4027 -0.7589
 1751SOL    HW116886   2.141   3.755   6.497  0.8595 -0.8683 -0.6118
 1751SOL    HW216887   2.133   3.611   6.481 -0.5656 -1.1291 -0.4582
 1752SOL     OW16888   1.491   3.925   1.687 -0.3712  0.0087  0.5042
 1752SOL    HW116889   1.396   3.926   1.674 -0.0798 -0.3783 -1.6625
 1752SOL    HW216890   1.518   3.944   1.597 -2.3769  0.2881 -0.0445
 1753SOL     OW16891   0.670   0.411   7.278  0.4208 -0.0961  0.0343
 1753SOL    HW116892   0.700   0.502   7.270 -0.2811  0.1939  0.7537
 1753SOL    HW216893   0.740   0.359   7.239  0.2616 -1.1477  1.1599
 1754SOL     OW16894   0.822   3.976   2.913  0.1449  0.1378 -0.1488
 1754SOL    HW116895   0.824   3.948   2.822 -0.4517 -0.1505 -0.0765
 1754SOL    HW216896   0.885   4.047   2.906  3.1159 -2.5202 -0.2434
 1755SOL     OW16897   3.786   3.227  10.611  0.1738 -0.2009 -0.1268
 1755SOL    HW116898   3.817   3.139  10.588 -1.2487 -1.0637  1.2989
 1755SOL    HW216899   3.694   3.223  10.585  0.1439  1.6476 -0.3404
 1756SOL     OW16900   2.949   0.374  11.985  0.1711  0.6815  0.0810
 1756SOL    HW116901   2.926   0.467  11.995  4.0938  1.8296 -1.3723
 1756SOL    HW216902   2.982   0.384  11.895  0.8809  0.6304  0.3300
 1757SOL     OW16903   3.855   2.151   5.081 -0.3140 -0.3451 -0.4437
 1757SOL    HW116904   3.797   2.216   5.121 -1.8055 -1.8307 -0.1865
 1757SOL    HW216905   3.876   2.186   4.995 -0.9265  0.1490 -0.3956
 1758SOL     OW16906   3.630   2.329   5.984 -0.0332  0.3528  0.0604
 1758SOL    HW116907   3.720   2.358   6.002 -0.5460  1.0555  1.4506
 1758SOL    HW216908   3.653   2.260   5.921  2.3722 -0.2479  1.6039
 1759SOL     OW16909   1.348   4.391   5.912  1.1691  0.0920  0.1352
 1759SOL    HW116910   1.254   4.383   5.899  0.8598 -0.7359  2.9512
 1759SOL    HW216911   1.382   4.313   5.868  0.1661  1.5791 -3.2456
 1760SOL     OW16912   2.403   0.532   1.818  0.1201  0.4527  0.7398
 1760SOL    HW116913   2.423   0.623   1.837  0.6920  0.3633  0.5590
 1760SOL    HW216914   2.372   0.495   1.900  0.4219  0.9453  1.0703
 1761SOL     OW16915   1.753   3.690   2.790 -0.2077  0.1153 -0.0319
 1761SOL    HW116916   1.770   3.667   2.698  0.0067 -1.4353  0.3902
 1761SOL    HW216917   1.712   3.612   2.828  0.1501 -0.9892 -1.8865
 1762SOL     OW16918   0.812   1.720   3.630  0.5193  0.2070 -0.1353
 1762SOL    HW116919   0.844   1.790   3.572 -1.0343  1.7552  0.8719
 1762SOL    HW216920   0.851   1.639   3.599 -0.3775 -0.1354 -0.3853
 1763SOL     OW16921   4.141   2.630   4.046 -0.4319  0.3274  0.4872
 1763SOL    HW116922   4.156   2.604   3.955  1.6367 -0.6229  1.1049
 1763SOL    HW216923   4.199   2.567   4.089 -1.7400  0.0813  1.8872
 1764SOL     OW16924   1.466   2.621  14.499  0.3543  0.1943 -0.4979
 1764SOL    HW116925   1.482   2.676  14.422 -0.5173  2.2267  0.7839
 1764SOL    HW216926   1.532   2.554  14.479 -1.5016 -2.0167  0.8065
 1765SOL     OW16927   0.155   2.889   6.727  0.4124 -0.0229 -0.2669
 1765SOL    HW116928   0.061   2.877   6.739  0.5975 -0.6718  0.4881
 1765SOL    HW216929   0.152   2.949   6.652  4.9470  0.6959  0.1271
 1766SOL     OW16930   1.191   1.701   0.474 -0.2292  0.0594 -0.0463
 1766SOL    HW116931   1.174   1.791   0.446 -2.8838 -0.4891 -0.1730
 1766SOL    HW216932   1.161   1.653   0.397 -2.5641 -1.8121  2.0048
 1767SOL     OW16933   2.203   0.882   2.178 -0.7716  0.8428  0.2809
 1767SOL    HW116934   2.140   0.952   2.167 -0.4191  0.7727 -2.1285
 1767SOL    HW216935   2.154   0.833   2.244 -2.7096  2.1427 -0.2071
 1768SOL     OW16936   2.882   0.341  17.162  0.2147 -0.0924 -0.2849
 1768SOL    HW116937   2.797   0.338  17.116 -0.7903  0.7113  1.5314
 1768SOL    HW216938   2.886   0.430  17.196 -1.4173 -0.4509  0.8153
 1769SOL     OW16939   1.243   1.450   2.233  0.3598 -0.2152 -0.0301
 1769SOL    HW116940   1.179   1.505   2.188  0.2790  1.1477  1.7280
 1769SOL    HW216941   1.310   1.516   2.251  0.6463  0.0700 -2.1620
 1770SOL     OW16942   1.086   0.125  17.395  0.4803 -0.1983 -0.0456
 1770SOL    HW116943   1.150   0.151  17.460  0.4440 -3.5348  1.3220
 1770SOL    HW216944   1.015   0.184  17.420  1.3985  0.6291  0.5689
 1771SOL     OW16945   3.198   2.660   8.045  0.1519 -0.1058 -0.4720
 1771SOL    HW116946   3.261   2.633   8.111 -0.8995  4.1289  2.2354
 1771SOL    HW216947   3.183   2.752   8.067 -1.6306 -0.9191  1.6430
 1772SOL     OW16948   3.463   4.654   5.443  0.6860  0.0051 -1.3537
 1772SOL    HW116949   3.506   4.624   5.523 -0.2661 -1.3901 -1.3609
 1772SOL    HW216950   3.461   0.008   5.466 -1.1638 -0.1385 -0.9596
 1773SOL     OW16951   1.441   2.284   7.149 -0.3727 -0.2616  0.4419
 1773SOL    HW116952   1.482   2.202   7.177  0.4584 -0.1013 -0.3086
 1773SOL    HW216953   1.394   2.252   7.072  0.8660 -2.2513  0.5076
 1774SOL     OW16954   0.623   0.166   5.044  0.4274  0.4577  0.1264
 1774SOL    HW116955   0.603   0.207   4.960 -1.5174 -0.0509  0.3443
 1774SOL    HW216956   0.697   0.110   5.019 -0.6866 -0.1049 -1.8518
 1775SOL     OW16957   4.503   2.458   5.344  0.7462 -0.3314 -0.2396
 1775SOL    HW116958   4.445   2.421   5.278  0.4625 -0.3597  0.0256
 1775SOL    HW216959   4.486   2.391   5.410  1.6962 -1.4232 -1.0889
 1776SOL     OW16960   2.710   1.437  16.651 -0.1611 -0.4216 -0.6613
 1776SOL    HW116961   2.669   1.419  16.736  0.2633  2.0979  0.0810
 1776SOL    HW216962   2.797   1.454  16.687 -1.2605  0.3462  1.6649
 1777SOL     OW16963   0.374   2.815   7.736 -0.2611 -0.2634 -0.1238
 1777SOL    HW116964   0.323   2.770   7.802 -1.7728  1.2815 -0.2468
 1777SOL    HW216965   0.360   2.754   7.663  0.7949 -1.6748  0.8418
 1778SOL     OW16966   1.998   4.479   0.079 -0.3633 -0.2180  0.1648
 1778SOL    HW116967   1.962   4.391   0.068 -1.2677 -0.2100  3.2561
 1778SOL    HW216968   2.085   4.470   0.039 -0.0693 -0.5337  0.8780
 1779SOL     OW16969   2.318   2.507   6.290  0.3028  0.2631 -0.1141
 1779SOL    HW116970   2.375   2.466   6.354  1.5903  2.3231  0.0610
 1779SOL    HW216971   2.375   2.517   6.213  0.2470 -0.2306 -0.2154
 1780SOL     OW16972   0.300   0.510   2.671  0.3575  0.8428 -0.0781
 1780SOL    HW116973   0.371   0.452   2.644  0.3739  0.1780  1.3510
 1780SOL    HW216974   0.291   0.571   2.598 -0.7099  1.1122  0.2811
 1781SOL     OW16975   1.258   1.964   2.916 -0.4498  0.4383  0.4500
 1781SOL    HW116976   1.302   1.962   2.832 -1.5037 -2.8251 -0.0430
 1781SOL    HW216977   1.220   1.876   2.905  0.8468 -0.0756  0.1274
 1782SOL     OW16978   3.917   1.102   7.021 -0.3494 -0.3158  0.1082
 1782SOL    HW116979   3.862   1.121   7.097  0.7776  2.6014  0.1887
 1782SOL    HW216980   3.858   1.040   6.978 -1.1440  0.6492 -0.1911
 1783SOL     OW16981   0.048   3.224   5.989 -0.4303  0.7651 -0.0898
 1783SOL    HW116982   0.110   3.192   5.924  0.4665  2.9324 -0.3085
 1783SOL    HW216983   4.718   3.158   5.981 -0.7087  1.1345 -0.7449
 1784SOL     OW16984   2.842   0.898  16.961 -0.1043  0.0133 -0.1359
 1784SOL    HW116985   2.791   0.918  16.882 -0.1250 -0.1809 -0.1730
 1784SOL    HW216986   2.783   0.831  16.997  0.2303  0.2164  0.7841
 1785SOL     OW16987   2.128   3.065  17.376 -0.0908 -0.0276  0.3335
 1785SOL    HW116988   2.088   3.004  17.314  1.2409 -0.6368  0.0665
 1785SOL    HW216989   2.063   3.133  17.362 -0.5030 -0.6275 -0.7027
 1786SOL     OW16990   2.593   1.916   4.069 -0.2891 -0.2111 -0.3970
 1786SOL    HW116991   2.621   2.005   4.091 -1.1323  0.4343 -1.8285
 1786SOL    HW216992   2.502   1.912   4.101 -0.3729 -1.4083 -0.7953
 1787SOL     OW16993   2.035   4.003   0.943 -0.1301 -0.1645 -0.1149
 1787SOL    HW116994   2.009   3.933   0.882  0.7578  0.6462 -1.4261
 1787SOL    HW216995   2.050   4.075   0.881  0.3383 -1.5245 -1.5916
 1788SOL     OW16996   0.574   4.388   5.965  0.2832 -0.2762  0.1620
 1788SOL    HW116997   0.485   4.358   5.984 -0.1750  1.9167  1.4602
 1788SOL    HW216998   0.568   4.454   5.895 -2.2607 -0.6244  0.0401
 1789SOL     OW16999   0.019   4.456   8.396 -0.0363  0.0623  0.1230
 1789SOL    HW117000   0.071   4.383   8.362 -0.1217  1.0540 -2.1562
 1789SOL    HW217001   4.721   4.414   8.474  0.8421 -1.3868 -0.2433
 1790SOL     OW17002   1.932   3.205   3.573  0.1435  0.1115  0.6608
 1790SOL    HW117003   1.990   3.148   3.524 -1.2732 -0.9424  0.2029
 1790SOL    HW217004   1.884   3.238   3.497 -0.6167  1.7994  1.8582
 1791SOL     OW17005   2.307   3.096   5.732 -0.0040 -0.4083  0.0872
 1791SOL    HW117006   2.253   3.100   5.811 -0.3434 -0.5991 -0.1334
 1791SOL    HW217007   2.302   3.001   5.718 -0.3379 -0.4361  0.3916
 1792SOL     OW17008   0.776   1.739   0.177 -0.1396 -0.3216 -0.7688
 1792SOL    HW117009   0.767   1.665   0.238 -1.5669  0.1551 -0.4091
 1792SOL    HW217010   0.686   1.751   0.148 -0.5197 -0.7705  0.2186
 1793SOL     OW17011   3.413   1.692   6.669  0.1983 -0.4214  0.0745
 1793SOL    HW117012   3.347   1.624   6.660  0.8973 -1.0720 -0.1279
 1793SOL    HW217013   3.428   1.689   6.763 -0.5221 -1.4867  0.1497
 1794SOL     OW17014   0.638   1.823   5.246  0.4333  0.0462  0.3126
 1794SOL    HW117015   0.674   1.750   5.297 -0.4651  1.0227  2.3476
 1794SOL    HW217016   0.689   1.828   5.166 -0.8004 -0.3633 -0.4874
 1795SOL     OW17017   4.654   2.525   5.125 -0.3347  0.2685 -0.1200
 1795SOL    HW117018   4.598   2.510   5.200 -0.8042  0.8251 -0.3519
 1795SOL    HW217019   0.001   2.505   5.162 -1.0802  0.3914  1.6414
 1796SOL     OW17020   2.018   2.689   1.149 -0.1911 -0.5937 -0.4436
 1796SOL    HW117021   2.029   2.594   1.151  0.3103 -0.5295  0.0516
 1796SOL    HW217022   1.928   2.702   1.179  0.2663  1.9886 -0.1941
 1797SOL     OW17023   3.767   0.914   9.731  0.4207  0.6927 -0.1001
 1797SOL    HW117024   3.856   0.942   9.754  0.4913 -0.6687  1.2933
 1797SOL    HW217025   3.739   0.998   9.695 -1.1387  0.5688  0.8390
 1798SOL     OW17026   4.333   2.496   6.680  0.3573  0.2548 -0.3260
 1798SOL    HW117027   4.372   2.542   6.606  0.4884  0.1988 -0.2910
 1798SOL    HW217028   4.290   2.569   6.725 -0.7677  0.4206 -1.6868
 1799SOL     OW17029   1.433   3.031   2.460  0.9428 -0.5448  0.6354
 1799SOL    HW117030   1.340   3.052   2.450  0.3903 -2.1978  2.3472
 1799SOL    HW217031   1.436   2.936   2.467  0.3093 -0.7974 -2.5012
 1800SOL     OW17032   4.042   1.090   1.664  0.4909 -0.2282  0.2323
 1800SOL    HW117033   3.990   1.010   1.653  1.8471 -1.0088 -0.5693
 1800SOL    HW217034   3.983   1.159   1.633 -1.3903 -1.0373  2.0178
 1801SOL     OW17035   4.132   3.269   5.497 -0.1176  0.4326 -0.4235
 1801SOL    HW117036   4.180   3.304   5.573  1.1871 -0.2418 -0.9289
 1801SOL    HW217037   4.139   3.177   5.521  1.5092  0.5745 -0.3312
 1802SOL     OW17038   0.744   4.027   6.864  0.6887  0.0305  0.4512
 1802SOL    HW117039   0.712   3.977   6.939 -1.6215 -1.4561 -1.5278
 1802SOL    HW217040   0.717   4.116   6.886  1.8914  0.5990 -0.3667
 1803SOL     OW17041   1.962   0.142  15.968 -0.2521 -0.2877  0.0657
 1803SOL    HW117042   1.916   0.204  16.024 -2.3327 -0.6891 -1.1842
 1803SOL    HW217043   1.938   0.056  16.001 -2.4479  0.4946  0.5255
 1804SOL     OW17044   0.557   1.914   3.379  0.3592 -0.1604 -0.7955
 1804SOL    HW117045   0.586   1.846   3.318  0.9430  0.9532 -1.7398
 1804SOL    HW217046   0.505   1.973   3.325  0.3160 -1.0582 -1.7392
 1805SOL     OW17047   4.602   1.022   9.675  0.2816 -0.4368  0.2035
 1805SOL    HW117048   4.543   1.027   9.600  0.4677  0.4952  0.1254
 1805SOL    HW217049   4.657   1.101   9.671 -0.9792  0.4742  1.0521
 1806SOL     OW17050   4.494   2.699  12.184 -0.0590 -0.0085 -0.2580
 1806SOL    HW117051   4.576   2.741  12.159  0.2958 -1.1889 -1.0460
 1806SOL    HW217052   4.451   2.697  12.098  0.3410 -2.6802 -0.4006
 1807SOL     OW17053   4.652   4.175   2.876  0.4732  0.0465 -0.3090
 1807SOL    HW117054   4.674   4.227   2.799  0.2067  0.2679 -0.2318
 1807SOL    HW217055   4.560   4.198   2.885  0.5126  0.0263  0.1770
 1808SOL     OW17056   2.871   0.805   9.461  0.0521 -0.2624  0.6216
 1808SOL    HW117057   2.798   0.749   9.486  0.5182 -1.7630 -1.3377
 1808SOL    HW217058   2.911   0.757   9.388 -0.4882  2.2745 -1.3398
 1809SOL     OW17059   1.971   3.282   2.404  0.1139  0.0475  0.3557
 1809SOL    HW117060   1.895   3.283   2.346 -0.5207  1.5348  1.2416
 1809SOL    HW217061   1.988   3.187   2.402 -0.3055 -0.0277  0.4769
 1810SOL     OW17062   2.399   3.385  16.295  0.4066  0.6654  0.1652
 1810SOL    HW117063   2.380   3.338  16.376  0.4903 -2.8095 -1.8399
 1810SOL    HW217064   2.373   3.321  16.229  1.3336 -0.0579  0.5191
 1811SOL     OW17065   1.889   1.793   3.717  0.0903  0.1812  0.1497
 1811SOL    HW117066   1.800   1.774   3.748  0.0700  0.4079  0.2341
 1811SOL    HW217067   1.894   1.737   3.640 -0.5292  2.3895 -1.5221
 1812SOL     OW17068   2.232   2.003   2.654  0.4252  0.5990 -0.2169
 1812SOL    HW117069   2.217   1.933   2.591  0.5243 -0.1994  0.6367
 1812SOL    HW217070   2.144   2.016   2.689 -0.5668 -0.8542 -2.1641
 1813SOL     OW17071   0.684   1.391   2.890  0.3932 -0.5419 -0.1131
 1813SOL    HW117072   0.648   1.312   2.930  0.9103  0.0208  1.4329
 1813SOL    HW217073   0.713   1.371   2.801 -2.8992 -0.6544 -1.1598
 1814SOL     OW17074   3.534   2.721   5.411  0.4783  0.2700  0.0866
 1814SOL    HW117075   3.533   2.625   5.408  0.0760  0.2574  0.6863
 1814SOL    HW217076   3.508   2.736   5.502  0.8329  1.4861 -0.0249
 1815SOL     OW17077   0.710   3.767  10.947 -0.4941  0.3156 -0.2166
 1815SOL    HW117078   0.799   3.746  10.919 -0.5301  1.1853 -0.9822
 1815SOL    HW217079   0.708   3.731  11.035 -1.6965  1.7374  0.3341
 1816SOL     OW17080   3.383   1.324   9.722 -0.0923 -0.6884  0.2973
 1816SOL    HW117081   3.344   1.396   9.772  0.6864  1.3144 -1.9792
 1816SOL    HW217082   3.464   1.311   9.773  1.1066 -0.2735 -1.4998
 1817SOL     OW17083   2.775   4.348   4.258 -0.0384 -0.0712  0.3490
 1817SOL    HW117084   2.707   4.381   4.199  0.7594  0.2620 -0.3764
 1817SOL    HW217085   2.792   4.428   4.308 -0.3234 -1.4917  2.7213
 1818SOL     OW17086   2.565   4.549   8.000 -0.1025 -0.3503  0.5157
 1818SOL    HW117087   2.639   4.549   7.939  0.4732  0.7347  1.2043
 1818SOL    HW217088   2.523   4.467   7.974  0.3541 -0.6584  0.7305
 1819SOL     OW17089   2.877   3.428   5.323  0.1001 -0.1725 -0.0937
 1819SOL    HW117090   2.917   3.436   5.409  1.6061 -0.2212 -0.7876
 1819SOL    HW217091   2.790   3.463   5.343  0.2232 -1.5580  2.7789
 1820SOL     OW17092   2.556   3.414  15.966 -0.1445  0.1397  0.1428
 1820SOL    HW117093   2.651   3.423  15.976  0.0067 -2.2879  0.7955
 1820SOL    HW217094   2.522   3.503  15.950  2.5713  0.7070 -2.4118
 1821SOL     OW17095   3.112   3.838   4.454 -0.6865  0.8951  0.0275
 1821SOL    HW117096   3.163   3.764   4.421 -2.3580 -0.6634  0.8787
 1821SOL    HW217097   3.151   3.912   4.409  2.4025 -0.7310  0.0677
 1822SOL     OW17098   1.004   0.010   2.553  0.4238  0.1912 -0.5245
 1822SOL    HW117099   0.996   0.023   2.648  2.5533 -0.6756 -0.2236
 1822SOL    HW217100   1.093   4.714   2.548 -0.2786 -1.7456  0.3233
 1823SOL     OW17101   4.250   0.357   8.760  0.4653  0.5181  0.0698
 1823SOL    HW117102   4.324   0.392   8.710 -0.2104  1.7634 -0.0617
 1823SOL    HW217103   4.302   0.285   8.797 -0.7091 -0.6858 -0.6062
 1824SOL     OW17104   1.549   0.011   3.402 -0.0668 -0.6713  0.7715
 1824SOL    HW117105   1.535   4.662   3.367  1.7186 -1.0576  1.0306
 1824SOL    HW217106   1.464   0.019   3.445 -1.3323 -1.9465 -1.4907
 1825SOL     OW17107   3.128   4.687   8.360 -0.6839  0.4804 -0.3987
 1825SOL    HW117108   3.097   4.603   8.395 -1.2869  0.3987 -1.1338
 1825SOL    HW217109   3.219   4.689   8.388 -0.6119 -3.2239 -0.3570
 1826SOL     OW17110   1.649   0.742   3.069 -0.3704  0.1906 -0.3212
 1826SOL    HW117111   1.688   0.658   3.044 -1.6295  0.1461 -2.1071
 1826SOL    HW217112   1.576   0.708   3.121 -0.4211 -0.4829 -0.8293
 1827SOL     OW17113   3.556   3.545   0.109  0.4387 -0.1996 -0.3116
 1827SOL    HW117114   3.589   3.634   0.111 -0.0379 -0.0623  1.9966
 1827SOL    HW217115   3.611   3.505   0.177  0.3532 -0.8791 -0.6382
 1828SOL     OW17116   4.424   4.670   4.408 -0.9782 -0.1896 -0.1444
 1828SOL    HW117117   4.494   4.632   4.355 -0.2877 -1.9244  2.0282
 1828SOL    HW217118   4.447   4.640   4.496 -1.2036 -2.1336 -0.7320
 1829SOL     OW17119   1.631   0.314   2.601 -0.4705 -0.8839 -0.1660
 1829SOL    HW117120   1.602   0.285   2.515 -0.4070 -1.1817 -0.0846
 1829SOL    HW217121   1.561   0.280   2.656  1.7071 -0.3273  2.9766
 1830SOL     OW17122   1.380   2.658  17.094  0.3595  0.2863  0.3526
 1830SOL    HW117123   1.449   2.640  17.030  0.4524 -0.5026  0.6677
 1830SOL    HW217124   1.424   2.655  17.179  0.2961  1.4547  0.4266
 1831SOL     OW17125   0.871   2.736   3.639 -0.1458 -0.1822 -0.1607
 1831SOL    HW117126   0.912   2.719   3.724  0.4528  0.4127 -0.3292
 1831SOL    HW217127   0.847   2.648   3.611  0.0314 -0.2105 -0.2204
 1832SOL     OW17128   0.785   2.026   8.409  0.2649 -0.4073 -0.0539
 1832SOL    HW117129   0.707   2.065   8.448  1.5804  1.1834  0.9703
 1832SOL    HW217130   0.782   2.068   8.323 -0.1150  1.3196  0.8044
 1833SOL     OW17131   1.139   2.701  12.981 -0.0744 -0.7092  0.2757
 1833SOL    HW117132   1.048   2.672  12.972 -0.2594 -0.1656  0.4005
 1833SOL    HW217133   1.183   2.617  12.967 -0.7855 -1.0223 -0.0646
 1834SOL     OW17134   0.310   2.283   2.288 -0.1673 -0.1902  0.0804
 1834SOL    HW117135   0.228   2.328   2.267 -1.1216 -1.8902  0.1706
 1834SOL    HW217136   0.302   2.261   2.381  1.2544  0.8785  0.4573
 1835SOL     OW17137   0.691   1.861   4.798  0.3464 -0.1898  0.6173
 1835SOL    HW117138   0.646   1.931   4.751 -0.6018 -1.4015 -0.2852
 1835SOL    HW217139   0.615   1.812   4.829 -1.4100  1.2215 -1.4445
 1836SOL     OW17140   0.685   0.021   7.292 -0.4530 -0.0113  0.2293
 1836SOL    HW117141   0.612   0.010   7.231  0.2444  1.5833 -0.8854
 1836SOL    HW217142   0.752   0.040   7.227  0.1345 -1.0207  0.5435
 1837SOL     OW17143   4.307   3.525   7.515 -0.4608  0.5468  1.1681
 1837SOL    HW117144   4.215   3.513   7.539 -0.6805 -0.1585 -0.0457
 1837SOL    HW217145   4.332   3.436   7.539 -2.3037 -0.6182 -1.2219
 1838SOL     OW17146   0.743   1.137   0.907 -0.3288  0.4853 -0.3406
 1838SOL    HW117147   0.661   1.089   0.911  1.6689 -3.0582 -1.6838
 1838SOL    HW217148   0.773   1.122   0.997 -2.2738  3.5169  0.8095
 1839SOL     OW17149   2.071   2.274   0.182 -0.1218  0.6817 -0.3047
 1839SOL    HW117150   2.141   2.329   0.147  1.2587 -0.7770  0.1470
 1839SOL    HW217151   2.099   2.241   0.267  0.6228  1.9533 -0.0635
 1840SOL     OW17152   0.382   3.586  17.262  0.2971  0.5073 -0.2316
 1840SOL    HW117153   0.475   3.594  17.285 -0.2615  0.9566  1.9069
 1840SOL    HW217154   0.358   3.506  17.308  2.0986 -0.1332 -0.4192
 1841SOL     OW17155   4.193   0.370   7.970  0.2203  0.8209 -0.4529
 1841SOL    HW117156   4.257   0.423   8.018  2.5310 -0.1361 -2.5086
 1841SOL    HW217157   4.118   0.428   7.953  0.4259  0.7685 -1.5292
 1842SOL     OW17158   1.978   1.960  12.094  0.5550  0.1144  0.1645
 1842SOL    HW117159   1.895   1.915  12.081  1.4789 -2.0399  1.8481
 1842SOL    HW217160   2.033   1.916  12.029 -0.5954 -1.0509 -0.0075
 1843SOL     OW17161   3.820   2.352  14.188 -0.0656  0.7717  0.2059
 1843SOL    HW117162   3.825   2.315  14.276 -0.9027  1.6231  0.6085
 1843SOL    HW217163   3.841   2.444  14.203 -0.2856  0.6984  0.9629
 1844SOL     OW17164   2.157   3.577   3.954  0.4755 -0.1081 -0.4271
 1844SOL    HW117165   2.139   3.489   3.986  1.4439 -0.3916 -0.6695
 1844SOL    HW217166   2.121   3.632   4.024  1.0843  0.2325 -0.3787
 1845SOL     OW17167   0.257   3.205   2.475  0.5679 -0.2948 -0.4100
 1845SOL    HW117168   0.184   3.172   2.424  0.5600 -0.3983 -0.3318
 1845SOL    HW217169   0.306   3.128   2.506  1.3542 -0.3265 -1.7300
 1846SOL     OW17170   3.902   1.363   1.401 -0.0003 -0.3739  0.5195
 1846SOL    HW117171   3.944   1.349   1.316  0.0019  1.1935  0.2537
 1846SOL    HW217172   3.973   1.394   1.457  1.5769 -0.9045 -1.1720
 1847SOL     OW17173   0.254   3.908  10.320  0.2411 -0.2294  0.1808
 1847SOL    HW117174   0.244   3.858  10.401 -0.0692 -0.0147  0.2757
 1847SOL    HW217175   0.262   3.999  10.350 -0.1356 -0.3107  0.5168
 1848SOL     OW17176   2.365   3.882   8.027 -0.2665 -0.0876  0.0061
 1848SOL    HW117177   2.348   3.946   8.097  0.0783  0.1080 -0.0902
 1848SOL    HW217178   2.357   3.925   7.942  0.3430  0.6308  0.3121
 1849SOL     OW17179   3.455   0.826   3.140  0.1759  0.9560 -0.5825
 1849SOL    HW117180   3.500   0.772   3.074 -0.2692 -0.0515 -0.0524
 1849SOL    HW217181   3.377   0.855   3.093  0.2774  2.0178 -0.1017
 1850SOL     OW17182   3.736   4.208   7.490  0.2440 -0.2931 -0.0402
 1850SOL    HW117183   3.760   4.247   7.574 -0.2386 -0.9739  0.4176
 1850SOL    HW217184   3.807   4.240   7.435  0.5871 -0.2251  0.4363
 1851SOL     OW17185   2.197   0.523   5.287  0.1608  0.5508 -0.4434
 1851SOL    HW117186   2.146   0.540   5.207  1.6792  1.0700 -1.3040
 1851SOL    HW217187   2.257   0.597   5.289 -1.1915  1.5932  1.3416
 1852SOL     OW17188   4.198   3.715   9.316  0.3451  0.3083 -0.4520
 1852SOL    HW117189   4.273   3.729   9.374  0.0240  2.0574 -0.4519
 1852SOL    HW217190   4.198   3.796   9.265  2.9969  0.1648 -0.7138
 1853SOL     OW17191   3.943   4.058   2.217  0.0471 -0.2536  0.2088
 1853SOL    HW117192   4.014   3.995   2.213 -0.1576 -0.4676 -0.0882
 1853SOL    HW217193   3.894   4.038   2.137 -1.1506  3.7779 -0.0646
 1854SOL     OW17194   3.934   1.787   2.703  0.1057 -0.5405  0.4082
 1854SOL    HW117195   3.936   1.777   2.608  0.6520 -0.4087  0.4045
 1854SOL    HW217196   3.995   1.718   2.727  3.0023  1.3670 -1.4802
 1855SOL     OW17197   2.012   3.986   6.202 -0.3503 -0.5105 -0.2780
 1855SOL    HW117198   1.954   4.037   6.145  0.1042  0.0482 -0.2427
 1855SOL    HW217199   1.959   3.916   6.241 -1.5189  0.6871  0.2762
 1856SOL     OW17200   0.872   4.417   2.160  0.1619 -0.0462 -0.2596
 1856SOL    HW117201   0.851   4.324   2.159 -2.3026  0.5206 -1.3650
 1856SOL    HW217202   0.859   4.447   2.250  1.5019  1.3489 -0.5320
 1857SOL     OW17203   1.602   0.099  10.562  0.6999 -0.4923  0.0377
 1857SOL    HW117204   1.609   0.034  10.492  0.1848  0.0598 -0.5233
 1857SOL    HW217205   1.586   0.036  10.633  1.2914 -3.1237 -2.1596
 1858SOL     OW17206   2.902   0.634  12.912 -0.3588 -0.4049 -0.3748
 1858SOL    HW117207   2.881   0.671  12.998  3.5589  2.9213 -0.8756
 1858SOL    HW217208   2.989   0.672  12.909 -0.6029  0.2567  1.3072
 1859SOL     OW17209   1.726   2.287   2.841  0.0293  0.3136 -0.8399
 1859SOL    HW117210   1.661   2.281   2.772 -0.7803  2.8571 -0.2872
 1859SOL    HW217211   1.666   2.289   2.915  0.9845 -0.8748 -0.0200
 1860SOL     OW17212   1.733   1.133   4.815  0.4843 -0.4307  0.2967
 1860SOL    HW117213   1.730   1.105   4.724 -2.9799 -0.3140  0.3423
 1860SOL    HW217214   1.792   1.207   4.808  1.7755 -1.5065 -0.3033
 1861SOL     OW17215   0.106   4.441   4.903 -0.1567 -0.3682  0.0747
 1861SOL    HW117216   0.046   4.443   4.829  0.4995  0.0321 -0.4440
 1861SOL    HW217217   0.056   4.373   4.948 -0.8556  0.4588  0.5514
 1862SOL     OW17218   1.612   3.831  12.766 -0.0687  0.2555 -0.5007
 1862SOL    HW117219   1.556   3.889  12.817  0.2503  0.9090 -0.8802
 1862SOL    HW217220   1.549   3.770  12.728 -0.0784 -0.7248  1.0797
 1863SOL     OW17221   4.654   0.405   2.932 -0.3081 -0.6586 -0.2171
 1863SOL    HW117222   4.634   0.498   2.927  0.0246 -0.5484  0.5851
 1863SOL    HW217223   4.575   0.380   2.979 -1.3903  1.5928 -0.8331
 1864SOL     OW17224   1.378   1.112  11.400  0.3275 -0.2634 -0.4993
 1864SOL    HW117225   1.437   1.097  11.474 -1.9500  0.7167  1.5051
 1864SOL    HW217226   1.412   1.194  11.363  0.0590 -1.6571 -3.7823
 1865SOL     OW17227   2.763   4.375   3.419 -0.1637 -0.1125  0.0061
 1865SOL    HW117228   2.679   4.345   3.455  1.0868 -3.3999  0.1910
 1865SOL    HW217229   2.803   4.292   3.393 -2.0577 -1.8014  2.4392
 1866SOL     OW17230   1.256   1.034   2.606 -0.6354 -0.1228 -0.4104
 1866SOL    HW117231   1.256   1.125   2.575  1.0363 -0.4298 -1.2951
 1866SOL    HW217232   1.195   1.053   2.678 -1.6288 -1.9635 -0.7652
 1867SOL     OW17233   1.430   2.642   3.565 -0.5954 -0.0706  0.2179
 1867SOL    HW117234   1.405   2.734   3.577 -0.1489  0.1356 -0.4358
 1867SOL    HW217235   1.344   2.603   3.585 -0.6006 -0.7685 -1.1462
 1868SOL     OW17236   3.161   0.723   5.595 -0.2718  0.3171  0.0601
 1868SOL    HW117237   3.102   0.702   5.522  0.2612 -0.1758 -0.2356
 1868SOL    HW217238   3.203   0.637   5.607 -2.1871 -0.6324 -0.0257
 1869SOL     OW17239   2.215   1.468   3.209  0.5805 -0.0502 -0.3564
 1869SOL    HW117240   2.208   1.477   3.304 -4.9450 -0.2009 -0.7358
 1869SOL    HW217241   2.294   1.414   3.197  0.2335 -0.5577 -0.3797
 1870SOL     OW17242   1.138   1.598   9.142 -0.8245  0.5437 -0.2822
 1870SOL    HW117243   1.120   1.519   9.193  1.1261 -2.1627 -3.7250
 1870SOL    HW217244   1.139   1.561   9.054 -1.3357  2.1028 -0.9199
 1871SOL     OW17245   0.604   4.083   9.840 -0.2122 -0.5956 -0.5775
 1871SOL    HW117246   0.658   4.145   9.889  1.3043 -1.2952 -1.3647
 1871SOL    HW217247   0.513   4.092   9.869  0.0018 -0.6659  0.1053
 1872SOL     OW17248   3.437   4.020   3.743  0.2197 -0.2524  0.7724
 1872SOL    HW117249   3.373   4.059   3.803  0.8483  1.0227  0.6269
 1872SOL    HW217250   3.513   4.029   3.800  0.5067 -1.1202  0.5194
 1873SOL     OW17251   0.773   2.851  13.655 -0.3144  0.0278  0.3306
 1873SOL    HW117252   0.753   2.778  13.714  0.0846  0.0485  0.4876
 1873SOL    HW217253   0.860   2.870  13.689 -0.9916 -0.1436  2.1716
 1874SOL     OW17254   3.234   3.495   2.852  0.4939  0.2860  0.0419
 1874SOL    HW117255   3.321   3.503   2.891  0.2565 -0.8758  0.8095
 1874SOL    HW217256   3.248   3.517   2.760 -4.2635  0.1015 -0.7392
 1875SOL     OW17257   3.817   2.681   6.189 -0.1791  0.7290 -0.4848
 1875SOL    HW117258   3.844   2.664   6.279  1.8055 -1.6792 -1.5406
 1875SOL    HW217259   3.721   2.676   6.195  0.1074 -3.5258  0.7634
 1876SOL     OW17260   2.202   2.847   7.876 -0.0782  0.0341 -0.2999
 1876SOL    HW117261   2.140   2.800   7.821  0.5126 -0.4413 -0.5554
 1876SOL    HW217262   2.152   2.928   7.890 -1.3063 -0.5584 -1.3015
 1877SOL     OW17263   4.642   2.257  12.036 -0.2176  0.1602 -0.2686
 1877SOL    HW117264   4.579   2.248  12.107 -1.4475  3.0630 -0.9718
 1877SOL    HW217265   4.615   2.181  11.985  0.9197 -0.9578  0.7911
 1878SOL     OW17266   0.306   3.822  17.131 -0.3114 -0.1643 -0.1948
 1878SOL    HW117267   0.291   3.825  17.036 -1.0561  0.8266 -0.0443
 1878SOL    HW217268   0.319   3.730  17.152  0.3984 -0.0467 -0.0956
 1879SOL     OW17269   3.385   1.438   2.613 -0.4895 -0.2324  0.4478
 1879SOL    HW117270   3.372   1.377   2.540 -0.5225  2.5944 -1.9577
 1879SOL    HW217271   3.480   1.444   2.621 -0.5876 -0.4089  1.6970
 1880SOL     OW17272   4.681   0.631   4.124  0.5968  0.4247  0.1955
 1880SOL    HW117273   4.696   0.711   4.073  0.6777  0.8085  0.8179
 1880SOL    HW217274   4.586   0.637   4.111  0.5293 -0.4347  0.2894
 1881SOL     OW17275   3.462   4.353   3.844  0.6382  0.7979 -0.1318
 1881SOL    HW117276   3.557   4.345   3.851  0.5503 -1.7532 -1.9077
 1881SOL    HW217277   3.435   4.300   3.919 -1.2488 -0.0041 -1.3846
 1882SOL     OW17278   2.493   1.779   5.919 -0.4291  0.2819  0.2761
 1882SOL    HW117279   2.532   1.857   5.959  0.3714  0.3546 -0.6436
 1882SOL    HW217280   2.442   1.825   5.852 -0.7321  0.9634  0.9803
 1883SOL     OW17281   2.446   2.603   7.906 -0.2025  0.1217  0.4463
 1883SOL    HW117282   2.400   2.648   7.977 -0.5716 -0.0644  0.3294
 1883SOL    HW217283   2.373   2.589   7.844 -0.2605  1.6632  0.1824
 1884SOL     OW17284   2.564   3.517   2.179 -0.3302 -0.1466  0.1544
 1884SOL    HW117285   2.624   3.453   2.140 -0.9775 -1.6703  1.6348
 1884SOL    HW217286   2.483   3.471   2.157 -1.0930  0.7029  1.2117
 1885SOL     OW17287   1.547   2.389  16.803 -0.1728 -0.4711  0.5030
 1885SOL    HW117288   1.612   2.337  16.850  1.8015  1.0036 -0.6235
 1885SOL    HW217289   1.494   2.322  16.760  0.1277 -0.4826  0.1551
 1886SOL     OW17290   1.898   2.357  11.232  0.4950  0.5216 -0.4314
 1886SOL    HW117291   1.947   2.394  11.158  1.1815 -0.5710 -0.5266
 1886SOL    HW217292   1.946   2.274  11.240  0.7865  0.7629  0.3285
 1887SOL     OW17293   4.085   2.403  13.523 -0.1042  0.0095 -0.4025
 1887SOL    HW117294   4.120   2.320  13.554  0.4328 -1.1650 -4.1437
 1887SOL    HW217295   4.019   2.428  13.587 -0.0987 -1.1233  0.0331
 1888SOL     OW17296   0.144   2.139  11.956  0.0904  0.1832 -0.3218
 1888SOL    HW117297   0.086   2.190  12.013  0.5265  0.4723 -0.1347
 1888SOL    HW217298   0.084   2.065  11.947  1.2650 -0.9581  0.9797
 1889SOL     OW17299   3.494   2.579   4.317  0.2485 -0.0731  0.8127
 1889SOL    HW117300   3.496   2.512   4.249  0.9501 -0.8923  1.6491
 1889SOL    HW217301   3.416   2.554   4.366 -0.2430 -1.2000 -0.5701
 1890SOL     OW17302   3.333   1.153   8.714 -0.0884  0.0535  0.1649
 1890SOL    HW117303   3.400   1.154   8.782 -1.0935 -1.8002  1.1910
 1890SOL    HW217304   3.310   1.246   8.717 -1.9506 -0.3857 -0.7137
 1891SOL     OW17305   1.076   4.382   5.927 -0.3763  0.5749  0.5516
 1891SOL    HW117306   1.040   4.471   5.930 -2.4509 -0.2931  1.6163
 1891SOL    HW217307   0.994   4.343   5.895 -0.7749 -0.0717  2.3109
 1892SOL     OW17308   2.140   3.760   1.548  0.2979  0.4047  0.1039
 1892SOL    HW117309   2.164   3.841   1.503 -2.1906  1.3247  0.4432
 1892SOL    HW217310   2.050   3.762   1.516  0.3664  0.0487 -0.1104
 1893SOL     OW17311   1.734   2.773  16.295  0.3714  0.3056 -0.3432
 1893SOL    HW117312   1.804   2.836  16.280  1.6340 -0.9880  0.1144
 1893SOL    HW217313   1.756   2.746  16.384  1.1914  1.4211 -0.2196
 1894SOL     OW17314   0.348   2.398  15.839 -0.0038  0.4149 -0.1621
 1894SOL    HW117315   0.330   2.491  15.850 -0.7148 -0.0792  3.0522
 1894SOL    HW217316   0.429   2.391  15.889  0.0090  3.2562  0.2209
 1895SOL     OW17317   0.489   0.470  15.094  0.3782 -0.1225 -0.3124
 1895SOL    HW117318   0.422   0.490  15.029  1.6448 -1.1282 -1.9315
 1895SOL    HW217319   0.573   0.495  15.055  1.1711 -0.1810  1.3461
 1896SOL     OW17320   0.435   3.753  11.822 -0.5057  0.3451 -0.7307
 1896SOL    HW117321   0.407   3.703  11.898  1.7364 -0.8656 -0.6994
 1896SOL    HW217322   0.498   3.692  11.782 -1.8610  0.1854 -2.6351
 1897SOL     OW17323   2.973   0.091   4.384  0.2454  0.3240  0.0540
 1897SOL    HW117324   3.047   0.122   4.437 -0.5913  2.0829  0.1811
 1897SOL    HW217325   3.026   0.023   4.342 -1.0816 -1.0510  0.5782
 1898SOL     OW17326   0.537   1.685   7.269 -0.2232 -0.0969 -0.6438
 1898SOL    HW117327   0.511   1.609   7.217 -0.2446  0.3764 -1.3181
 1898SOL    HW217328   0.490   1.655   7.347  1.8926 -0.3520  0.5342
 1899SOL     OW17329   1.832   4.152   5.971 -0.1143 -0.4320 -0.0048
 1899SOL    HW117330   1.786   4.204   6.037  1.1180  0.2864  0.2938
 1899SOL    HW217331   1.811   4.201   5.891  0.4350 -0.5956 -0.2520
 1900SOL     OW17332   0.757   3.311   5.550 -0.5208 -0.0172  0.4581
 1900SOL    HW117333   0.713   3.233   5.583 -0.4968  0.0923  0.7458
 1900SOL    HW217334   0.779   3.289   5.459 -3.5543  1.3217 -0.5909
 1901SOL     OW17335   0.019   3.795   3.506 -0.4730 -0.1422  0.1427
 1901SOL    HW117336   0.028   3.743   3.426  1.7345 -0.5979  0.6785
 1901SOL    HW217337   0.032   3.888   3.488 -2.4936  0.8236  3.7070
 1902SOL     OW17338   0.515   3.518   4.663  0.4648 -0.3732 -0.2111
 1902SOL    HW117339   0.535   3.588   4.602  0.2447  0.7110  0.9623
 1902SOL    HW217340   0.512   3.446   4.600  0.5284  0.6161 -1.3343
 1903SOL     OW17341   2.501   3.501   5.111 -0.4226  0.8692  0.3276
 1903SOL    HW117342   2.506   3.442   5.187  2.5673 -0.4708 -0.9046
 1903SOL    HW217343   2.586   3.544   5.123 -0.2926  0.6607  0.1485
 1904SOL     OW17344   2.051   1.757   5.242 -0.3148 -0.1611  0.2562
 1904SOL    HW117345   2.091   1.793   5.322  2.3526 -1.2156 -0.6030
 1904SOL    HW217346   1.976   1.814   5.228  0.3297 -0.1417 -3.0846
 1905SOL     OW17347   4.395   3.819  12.461  0.3905 -0.3351  0.2379
 1905SOL    HW117348   4.440   3.804  12.544 -1.0718  0.7114  1.2303
 1905SOL    HW217349   4.433   3.746  12.413  1.7019 -1.4171  2.8796
 1906SOL     OW17350   4.588   4.713   7.819  0.5047 -0.0979 -0.0486
 1906SOL    HW117351   4.548   4.644   7.766 -3.3815  1.0668  1.3634
 1906SOL    HW217352   4.510   0.003   7.865  1.8546  0.0586  2.1531
 1907SOL     OW17353   4.606   4.367   4.408 -0.6604 -0.0753 -0.4610
 1907SOL    HW117354   4.581   4.438   4.467  1.6214 -0.6535  1.2384
 1907SOL    HW217355   4.575   4.399   4.324  0.4353  0.1803 -0.7609
 1908SOL     OW17356   0.642   1.794   2.148  0.5620  0.5446  0.4817
 1908SOL    HW117357   0.723   1.794   2.199  0.0455 -1.1148  1.2998
 1908SOL    HW217358   0.641   1.878   2.102 -1.3897 -0.0416 -0.5076
 1909SOL     OW17359   4.088   1.866   4.583 -0.6843  0.1327 -0.2547
 1909SOL    HW117360   4.044   1.783   4.567  0.7750 -0.2090 -2.5492
 1909SOL    HW217361   4.013   1.921   4.606 -0.3865  0.5192 -0.2088
 1910SOL     OW17362   4.176   1.556  13.247 -0.1682  0.2353  0.7260
 1910SOL    HW117363   4.219   1.471  13.253 -0.2147  0.2054  0.6307
 1910SOL    HW217364   4.090   1.539  13.286  0.6436 -3.2460  0.9807
 1911SOL     OW17365   0.508   0.286   2.095 -0.2868 -0.0346 -0.6070
 1911SOL    HW117366   0.497   0.208   2.149  2.1643 -1.1559 -1.7701
 1911SOL    HW217367   0.464   0.267   2.012 -1.1433 -0.3255 -0.0877
 1912SOL     OW17368   0.564   0.737  12.326  0.6161  0.1647 -0.5107
 1912SOL    HW117369   0.540   0.798  12.396  0.7651 -1.0126  0.5654
 1912SOL    HW217370   0.480   0.696  12.307  0.6841  0.1653 -0.8024
 1913SOL     OW17371   2.705   2.985  12.815  0.3025 -0.2761 -0.2507
 1913SOL    HW117372   2.794   3.018  12.806  0.0376  0.4253 -0.2815
 1913SOL    HW217373   2.714   2.939  12.899 -0.4594 -0.2500 -0.1522
 1914SOL     OW17374   4.358   3.977   5.490 -0.1314  0.4282  0.0657
 1914SOL    HW117375   4.400   3.941   5.568 -0.9288  0.0726  0.3303
 1914SOL    HW217376   4.418   3.964   5.417 -0.8851  0.2256 -0.5222
 1915SOL     OW17377   2.142   4.322   0.295  0.5050 -0.2117 -0.1065
 1915SOL    HW117378   2.170   4.353   0.209 -1.5444  1.0280 -0.3268
 1915SOL    HW217379   2.050   4.299   0.284  0.0540  1.8324 -0.7354
 1916SOL     OW17380   2.514   2.031   2.220 -0.1630  0.6287  0.0763
 1916SOL    HW117381   2.514   1.976   2.142 -0.7105 -1.2763  1.3999
 1916SOL    HW217382   2.422   2.051   2.234 -0.3109 -0.1016  0.1722
 1917SOL     OW17383   1.337   2.014   5.025 -0.4485 -0.4285  0.2365
 1917SOL    HW117384   1.291   1.966   5.094 -1.0738 -0.3761 -0.1439
 1917SOL    HW217385   1.340   2.100   5.067 -2.2920  0.5536 -1.6556
 1918SOL     OW17386   4.060   1.806   9.505 -0.2642 -0.6349 -0.8233
 1918SOL    HW117387   4.090   1.744   9.571  0.3592  1.0848  0.5285
 1918SOL    HW217388   4.138   1.860   9.492 -0.6112  1.0175  3.6731
 1919SOL     OW17389   0.764   3.882   2.354 -0.0803 -0.4974  0.4066
 1919SOL    HW117390   0.711   3.803   2.343 -1.5746  0.2675  2.0118
 1919SOL    HW217391   0.812   3.865   2.273 -0.3911 -0.9178  0.3114
 1920SOL     OW17392   4.433   4.320   4.783  0.0902  0.2685  0.1607
 1920SOL    HW117393   4.350   4.367   4.797 -0.6951 -1.2063  0.5230
 1920SOL    HW217394   4.425   4.230   4.817  0.7830 -0.5204 -1.8001
 1921SOL     OW17395   2.679   1.794   0.740 -0.5510 -0.0499  0.1478
 1921SOL    HW117396   2.686   1.839   0.824  2.2968  0.5008 -0.3749
 1921SOL    HW217397   2.756   1.826   0.692  1.3872 -1.7932  2.1168
 1922SOL     OW17398   3.328   1.496   9.235  0.0141 -0.2316  0.3802
 1922SOL    HW117399   3.387   1.451   9.296  1.9878  0.5880 -0.9249
 1922SOL    HW217400   3.275   1.555   9.288  1.6395  0.9318  0.7103
 1923SOL     OW17401   2.258   2.655   1.694 -0.2884 -0.5173 -0.8453
 1923SOL    HW117402   2.271   2.737   1.647  1.2609  0.6087  1.4993
 1923SOL    HW217403   2.164   2.643   1.687 -0.0756 -2.3170 -0.6168
 1924SOL     OW17404   3.959   0.442   7.192 -0.4124 -0.1956  0.3960
 1924SOL    HW117405   3.891   0.403   7.137  1.5104 -2.3739 -0.4315
 1924SOL    HW217406   4.030   0.381   7.174 -0.3599  0.1853 -0.7092
 1925SOL     OW17407   1.051   0.341   4.695 -0.3564 -0.1306  0.1953
 1925SOL    HW117408   1.031   0.366   4.785  0.2404 -2.0246  0.8494
 1925SOL    HW217409   1.064   0.432   4.667  3.1497 -0.1426  1.7159
 1926SOL     OW17410   0.371   2.440   5.445 -0.3050 -0.5253  0.5494
 1926SOL    HW117411   0.438   2.484   5.393  1.1329 -3.4825 -0.0834
 1926SOL    HW217412   0.369   2.494   5.523  0.2942  1.1692 -0.6092
 1927SOL     OW17413   2.637   3.148  16.443 -0.0752  0.1188 -0.0350
 1927SOL    HW117414   2.557   3.131  16.394  0.6127  3.8495 -2.4096
 1927SOL    HW217415   2.697   3.167  16.371  0.6027  0.4211  0.6090
 1928SOL     OW17416   3.975   3.241  14.715 -0.2323  0.1225 -0.2933
 1928SOL    HW117417   3.890   3.245  14.671 -0.8281  3.6345  1.2303
 1928SOL    HW217418   3.997   3.333  14.729 -1.4588  0.5577 -1.2483
 1929SOL     OW17419   1.622   0.241   1.958  0.1313  0.0892 -0.0916
 1929SOL    HW117420   1.676   0.214   1.883  0.4221  1.6393 -0.4384
 1929SOL    HW217421   1.542   0.273   1.916  0.1096 -0.5371 -0.5315
 1930SOL     OW17422   0.399   3.302   1.771  0.2074  0.3971  0.3151
 1930SOL    HW117423   0.315   3.281   1.812 -1.0718 -0.4102 -2.6468
 1930SOL    HW217424   0.442   3.302   1.856  1.7826 -0.1428 -0.4675
 1931SOL     OW17425   4.180   2.820   3.483  0.0069  0.0912  0.0749
 1931SOL    HW117426   4.173   2.780   3.397  4.0320  2.7102 -1.4449
 1931SOL    HW217427   4.167   2.910   3.454 -2.5103 -0.4536 -0.4157
 1932SOL     OW17428   1.441   1.035   6.654  0.3237  0.1638  0.4149
 1932SOL    HW117429   1.393   1.089   6.591 -1.8969  2.0997  3.7664
 1932SOL    HW217430   1.414   0.953   6.613  3.5391  0.7139 -2.7869
 1933SOL     OW17431   1.103   2.766  13.987 -0.5237 -0.1015 -0.2587
 1933SOL    HW117432   1.070   2.713  14.060  0.0939  1.4694  1.1476
 1933SOL    HW217433   1.110   2.699  13.918  2.7747  0.8967 -0.8836
 1934SOL     OW17434   3.445   1.351  12.530 -0.2712 -0.0681 -0.4995
 1934SOL    HW117435   3.522   1.380  12.578  0.1125 -0.2005 -1.0388
 1934SOL    HW217436   3.483   1.273  12.491  0.0788 -0.2923  0.2766
 1935SOL     OW17437   0.720   0.050   7.559  0.0273 -0.1988  0.1285
 1935SOL    HW117438   0.686   0.137   7.539 -0.0299 -0.1109  0.6186
 1935SOL    HW217439   0.702   0.008   7.475 -2.4022 -0.7748  0.9482
 1936SOL     OW17440   3.353   4.331   4.490 -0.2460  0.7425 -0.5571
 1936SOL    HW117441   3.277   4.339   4.431 -0.4552  0.3383 -0.3446
 1936SOL    HW217442   3.314   4.321   4.577  1.5354 -0.0439  0.1448
 1937SOL     OW17443   2.755   3.114   6.273  0.0401 -0.1174 -0.6575
 1937SOL    HW117444   2.752   3.181   6.341  0.0405 -2.1120  1.3010
 1937SOL    HW217445   2.784   3.171   6.202  1.7738 -1.5019 -1.0773
 1938SOL     OW17446   1.630   3.349   9.320 -0.7175 -0.1252 -0.6391
 1938SOL    HW117447   1.645   3.408   9.395 -1.2642 -0.7251 -0.0537
 1938SOL    HW217448   1.717   3.330   9.288 -0.0219  1.6620  0.1748
 1939SOL     OW17449   4.264   1.992   7.928 -0.0101 -0.3981 -0.0749
 1939SOL    HW117450   4.290   2.064   7.985 -1.2649 -0.1823  0.2301
 1939SOL    HW217451   4.227   2.046   7.858  0.1157  1.3214  1.1950
 1940SOL     OW17452   0.302   0.902  15.008  0.2420 -0.2783  0.3291
 1940SOL    HW117453   0.396   0.897  15.021  0.4631  1.4150 -0.6072
 1940SOL    HW217454   0.272   0.949  15.086 -0.1227 -0.1078  0.0913
 1941SOL     OW17455   3.044   0.688  10.547  0.1811 -0.1952  0.3172
 1941SOL    HW117456   3.046   0.610  10.602  0.1649 -1.1398 -1.0110
 1941SOL    HW217457   2.972   0.734  10.591 -0.9960 -1.9678  0.2345
 1942SOL     OW17458   0.087   2.599  12.730  0.5087 -0.3765 -0.3624
 1942SOL    HW117459   0.053   2.657  12.798  1.4162 -2.2554  1.6690
 1942SOL    HW217460   0.170   2.641  12.708  0.5931 -0.8057 -0.8761
 1943SOL     OW17461   2.279   0.824   6.378 -0.6839  0.1598  0.3812
 1943SOL    HW117462   2.296   0.913   6.347 -0.3175  0.6073  1.8452
 1943SOL    HW217463   2.309   0.779   6.299 -2.1103  0.3468 -0.2617
 1944SOL     OW17464   3.101   1.607  15.285  0.0445 -0.2777  0.0508
 1944SOL    HW117465   3.078   1.575  15.372 -0.3117 -0.2514 -0.0350
 1944SOL    HW217466   3.115   1.701  15.296  0.3775 -0.3932  0.6421
 1945SOL     OW17467   1.744   2.237  10.366  0.0352  0.0020 -0.2506
 1945SOL    HW117468   1.812   2.267  10.426 -0.8240 -2.8610  2.1570
 1945SOL    HW217469   1.669   2.274  10.413 -0.2888  1.6100 -2.0049
 1946SOL     OW17470   1.822   3.299   0.698 -0.3426 -0.5057 -0.1913
 1946SOL    HW117471   1.885   3.277   0.767  0.4023 -1.9456 -1.3237
 1946SOL    HW217472   1.817   3.213   0.656 -2.9745 -1.6612  2.5068
 1947SOL     OW17473   1.668   1.163   8.247  0.3642  0.0823  0.3333
 1947SOL    HW117474   1.609   1.224   8.291 -0.0441  1.2483 -1.8260
 1947SOL    HW217475   1.609   1.092   8.220  0.4693 -0.2132  0.8994
 1948SOL     OW17476   3.567   1.344   4.034  0.0306  0.5554 -0.3454
 1948SOL    HW117477   3.537   1.410   4.097  1.7913  1.4970 -0.4970
 1948SOL    HW217478   3.530   1.388   3.958 -1.6899  0.6532  0.5426
 1949SOL     OW17479   3.039   0.060   3.708 -0.0271 -0.2793  0.5550
 1949SOL    HW117480   2.952   0.075   3.746  0.1411 -0.3873  0.9823
 1949SOL    HW217481   3.057   4.716   3.752 -1.1633 -1.5392 -1.3210
 1950SOL     OW17482   2.705   0.952  11.467 -0.2253 -0.2835  0.1220
 1950SOL    HW117483   2.726   1.001  11.388  0.8545 -0.3433  0.3706
 1950SOL    HW217484   2.747   0.870  11.440 -1.0472 -0.6035 -0.2256
 1951SOL     OW17485   0.376   2.093   6.549  0.0833 -0.0482  0.1843
 1951SOL    HW117486   0.281   2.099   6.545  0.2101  1.9585  0.3168
 1951SOL    HW217487   0.384   2.124   6.639 -1.4594  1.0796 -0.0609
 1952SOL     OW17488   4.505   1.448   4.241  0.4109 -0.1962 -0.6377
 1952SOL    HW117489   4.545   1.436   4.155  0.1066 -0.9128 -0.6713
 1952SOL    HW217490   4.447   1.372   4.242  0.6115 -0.3363  0.1618
 1953SOL     OW17491   2.464   3.719   1.705 -0.1241 -0.1210  0.1960
 1953SOL    HW117492   2.556   3.746   1.705  0.2148 -1.2474  1.9744
 1953SOL    HW217493   2.426   3.806   1.718  3.0359  1.2694  0.2061
 1954SOL     OW17494   3.502   2.275   9.319  0.1418 -0.4004  0.2713
 1954SOL    HW117495   3.537   2.301   9.234  1.2050 -2.3646  0.1231
 1954SOL    HW217496   3.485   2.181   9.317 -1.2677 -0.1110 -1.3959
 1955SOL     OW17497   4.163   2.060   1.748  0.2211 -0.4455 -0.5312
 1955SOL    HW117498   4.114   2.133   1.787  3.4684  2.2921 -1.5399
 1955SOL    HW217499   4.202   2.020   1.826 -1.0697 -2.3630 -0.8705
 1956SOL     OW17500   1.443   1.855   5.867  0.1136  0.0775 -0.1563
 1956SOL    HW117501   1.494   1.926   5.906  1.3057 -0.5321 -0.6309
 1956SOL    HW217502   1.363   1.908   5.876  0.1169 -0.0151  0.4015
 1957SOL     OW17503   2.485   1.071  16.988 -0.1659 -0.4317  0.6106
 1957SOL    HW117504   2.471   1.088  16.895 -0.4041 -0.6631  0.6020
 1957SOL    HW217505   2.503   1.158  17.022  0.3229  0.3773 -1.7612
 1958SOL     OW17506   4.143   2.126  13.614  0.1816  0.0464 -0.4492
 1958SOL    HW117507   4.204   2.111  13.686  1.7564  0.7566 -1.6377
 1958SOL    HW217508   4.201   2.093  13.545  0.5849 -2.2577  1.0069
 1959SOL     OW17509   2.976   4.708   2.649  0.3092  0.4376 -0.4273
 1959SOL    HW117510   2.891   4.689   2.689  0.7256 -0.8239 -0.1764
 1959SOL    HW217511   2.964   4.695   2.555  1.3149  0.7981 -0.6046
 1960SOL     OW17512   3.935   4.436   8.469 -0.4113 -0.1586 -0.1107
 1960SOL    HW117513   3.921   4.461   8.377  0.4893  0.8130  0.0156
 1960SOL    HW217514   3.872   4.365   8.481  0.1289 -0.7708 -0.8283
 1961SOL     OW17515   0.389   1.386   3.851 -0.3132 -0.2986  0.1511
 1961SOL    HW117516   0.461   1.445   3.830 -0.7168  0.2479  0.3039
 1961SOL    HW217517   0.423   1.324   3.915 -1.7709 -0.3237  0.9059
 1962SOL     OW17518   4.414   3.759  10.234 -0.1034 -0.7709 -0.0060
 1962SOL    HW117519   4.359   3.764  10.313  1.4935 -2.8732  1.2331
 1962SOL    HW217520   4.493   3.800  10.269  0.5036 -0.6242 -1.5514
 1963SOL     OW17521   1.789   2.747   6.845 -0.5359 -0.4928 -0.4266
 1963SOL    HW117522   1.853   2.743   6.916 -0.9028 -1.5517 -0.1578
 1963SOL    HW217523   1.707   2.759   6.892 -1.0842  1.1369 -1.8044
 1964SOL     OW17524   4.014   0.606   3.459 -0.3955  0.7364  0.0324
 1964SOL    HW117525   4.032   0.513   3.448 -0.2286  0.6790  0.7712
 1964SOL    HW217526   4.089   0.630   3.514 -1.0288 -0.7675  1.5501
 1965SOL     OW17527   2.285   3.536   1.597  0.1835 -0.6738  0.3748
 1965SOL    HW117528   2.338   3.601   1.643 -0.6094 -0.2729  0.7283
 1965SOL    HW217529   2.216   3.596   1.569  0.2086  0.2093  2.2182
 1966SOL     OW17530   4.173   2.558  16.213 -0.0496 -0.2463  0.0651
 1966SOL    HW117531   4.182   2.615  16.289  0.1211  0.5363 -0.5406
 1966SOL    HW217532   4.180   2.622  16.142  2.1174  0.5895  1.0642
 1967SOL     OW17533   3.172   4.646   8.709  0.2200  0.5502 -0.5004
 1967SOL    HW117534   3.171   4.597   8.627 -0.6764  1.4555 -1.0214
 1967SOL    HW217535   3.096   4.701   8.690  1.4549  1.8838 -1.6308
 1968SOL     OW17536   4.236   0.682   0.694  0.2664 -0.2147 -0.0378
 1968SOL    HW117537   4.149   0.723   0.697  0.8572  0.9019  1.8120
 1968SOL    HW217538   4.255   0.695   0.601  2.1935 -1.5938  0.1557
 1969SOL     OW17539   4.041   3.433   5.131  0.4561 -0.3790 -0.3746
 1969SOL    HW117540   4.020   3.526   5.128  1.2317 -0.1881  0.0826
 1969SOL    HW217541   4.099   3.425   5.056  0.4567  2.3374 -0.6623
 1970SOL     OW17542   2.714   1.723   2.565  0.2975  0.5146 -0.5061
 1970SOL    HW117543   2.697   1.755   2.476 -2.4745  1.2084  0.2887
 1970SOL    HW217544   2.658   1.779   2.618  0.8574  1.0438 -0.4791
 1971SOL     OW17545   3.841   0.479   7.571  0.0306 -0.1401  0.0479
 1971SOL    HW117546   3.818   0.543   7.639  1.5042 -0.0004  0.4177
 1971SOL    HW217547   3.801   0.530   7.501 -2.2568 -0.8170  0.8568
 1972SOL     OW17548   1.682   0.325  13.576  0.1230  0.2162  0.2352
 1972SOL    HW117549   1.662   0.346  13.484 -1.0746 -0.0355  0.4504
 1972SOL    HW217550   1.755   0.385  13.590  0.7891 -0.8538  1.3484
 1973SOL     OW17551   3.830   2.795   9.328  0.5287 -0.2476  0.3721
 1973SOL    HW117552   3.749   2.754   9.359  0.3666 -0.4485 -0.3243
 1973SOL    HW217553   3.886   2.717   9.331  0.3423 -0.3089  2.7394
 1974SOL     OW17554   3.429   0.677  13.432 -0.2961 -0.0064  0.4494
 1974SOL    HW117555   3.358   0.615  13.447 -0.6021  0.5400  1.2418
 1974SOL    HW217556   3.397   0.705  13.347 -0.2492 -0.3573  0.3184
 1975SOL     OW17557   1.337   1.238   0.871 -0.6541  0.4369 -0.0486
 1975SOL    HW117558   1.285   1.167   0.908 -0.5436  0.2377 -0.2679
 1975SOL    HW217559   1.284   1.315   0.893  0.8587  1.9004 -1.5456
 1976SOL     OW17560   3.648   4.292  15.665 -0.3893 -0.0105 -0.1416
 1976SOL    HW117561   3.730   4.340  15.675 -0.8007  1.2688 -2.8451
 1976SOL    HW217562   3.670   4.250  15.582  1.4341 -0.0753  0.3616
 1977SOL     OW17563   2.147   2.490   5.644  0.4001  0.0505  0.2525
 1977SOL    HW117564   2.218   2.454   5.697 -1.1859  0.0739  2.4048
 1977SOL    HW217565   2.177   2.461   5.557 -2.0053 -0.7418 -0.3184
 1978SOL     OW17566   1.188   3.986   8.940 -0.3801 -0.3345  0.4173
 1978SOL    HW117567   1.251   3.920   8.968  0.4413  0.9842  1.6826
 1978SOL    HW217568   1.233   4.017   8.861  0.7272  1.5186  1.7798
 1979SOL     OW17569   0.207   0.602  15.174 -0.2632 -0.4354 -0.1326
 1979SOL    HW117570   0.275   0.599  15.107  1.2015 -1.8081  1.4206
 1979SOL    HW217571   0.130   0.555  15.142  0.8075 -2.1312 -0.2530
 1980SOL     OW17572   4.003   4.261   7.734 -0.3546  0.1604 -0.0236
 1980SOL    HW117573   3.915   4.268   7.769 -0.2715 -1.5691  0.5405
 1980SOL    HW217574   4.049   4.253   7.818 -0.2693 -1.3721 -0.2091
 1981SOL     OW17575   0.468   1.616   2.674 -0.0186  0.0211  0.4297
 1981SOL    HW117576   0.530   1.610   2.601 -1.4914  0.0359 -0.8064
 1981SOL    HW217577   0.409   1.689   2.654 -0.1269 -0.2375 -0.1941
 1982SOL     OW17578   3.216   1.775   1.514  0.4726 -0.1235  0.1752
 1982SOL    HW117579   3.212   1.685   1.482  0.7838  0.1791 -0.6950
 1982SOL    HW217580   3.126   1.807   1.511  0.4363 -0.1594  0.9115
 1983SOL     OW17581   4.338   1.816  13.213 -0.1019  0.2859  0.1695
 1983SOL    HW117582   4.299   1.834  13.299 -0.6930 -0.4658  0.0595
 1983SOL    HW217583   4.310   1.725  13.204 -0.4708  0.3405  0.7626
 1984SOL     OW17584   0.831   2.674  12.618 -0.0851  0.0867  0.0523
 1984SOL    HW117585   0.877   2.695  12.699  0.8849 -0.3114 -0.3974
 1984SOL    HW217586   0.896   2.673  12.549  0.9499 -0.9725  1.0388
 1985SOL     OW17587   4.112   0.022   3.474 -0.7101 -0.2014  0.2858
 1985SOL    HW117588   4.082   0.044   3.562  1.3012  1.0717  0.6491
 1985SOL    HW217589   4.168   4.689   3.504  1.3639  0.4151 -2.1139
 1986SOL     OW17590   2.850   1.541   7.186 -1.0270 -0.6989  0.0518
 1986SOL    HW117591   2.760   1.572   7.196  0.9899  4.5812  1.9741
 1986SOL    HW217592   2.881   1.567   7.273 -0.2987  0.3060 -0.5096
 1987SOL     OW17593   3.122   1.821  11.957 -0.4078 -0.2495 -0.2985
 1987SOL    HW117594   3.142   1.793  12.046 -0.6279  0.1127 -0.1320
 1987SOL    HW217595   3.082   1.739  11.930 -0.0241 -0.8772  1.0639
 1988SOL     OW17596   0.510   2.654   9.052 -0.3334 -0.4886  0.0759
 1988SOL    HW117597   0.465   2.710   8.988 -1.8107 -1.3833  0.3338
 1988SOL    HW217598   0.437   2.615   9.101 -2.6750  2.3798 -1.1212
 1989SOL     OW17599   0.297   3.753   2.789 -0.0809  0.1280 -0.1398
 1989SOL    HW117600   0.213   3.766   2.833 -0.9068 -1.7032 -1.1828
 1989SOL    HW217601   0.275   3.684   2.727 -0.1622  1.0689 -1.1409
 1990SOL     OW17602   0.166   2.909   9.353  0.6967  0.4554 -0.4706
 1990SOL    HW117603   0.125   2.980   9.403  1.2618 -0.0341  0.6800
 1990SOL    HW217604   0.110   2.905   9.276 -0.2415  0.7246  0.1946
 1991SOL     OW17605   3.736   3.084   8.945 -0.2483  0.1968  0.5410
 1991SOL    HW117606   3.761   3.176   8.935 -2.0690  0.5952 -0.4433
 1991SOL    HW217607   3.813   3.057   8.995  0.9531 -0.0700 -1.4354
 1992SOL     OW17608   3.674   2.152   3.324  0.0253  0.1506  0.3287
 1992SOL    HW117609   3.718   2.211   3.263 -0.7126  2.6456  2.2226
 1992SOL    HW217610   3.660   2.079   3.264  0.8503  0.8401 -0.7132
 1993SOL     OW17611   0.243   2.740  16.609  0.0754  0.3273 -0.4576
 1993SOL    HW117612   0.161   2.691  16.612  0.5017 -0.3665 -0.1901
 1993SOL    HW217613   0.244   2.746  16.514  1.7406  1.1048 -0.4025
 1994SOL     OW17614   3.698   0.651   5.978 -0.0888 -0.3061  0.1952
 1994SOL    HW117615   3.722   0.725   6.034 -1.7055  0.1443  0.2733
 1994SOL    HW217616   3.727   0.691   5.896  1.0662  0.1329  0.8179
 1995SOL     OW17617   2.443   0.527  12.975  0.2594  0.0878 -0.4929
 1995SOL    HW117618   2.493   0.584  13.034 -1.7893  1.9481 -0.5553
 1995SOL    HW217619   2.379   0.590  12.941 -0.3612 -0.0339  0.4531
 1996SOL     OW17620   4.024   4.231   4.285  0.0439 -0.1675  0.0604
 1996SOL    HW117621   3.965   4.293   4.328 -1.9861  0.0811 -3.0743
 1996SOL    HW217622   4.097   4.211   4.343  0.3053  0.4515 -0.0604
 1997SOL     OW17623   1.482   3.362   8.897  0.1257  0.5642 -0.3354
 1997SOL    HW117624   1.476   3.350   8.992 -1.4386 -0.8936 -0.6270
 1997SOL    HW217625   1.532   3.442   8.878 -2.8925  2.3019 -0.8885
 1998SOL     OW17626   1.702   3.358   1.478 -0.0044  0.3072 -0.1914
 1998SOL    HW117627   1.700   3.453   1.489  2.2529  0.3660 -0.1710
 1998SOL    HW217628   1.701   3.328   1.568 -2.8909  0.1307 -0.3091
 1999SOL     OW17629   0.094   0.993   9.185  0.7682 -0.2110  0.0215
 1999SOL    HW117630   0.174   0.993   9.133 -0.4294 -2.5279 -1.8475
 1999SOL    HW217631   0.102   0.905   9.224  0.7590 -0.8275 -1.3538
 2000SOL     OW17632   2.518   0.916   2.834  0.4735  0.1739 -0.5881
 2000SOL    HW117633   2.525   0.919   2.930 -3.1975 -1.1643 -0.2577
 2000SOL    HW217634   2.480   1.002   2.819 -0.6870 -0.1258  0.5624
 2001SOL     OW17635   4.610   2.000   2.176 -0.6272  0.4393  0.2945
 2001SOL    HW117636   4.545   1.929   2.175 -0.7377  0.5592 -0.7431
 2001SOL    HW217637   4.577   2.060   2.242  1.1209  0.5205  1.1097
 2002SOL     OW17638   2.290   4.367   8.155 -0.5364 -0.2210 -0.0076
 2002SOL    HW117639   2.258   4.349   8.243  2.9593  0.0791  1.3252
 2002SOL    HW217640   2.383   4.362   8.174 -0.8623 -3.1185  0.8779
 2003SOL     OW17641   3.737   3.699  10.140 -0.8445 -0.4058  0.4176
 2003SOL    HW117642   3.748   3.721  10.047  2.2232  1.2308  1.1429
 2003SOL    HW217643   3.815   3.735  10.185 -0.3714 -1.0743  0.1250
 2004SOL     OW17644   4.200   3.018   9.557 -0.5234  0.4469  0.3308
 2004SOL    HW117645   4.190   3.042   9.649  1.1158  3.7758 -0.3823
 2004SOL    HW217646   4.118   2.968   9.553  0.0960 -0.4888 -0.5161
 2005SOL     OW17647   2.019   0.850   3.357  0.0766  0.1522 -0.1996
 2005SOL    HW117648   1.939   0.800   3.375  0.6593  0.1662  2.4713
 2005SOL    HW217649   2.004   0.902   3.436  1.6603  0.0832  0.1384
 2006SOL     OW17650   1.290   3.686  10.906  0.1430 -0.2239 -0.0733
 2006SOL    HW117651   1.231   3.611  10.918 -1.7740  1.5081  1.3492
 2006SOL    HW217652   1.314   3.709  10.996  1.5905 -1.5429 -0.1136
 2007SOL     OW17653   2.727   3.718  11.268 -0.2247 -0.5155 -0.3099
 2007SOL    HW117654   2.679   3.661  11.329 -0.5650  0.5723  0.4313
 2007SOL    HW217655   2.815   3.702  11.304 -0.9190 -0.3115  1.5108
 2008SOL     OW17656   2.811   2.620   0.960 -0.2819  0.1654  0.4058
 2008SOL    HW117657   2.784   2.601   1.050  0.8112  0.6899  0.8574
 2008SOL    HW217658   2.905   2.632   0.976 -0.7298 -0.0214  3.1514
 2009SOL     OW17659   0.920   3.887   9.163 -0.4338  0.5298  0.1698
 2009SOL    HW117660   0.900   3.949   9.093  2.2584  0.8049 -0.3767
 2009SOL    HW217661   0.839   3.836   9.163  0.5084 -0.9742 -0.9876
 2010SOL     OW17662   2.202   2.113  17.192 -0.4371 -0.5732 -0.9462
 2010SOL    HW117663   2.297   2.103  17.191 -0.3578  0.0298  0.8448
 2010SOL    HW217664   2.186   2.104  17.286 -1.4219  1.5071 -0.9150
 2011SOL     OW17665   1.864   0.403   8.283  0.2161 -0.4966 -0.1644
 2011SOL    HW117666   1.916   0.430   8.207 -1.5030  2.1816 -0.3889
 2011SOL    HW217667   1.908   0.447   8.357  1.8415 -1.1286 -0.7524
 2012SOL     OW17668   1.950   0.836   7.365 -0.1168  0.0727  0.2009
 2012SOL    HW117669   1.902   0.873   7.439  4.0043  3.2622  1.3474
 2012SOL    HW217670   1.880   0.802   7.311 -0.0518  0.2625 -0.0022
 2013SOL     OW17671   0.580   3.478   0.251  0.0922  0.1440  0.1212
 2013SOL    HW117672   0.676   3.470   0.246  0.2321  3.0584 -1.4000
 2013SOL    HW217673   0.572   3.534   0.328  2.1312 -1.1464  1.2903
 2014SOL     OW17674   1.905   0.539   1.484 -0.2512 -0.2842 -0.1034
 2014SOL    HW117675   1.894   0.547   1.389 -2.0577 -1.9716 -0.0450
 2014SOL    HW217676   1.894   0.630   1.509 -1.2637 -0.8669  1.5720
 2015SOL     OW17677   4.240   2.267   8.900 -0.5136  0.4435 -0.0302
 2015SOL    HW117678   4.245   2.174   8.923  2.0492  0.3667 -0.9107
 2015SOL    HW217679   4.149   2.279   8.871 -1.1018  2.5060  2.6161
 2016SOL     OW17680   3.496   3.891   7.900 -0.3139  0.0786  0.2139
 2016SOL    HW117681   3.423   3.912   7.958 -1.0731  0.5072 -0.8885
 2016SOL    HW217682   3.445   3.909   7.821 -1.2244 -1.8230  0.3608
 2017SOL     OW17683   3.575   2.893   7.647  0.3574 -0.0204  0.3738
 2017SOL    HW117684   3.616   2.895   7.733  0.5322 -1.0484  0.3076
 2017SOL    HW217685   3.487   2.907   7.682 -1.1168 -3.2832 -1.9673
 2018SOL     OW17686   1.338   0.391   5.085 -0.0151 -0.2340  0.2825
 2018SOL    HW117687   1.341   0.300   5.055  0.2030  0.9406 -3.2434
 2018SOL    HW217688   1.329   0.383   5.180  2.1363 -0.4286  0.4581
 2019SOL     OW17689   1.190   4.438   8.204 -0.0893 -0.0772 -0.1917
 2019SOL    HW117690   1.175   4.532   8.198  1.6337  0.1507 -0.9909
 2019SOL    HW217691   1.131   4.410   8.135 -1.1940  3.9324 -0.8527
 2020SOL     OW17692   0.383   0.212   5.725 -0.5968  0.4488 -0.0701
 2020SOL    HW117693   0.365   0.121   5.700 -0.3495  0.3785  0.0101
 2020SOL    HW217694   0.322   0.210   5.799  0.7680  1.5634  1.0813
 2021SOL     OW17695   0.974   3.437   5.187 -0.0417 -0.2014 -0.3880
 2021SOL    HW117696   0.979   3.342   5.193 -0.4186 -0.1531  0.8567
 2021SOL    HW217697   1.067   3.454   5.204 -0.2758  0.7356 -0.0057
 2022SOL     OW17698   2.263   0.463   7.504 -0.4824 -0.3507  0.0627
 2022SOL    HW117699   2.204   0.465   7.429 -0.1591 -0.2079 -0.1871
 2022SOL    HW217700   2.242   0.552   7.533 -0.6986  0.0103 -1.2091
 2023SOL     OW17701   2.738   2.955  15.098  0.4084  0.0100 -0.0869
 2023SOL    HW117702   2.826   2.940  15.131  1.6051  1.3448 -2.6783
 2023SOL    HW217703   2.749   3.049  15.087  1.4641 -0.0441  0.5242
 2024SOL     OW17704   1.720   2.037  10.635  0.3553 -0.3008 -0.0589
 2024SOL    HW117705   1.794   2.097  10.630 -0.0107  0.0625 -1.0570
 2024SOL    HW217706   1.646   2.094  10.612 -0.7889 -1.3058  1.1192
 2025SOL     OW17707   0.347   2.576   6.779  0.6194  0.3290  0.1077
 2025SOL    HW117708   0.301   2.588   6.862  1.0322  1.8080  0.1382
 2025SOL    HW217709   0.366   2.667   6.756 -2.4459  0.8148 -0.6103
 2026SOL     OW17710   1.365   3.067   7.198  0.4363  0.2848  0.2237
 2026SOL    HW117711   1.423   2.996   7.169  0.7404 -0.0229  1.6031
 2026SOL    HW217712   1.294   3.023   7.245  1.4498  1.3924  2.7868
 2027SOL     OW17713   3.503   3.126  10.599  0.9767 -0.1928  0.5599
 2027SOL    HW117714   3.488   3.049  10.653  0.3250 -1.3139 -1.1997
 2027SOL    HW217715   3.412   3.157  10.591  0.5403 -1.7532 -0.4546
 2028SOL     OW17716   0.855   1.896   6.371 -0.8314  0.1903 -0.3059
 2028SOL    HW117717   0.777   1.881   6.424 -0.6987 -2.9716 -1.0646
 2028SOL    HW217718   0.921   1.849   6.422 -1.3575 -1.6366 -1.3203
 2029SOL     OW17719   3.242   1.410   3.620 -0.0960  0.6907 -0.2975
 2029SOL    HW117720   3.147   1.407   3.618 -0.0213 -0.0289 -2.6574
 2029SOL    HW217721   3.273   1.322   3.595  0.7939  0.9046  0.0391
 2030SOL     OW17722   1.177   0.350   3.537 -0.2597  0.6043 -0.6301
 2030SOL    HW117723   1.144   0.440   3.531 -0.9060  0.2491 -2.3372
 2030SOL    HW217724   1.131   0.318   3.460  0.5125 -1.4989 -0.2259
 2031SOL     OW17725   4.473   0.599   0.492  0.6763 -0.4215 -0.0605
 2031SOL    HW117726   4.534   0.586   0.565  1.6760  0.3724 -0.7512
 2031SOL    HW217727   4.518   0.680   0.468  0.7754 -0.4992 -0.1327
 2032SOL     OW17728   4.134   3.249   2.755  0.4050 -0.2417 -0.8359
 2032SOL    HW117729   4.042   3.223   2.763 -0.2300  1.7482 -1.7014
 2032SOL    HW217730   4.155   3.272   2.846 -0.1635  1.5512 -1.1614
 2033SOL     OW17731   4.201   1.857   2.263 -0.1443 -0.3937 -0.1132
 2033SOL    HW117732   4.273   1.824   2.209  1.0677  0.5777  0.9228
 2033SOL    HW217733   4.243   1.852   2.348 -1.1692  1.5979  0.5033
 2034SOL     OW17734   3.077   0.747  16.977  0.3402  0.2052  0.1493
 2034SOL    HW117735   3.153   0.781  16.930  0.0314  1.6946  0.7265
 2034SOL    HW217736   3.010   0.815  16.968 -0.4673 -0.6619 -0.3235
 2035SOL     OW17737   3.037   1.428  17.082 -1.1676  0.1855 -0.0226
 2035SOL    HW117738   3.029   1.512  17.128  1.2360  0.9135 -0.9366
 2035SOL    HW217739   3.117   1.392  17.121 -1.3249 -0.9321 -0.7296
 2036SOL     OW17740   4.699   3.825   7.798 -0.5206  0.2042  0.3286
 2036SOL    HW117741   0.029   3.873   7.843 -0.6396 -0.4662  1.2227
 2036SOL    HW217742   4.670   3.771   7.872 -2.4709  0.1917 -0.4345
 2037SOL     OW17743   3.678   0.678   1.191  0.4505  0.5106  0.0410
 2037SOL    HW117744   3.731   0.756   1.174  0.6802  0.5515  0.9628
 2037SOL    HW217745   3.587   0.708   1.199  0.0281 -1.7674  3.6440
 2038SOL     OW17746   4.385   0.120   7.970 -0.1212  0.0003  0.3382
 2038SOL    HW117747   4.333   0.191   7.933 -0.1337 -0.8835 -1.3586
 2038SOL    HW217748   4.393   0.142   8.063  1.5656 -0.5037  0.3149
 2039SOL     OW17749   4.140   2.924  10.683  0.1408  0.1478  0.0800
 2039SOL    HW117750   4.135   2.900  10.775  0.8243  0.7423  0.2694
 2039SOL    HW217751   4.232   2.908  10.664 -0.2391 -0.7459 -1.0244
 2040SOL     OW17752   4.329   3.197  15.625 -0.1828 -0.5049  0.6644
 2040SOL    HW117753   4.244   3.231  15.653 -0.3835 -0.8283  0.4559
 2040SOL    HW217754   4.385   3.274  15.622  1.8458 -1.9000  2.2238
 2041SOL     OW17755   2.923   1.435   9.140 -0.1890 -0.3049 -0.4490
 2041SOL    HW117756   2.885   1.366   9.084  0.0721 -0.4367 -0.4629
 2041SOL    HW217757   2.841   1.476   9.168  0.7745  1.6215 -0.4556
 2042SOL     OW17758   1.146   2.094  16.553  0.0285  0.0025  0.1191
 2042SOL    HW117759   1.109   2.126  16.470  0.1380 -2.4303 -0.8897
 2042SOL    HW217760   1.072   2.052  16.597 -0.3456  1.4159  0.8383
 2043SOL     OW17761   1.260   4.227   6.157 -0.1954  0.2393  0.1016
 2043SOL    HW117762   1.302   4.298   6.107 -1.8293  0.8355 -0.4069
 2043SOL    HW217763   1.171   4.236   6.124  0.0002  0.4078 -0.3910
 2044SOL     OW17764   4.514   0.393   8.625 -0.1109 -0.1763  0.7120
 2044SOL    HW117765   4.554   0.306   8.622  0.2728 -0.0105  1.0486
 2044SOL    HW217766   4.585   0.446   8.660 -0.8632  1.6836 -0.5672
 2045SOL     OW17767   0.146   1.258  15.999 -0.3949 -0.0726  0.1002
 2045SOL    HW117768   0.169   1.244  16.091 -0.4518 -1.2927 -0.0663
 2045SOL    HW217769   0.182   1.346  15.988 -0.5520  0.1805  1.6207
 2046SOL     OW17770   2.753   4.720  12.113  0.4451 -0.2019 -0.0043
 2046SOL    HW117771   2.727   4.641  12.160  1.7016 -0.9354 -0.5703
 2046SOL    HW217772   2.669   0.016  12.082  0.6653  0.0759 -0.2754
 2047SOL     OW17773   3.204   0.677   6.803  0.4520 -0.6636  0.7643
 2047SOL    HW117774   3.202   0.622   6.725  0.8160 -2.1326  1.7965
 2047SOL    HW217775   3.233   0.613   6.868  0.3178 -1.7441 -0.2317
 2048SOL     OW17776   4.406   1.569  10.372 -0.2704 -0.3576 -0.1072
 2048SOL    HW117777   4.320   1.553  10.409 -1.6471  1.1143 -2.6860
 2048SOL    HW217778   4.378   1.647  10.324  3.7053  0.0657 -1.7736
 2049SOL     OW17779   2.182   1.129   4.440  0.4431  1.0488  0.1085
 2049SOL    HW117780   2.108   1.080   4.476  1.3189  2.0355  3.3533
 2049SOL    HW217781   2.255   1.081   4.477  0.4757  0.2903 -0.9530
 2050SOL     OW17782   1.760   0.640   5.032 -0.1719  0.6010  0.2690
 2050SOL    HW117783   1.672   0.655   5.068 -1.3171  0.5636 -2.4736
 2050SOL    HW217784   1.741   0.587   4.954 -2.2928 -0.0277  1.2041
 2051SOL     OW17785   2.283   0.214   4.542 -0.0772 -0.5629  0.0432
 2051SOL    HW117786   2.305   0.299   4.505 -1.0317 -1.3373 -2.3127
 2051SOL    HW217787   2.198   0.197   4.500 -0.2618  1.1570 -0.2745
 2052SOL     OW17788   1.730   2.782   3.362 -0.0149 -0.0520  0.0502
 2052SOL    HW117789   1.652   2.829   3.334  0.8167  0.5902 -1.1419
 2052SOL    HW217790   1.718   2.791   3.457 -2.9041  1.2588 -0.4201
 2053SOL     OW17791   3.158   4.550   4.651  0.2983  0.3302 -0.0082
 2053SOL    HW117792   3.092   4.492   4.613  1.3298  0.5075 -2.1047
 2053SOL    HW217793   3.115   4.583   4.730 -0.2496 -0.6474  0.0939
 2054SOL     OW17794   0.096   0.394   9.092  0.0001  0.0854 -0.4137
 2054SOL    HW117795   0.184   0.407   9.058 -0.2377 -2.5743 -2.0177
 2054SOL    HW217796   0.051   0.350   9.019  0.4183  1.2866 -1.3958
 2055SOL     OW17797   2.679   0.924   5.909  0.3727  0.1723  0.2605
 2055SOL    HW117798   2.738   0.993   5.877 -0.5362  1.1749  0.7393
 2055SOL    HW217799   2.731   0.908   5.988  2.2386  1.5679 -0.6907
 2056SOL     OW17800   3.659   2.096   7.189 -0.0914  0.5016  0.2000
 2056SOL    HW117801   3.708   2.176   7.209 -0.1115  0.9862 -1.7268
 2056SOL    HW217802   3.722   2.048   7.135  1.1824  1.6171  0.6926
 2057SOL     OW17803   2.029   2.451   1.439  0.4952  0.1129  0.2787
 2057SOL    HW117804   2.098   2.412   1.493 -0.4868  0.1007  1.5345
 2057SOL    HW217805   2.037   2.418   1.350  2.7237  0.7653  0.2329
 2058SOL     OW17806   0.515   2.604   5.292  0.7217 -0.0751 -0.3870
 2058SOL    HW117807   0.565   2.641   5.365 -0.1507  1.7540 -0.7302
 2058SOL    HW217808   0.545   2.652   5.215  0.2243  1.2097  0.2191
 2059SOL     OW17809   2.637   2.461   3.503 -0.5157 -0.1508  0.4070
 2059SOL    HW117810   2.712   2.448   3.562 -2.1593 -0.1093  2.5220
 2059SOL    HW217811   2.671   2.521   3.437 -2.3336  0.2188 -0.1693
 2060SOL     OW17812   2.419   0.168   8.591  0.2402 -0.3739  0.3141
 2060SOL    HW117813   2.461   0.082   8.587  0.1987 -0.3645 -0.2683
 2060SOL    HW217814   2.474   0.220   8.532  0.4863 -1.2494 -0.2143
 2061SOL     OW17815   1.833   4.057   8.676  0.0363  0.3401 -0.2866
 2061SOL    HW117816   1.792   4.136   8.642  2.2741  1.4617 -0.3273
 2061SOL    HW217817   1.911   4.064   8.622 -1.4868  0.8006 -2.3975
 2062SOL     OW17818   4.082   3.910   5.450 -0.4829 -0.1719 -0.6798
 2062SOL    HW117819   4.175   3.932   5.461 -0.8499  1.0707 -0.0909
 2062SOL    HW217820   4.087   3.814   5.445 -1.2452 -0.2982  1.1450
 2063SOL     OW17821   0.943   3.825  11.417 -0.0785  0.3736 -0.1711
 2063SOL    HW117822   0.962   3.854  11.506  2.0104 -0.3028 -0.4070
 2063SOL    HW217823   0.951   3.730  11.427 -0.2557  0.4013  0.2203
 2064SOL     OW17824   1.716   3.141  14.621  0.1766  0.0301  0.0521
 2064SOL    HW117825   1.787   3.195  14.655  1.0515 -0.9172 -0.2826
 2064SOL    HW217826   1.683   3.205  14.559  0.4991  0.0267 -0.1238
 2065SOL     OW17827   1.552   4.547   2.069  0.1643  0.1404 -0.4524
 2065SOL    HW117828   1.557   4.553   1.974  1.6520 -1.0324 -0.4616
 2065SOL    HW217829   1.557   4.637   2.100  1.6577 -0.5167  1.2058
 2066SOL     OW17830   1.746   0.668  16.128 -0.1940  0.7211 -0.6152
 2066SOL    HW117831   1.790   0.686  16.045  1.1731 -0.3765 -0.1246
 2066SOL    HW217832   1.657   0.648  16.098 -1.0116  3.3035  0.1572
 2067SOL     OW17833   0.275   2.121  14.008 -0.0725  0.5736 -0.3748
 2067SOL    HW117834   0.234   2.156  13.928  2.0749  0.3676 -1.5551
 2067SOL    HW217835   0.343   2.187  14.006  0.9844 -0.4862  0.5704
 2068SOL     OW17836   1.232   1.040   8.027 -0.4290 -0.4415  0.6028
 2068SOL    HW117837   1.241   1.043   7.932 -0.3570 -0.8025  0.6015
 2068SOL    HW217838   1.150   0.991   8.030 -0.0132 -1.1537  0.3572
 2069SOL     OW17839   1.360   4.503  16.523  0.4857 -0.2729  0.2552
 2069SOL    HW117840   1.428   4.571  16.529  0.9219 -0.5151 -1.6971
 2069SOL    HW217841   1.281   4.551  16.550 -0.9255 -2.1151 -0.6411
 2070SOL     OW17842   4.416   3.787   6.753 -0.1295 -0.1891 -0.5266
 2070SOL    HW117843   4.417   3.867   6.700  0.6446  0.9310  1.1832
 2070SOL    HW217844   4.330   3.752   6.732  1.3330 -1.8691 -3.7691
 2071SOL     OW17845   1.981   4.160   6.923 -0.7353 -0.1604  0.0270
 2071SOL    HW117846   1.950   4.070   6.928 -2.2567  0.2290 -2.8057
 2071SOL    HW217847   2.059   4.142   6.870 -0.8655 -2.6166  0.7008
 2072SOL     OW17848   2.520   3.232   0.168  0.4346 -0.0208 -0.4073
 2072SOL    HW117849   2.522   3.328   0.162  1.0413 -0.0393 -0.5571
 2072SOL    HW217850   2.547   3.219   0.077 -0.5492 -0.9554 -0.5627
 2073SOL     OW17851   2.893   1.552   4.858 -0.1955  0.2817  0.1513
 2073SOL    HW117852   2.798   1.560   4.843 -0.4626 -2.4944  0.4402
 2073SOL    HW217853   2.902   1.639   4.899 -1.0901 -0.2520  1.5039
 2074SOL     OW17854   1.406   0.933   7.615  0.2695  0.0473 -0.5400
 2074SOL    HW117855   1.424   0.901   7.703  0.8013  0.5929 -0.4491
 2074SOL    HW217856   1.455   0.875   7.557  1.3041 -0.5108  0.8861
 2075SOL     OW17857   0.316   0.277   2.451  0.4021  0.4563 -0.1148
 2075SOL    HW117858   0.396   0.246   2.493  0.8652  0.1123 -1.2563
 2075SOL    HW217859   0.249   0.222   2.491 -0.9628 -0.9782 -4.3605
 2076SOL     OW17860   4.062   0.469  15.461  0.4856  0.0393  0.4219
 2076SOL    HW117861   4.137   0.427  15.420  0.2539  0.1493 -0.1151
 2076SOL    HW217862   4.042   0.539  15.399 -0.3131 -0.6902 -0.1393
 2077SOL     OW17863   2.345   1.716   5.024  0.0631 -0.0135 -0.2599
 2077SOL    HW117864   2.391   1.647   4.978  0.4974  0.0968  0.0102
 2077SOL    HW217865   2.271   1.665   5.058  0.0654  1.4175  1.9461
 2078SOL     OW17866   2.456   3.963   3.140 -0.4007 -0.8522  0.3142
 2078SOL    HW117867   2.370   4.002   3.125  0.3244  2.0295  3.8940
 2078SOL    HW217868   2.493   4.032   3.195 -0.1978 -0.6679 -0.0506
 2079SOL     OW17869   4.043   4.228  11.341 -0.0374  0.4136 -0.1536
 2079SOL    HW117870   4.056   4.303  11.399  1.0583 -1.3720  1.9074
 2079SOL    HW217871   3.953   4.245  11.312  0.0021  0.0715 -0.4872
 2080SOL     OW17872   2.601   2.672   7.657  0.3133  0.0802 -0.2264
 2080SOL    HW117873   2.515   2.689   7.618  0.6315 -0.6809 -1.2844
 2080SOL    HW217874   2.583   2.615   7.732  1.0626 -0.3587 -0.3729
 2081SOL     OW17875   2.725   0.041   1.046 -0.2215 -0.1070  0.4608
 2081SOL    HW117876   2.642   0.074   1.080 -1.1136  0.3819 -2.1498
 2081SOL    HW217877   2.779   0.061   1.123  1.6349 -0.1952 -0.8195
 2082SOL     OW17878   2.742   3.669   9.728 -0.7229 -0.0490  0.2411
 2082SOL    HW117879   2.733   3.694   9.820 -0.9848  2.0791 -0.3758
 2082SOL    HW217880   2.799   3.737   9.692  0.5743 -0.2233  1.9711
 2083SOL     OW17881   1.343   2.907  14.631  0.0147  0.0655 -0.1528
 2083SOL    HW117882   1.318   2.998  14.615 -1.5957 -0.3072  0.2959
 2083SOL    HW217883   1.398   2.921  14.709 -1.6880 -0.4250  1.1184
 2084SOL     OW17884   2.069   1.592   5.689 -0.5665 -0.1680  0.0173
 2084SOL    HW117885   1.992   1.564   5.739 -0.7946  1.8827  0.7860
 2084SOL    HW217886   2.128   1.629   5.753 -0.2367 -0.9040  0.1449
 2085SOL     OW17887   1.849   2.974   0.133 -0.8825 -0.1918  0.9555
 2085SOL    HW117888   1.897   2.962   0.215  0.2645 -1.2438  0.1404
 2085SOL    HW217889   1.902   3.038   0.085  1.0573 -1.1621  1.8017
 2086SOL     OW17890   1.947   1.706   6.737  0.8851  0.2076 -0.6458
 2086SOL    HW117891   1.891   1.750   6.800  1.8198 -0.8448  0.9002
 2086SOL    HW217892   1.922   1.616   6.760 -0.1735 -0.1723 -3.2516
 2087SOL     OW17893   2.265   4.315   5.800  0.3350  0.2325  0.0950
 2087SOL    HW117894   2.223   4.399   5.819 -0.3685  0.2936 -1.7318
 2087SOL    HW217895   2.350   4.351   5.774  1.1459 -1.0531  0.9666
 2088SOL     OW17896   2.761   4.003   6.404 -0.2310 -0.5508 -0.1485
 2088SOL    HW117897   2.836   3.982   6.349 -0.4644 -0.2846 -0.5644
 2088SOL    HW217898   2.716   4.068   6.349 -1.1446 -1.8840 -0.9752
 2089SOL     OW17899   4.213   0.074   8.633 -0.6960  0.4466 -0.4985
 2089SOL    HW117900   4.130   0.030   8.650  0.0902 -0.1449  1.8702
 2089SOL    HW217901   4.258   0.079   8.718 -0.5540  0.1107 -0.5551
 2090SOL     OW17902   2.174   2.850   3.491  0.3717 -0.0744  0.0429
 2090SOL    HW117903   2.152   2.920   3.552  0.7700  0.9953 -1.0369
 2090SOL    HW217904   2.268   2.865   3.493  0.3405 -0.1889  2.2029
 2091SOL     OW17905   3.811   0.705   0.536  0.0248 -0.3722  0.1553
 2091SOL    HW117906   3.851   0.704   0.449 -0.3494  0.8250 -0.0216
 2091SOL    HW217907   3.858   0.634   0.581  0.0741 -1.9038 -2.3549
 2092SOL     OW17908   4.411   2.899   8.442 -0.4422 -0.1449  0.0791
 2092SOL    HW117909   4.493   2.946   8.428 -2.3039  3.0274 -0.2300
 2092SOL    HW217910   4.364   2.960   8.499 -1.7662 -1.1557  0.0771
 2093SOL     OW17911   0.544   0.557   4.025  0.4631 -0.2235 -0.1228
 2093SOL    HW117912   0.625   0.511   4.047  0.1416 -1.1769 -0.9380
 2093SOL    HW217913   0.557   0.650   4.043 -1.8718  0.0121  0.3913
 2094SOL     OW17914   4.619   1.686   5.098  0.4352 -0.5543  0.6263
 2094SOL    HW117915   4.530   1.692   5.062  0.7043  2.8014  0.4625
 2094SOL    HW217916   4.591   1.683   5.189  0.5882  0.3342  0.7011
 2095SOL     OW17917   0.873   2.238  17.333  0.0225  1.0475 -0.4046
 2095SOL    HW117918   0.856   2.148  17.305  1.3670  0.9464 -0.8789
 2095SOL    HW217919   0.962   2.259  17.306  0.2621 -0.6658 -0.9074
 2096SOL     OW17920   1.926   1.496   6.449 -0.3188  0.2095 -0.7949
 2096SOL    HW117921   1.856   1.433   6.466 -0.8262  0.7993 -0.6958
 2096SOL    HW217922   1.911   1.504   6.354 -1.5819 -1.3845 -0.7521
 2097SOL     OW17923   2.382   0.494   8.195  0.2394 -0.0658 -0.4422
 2097SOL    HW117924   2.368   0.542   8.277 -0.5202 -0.9679 -0.0451
 2097SOL    HW217925   2.294   0.499   8.160 -0.2281  0.2687  0.7853
 2098SOL     OW17926   1.188   0.233   5.759 -0.0225 -0.0667 -1.0479
 2098SOL    HW117927   1.274   0.192   5.765 -1.0934 -2.1195  0.1578
 2098SOL    HW217928   1.165   0.213   5.668  0.4525 -1.4778 -0.8457
 2099SOL     OW17929   3.745   4.601   1.897 -0.2576  0.7075 -0.1680
 2099SOL    HW117930   3.669   4.659   1.902 -1.0001 -0.1550 -1.3949
 2099SOL    HW217931   3.810   4.649   1.846 -0.1893  1.0119  0.2092
 2100SOL     OW17932   1.866   1.790   1.163  0.1838  0.1367 -0.3997
 2100SOL    HW117933   1.948   1.795   1.112 -0.9181  0.2257 -2.1660
 2100SOL    HW217934   1.833   1.705   1.132 -1.6031  0.1900  1.4090
 2101SOL     OW17935   4.487   2.040   4.026  0.5353  0.2038  0.1868
 2101SOL    HW117936   4.500   1.946   4.041 -0.7030 -0.2459 -1.6122
 2101SOL    HW217937   4.514   2.050   3.935 -1.8488 -0.4983 -0.5839
 2102SOL     OW17938   4.009   3.116   3.571 -0.2531  0.3182 -0.3861
 2102SOL    HW117939   3.965   3.053   3.513 -0.5841 -0.9662  1.2681
 2102SOL    HW217940   3.989   3.087   3.660  1.9887  2.2879  0.7488
 2103SOL     OW17941   2.740   1.585  15.657 -0.5082 -0.3345 -0.3023
 2103SOL    HW117942   2.681   1.602  15.584  1.2469  1.5648 -1.2961
 2103SOL    HW217943   2.736   1.669  15.701  2.6775 -1.5027  2.2577
 2104SOL     OW17944   0.227   1.650   0.771  0.1764 -0.1891  0.0389
 2104SOL    HW117945   0.215   1.585   0.702  1.9369 -0.0188 -0.4393
 2104SOL    HW217946   0.218   1.590   0.845  1.6221 -0.4416  0.0166
 2105SOL     OW17947   0.631   3.959   4.370 -0.2035  0.4713 -0.0207
 2105SOL    HW117948   0.566   4.028   4.382  1.6211  2.3973 -1.1408
 2105SOL    HW217949   0.614   3.919   4.285 -1.4328 -2.3460  1.5655
 2106SOL     OW17950   4.453   0.343   7.741  0.2023  0.0989  0.4712
 2106SOL    HW117951   4.481   0.391   7.819 -0.5919 -0.2980  1.0035
 2106SOL    HW217952   4.371   0.385   7.715  0.3795  0.3667  0.3450
 2107SOL     OW17953   0.526   1.636  11.670 -0.4379  0.6072  0.0941
 2107SOL    HW117954   0.523   1.552  11.714  2.3036 -1.2762 -3.3183
 2107SOL    HW217955   0.479   1.612  11.589 -1.5617  1.9412  0.3377
 2108SOL     OW17956   3.019   1.337   1.302 -0.1164  0.4727  0.0373
 2108SOL    HW117957   3.113   1.333   1.285 -0.0369 -0.6597  0.7450
 2108SOL    HW217958   3.012   1.287   1.383  1.0138 -1.6574 -1.1777
 2109SOL     OW17959   4.150   3.576  15.677 -0.6427  0.2153 -0.3128
 2109SOL    HW117960   4.166   3.646  15.741 -0.5559 -0.2347  0.1508
 2109SOL    HW217961   4.154   3.628  15.597  2.7222 -2.8547 -2.1088
 2110SOL     OW17962   3.604   2.199   7.788 -0.2760  0.0695 -0.5634
 2110SOL    HW117963   3.660   2.180   7.713  0.9304  2.1981 -0.1956
 2110SOL    HW217964   3.521   2.205   7.740 -1.2387  0.9078  1.1733
 2111SOL     OW17965   4.571   2.925   1.596  0.1259  0.2775  0.8203
 2111SOL    HW117966   4.615   2.876   1.526  0.7240 -0.9160  2.0357
 2111SOL    HW217967   4.524   2.851   1.633 -1.1462  0.4891 -0.3699
 2112SOL     OW17968   0.319   2.217   8.988 -0.0428 -0.7114  0.1106
 2112SOL    HW117969   0.353   2.128   8.978  2.6175  0.2807  0.4255
 2112SOL    HW217970   0.224   2.207   8.984 -0.1068  0.2424 -0.7124
 2113SOL     OW17971   0.316   2.970  12.729 -0.4956  0.0254 -0.3111
 2113SOL    HW117972   0.228   2.982  12.695 -1.5825  0.5022  2.6585
 2113SOL    HW217973   0.313   2.880  12.759  1.7020  0.2681  0.6803
 2114SOL     OW17974   0.632   4.252  10.275 -0.0485  0.2513  0.3049
 2114SOL    HW117975   0.541   4.234  10.298  0.0243 -1.4651 -0.6985
 2114SOL    HW217976   0.678   4.267  10.357  1.4254  0.1742 -0.4921
 2115SOL     OW17977   3.226   4.559   2.811  0.0863  0.3084  0.8360
 2115SOL    HW117978   3.239   4.641   2.860  0.1314  2.2880 -2.4737
 2115SOL    HW217979   3.244   4.585   2.721 -0.6660 -1.7886  0.0996
 2116SOL     OW17980   2.017   3.957   7.127 -0.1724 -0.0404 -0.3570
 2116SOL    HW117981   2.026   3.965   7.222  0.5493 -1.8547 -0.2668
 2116SOL    HW217982   1.992   4.046   7.105  0.2271 -0.6848 -3.4651
 2117SOL     OW17983   0.838   2.369   6.633  0.2738  0.5273  0.3660
 2117SOL    HW117984   0.854   2.432   6.703  0.8400  0.9723 -0.1590
 2117SOL    HW217985   0.748   2.381   6.603 -0.1698  0.9289  1.8784
 2118SOL     OW17986   3.812   4.090   3.651 -0.6783 -0.4206 -0.3670
 2118SOL    HW117987   3.745   4.157   3.644  0.0946  0.6976  2.8827
 2118SOL    HW217988   3.857   4.120   3.730 -1.7668 -1.3214  0.6030
 2119SOL     OW17989   3.583   4.168   4.357 -0.7224  0.1399 -0.5311
 2119SOL    HW117990   3.515   4.211   4.409 -1.6955 -2.8358  0.6566
 2119SOL    HW217991   3.581   4.088   4.410 -0.6476  1.0024  0.7885
 2120SOL     OW17992   0.998   4.315   6.714 -0.0754  0.1548 -0.3835
 2120SOL    HW117993   0.989   4.281   6.625 -2.0732 -0.8390  0.1946
 2120SOL    HW217994   0.916   4.296   6.759  0.3709  1.3097  0.9150
 2121SOL     OW17995   4.000   3.066   2.435  0.1365  0.3219  0.1323
 2121SOL    HW117996   3.980   3.077   2.342  0.5168 -2.3152 -0.2665
 2121SOL    HW217997   4.095   3.053   2.428 -0.1480 -1.3803 -0.5160
 2122SOL     OW17998   0.882   1.411   4.521 -0.2872  0.1515 -0.1927
 2122SOL    HW117999   0.814   1.374   4.464  1.0545  2.5874 -3.4043
 2122SOL    HW218000   0.918   1.480   4.465  2.0507  0.8639  2.1781
 2123SOL     OW18001   2.684   2.858  13.472  0.6215  0.0253  0.1077
 2123SOL    HW118002   2.665   2.843  13.379  1.3850 -1.1190  0.1377
 2123SOL    HW218003   2.598   2.882  13.507 -0.3663  0.6448 -2.7439
 2124SOL     OW18004   4.665   3.519   4.263  0.8345  0.5453  0.8124
 2124SOL    HW118005   4.648   3.556   4.176  2.2420  0.4340  0.4783
 2124SOL    HW218006   4.642   3.427   4.251 -1.1973  1.1191  0.3436
 2125SOL     OW18007   0.102   2.521   8.415 -0.1460 -0.3642  0.4539
 2125SOL    HW118008   0.069   2.431   8.410  2.3826 -1.2512 -0.1808
 2125SOL    HW218009   0.190   2.510   8.379 -0.6872  1.0607 -1.3119
 2126SOL     OW18010   1.656   0.117   6.164  0.2491  0.5192  0.4994
 2126SOL    HW118011   1.670   0.065   6.085  4.7058 -1.1618  2.3700
 2126SOL    HW218012   1.564   0.133   6.143  0.2439  0.9634  0.8535
 2127SOL     OW18013   3.039   2.645   3.217 -0.2171  0.1000  0.8750
 2127SOL    HW118014   3.066   2.691   3.137  0.4874  0.3831  1.2825
 2127SOL    HW218015   3.124   2.646   3.261  0.9555 -0.6280 -1.3619
 2128SOL     OW18016   3.972   4.284   1.754 -0.0180 -0.1402  0.6355
 2128SOL    HW118017   3.962   4.345   1.682 -2.2781 -1.7241 -0.3751
 2128SOL    HW218018   3.963   4.351   1.822  0.4464 -0.6177  1.1763
 2129SOL     OW18019   2.614   4.423  13.729  0.2590  0.0155 -0.2591
 2129SOL    HW118020   2.636   4.398  13.818 -0.0948 -1.0286 -0.4658
 2129SOL    HW218021   2.535   4.369  13.721 -0.3763  1.1061 -1.3840
 2130SOL     OW18022   0.033   0.390   5.800  0.1439  0.1114 -0.2635
 2130SOL    HW118023   0.065   0.304   5.828  0.0976  0.0479 -0.4071
 2130SOL    HW218024   4.680   0.371   5.784  0.5395 -1.6466 -0.4926
 2131SOL     OW18025   2.700   3.733   5.751  0.2151 -0.7310 -0.2439
 2131SOL    HW118026   2.699   3.809   5.692  0.9801 -0.3081  0.2878
 2131SOL    HW218027   2.621   3.754   5.801  0.8081  0.6374  0.1314
 2132SOL     OW18028   2.340   2.991  15.534  0.3448 -0.3557 -1.2270
 2132SOL    HW118029   2.258   2.969  15.578 -1.2109  2.1862 -2.8703
 2132SOL    HW218030   2.396   3.013  15.609  1.8151 -1.4471 -2.0050
 2133SOL     OW18031   3.599   2.423   9.736 -0.2131 -0.0960 -0.5744
 2133SOL    HW118032   3.552   2.505   9.752 -0.3576 -0.5534  1.3377
 2133SOL    HW218033   3.586   2.426   9.641  0.5345 -2.6695 -0.7465
 2134SOL     OW18034   2.136   1.109   2.435  0.1445 -0.1351 -0.6471
 2134SOL    HW118035   2.230   1.100   2.423  0.2870  0.0192  0.3876
 2134SOL    HW218036   2.111   1.036   2.493 -0.7335 -0.3783 -1.3287
 2135SOL     OW18037   2.948   1.781   2.378 -0.3706  0.5052 -0.1303
 2135SOL    HW118038   2.897   1.701   2.377  0.8858 -0.2830 -0.9995
 2135SOL    HW218039   3.028   1.746   2.418 -0.8366  0.2453  0.5685
 2136SOL     OW18040   0.131   1.392   8.690 -0.0839 -0.2984 -0.4083
 2136SOL    HW118041   0.215   1.349   8.677  0.3521  0.0038  1.4329
 2136SOL    HW218042   0.169   1.472   8.726 -0.5819 -0.0634 -0.4032
 2137SOL     OW18043   3.772   2.229  17.149  0.7634  0.0481  0.9413
 2137SOL    HW118044   3.829   2.217  17.225  1.9199  1.1597  0.2768
 2137SOL    HW218045   3.764   2.325  17.148 -3.4153 -0.3192  2.1617
 2138SOL     OW18046   3.154   4.665   4.282 -0.0508  0.1489 -0.4244
 2138SOL    HW118047   3.243   4.694   4.303 -0.6760  2.2861 -0.7892
 2138SOL    HW218048   3.161   4.569   4.284 -1.2805  0.1191  2.2918
 2139SOL     OW18049   0.543   2.621   9.446 -0.5448 -0.0790  0.4213
 2139SOL    HW118050   0.453   2.593   9.462  0.0469 -1.7640  0.8555
 2139SOL    HW218051   0.547   2.713   9.470  4.9118 -0.0298 -0.5796
 2140SOL     OW18052   3.987   1.737  16.391 -0.0554 -0.5294 -0.0338
 2140SOL    HW118053   3.962   1.644  16.386  0.7262 -0.6877 -1.1339
 2140SOL    HW218054   3.917   1.782  16.343 -1.4264 -0.4771  2.0147
 2141SOL     OW18055   2.254   3.185   0.278 -0.4059 -0.1193 -0.0071
 2141SOL    HW118056   2.268   3.247   0.349  0.9370 -0.0729 -0.2970
 2141SOL    HW218057   2.342   3.180   0.239  0.2525 -1.2554  1.5672
 2142SOL     OW18058   1.702   2.484   4.507 -0.9500  0.6534 -0.2359
 2142SOL    HW118059   1.709   2.408   4.450  0.6171  0.3863  0.3171
 2142SOL    HW218060   1.611   2.484   4.537 -0.7580  0.5892  0.3515
 2143SOL     OW18061   0.989   2.705   7.849  0.5457  0.1548  0.5655
 2143SOL    HW118062   0.983   2.731   7.941  0.2306  1.9974  0.0086
 2143SOL    HW218063   0.959   2.614   7.859 -1.0999  0.6983  0.5961
 2144SOL     OW18064   2.562   4.197   8.524  0.5156 -0.1605  0.2906
 2144SOL    HW118065   2.508   4.248   8.585 -0.3292 -1.3942  0.5721
 2144SOL    HW218066   2.564   4.106   8.554 -0.0446  0.0808  1.0474
 2145SOL     OW18067   4.025   3.374   3.491  0.9293  0.7413 -0.0556
 2145SOL    HW118068   4.016   3.286   3.527  1.9740  0.5291 -0.3178
 2145SOL    HW218069   3.980   3.426   3.557  0.0512 -2.6553  2.0074
 2146SOL     OW18070   2.760   0.164   3.067  0.5270 -0.1492 -0.4503
 2146SOL    HW118071   2.745   0.250   3.107  0.6659  0.3624 -1.4894
 2146SOL    HW218072   2.789   0.193   2.981 -0.1672  0.1052 -0.6044
 2147SOL     OW18073   2.094   2.290   3.749  0.1211 -0.4242  0.0508
 2147SOL    HW118074   2.064   2.368   3.704 -0.3867 -0.2344  0.7234
 2147SOL    HW218075   2.021   2.262   3.804  0.1107 -1.2277 -0.3758
 2148SOL     OW18076   1.658   2.970   2.265 -0.1377 -0.1714 -0.2447
 2148SOL    HW118077   1.717   2.932   2.330 -2.6700 -2.1554  0.9268
 2148SOL    HW218078   1.609   3.031   2.321  0.6886 -0.2614  0.5862
 2149SOL     OW18079   1.761   1.934   0.201 -0.5504  0.3483  0.9133
 2149SOL    HW118080   1.693   1.994   0.169 -0.7753  0.7539  2.1476
 2149SOL    HW218081   1.727   1.910   0.287  0.5391 -0.2123  1.1806
 2150SOL     OW18082   0.674   3.531   8.750  0.3363 -0.0184 -0.9856
 2150SOL    HW118083   0.683   3.539   8.845 -0.3292  2.3609 -1.1031
 2150SOL    HW218084   0.729   3.456   8.729  0.1048 -0.0707 -1.3876
 2151SOL     OW18085   1.036   0.120   7.682  0.2621 -0.6042  0.2219
 2151SOL    HW118086   1.102   0.166   7.734 -0.0513  0.6971 -0.5391
 2151SOL    HW218087   0.980   0.082   7.750  1.5954  0.8756  2.1756
 2152SOL     OW18088   2.789   0.659   3.174  1.1568  0.2212  0.3858
 2152SOL    HW118089   2.842   0.666   3.094 -1.0851  1.0896 -1.0149
 2152SOL    HW218090   2.760   0.748   3.189 -0.2285  0.0124 -1.1198
 2153SOL     OW18091   3.973   2.016   3.381  0.0970  0.3054  0.3372
 2153SOL    HW118092   3.992   2.075   3.308  1.0516  0.8469  1.0231
 2153SOL    HW218093   3.888   2.048   3.412 -1.1806 -0.3018 -2.6041
 2154SOL     OW18094   1.313   3.004  15.871  0.9545  0.0368  0.2115
 2154SOL    HW118095   1.220   3.007  15.853  1.0803  0.3095 -0.4005
 2154SOL    HW218096   1.342   2.984  15.781  0.5301 -1.4399  0.4130
 2155SOL     OW18097   0.236   0.915  10.719  0.0541 -0.4059 -0.5441
 2155SOL    HW118098   0.250   0.887  10.809  1.7810  1.9698 -0.0651
 2155SOL    HW218099   0.322   0.947  10.691 -0.0813 -0.1737 -0.7014
 2156SOL     OW18100   0.566   2.726   3.799  0.2742 -0.1775 -0.0494
 2156SOL    HW118101   0.479   2.695   3.825 -0.3755  3.0090  1.5638
 2156SOL    HW218102   0.566   2.715   3.704 -4.8323  2.1179 -0.3190
 2157SOL     OW18103   1.785   3.253   2.196 -0.2810  0.1054 -0.3487
 2157SOL    HW118104   1.785   3.261   2.101 -0.3842  1.6206 -0.2261
 2157SOL    HW218105   1.716   3.193   2.223  0.7121 -0.6319  0.5590
 2158SOL     OW18106   0.467   2.781  11.074 -0.0272  0.2365  0.0370
 2158SOL    HW118107   0.559   2.810  11.076 -0.2409  0.7763  2.3688
 2158SOL    HW218108   0.481   2.686  11.075 -0.2188  0.1978 -2.2788
 2159SOL     OW18109   1.156   4.503   2.239  0.6170 -0.5923  0.2536
 2159SOL    HW118110   1.135   4.428   2.293 -0.4229 -0.8057 -0.4249
 2159SOL    HW218111   1.236   4.538   2.278  0.5271  0.3571 -0.3936
 2160SOL     OW18112   4.565   1.131   8.589 -0.3562  0.3175  0.4912
 2160SOL    HW118113   4.525   1.045   8.601  1.2579 -0.5785 -0.6076
 2160SOL    HW218114   4.616   1.132   8.670 -0.5575  1.8399  0.6005
 2161SOL     OW18115   1.412   0.039  16.423  0.1902 -0.0062  0.4455
 2161SOL    HW118116   1.321   0.065  16.435  0.0983  0.0315 -0.3174
 2161SOL    HW218117   1.453   0.124  16.411  1.5443 -0.8922 -1.1806
 2162SOL     OW18118   4.104   2.881   2.129 -0.2958  0.4944  0.0480
 2162SOL    HW118119   4.047   2.806   2.112  1.7679 -1.3857  1.3514
 2162SOL    HW218120   4.035   2.946   2.132 -0.0497  0.7370  0.4942
 2163SOL     OW18121   0.730   4.121   9.572  1.0293  0.2774  0.2099
 2163SOL    HW118122   0.742   4.069   9.651  0.9402 -0.9509 -0.5819
 2163SOL    HW218123   0.778   4.069   9.507 -0.9108 -0.8761 -0.2767
 2164SOL     OW18124   3.490   2.448   5.448 -0.0355  0.7675 -0.0847
 2164SOL    HW118125   3.558   2.430   5.513 -0.8319  2.4989  1.1978
 2164SOL    HW218126   3.475   2.364   5.403 -0.2021 -0.0747  1.5412
 2165SOL     OW18127   2.519   2.800   0.510 -0.1161  0.0274  0.3598
 2165SOL    HW118128   2.590   2.768   0.453 -0.3170  0.4508 -0.1328
 2165SOL    HW218129   2.542   2.749   0.587  1.4764  1.8377  1.0950
 2166SOL     OW18130   3.702   2.823   8.344 -0.2641 -0.6568 -0.1636
 2166SOL    HW118131   3.753   2.859   8.417 -3.1852 -1.1594  2.0894
 2166SOL    HW218132   3.614   2.837   8.379 -1.3448 -0.8074 -2.8441
 2167SOL     OW18133   0.584   1.158  17.700  0.0656 -0.1411 -0.3984
 2167SOL    HW118134   0.623   1.071  17.704  0.8492  0.2747  0.9671
 2167SOL    HW218135   0.507   1.121  17.656 -1.1003 -0.1185  1.5902
 2168SOL     OW18136   2.889   2.783   2.627 -0.3760 -0.5395  0.0727
 2168SOL    HW118137   2.918   2.699   2.594  2.2056  0.1575  0.5584
 2168SOL    HW218138   2.949   2.847   2.588  0.1371 -0.1344  1.4898
 2169SOL     OW18139   3.095   0.358  14.992  0.4131 -0.1954 -0.0839
 2169SOL    HW118140   3.008   0.326  15.016 -0.5499  1.7649 -0.9743
 2169SOL    HW218141   3.148   0.299  15.045  0.5294 -1.1181 -1.2188
 2170SOL     OW18142   0.902   4.050   7.467 -0.0682  0.2155  0.0421
 2170SOL    HW118143   0.928   4.092   7.549  1.9680 -0.0063 -0.4905
 2170SOL    HW218144   0.987   4.013   7.443 -0.5328  0.4986 -1.9970
 2171SOL     OW18145   2.892   1.108   5.839 -0.0540 -0.1680 -0.1555
 2171SOL    HW118146   2.957   1.133   5.904 -0.7545 -1.4591  1.0357
 2171SOL    HW218147   2.941   1.092   5.758 -1.5766 -1.1196 -0.9019
 2172SOL     OW18148   1.189   1.423   5.088 -0.4184 -0.1425 -0.0505
 2172SOL    HW118149   1.175   1.350   5.149 -1.0125  1.7589  2.1059
 2172SOL    HW218150   1.280   1.414   5.059 -0.9318 -2.1385 -1.0043
 2173SOL     OW18151   3.563   1.289   4.643  0.1607 -0.2760  0.1816
 2173SOL    HW118152   3.518   1.265   4.562 -0.6628  0.7845  0.3290
 2173SOL    HW218153   3.560   1.384   4.630 -0.2576 -0.3212 -0.0565
 2174SOL     OW18154   2.437   3.524   0.015  0.7243  0.0692 -0.3593
 2174SOL    HW118155   2.427   3.531  17.675  1.5816  0.1945 -0.4422
 2174SOL    HW218156   2.498   3.596   0.035 -1.3323  0.7518  3.5198
 2175SOL     OW18157   2.238   1.868   2.244 -0.3230 -0.4942 -0.4292
 2175SOL    HW118158   2.300   1.850   2.174  0.7389 -1.1714  0.6957
 2175SOL    HW218159   2.220   1.779   2.276  0.7809 -0.3378  0.5911
 2176SOL     OW18160   1.580   4.317   1.527 -0.0724  0.6548  0.1445
 2176SOL    HW118161   1.663   4.354   1.495  0.8464  0.3079  2.0925
 2176SOL    HW218162   1.588   4.341   1.619  1.0743  2.1545 -0.3389
 2177SOL     OW18163   2.593   1.606   6.910 -0.2436  0.1046 -0.3357
 2177SOL    HW118164   2.523   1.541   6.913  0.7913 -1.0820 -2.0681
 2177SOL    HW218165   2.666   1.544   6.905 -2.5064 -2.5866  0.5026
 2178SOL     OW18166   1.402   3.389   5.114  0.5290  0.1381  0.5498
 2178SOL    HW118167   1.331   3.332   5.086 -0.2020  1.5231 -0.4033
 2178SOL    HW218168   1.442   3.346   5.190 -1.2662 -0.7383  1.0049
 2179SOL     OW18169   0.186   2.574   1.212 -0.4345 -0.3213  0.4299
 2179SOL    HW118170   0.165   2.657   1.169  0.8154 -0.7739 -1.0535
 2179SOL    HW218171   0.277   2.589   1.238 -0.5785  1.4576 -0.1102
 2180SOL     OW18172   3.363   4.323  13.042 -0.4885  0.5916 -0.2993
 2180SOL    HW118173   3.269   4.336  13.055 -0.2435  0.8032  1.2636
 2180SOL    HW218174   3.392   4.410  13.015 -0.2990  0.1527 -1.5052
 2181SOL     OW18175   0.210   3.286   8.834  0.2785  0.3893  0.0041
 2181SOL    HW118176   0.168   3.309   8.917  1.2017  2.8580 -0.2144
 2181SOL    HW218177   0.288   3.341   8.838 -0.9037  2.1719 -1.5406
 2182SOL     OW18178   2.123   1.149  10.962  0.2843  1.1546 -0.1177
 2182SOL    HW118179   2.143   1.206  11.037 -0.0943  0.0916  0.7864
 2182SOL    HW218180   2.047   1.188  10.920  0.2410 -0.1219 -1.1894
 2183SOL     OW18181   1.165   2.811   6.039 -0.0946 -0.2113  0.3699
 2183SOL    HW118182   1.150   2.887   5.982 -0.5458 -0.0368  0.7272
 2183SOL    HW218183   1.161   2.738   5.976 -2.1790 -0.3058  0.6026
 2184SOL     OW18184   3.289   2.785  15.615  0.0097 -0.5017 -0.4324
 2184SOL    HW118185   3.330   2.842  15.680 -0.9709  0.1939 -0.4280
 2184SOL    HW218186   3.223   2.848  15.586 -1.3453 -1.7163  0.0418
 2185SOL     OW18187   2.057   4.518   2.427 -0.0608 -0.3202  0.1101
 2185SOL    HW118188   2.115   4.441   2.421 -1.9749 -1.9168  1.9447
 2185SOL    HW218189   2.109   4.591   2.394  2.3145 -1.1959  1.8560
 2186SOL     OW18190   0.300   0.698   2.449  0.1829  0.4314 -0.4940
 2186SOL    HW118191   0.315   0.792   2.464  1.5013  0.2469 -0.7163
 2186SOL    HW218192   0.359   0.675   2.377 -0.0170  1.3450 -0.9507
 2187SOL     OW18193   4.669   2.946   7.740  0.2860 -0.1694  0.0442
 2187SOL    HW118194   4.653   2.934   7.646 -2.6010  3.1905  0.1058
 2187SOL    HW218195   4.604   3.015   7.755 -1.9799 -1.8054 -2.1483
 2188SOL     OW18196   1.548   3.544   5.584 -0.1779  0.4117  0.1905
 2188SOL    HW118197   1.642   3.561   5.574  0.1809 -1.0496  0.9984
 2188SOL    HW218198   1.516   3.531   5.495 -1.0675 -3.1634  1.0465
 2189SOL     OW18199   4.738   0.822   3.915 -0.4677  0.1395 -0.4452
 2189SOL    HW118200   4.693   0.790   3.837 -1.5502 -0.6755  0.4970
 2189SOL    HW218201   0.075   0.857   3.870  1.6226 -1.2246  2.0343
 2190SOL     OW18202   1.834   0.405   6.261 -0.0929  0.0744  0.2443
 2190SOL    HW118203   1.917   0.453   6.260 -0.1914  0.2640  2.5299
 2190SOL    HW218204   1.808   0.395   6.169  0.2523  0.6882  0.0816
 2191SOL     OW18205   3.706   3.210   3.519 -0.1768  0.2039  0.3819
 2191SOL    HW118206   3.761   3.157   3.462 -0.1002 -0.9289  1.4892
 2191SOL    HW218207   3.745   3.203   3.606 -0.0017 -0.1410  0.2748
 2192SOL     OW18208   3.331   2.938   7.720 -0.2146 -0.1352 -0.0846
 2192SOL    HW118209   3.248   2.953   7.674  0.0343  0.4650 -0.3342
 2192SOL    HW218210   3.316   2.990   7.799  0.5736 -1.0821  0.6741
 2193SOL     OW18211   2.246   1.951   8.682  0.3497  0.2460 -0.6194
 2193SOL    HW118212   2.321   2.002   8.651  0.8548  0.5582  1.1146
 2193SOL    HW218213   2.181   2.020   8.693 -0.1320  0.2094 -3.3454
 2194SOL     OW18214   3.208   2.370   5.283 -0.2582  0.0871  0.5316
 2194SOL    HW118215   3.236   2.452   5.243 -0.4171  1.3797  3.0704
 2194SOL    HW218216   3.170   2.320   5.211  1.3747  1.0273 -0.9597
 2195SOL     OW18217   4.326   1.048   6.614 -0.3147 -0.0014  0.6204
 2195SOL    HW118218   4.332   1.144   6.618 -1.0665  0.1126 -0.9638
 2195SOL    HW218219   4.324   1.026   6.707 -3.7655 -2.1458  0.0415
 2196SOL     OW18220   2.215   2.372   3.414  0.1706 -0.1051 -0.0603
 2196SOL    HW118221   2.298   2.369   3.365  0.9102  0.3883  1.1593
 2196SOL    HW218222   2.225   2.442   3.478  1.3949 -1.1439  0.8754
 2197SOL     OW18223   3.368   0.913  10.600  0.0569 -0.0531 -0.1286
 2197SOL    HW118224   3.304   0.982  10.586  1.1721  1.2270  1.0609
 2197SOL    HW218225   3.451   0.959  10.607  0.9093 -1.6877  0.6604
 2198SOL     OW18226   4.310   3.797   6.280  0.5617 -0.2800  0.1569
 2198SOL    HW118227   4.388   3.772   6.231  0.4669 -1.3955  0.5655
 2198SOL    HW218228   4.335   3.757   6.364  1.3544  0.0823  0.0877
 2199SOL     OW18229   3.277   0.503   3.253 -0.8412 -0.3706 -0.0697
 2199SOL    HW118230   3.193   0.499   3.208 -1.0380  1.6832  0.1022
 2199SOL    HW218231   3.279   0.416   3.293 -0.4588  0.1046  0.9447
 2200SOL     OW18232   0.985   2.079   1.969  0.4188  0.0011 -0.3900
 2200SOL    HW118233   0.988   2.064   1.874  1.1135  2.1851 -0.7209
 2200SOL    HW218234   0.968   2.174   1.971 -1.9365 -0.4347  0.2211
 2201SOL     OW18235   4.720   2.997   1.814  0.3353 -0.1906  0.4245
 2201SOL    HW118236   4.680   2.956   1.737  0.9714  1.1095 -0.6156
 2201SOL    HW218237   4.688   3.087   1.813 -0.1857 -0.3797  0.0139
 2202SOL     OW18238   1.988   2.424   8.303  0.1227  0.2374  0.1925
 2202SOL    HW118239   1.955   2.340   8.337  2.3493 -0.7061  0.0321
 2202SOL    HW218240   1.973   2.487   8.374  0.4626  2.4396 -1.6888
 2203SOL     OW18241   1.951   4.469   3.782 -0.0867  0.0239  0.5794
 2203SOL    HW118242   2.004   4.535   3.738  1.8669 -2.7464 -1.1746
 2203SOL    HW218243   1.914   4.418   3.710 -0.7646  0.2056  0.8007
 2204SOL     OW18244   3.424   4.018   4.712 -0.6540 -0.4266  0.1911
 2204SOL    HW118245   3.362   3.984   4.776 -0.0308  1.5233  1.8344
 2204SOL    HW218246   3.399   4.110   4.721  1.1601  0.2196 -1.3984
 2205SOL     OW18247   2.732   2.809   7.008 -0.3048  0.1615  0.1775
 2205SOL    HW118248   2.693   2.800   6.921 -0.0781  1.0248 -0.0113
 2205SOL    HW218249   2.688   2.747   7.067 -3.0027  0.6260 -1.3750
 2206SOL     OW18250   4.236   4.191   1.732 -0.4226 -0.1918  0.3732
 2206SOL    HW118251   4.279   4.207   1.816  4.1882 -1.0831 -1.8272
 2206SOL    HW218252   4.144   4.192   1.761  0.2203 -3.4954  2.5485
 2207SOL     OW18253   3.832   4.657   4.131 -0.1469 -0.8307 -0.4535
 2207SOL    HW118254   3.864   4.572   4.102  0.0401 -0.9611  0.1275
 2207SOL    HW218255   3.741   4.667   4.104 -0.1416 -1.0760 -0.5573
 2208SOL     OW18256   3.824   4.335   9.777  0.1222  0.4190  0.2318
 2208SOL    HW118257   3.773   4.302   9.851  2.8575 -2.0746  0.9796
 2208SOL    HW218258   3.805   4.275   9.704  1.0748 -0.2864  0.5746
 2209SOL     OW18259   4.427   2.905   0.947  0.3118 -0.0169  0.2261
 2209SOL    HW118260   4.473   2.988   0.950  1.9051 -0.8288 -1.6709
 2209SOL    HW218261   4.472   2.852   1.013 -0.2369 -1.3609 -0.4773
 2210SOL     OW18262   0.095   3.718   1.246 -0.4315 -0.3726  0.5652
 2210SOL    HW118263   0.139   3.777   1.307 -1.3828 -0.8646  1.7348
 2210SOL    HW218264   0.014   3.688   1.289 -0.7800  1.6920  1.3542
 2211SOL     OW18265   2.900   1.332   7.563 -0.1826 -0.2987  0.0839
 2211SOL    HW118266   2.918   1.243   7.593 -1.9583 -0.8179 -0.3556
 2211SOL    HW218267   2.876   1.375   7.645 -1.5350 -0.6734 -0.1128
 2212SOL     OW18268   2.931   3.813   5.844 -0.0193 -0.1114  0.5862
 2212SOL    HW118269   2.859   3.754   5.821  1.2651 -1.4907  0.0641
 2212SOL    HW218270   3.009   3.775   5.804  0.0515  0.0284  0.5906
 2213SOL     OW18271   0.998   4.239  10.931 -0.3970  0.4277  0.3294
 2213SOL    HW118272   0.953   4.321  10.953 -0.8191 -0.0273  1.1323
 2213SOL    HW218273   0.956   4.172  10.984  1.1704 -1.0842 -0.3733
 2214SOL     OW18274   2.905   1.287   5.388  0.6555  0.2400 -0.6807
 2214SOL    HW118275   2.953   1.367   5.409  1.3827 -0.0507 -1.2834
 2214SOL    HW218276   2.827   1.323   5.345  0.8497  1.0264 -0.3803
 2215SOL     OW18277   1.428   0.441   5.747 -0.2863  0.7892 -0.0962
 2215SOL    HW118278   1.500   0.485   5.701 -1.1574  1.2165 -1.0523
 2215SOL    HW218279   1.374   0.420   5.671  0.3333 -1.4240  0.0923
 2216SOL     OW18280   3.924   0.505   9.173 -0.1894  0.0614  0.2037
 2216SOL    HW118281   4.008   0.494   9.127  1.2039  1.7435  2.3499
 2216SOL    HW218282   3.926   0.431   9.234  2.5639  1.5991  1.9652
 2217SOL     OW18283   1.638   0.749  11.388 -0.1688  0.2202  0.0725
 2217SOL    HW118284   1.600   0.675  11.342 -1.5318  2.0284 -1.7329
 2217SOL    HW218285   1.730   0.725  11.397 -1.0133 -2.7126  0.7175
 2218SOL     OW18286   1.629   3.466   0.802 -0.5570  0.4654  0.4972
 2218SOL    HW118287   1.672   3.410   0.737 -1.0736  0.9936 -0.2911
 2218SOL    HW218288   1.701   3.516   0.842 -0.6274 -0.0166  1.2445
 2219SOL     OW18289   2.248   0.224   7.619  0.0361  0.0945 -0.2090
 2219SOL    HW118290   2.224   0.164   7.549  2.8824  1.6973 -2.5337
 2219SOL    HW218291   2.255   0.312   7.581 -1.1613 -0.1630 -1.0350
 2220SOL     OW18292   0.580   1.699   2.398 -0.2189  0.4952 -0.1555
 2220SOL    HW118293   0.488   1.695   2.374 -1.1618 -0.4440  3.7096
 2220SOL    HW218294   0.625   1.677   2.315 -0.2638 -0.2200  0.0098
 2221SOL     OW18295   4.046   1.875   7.100  0.0991 -0.4314  0.0046
 2221SOL    HW118296   4.127   1.886   7.050 -1.2282 -3.0485 -2.6885
 2221SOL    HW218297   4.094   1.862   7.182 -1.1490  2.0469  1.1470
 2222SOL     OW18298   0.855   3.459   8.465 -0.1448 -0.2467 -0.0460
 2222SOL    HW118299   0.841   3.536   8.519 -0.1053  0.6158 -1.2656
 2222SOL    HW218300   0.889   3.497   8.384  0.7265  1.1595  0.9698
 2223SOL     OW18301   1.292   0.982  13.256  0.2665 -0.7421  0.2474
 2223SOL    HW118302   1.337   0.973  13.340 -0.6150  3.5356  1.1794
 2223SOL    HW218303   1.253   1.068  13.271 -0.1211 -0.4571 -2.2764
 2224SOL     OW18304   0.462   1.048   7.592  0.5307 -0.1088 -0.1155
 2224SOL    HW118305   0.390   1.024   7.533  0.8240 -2.5072  0.5174
 2224SOL    HW218306   0.415   1.070   7.673 -0.4563 -1.2717 -0.3805
 2225SOL     OW18307   0.199   1.980   7.300 -0.1180 -0.1387 -0.2990
 2225SOL    HW118308   0.156   1.942   7.223  0.0422  0.2769 -0.5963
 2225SOL    HW218309   0.118   2.001   7.347  1.1976  1.2684  1.3388
 2226SOL     OW18310   0.014   1.652  10.143  0.0980  0.2896  0.0779
 2226SOL    HW118311   0.105   1.625  10.147  0.1162  0.2130 -0.9184
 2226SOL    HW218312   4.713   1.597  10.211 -0.7349 -0.7217 -1.2405
 2227SOL     OW18313   4.206   4.281  16.994  0.1101  0.2328  0.3564
 2227SOL    HW118314   4.234   4.191  16.980  1.2507  0.9621 -2.1123
 2227SOL    HW218315   4.188   4.284  17.088 -0.8140  0.5770  0.1752
 2228SOL     OW18316   2.617   4.005   7.001  0.6972  0.1889  0.1795
 2228SOL    HW118317   2.582   4.053   7.076 -2.8304 -1.0133 -0.7191
 2228SOL    HW218318   2.576   3.918   7.006 -0.4216  0.7256  0.4515
 2229SOL     OW18319   1.053   2.728   5.238 -0.2459 -0.0026 -0.2223
 2229SOL    HW118320   1.007   2.808   5.213  1.4211  0.0150 -3.3069
 2229SOL    HW218321   1.029   2.670   5.166  0.5543 -0.6724  0.0404
 2230SOL     OW18322   2.060   2.729  14.891 -0.2291 -0.0739  0.5051
 2230SOL    HW118323   2.108   2.647  14.876 -1.8195 -1.0795  0.9474
 2230SOL    HW218324   2.134   2.790  14.893  0.1779 -0.5098 -0.9115
 2231SOL     OW18325   4.398   3.310   6.107  0.5290 -0.2994 -0.4726
 2231SOL    HW118326   4.462   3.242   6.127  1.4546  1.5609  2.8036
 2231SOL    HW218327   4.315   3.264   6.092  0.9116 -1.2806  0.4099
 2232SOL     OW18328   1.072   3.114   4.449  0.0863  0.5771 -0.3654
 2232SOL    HW118329   1.009   3.047   4.476  0.8930 -0.9589 -2.2554
 2232SOL    HW218330   1.142   3.059   4.413  2.2068  0.6445  3.6191
 2233SOL     OW18331   1.185   2.132   9.336  0.0362 -0.3185  0.9695
 2233SOL    HW118332   1.261   2.090   9.377 -1.6670 -1.1460  3.3367
 2233SOL    HW218333   1.233   2.166   9.261  0.5195 -0.6895  1.1034
 2234SOL     OW18334   0.643   0.327   8.522 -0.6707 -0.5950 -0.0036
 2234SOL    HW118335   0.737   0.326   8.541 -0.6281  1.9124 -0.1244
 2234SOL    HW218336   0.601   0.330   8.608 -2.5298 -0.0546 -0.9275
 2235SOL     OW18337   1.861   1.450  11.679  0.2257  0.1797 -0.0061
 2235SOL    HW118338   1.902   1.529  11.714 -0.1735  1.2992 -2.0196
 2235SOL    HW218339   1.851   1.473  11.586 -0.4727 -0.6392 -0.1344
 2236SOL     OW18340   4.459   3.613   9.737  0.0956 -0.3755 -0.2803
 2236SOL    HW118341   4.403   3.660   9.676  0.8267  0.6123 -0.1842
 2236SOL    HW218342   4.481   3.665   9.814 -1.2538  0.4996 -0.4823
 2237SOL     OW18343   2.405   4.132   5.044  0.2174  0.0964 -0.1081
 2237SOL    HW118344   2.437   4.046   5.069 -1.1008 -0.0379  1.0667
 2237SOL    HW218345   2.310   4.136   5.057  0.0324  0.8431 -1.6262
 2238SOL     OW18346   0.311   2.599  14.581 -0.6401  0.1867  0.0298
 2238SOL    HW118347   0.233   2.655  14.579  0.7615  2.1523  0.6818
 2238SOL    HW218348   0.371   2.669  14.555 -1.2523  0.7696  0.1961
 2239SOL     OW18349   0.025   3.515   7.386 -0.0376 -0.4228 -0.3176
 2239SOL    HW118350   0.004   3.556   7.302  2.9444  0.3707 -0.6798
 2239SOL    HW218351   0.027   3.593   7.443  0.4997 -0.8460  0.2363
 2240SOL     OW18352   4.045   1.075  13.705  0.3819  0.0686 -0.1021
 2240SOL    HW118353   4.104   1.019  13.755 -0.7462  0.3626  1.5624
 2240SOL    HW218354   4.014   1.008  13.643 -1.8215 -0.8204  1.9532
 2241SOL     OW18355   0.482   2.400  11.978 -0.1806 -0.3907 -0.3117
 2241SOL    HW118356   0.413   2.463  11.959 -0.6345 -1.2480 -1.5722
 2241SOL    HW218357   0.477   2.394  12.073  0.2687 -0.3527 -0.2890
 2242SOL     OW18358   1.945   3.491   5.037  0.0989  0.2877 -0.1200
 2242SOL    HW118359   2.002   3.424   5.072  0.7491  0.8175 -0.1711
 2242SOL    HW218360   1.987   3.569   5.073 -0.1664 -0.0950  1.0149
 2243SOL     OW18361   3.994   3.722   8.906  0.2643 -0.5317  0.1932
 2243SOL    HW118362   4.079   3.724   8.950 -0.4088 -0.9112  1.5134
 2243SOL    HW218363   3.940   3.760   8.975 -0.0278 -0.5644 -0.0180
 2244SOL     OW18364   0.882   1.485  10.790 -0.1372  0.0726  0.4944
 2244SOL    HW118365   0.857   1.517  10.704  0.3382 -0.6300  0.0930
 2244SOL    HW218366   0.973   1.459  10.774  0.1063  0.6877  0.9127
 2245SOL     OW18367   1.259   1.562   1.682 -0.3718  0.3754  0.2753
 2245SOL    HW118368   1.252   1.588   1.590 -2.7017  2.6370  1.1003
 2245SOL    HW218369   1.250   1.646   1.727 -0.2501 -0.9829  2.8321
 2246SOL     OW18370   3.854   3.988   2.918  1.0014 -0.3905  0.5824
 2246SOL    HW118371   3.834   3.937   2.840 -1.2550 -0.3600  1.1384
 2246SOL    HW218372   3.855   3.922   2.986  1.4887 -3.2063 -2.1597
 2247SOL     OW18373   1.710   4.416   7.884  0.6269 -0.1738  0.1262
 2247SOL    HW118374   1.748   4.466   7.956 -0.9326  0.8766  0.2351
 2247SOL    HW218375   1.621   4.394   7.911  0.5052  1.2380  0.8971
 2248SOL     OW18376   1.801   3.336   8.514  0.7439 -0.7045  0.0098
 2248SOL    HW118377   1.789   3.269   8.582 -0.5275 -1.4105 -0.9225
 2248SOL    HW218378   1.731   3.309   8.456 -0.3165  1.5010  0.2658
 2249SOL     OW18379   2.104   1.564   7.216 -0.1969  0.1382  0.4939
 2249SOL    HW118380   2.043   1.491   7.215  0.8237 -0.6877 -1.1883
 2249SOL    HW218381   2.164   1.543   7.145 -1.0880 -0.2077 -0.1600
 2250SOL     OW18382   3.711   1.925  13.639 -0.6672  0.5051 -0.0329
 2250SOL    HW118383   3.769   1.856  13.670 -1.0907 -1.1355 -2.8757
 2250SOL    HW218384   3.771   2.000  13.641 -0.0534 -0.0482  1.9560
 2251SOL     OW18385   1.800   4.185   7.291 -0.6331  0.4095  0.1184
 2251SOL    HW118386   1.769   4.183   7.201 -0.2139  1.5443 -0.0517
 2251SOL    HW218387   1.887   4.225   7.281 -0.3226 -0.8469 -2.2729
 2252SOL     OW18388   3.061   1.160  16.827  0.1635 -0.3344  0.2288
 2252SOL    HW118389   3.122   1.102  16.873 -1.0373 -1.9397 -0.2185
 2252SOL    HW218390   3.120   1.214  16.773  0.0370  1.3407  1.7502
 2253SOL     OW18391   1.226   4.350  11.512 -0.3452 -0.3056  0.1399
 2253SOL    HW118392   1.159   4.353  11.580 -0.2906 -1.4537  0.2507
 2253SOL    HW218393   1.181   4.297  11.447 -0.5963 -1.5753  1.3433
 2254SOL     OW18394   2.711   3.587  10.814  0.0319 -0.0523  0.5207
 2254SOL    HW118395   2.758   3.527  10.873  1.1956 -0.0982 -0.4489
 2254SOL    HW218396   2.675   3.658  10.867 -0.1887 -0.4202  0.8633
 2255SOL     OW18397   0.099   2.557   2.520 -0.6967 -0.2433 -0.5557
 2255SOL    HW118398   0.004   2.566   2.521 -0.7708 -1.0486 -0.5036
 2255SOL    HW218399   0.113   2.554   2.425  0.1419 -1.4768 -0.3914
 2256SOL     OW18400   4.277   3.109   3.555 -0.8175  0.2249 -0.1563
 2256SOL    HW118401   4.331   3.057   3.495  0.1587 -0.5314  1.3787
 2256SOL    HW218402   4.186   3.104   3.526 -1.0002  0.0796  0.4423
 2257SOL     OW18403   0.366   0.870   5.782  0.6300  0.7765 -0.0920
 2257SOL    HW118404   0.361   0.914   5.867  1.4509 -1.7124  1.2579
 2257SOL    HW218405   0.276   0.838   5.772  1.4964 -1.0835 -1.8024
 2258SOL     OW18406   2.334   1.988   2.925  0.2426  0.3475  0.3887
 2258SOL    HW118407   2.283   1.913   2.955 -0.9985  0.4533 -1.4439
 2258SOL    HW218408   2.275   2.026   2.859  0.5087 -0.4469 -0.3135
 2259SOL     OW18409   3.868   4.563   6.953 -0.3300 -0.4255 -0.0782
 2259SOL    HW118410   3.841   4.655   6.960 -2.0811 -0.8720 -1.0257
 2259SOL    HW218411   3.954   4.571   6.912 -0.2881  1.0468  0.3067
 2260SOL     OW18412   2.158   1.315   9.269  0.1984 -0.2038  0.4933
 2260SOL    HW118413   2.168   1.246   9.334  0.6191 -0.8618 -0.2657
 2260SOL    HW218414   2.082   1.270   9.232  1.3187  0.5349 -2.7101
 2261SOL     OW18415   2.632   4.025  10.297 -0.3982 -0.4019 -0.3369
 2261SOL    HW118416   2.540   4.052  10.300 -0.2351  0.1189 -0.1059
 2261SOL    HW218417   2.649   4.006  10.389  1.4014 -1.6248 -0.9201
 2262SOL     OW18418   2.204   2.471   2.770  0.0203 -0.2903  0.7595
 2262SOL    HW118419   2.182   2.542   2.830 -0.5882 -1.1188  1.5162
 2262SOL    HW218420   2.118   2.439   2.741 -0.2673  1.5824 -0.4260
 2263SOL     OW18421   3.435   0.792  12.964  0.3402 -0.0724  0.3314
 2263SOL    HW118422   3.431   0.841  12.882  1.8044  2.3642  1.7103
 2263SOL    HW218423   3.524   0.758  12.966 -0.3505 -2.2063 -4.3062
 2264SOL     OW18424   3.283   4.328   3.654 -0.4533 -0.1175 -0.5151
 2264SOL    HW118425   3.361   4.334   3.709 -0.8324  1.3968 -0.1235
 2264SOL    HW218426   3.328   4.339   3.570  1.0327  1.2416  0.4604
 2265SOL     OW18427   4.002   3.634   1.784  0.4494  0.1641  0.1534
 2265SOL    HW118428   4.032   3.694   1.716 -0.3796 -1.3126 -1.5263
 2265SOL    HW218429   3.909   3.641   1.765  0.3351 -1.4933  0.0991
 2266SOL     OW18430   0.562   1.047   5.134 -0.4032 -0.0566 -0.0413
 2266SOL    HW118431   0.596   1.030   5.046  0.0528 -1.1445  0.3355
 2266SOL    HW218432   0.592   1.133   5.164 -1.8784 -0.0125  1.3055
 2267SOL     OW18433   4.621   4.602   9.648  0.0461 -0.4885 -0.1682
 2267SOL    HW118434   4.647   4.694   9.645  1.6112 -0.9303  0.1176
 2267SOL    HW218435   4.590   4.591   9.558  0.0223 -2.2594  0.0409
 2268SOL     OW18436   1.332   1.796   9.087  0.3517  0.3974 -0.9363
 2268SOL    HW118437   1.291   1.710   9.100 -0.1023  0.6453 -0.7348
 2268SOL    HW218438   1.387   1.810   9.163 -0.7002 -1.8183  0.2115
 2269SOL     OW18439   3.677   3.830  13.442  0.0445  0.3718 -0.3818
 2269SOL    HW118440   3.668   3.787  13.527  0.8740 -3.0148 -1.9911
 2269SOL    HW218441   3.707   3.916  13.471  1.8785 -0.0503 -0.9864
 2270SOL     OW18442   1.882   3.078   7.860  0.0937 -0.1485 -0.0823
 2270SOL    HW118443   1.959   3.110   7.907  1.2828 -1.6917 -0.9786
 2270SOL    HW218444   1.816   3.101   7.925  0.8415  2.3571 -0.2009
 2271SOL     OW18445   1.971   0.640   3.094  0.1528  0.3309 -1.2118
 2271SOL    HW118446   1.983   0.548   3.115  0.6530  0.5996 -0.3031
 2271SOL    HW218447   1.950   0.667   3.184 -0.3156 -3.7027 -0.1221
 2272SOL     OW18448   0.927   1.040   6.458 -0.5580 -0.1144 -0.2161
 2272SOL    HW118449   0.844   1.037   6.507 -0.4573 -2.0848 -0.1548
 2272SOL    HW218450   0.906   1.108   6.394 -1.7984 -0.1917  0.0970
 2273SOL     OW18451   0.460   1.013   9.501 -0.8002 -0.8187 -0.1252
 2273SOL    HW118452   0.397   0.941   9.496  0.9417 -2.3077 -0.5951
 2273SOL    HW218453   0.407   1.093   9.501 -0.1904 -0.4220 -1.7166
 2274SOL     OW18454   0.604   2.112  15.674 -0.0561  0.1728 -0.7263
 2274SOL    HW118455   0.590   2.026  15.633 -3.4514  1.5472 -2.3856
 2274SOL    HW218456   0.525   2.159  15.647  0.9974  2.8514  0.9003
 2275SOL     OW18457   4.241   2.099   7.448  0.0630  0.2052 -0.0928
 2275SOL    HW118458   4.203   2.160   7.384  1.0624  0.4010 -0.4993
 2275SOL    HW218459   4.324   2.143   7.464  0.7362 -2.2022  3.0381
 2276SOL     OW18460   1.688   2.956   3.108  0.3717 -0.2833  0.1036
 2276SOL    HW118461   1.615   2.996   3.059  1.2807  1.1256 -0.1120
 2276SOL    HW218462   1.657   2.867   3.091 -2.0781  0.3691  1.0190
 2277SOL     OW18463   1.428   0.532   3.636 -0.3291  0.1129  0.5886
 2277SOL    HW118464   1.398   0.453   3.592  1.7693 -0.1654 -0.3061
 2277SOL    HW218465   1.376   0.598   3.589  1.5003 -0.5568 -2.3549
 2278SOL     OW18466   4.272   3.401   0.716  0.0843 -0.2164  0.5577
 2278SOL    HW118467   4.353   3.452   0.715  1.5521 -2.5718  0.2175
 2278SOL    HW218468   4.223   3.449   0.649 -0.7231  0.1167  1.3842
 2279SOL     OW18469   2.390   1.630  11.279  0.1936 -0.1189 -0.2328
 2279SOL    HW118470   2.335   1.679  11.218 -1.3322 -0.4508  0.8633
 2279SOL    HW218471   2.476   1.643  11.240  0.3561 -1.2585 -0.2379
 2280SOL     OW18472   3.127   3.668   7.730  0.0606  0.3188  0.2552
 2280SOL    HW118473   3.131   3.585   7.683 -0.6915  0.3244  0.1861
 2280SOL    HW218474   3.178   3.724   7.671  0.5799 -0.7541 -0.2983
 2281SOL     OW18475   4.207   3.668   9.921 -0.6330  0.4084 -0.2018
 2281SOL    HW118476   4.302   3.668   9.913 -0.6043  0.6683  0.1587
 2281SOL    HW218477   4.175   3.693   9.835 -0.5229 -2.4976 -1.0829
 2282SOL     OW18478   1.506   2.213  15.212 -0.2145 -0.2482 -0.2409
 2282SOL    HW118479   1.485   2.120  15.208 -2.0873  0.0652  2.0964
 2282SOL    HW218480   1.453   2.244  15.138  1.8683  0.8599 -1.2559
 2283SOL     OW18481   0.667   1.286   5.220  0.9600 -0.1551 -0.7963
 2283SOL    HW118482   0.666   1.287   5.315  0.7877  0.1051 -0.8005
 2283SOL    HW218483   0.759   1.306   5.204  0.7340  0.1943 -1.7048
 2284SOL     OW18484   4.573   0.691   2.886  0.1252  0.7438  0.4605
 2284SOL    HW118485   4.595   0.731   2.970  0.6963 -0.0894  0.7084
 2284SOL    HW218486   4.639   0.738   2.835  0.2554 -0.6870 -0.6839
 2285SOL     OW18487   3.287   1.279   5.582  0.3270 -0.6343 -0.1143
 2285SOL    HW118488   3.234   1.203   5.606  1.2695 -1.2630  0.0118
 2285SOL    HW218489   3.222   1.331   5.535 -1.2635 -2.7622 -0.2672
 2286SOL     OW18490   1.663   3.295   3.188 -0.2817  0.0622 -0.1253
 2286SOL    HW118491   1.730   3.326   3.250 -0.4356 -0.7924  0.4700
 2286SOL    HW218492   1.687   3.348   3.112  1.7258 -0.3965  0.2017
 2287SOL     OW18493   2.140   4.073  17.085  0.0154  0.0397 -0.1837
 2287SOL    HW118494   2.123   3.994  17.034 -0.2701 -0.1119  0.1418
 2287SOL    HW218495   2.058   4.072  17.134  1.4719  0.8270  2.2900
 2288SOL     OW18496   3.113   2.609   2.793  0.3364  0.1607 -0.2259
 2288SOL    HW118497   3.065   2.527   2.804  0.2250 -0.0420 -2.3482
 2288SOL    HW218498   3.117   2.619   2.698 -1.7406 -2.1944 -0.5732
 2289SOL     OW18499   0.171   1.384   9.030 -0.1548 -0.2203  0.3762
 2289SOL    HW118500   0.233   1.435   8.978  1.8429 -1.5815  1.4246
 2289SOL    HW218501   0.228   1.316   9.065 -0.0449 -1.0534 -1.3920
 2290SOL     OW18502   1.833   1.164  15.391 -0.5705 -0.2181 -0.8420
 2290SOL    HW118503   1.767   1.123  15.448 -0.9107  1.5247 -0.0017
 2290SOL    HW218504   1.797   1.148  15.304  0.3600 -0.4325 -1.1832
 2291SOL     OW18505   1.183   2.331   7.405  0.0824 -0.0041  0.5978
 2291SOL    HW118506   1.236   2.266   7.361  2.4101  2.3144 -0.0320
 2291SOL    HW218507   1.097   2.294   7.386 -0.1106  0.6307  0.2099
 2292SOL     OW18508   1.791   1.372  14.726 -0.7984 -0.2154  0.0442
 2292SOL    HW118509   1.880   1.356  14.759 -0.9952  1.0892  1.2282
 2292SOL    HW218510   1.794   1.461  14.690 -3.1452 -0.5634 -0.9656
 2293SOL     OW18511   2.007   0.943  11.584 -0.1269  0.0554  0.3343
 2293SOL    HW118512   2.091   0.952  11.629  1.3446 -3.4922 -1.6898
 2293SOL    HW218513   2.002   1.038  11.572 -1.5378  0.0709  1.0485
 2294SOL     OW18514   3.916   4.313   9.377  0.3648 -0.6658 -0.2799
 2294SOL    HW118515   3.898   4.245   9.442  0.8290 -0.5555 -0.0329
 2294SOL    HW218516   3.836   4.322   9.325  1.4759  2.8953 -1.4001
 2295SOL     OW18517   3.062   0.365   6.967  0.3462 -1.2895  0.3886
 2295SOL    HW118518   3.155   0.360   6.943  0.1664 -0.6196 -0.4635
 2295SOL    HW218519   3.033   0.275   6.981  0.8303 -1.2980  1.2988
 2296SOL     OW18520   0.686   3.812   3.091 -0.8663  0.1635  0.7286
 2296SOL    HW118521   0.596   3.831   3.067 -0.3859  1.0755 -0.3399
 2296SOL    HW218522   0.731   3.837   3.010 -3.3311  2.1386 -0.0131
 2297SOL     OW18523   1.779   4.454   6.698  0.0072  0.1090  0.3804
 2297SOL    HW118524   1.768   4.523   6.633 -1.2851  0.0800  0.5756
 2297SOL    HW218525   1.870   4.442   6.668 -0.0936  4.6616 -1.7725
 2298SOL     OW18526   2.018   3.539   4.271 -0.0903 -0.0093 -0.9202
 2298SOL    HW118527   1.948   3.534   4.336  1.4430 -2.6795  0.5075
 2298SOL    HW218528   2.090   3.498   4.320 -0.5396  0.0347 -0.2318
 2299SOL     OW18529   3.844   4.717   6.150 -0.7926  0.3444 -0.1531
 2299SOL    HW118530   3.813   4.639   6.197  0.2311  1.1269  1.8084
 2299SOL    HW218531   3.904   0.019   6.212  0.0595  0.8780 -1.3262
 2300SOL     OW18532   0.655   0.839   0.267 -0.2025 -0.2334  0.0418
 2300SOL    HW118533   0.586   0.901   0.245 -0.4620 -0.9977 -1.2807
 2300SOL    HW218534   0.720   0.906   0.292 -0.2935 -0.5386  1.1001
 2301SOL     OW18535   1.251   4.553  11.073 -0.0363  0.4156 -0.1036
 2301SOL    HW118536   1.236   4.610  11.148 -0.5902  0.0810  0.0403
 2301SOL    HW218537   1.233   4.463  11.098  1.2521  0.6379  1.5827
 2302SOL     OW18538   3.822   3.651  13.276  0.8510  0.4158  0.2785
 2302SOL    HW118539   3.760   3.715  13.311 -2.5364 -2.6323 -0.0948
 2302SOL    HW218540   3.901   3.657  13.329  1.7477  0.9562 -1.1169
 2303SOL     OW18541   1.776   0.952   1.662 -1.2309 -0.4436 -0.5179
 2303SOL    HW118542   1.706   0.898   1.698 -0.1119 -0.0216  2.3344
 2303SOL    HW218543   1.847   0.891   1.681 -1.6181 -0.6548  0.2472
 2304SOL     OW18544   3.075   1.369   3.991  0.0091 -0.6728 -0.3463
 2304SOL    HW118545   3.003   1.345   3.933  0.2995 -0.7773 -0.6613
 2304SOL    HW218546   3.046   1.453   4.024 -0.9273 -1.8135  1.7581
 2305SOL     OW18547   2.154   3.793  14.978 -0.1153 -0.7182 -0.5177
 2305SOL    HW118548   2.202   3.857  14.926  0.9733 -1.8255 -0.8808
 2305SOL    HW218549   2.171   3.829  15.065  0.3562  0.6248 -1.1730
 2306SOL     OW18550   0.248   0.770  13.870  0.3474 -0.2613  0.0474
 2306SOL    HW118551   0.337   0.783  13.837 -0.7140  3.5177 -1.3399
 2306SOL    HW218552   0.190   0.834  13.829  0.7592  0.1019  0.0301
 2307SOL     OW18553   4.548   0.632   4.909 -0.0877  0.8083 -0.0640
 2307SOL    HW118554   4.516   0.549   4.943  1.8402  0.2617  0.4090
 2307SOL    HW218555   4.550   0.619   4.814 -1.5376  0.8314 -0.1065
 2308SOL     OW18556   2.537   2.176  10.375  0.0237  0.2970 -0.0767
 2308SOL    HW118557   2.495   2.134  10.300  0.1819 -1.0281  0.5885
 2308SOL    HW218558   2.469   2.242  10.389  0.5447  1.0500 -1.0328
 2309SOL     OW18559   4.507   2.901   6.535 -0.4661 -0.2049 -0.2446
 2309SOL    HW118560   4.531   2.864   6.620 -1.9140  1.8074  1.0638
 2309SOL    HW218561   4.476   2.989   6.559 -0.3500  0.0158 -0.9137
 2310SOL     OW18562   1.145   2.649   3.216  0.3857  0.3456 -0.5599
 2310SOL    HW118563   1.058   2.623   3.247  0.5028  3.0691  2.0176
 2310SOL    HW218564   1.154   2.732   3.263 -1.1443  0.6644 -0.8162
 2311SOL     OW18565   0.652   0.908  16.160 -0.1764  0.2460  0.1908
 2311SOL    HW118566   0.579   0.865  16.204 -1.1761  1.4336 -0.2963
 2311SOL    HW218567   0.686   0.835  16.109  0.9647  2.3377 -2.0403
 2312SOL     OW18568   4.588   4.549   6.015 -0.1709  0.1184 -0.0537
 2312SOL    HW118569   4.497   4.568   6.035  0.4806  0.6790  2.4391
 2312SOL    HW218570   4.592   4.457   6.044 -2.6656 -0.6854 -2.3070
 2313SOL     OW18571   4.093   0.847   6.576 -0.0795  0.0875 -0.0959
 2313SOL    HW118572   4.144   0.912   6.526 -0.4077 -0.2595 -0.8815
 2313SOL    HW218573   4.007   0.885   6.591 -0.4886 -0.6369 -0.6179
 2314SOL     OW18574   2.884   0.359   3.738  0.1495  0.1310  0.4659
 2314SOL    HW118575   2.975   0.346   3.712  0.2077 -0.5878  1.0413
 2314SOL    HW218576   2.860   0.442   3.696  2.2897  0.9778  0.8931
 2315SOL     OW18577   1.939   1.742   1.894  0.4738  0.0911  0.5272
 2315SOL    HW118578   1.883   1.718   1.820  0.1244  2.6466 -0.0370
 2315SOL    HW218579   1.902   1.686   1.962  0.4723  1.3851  1.5761
 2316SOL     OW18580   2.585   3.923   7.744  0.0956  0.3280 -0.4216
 2316SOL    HW118581   2.626   3.836   7.738  0.1139  0.4863 -2.5251
 2316SOL    HW218582   2.510   3.915   7.685  2.7925 -0.0540 -3.7926
 2317SOL     OW18583   3.150   1.071  15.344 -0.1202 -0.4842  0.2901
 2317SOL    HW118584   3.179   1.122  15.268  0.3267  2.4306  2.4423
 2317SOL    HW218585   3.084   1.126  15.387 -1.7001 -1.9495 -0.2754
 2318SOL     OW18586   4.371   4.159   2.291  0.3809 -0.0618 -0.0890
 2318SOL    HW118587   4.408   4.076   2.324 -3.1953 -1.6529 -0.0419
 2318SOL    HW218588   4.284   4.150   2.330  0.1444  0.9679 -0.4054
 2319SOL     OW18589   0.999   1.481   6.401  0.0479 -0.4287  0.7624
 2319SOL    HW118590   0.950   1.550   6.446 -2.5375 -2.1779  0.6423
 2319SOL    HW218591   1.028   1.420   6.468 -1.7261 -0.9770  1.0362
 2320SOL     OW18592   1.452   4.490   9.681 -0.2696 -0.6634  0.7509
 2320SOL    HW118593   1.446   4.503   9.586  1.0124 -0.1398  0.7513
 2320SOL    HW218594   1.424   4.398   9.684  0.6010 -0.9250  0.7813
 2321SOL     OW18595   0.707   0.681   2.900  0.1476  0.0207 -0.4509
 2321SOL    HW118596   0.619   0.645   2.911  0.5965 -0.5300  1.3972
 2321SOL    HW218597   0.694   0.746   2.831  0.2741  2.0302  1.4319
 2322SOL     OW18598   1.406   0.347   6.908  0.2599 -0.5189  0.2540
 2322SOL    HW118599   1.341   0.400   6.861  0.6383 -0.8575 -0.6537
 2322SOL    HW218600   1.342   0.279   6.929 -2.9757  1.7893 -2.0052
 2323SOL     OW18601   0.695   3.851   7.966 -0.5743 -0.6082  0.9706
 2323SOL    HW118602   0.616   3.850   8.020 -0.2348  0.5257  1.4987
 2323SOL    HW218603   0.764   3.889   8.021  2.2353 -2.1387 -1.5036
 2324SOL     OW18604   0.439   2.782   4.447  0.0657  0.0156 -0.0920
 2324SOL    HW118605   0.462   2.690   4.438 -0.5437 -0.1973  0.5505
 2324SOL    HW218606   0.504   2.827   4.394 -1.5216 -0.7264 -2.6864
 2325SOL     OW18607   2.368   3.875   6.230 -0.0727 -0.4856 -0.4601
 2325SOL    HW118608   2.329   3.961   6.242  1.4281 -0.0319  1.1097
 2325SOL    HW218609   2.392   3.890   6.139  0.4988  1.4784  0.0294
 2326SOL     OW18610   1.505   0.351   5.436 -0.1090 -0.1311 -0.0468
 2326SOL    HW118611   1.451   0.424   5.408 -0.7503 -1.2720 -1.7703
 2326SOL    HW218612   1.568   0.407   5.482 -0.6365 -1.0139  1.7448
 2327SOL     OW18613   2.955   4.184   5.478  0.0798  0.1796 -0.4196
 2327SOL    HW118614   3.047   4.159   5.483 -0.5529 -2.7969 -4.1523
 2327SOL    HW218615   2.959   4.270   5.436 -0.1176  0.0513 -0.7025
 2328SOL     OW18616   2.463   1.323   0.041  0.2323  0.2488 -0.4709
 2328SOL    HW118617   2.483   1.230   0.033 -0.6771  0.0071  0.0035
 2328SOL    HW218618   2.369   1.324   0.059  0.5024  0.2323  0.9682
 2329SOL     OW18619   1.408   0.195   2.677  0.5235  0.2981 -0.0061
 2329SOL    HW118620   1.386   0.139   2.602 -1.5352  1.4898 -0.2793
 2329SOL    HW218621   1.340   0.262   2.673  0.0761 -0.0215  2.2892
 2330SOL     OW18622   3.457   1.388   9.444  0.1310  0.1490  0.4300
 2330SOL    HW118623   3.430   1.350   9.528 -0.4432 -0.4015 -0.0039
 2330SOL    HW218624   3.499   1.472   9.464 -2.4676  1.6834 -0.6749
 2331SOL     OW18625   2.615   0.549   3.988 -0.1742 -0.1679  0.0397
 2331SOL    HW118626   2.630   0.599   3.908 -2.8611  1.1769  0.3739
 2331SOL    HW218627   2.546   0.594   4.038  0.4988  0.1900  0.6570
 2332SOL     OW18628   4.314   0.496   8.175  0.5938  0.1810 -0.0620
 2332SOL    HW118629   4.312   0.462   8.265  1.6744  3.6407  1.2427
 2332SOL    HW218630   4.407   0.509   8.156  1.2557 -1.3707  2.1235
 2333SOL     OW18631   2.270   4.701   7.220 -0.0520 -0.1725 -0.0482
 2333SOL    HW118632   2.227   4.681   7.303 -0.4907 -1.6368 -0.6201
 2333SOL    HW218633   2.259   0.056   7.221  1.2058 -0.0248 -0.2007
 2334SOL     OW18634   1.690   0.163   7.283 -0.0481  0.0470 -0.3386
 2334SOL    HW118635   1.615   0.219   7.305 -0.4674 -0.5127 -0.3230
 2334SOL    HW218636   1.642   0.100   7.229  1.8871 -2.5926  0.9970
 2335SOL     OW18637   2.304   1.790  13.587  0.2419 -0.0350  0.2936
 2335SOL    HW118638   2.323   1.697  13.591  2.2936  0.4273  1.3344
 2335SOL    HW218639   2.254   1.792  13.669 -1.8528  1.3888 -1.0138
 2336SOL     OW18640   2.219   2.940  15.930  0.0762 -0.4516 -0.2758
 2336SOL    HW118641   2.181   3.000  15.866  1.2838  1.1650  0.5443
 2336SOL    HW218642   2.307   2.975  15.940 -0.6585  1.1808  0.3419
 2337SOL     OW18643   3.056   0.189   3.246  0.0297 -0.0256  0.0199
 2337SOL    HW118644   3.149   0.212   3.242  0.1675 -0.4863  0.7249
 2337SOL    HW218645   3.064   0.098   3.217 -1.3117 -0.1429  0.0246
 2338SOL     OW18646   2.492   2.874  12.675  0.2485 -0.3313  0.3302
 2338SOL    HW118647   2.565   2.899  12.732  0.3283 -1.3275  0.6811
 2338SOL    HW218648   2.537   2.813  12.615  6.4248  4.2092  0.3916
 2339SOL     OW18649   2.657   3.005   2.716 -1.0881  1.0000 -0.2233
 2339SOL    HW118650   2.672   2.914   2.692 -2.1076  0.9614 -0.7380
 2339SOL    HW218651   2.561   3.011   2.714 -1.2047 -1.1374 -1.9007
 2340SOL     OW18652   2.435   4.055   8.249 -0.6376 -0.7268 -0.4100
 2340SOL    HW118653   2.418   4.143   8.284 -0.7839 -1.1584  0.5972
 2340SOL    HW218654   2.528   4.068   8.230 -0.1129 -2.3588  1.0463
 2341SOL     OW18655   3.394   0.256   4.034 -0.3040  0.1402  0.2809
 2341SOL    HW118656   3.340   0.177   4.032 -0.3939  0.3508 -3.6478
 2341SOL    HW218657   3.342   0.299   4.102 -1.0024  0.4726 -0.4752
 2342SOL     OW18658   3.968   3.466   2.642  0.1459  0.1228 -0.5364
 2342SOL    HW118659   3.997   3.514   2.720 -1.3555 -2.2584  1.4632
 2342SOL    HW218660   4.013   3.383   2.656 -0.6272 -0.8738 -4.0762
 2343SOL     OW18661   4.487   3.842  17.125  0.5540  0.1489 -0.8366
 2343SOL    HW118662   4.576   3.816  17.101  0.4121 -0.4910 -0.6728
 2343SOL    HW218663   4.491   3.879  17.213  1.8520  1.2449 -1.3655
 2344SOL     OW18664   1.414   0.716   6.981 -0.1085 -0.1827  0.0806
 2344SOL    HW118665   1.479   0.781   6.952 -0.7124  0.5659  0.4087
 2344SOL    HW218666   1.475   0.671   7.039 -2.2633  1.2568  3.4132
 2345SOL     OW18667   1.492   1.422  17.318 -0.2261  0.7700  0.0133
 2345SOL    HW118668   1.574   1.471  17.326  0.4921 -0.5703  0.9654
 2345SOL    HW218669   1.529   1.343  17.278 -2.0592  0.7668 -1.6717
 2346SOL     OW18670   4.491   3.196   7.855  0.8879 -0.3800  0.7112
 2346SOL    HW118671   4.465   3.146   7.932  0.1690  0.8225  1.2429
 2346SOL    HW218672   4.577   3.233   7.875  1.3046 -0.0027 -1.8208
 2347SOL     OW18673   2.412   4.568  10.015 -0.3099  0.2537  0.3247
 2347SOL    HW118674   2.346   4.535  10.076  1.0322 -1.8573  0.5877
 2347SOL    HW218675   2.432   4.657  10.046 -0.3816  1.1820 -2.2978
 2348SOL     OW18676   1.994   3.729   3.733 -0.1757  0.3404 -0.1492
 2348SOL    HW118677   2.004   3.718   3.827  1.3060  1.8879 -0.1157
 2348SOL    HW218678   2.040   3.652   3.699 -1.4492  0.1963 -1.5878
 2349SOL     OW18679   1.079   2.061   6.754 -0.1407 -0.7094  0.0804
 2349SOL    HW118680   1.135   2.138   6.747 -2.0322  0.7452  0.9367
 2349SOL    HW218681   1.048   2.057   6.663 -2.5211  2.4151  0.7450
 2350SOL     OW18682   2.185   3.534  15.207  0.0509 -0.8561  0.1785
 2350SOL    HW118683   2.130   3.497  15.139 -1.6450  2.1036 -0.0635
 2350SOL    HW218684   2.139   3.611  15.240 -1.3915 -2.1502  1.1845
 2351SOL     OW18685   1.592   4.452   5.609  0.2845 -0.4338  0.3234
 2351SOL    HW118686   1.657   4.521   5.625  0.2705 -0.3267 -0.0768
 2351SOL    HW218687   1.639   4.388   5.662  2.3053 -0.1553 -1.1404
 2352SOL     OW18688   3.720   1.553   5.932  0.0645  0.2794  0.8491
 2352SOL    HW118689   3.750   1.505   6.010 -3.1578  0.2762  2.0847
 2352SOL    HW218690   3.627   1.559   5.955  0.4138  1.1007  2.0197
 2353SOL     OW18691   4.626   1.674   7.682 -0.0056 -0.0698  0.0030
 2353SOL    HW118692   4.656   1.758   7.647  0.2801 -0.3582 -0.4560
 2353SOL    HW218693   4.707   1.628   7.705  0.6902  1.0994 -0.1654
 2354SOL     OW18694   2.905   0.519   0.572  0.4385  0.1013  0.6750
 2354SOL    HW118695   2.838   0.527   0.504 -0.1557 -1.8522  1.0614
 2354SOL    HW218696   2.891   0.606   0.609 -0.1427  0.7024 -0.9206
 2355SOL     OW18697   4.563   3.455   9.152  0.0169 -0.0687 -0.0928
 2355SOL    HW118698   4.617   3.519   9.199 -0.6588  0.0466  0.5138
 2355SOL    HW218699   4.502   3.510   9.103 -0.1004  0.2569  0.4240
 2356SOL     OW18700   3.380   2.515   0.435  0.3164  0.4514  0.0510
 2356SOL    HW118701   3.321   2.569   0.382 -2.1064 -1.1669  1.1247
 2356SOL    HW218702   3.399   2.434   0.387 -0.1697  0.0099  0.6133
 2357SOL     OW18703   4.438   4.429   3.382 -0.5284  0.1091  0.2449
 2357SOL    HW118704   4.408   4.424   3.291 -2.6302 -0.5261  0.9837
 2357SOL    HW218705   4.498   4.355   3.388 -2.3397 -1.3607  0.0960
 2358SOL     OW18706   2.272   2.257   8.451  0.3854 -0.0034  0.5277
 2358SOL    HW118707   2.352   2.209   8.473  0.5368  0.1098  0.2244
 2358SOL    HW218708   2.307   2.347   8.449 -0.0248  0.1483  0.2877
 2359SOL     OW18709   3.677   0.978   6.599  0.1234  0.3938  0.1603
 2359SOL    HW118710   3.616   1.027   6.544  1.0297 -0.6165 -1.7670
 2359SOL    HW218711   3.751   1.038   6.592 -1.6475  2.6250  0.5622
 2360SOL     OW18712   0.512   3.943   9.044  0.0979  0.1819  0.4426
 2360SOL    HW118713   0.577   4.004   9.009  3.3668 -2.5402  1.6298
 2360SOL    HW218714   0.444   3.981   8.989  1.4867 -1.7618 -2.6452
 2361SOL     OW18715   0.166   1.185   4.509 -0.0613  0.5220 -1.1767
 2361SOL    HW118716   0.166   1.143   4.595 -2.3757 -1.2853 -2.0492
 2361SOL    HW218717   0.094   1.247   4.516  0.1954  0.7513 -0.6071
 2362SOL     OW18718   3.386   2.566   9.161 -0.1278  0.3370 -0.1436
 2362SOL    HW118719   3.425   2.511   9.094 -1.6722  0.8401 -1.4593
 2362SOL    HW218720   3.459   2.623   9.184  0.4361 -0.3688 -0.1902
 2363SOL     OW18721   3.399   3.227   8.715  0.0634  0.0612 -0.5479
 2363SOL    HW118722   3.476   3.281   8.696  1.4143 -1.0737  1.7946
 2363SOL    HW218723   3.351   3.296   8.760  0.3540 -1.9439  2.8144
 2364SOL     OW18724   2.606   0.502   9.966 -0.3831 -0.1526  0.3856
 2364SOL    HW118725   2.533   0.534   9.914  0.4129  0.0165 -0.6315
 2364SOL    HW218726   2.560   0.445  10.027 -0.6846 -1.3426 -0.9528
 2365SOL     OW18727   1.743   0.460   8.824  0.0241  0.4056  0.2140
 2365SOL    HW118728   1.781   0.500   8.902  1.4309 -1.7176  0.6015
 2365SOL    HW218729   1.820   0.436   8.773  0.4459 -0.2239  1.1583
 2366SOL     OW18730   2.908   0.691  11.340  0.2725  0.5144  0.0532
 2366SOL    HW118731   2.999   0.704  11.312  0.3969 -0.0720  0.1788
 2366SOL    HW218732   2.920   0.613  11.394 -1.5098 -1.0721 -1.8479
 2367SOL     OW18733   3.916   4.357   2.756 -0.1582 -0.3075 -0.4608
 2367SOL    HW118734   4.011   4.342   2.758 -0.0412  0.6857  0.9576
 2367SOL    HW218735   3.888   4.311   2.834  0.1089  1.7709  0.8549
 2368SOL     OW18736   0.144   1.256   7.998 -0.1434 -0.2819  0.6723
 2368SOL    HW118737   0.164   1.348   8.014  1.9605 -0.4868 -0.7840
 2368SOL    HW218738   0.051   1.267   7.979 -0.3719  0.1624  2.0874
 2369SOL     OW18739   0.915   1.032   2.192 -0.4060 -0.4034  0.1806
 2369SOL    HW118740   0.984   1.003   2.250  0.3611 -0.0738 -0.5657
 2369SOL    HW218741   0.837   1.037   2.247  0.1485  0.7958  0.8264
 2370SOL     OW18742   4.148   0.927   5.884 -0.5295  0.0242  0.8674
 2370SOL    HW118743   4.068   0.977   5.867 -0.4900  0.0571  0.7794
 2370SOL    HW218744   4.128   0.907   5.975 -1.0398  1.0269  0.9779
 2371SOL     OW18745   1.441   0.126   5.604  0.3789 -0.6262  0.4008
 2371SOL    HW118746   1.466   0.196   5.544  0.6827  1.2720  2.7724
 2371SOL    HW218747   1.352   0.102   5.576  2.1308 -2.5635 -3.4293
 2372SOL     OW18748   1.933   3.101   4.117  0.8043  0.4251  0.3442
 2372SOL    HW118749   1.868   3.031   4.122  0.6946  0.6610  2.1788
 2372SOL    HW218750   1.911   3.151   4.039  0.8177  1.0555  0.7453
 2373SOL     OW18751   0.753   0.153   9.444 -0.6370 -0.6262  0.2136
 2373SOL    HW118752   0.693   0.207   9.392  0.9727  0.9858  0.0113
 2373SOL    HW218753   0.760   0.067   9.402 -0.4976 -0.0273 -1.0114
 2374SOL     OW18754   0.244   0.861  10.969  0.2271 -0.1293 -0.2841
 2374SOL    HW118755   0.309   0.805  11.012 -0.1864  1.2098  2.1063
 2374SOL    HW218756   0.164   0.826  11.008 -0.0184  1.5893  0.8063
 2375SOL     OW18757   4.154   2.981  10.029  0.1607 -0.4217 -0.5318
 2375SOL    HW118758   4.141   2.905  10.085 -1.2234  0.7771  0.7634
 2375SOL    HW218759   4.222   3.022  10.081  2.0778 -6.1607  1.4406
 2376SOL     OW18760   0.018   2.453   4.239 -0.5857  0.1584  0.5726
 2376SOL    HW118761   4.682   2.417   4.193  0.6273 -0.4732 -0.9265
 2376SOL    HW218762   0.092   2.398   4.212 -2.2280 -0.7730 -1.9927
 2377SOL     OW18763   2.403   4.644  11.291 -0.1475 -0.7161  0.2001
 2377SOL    HW118764   2.494   4.655  11.263 -0.9297  0.5349 -1.7975
 2377SOL    HW218765   2.406   4.695  11.372 -0.0768  0.2056 -0.3931
 2378SOL     OW18766   1.305   4.194   9.911  0.5287  0.2478 -0.0050
 2378SOL    HW118767   1.296   4.148   9.995 -0.3667  0.2632 -0.0886
 2378SOL    HW218768   1.321   4.285   9.936  0.0919  0.3751 -0.1934
 2379SOL     OW18769   0.981   2.017   8.051  0.0961 -0.3285 -0.0898
 2379SOL    HW118770   0.915   2.086   8.055 -0.4499 -0.9240  1.2797
 2379SOL    HW218771   0.956   1.953   8.118 -0.4778 -1.6130 -1.5329
 2380SOL     OW18772   0.286   1.528  14.506 -0.2629 -0.2986  0.0264
 2380SOL    HW118773   0.314   1.467  14.437 -0.5789  1.9674 -2.0888
 2380SOL    HW218774   0.202   1.543  14.464 -0.4723 -0.8673  0.2407
 2381SOL     OW18775   4.597   0.219  13.730 -0.0540 -0.2127  0.3619
 2381SOL    HW118776   4.661   0.289  13.746 -0.6223  0.6049 -0.9135
 2381SOL    HW218777   4.628   0.149  13.787  1.6273 -0.7616 -1.2349
 2382SOL     OW18778   3.739   0.437   5.655 -0.1098  0.1874  0.0636
 2382SOL    HW118779   3.786   0.491   5.719 -1.5016  1.2056  0.2201
 2382SOL    HW218780   3.751   0.484   5.573 -0.5607  0.0668 -0.0666
 2383SOL     OW18781   2.355   2.487   3.628 -0.0202  0.4600 -0.0463
 2383SOL    HW118782   2.443   2.517   3.609 -0.3154  2.6794  2.0329
 2383SOL    HW218783   2.370   2.397   3.659 -1.0604  0.2128 -0.2607
 2384SOL     OW18784   2.735   1.347  11.052 -0.3361 -0.4387 -0.4123
 2384SOL    HW118785   2.685   1.266  11.051 -1.4506  0.2498 -0.0254
 2384SOL    HW218786   2.758   1.357  11.144 -2.3870 -1.9187  0.2476
 2385SOL     OW18787   3.029   2.799   5.417  0.4383  0.0249  0.7123
 2385SOL    HW118788   3.005   2.891   5.409 -2.9580 -0.9222  0.1600
 2385SOL    HW218789   3.008   2.791   5.510 -2.9913 -2.4869 -0.2795
 2386SOL     OW18790   0.614   0.409  14.819 -0.3293 -0.7817  0.0706
 2386SOL    HW118791   0.528   0.378  14.847 -0.1218 -1.6062 -0.2184
 2386SOL    HW218792   0.651   0.328  14.786  1.3453  0.5900 -1.3853
 2387SOL     OW18793   3.906   4.413  16.278  0.5014 -0.0563 -0.3907
 2387SOL    HW118794   3.816   4.389  16.298 -0.4373  2.4886 -1.5005
 2387SOL    HW218795   3.884   4.486  16.220  1.4918 -1.1588 -2.1347
 2388SOL     OW18796   1.273   2.150   6.373 -0.5464 -0.0617  0.0507
 2388SOL    HW118797   1.315   2.203   6.440  0.4737  0.7714 -1.2266
 2388SOL    HW218798   1.323   2.171   6.294 -0.5318  0.5535  0.2234
 2389SOL     OW18799   2.218   3.650   6.204  0.0583 -0.5405  0.0968
 2389SOL    HW118800   2.292   3.706   6.182  0.5702 -0.7065  1.3784
 2389SOL    HW218801   2.146   3.712   6.214  0.7235  0.3168 -0.4073
 2390SOL     OW18802   3.769   0.570   5.420  0.1436 -0.1141  0.2484
 2390SOL    HW118803   3.787   0.571   5.326  0.7979 -0.9157  0.3664
 2390SOL    HW218804   3.678   0.598   5.413 -0.3548 -2.0946 -1.1336
 2391SOL     OW18805   2.180   1.810  15.156 -0.3407  0.0048  0.6026
 2391SOL    HW118806   2.114   1.755  15.115 -0.4320 -0.4015  1.3064
 2391SOL    HW218807   2.121   1.873  15.198 -0.3274  0.0395  0.5694
 2392SOL     OW18808   3.339   4.517   7.972  0.5437 -0.1338 -0.2224
 2392SOL    HW118809   3.288   4.472   8.039  0.9723 -1.0338 -0.4993
 2392SOL    HW218810   3.285   4.509   7.893 -0.7615 -1.2084  0.7744
 2393SOL     OW18811   3.459   0.959   5.359 -0.2394 -0.5523  0.5929
 2393SOL    HW118812   3.428   0.978   5.271 -1.4604 -0.5335  1.0336
 2393SOL    HW218813   3.376   0.924   5.390  1.5431 -3.7275  1.8815
 2394SOL     OW18814   1.901   0.938   9.420 -0.0496 -0.0474 -0.6062
 2394SOL    HW118815   1.904   0.926   9.515  0.8123 -0.4187 -0.6751
 2394SOL    HW218816   1.980   0.990   9.406  0.8771 -2.3702 -4.0324
 2395SOL     OW18817   2.973   0.981   3.161 -0.3364  0.4356  0.3000
 2395SOL    HW118818   2.942   1.056   3.111 -0.5372  1.3975  1.8655
 2395SOL    HW218819   2.895   0.957   3.211  0.5870 -0.0817  1.5220
 2396SOL     OW18820   2.717   3.083  17.125 -0.4391 -0.2106  0.4166
 2396SOL    HW118821   2.631   3.040  17.126 -0.7337  0.3830  0.7302
 2396SOL    HW218822   2.708   3.142  17.200  2.0036 -2.2565  2.3014
 2397SOL     OW18823   1.843   0.364   7.205 -0.1431  0.1416  0.1837
 2397SOL    HW118824   1.811   0.275   7.218 -1.2413  0.6376  0.8767
 2397SOL    HW218825   1.803   0.390   7.122  2.6956 -0.7927 -1.4722
 2398SOL     OW18826   1.709   0.439   4.011  0.1198  0.3975 -0.2533
 2398SOL    HW118827   1.621   0.412   3.983 -0.6005  1.9856  0.4213
 2398SOL    HW218828   1.726   0.365   4.069 -0.3370  1.3904  1.1731
 2399SOL     OW18829   1.152   0.599   7.630 -0.6770  0.1383  0.0778
 2399SOL    HW118830   1.207   0.634   7.560 -0.5749  1.5066  0.8315
 2399SOL    HW218831   1.105   0.528   7.587  0.2145  0.3964 -1.3061
 2400SOL     OW18832   3.166   3.994   7.489 -0.0230  0.2914  0.8388
 2400SOL    HW118833   3.083   4.027   7.523  0.9305  1.8119  1.6846
 2400SOL    HW218834   3.162   4.024   7.398  0.4910  0.3007  0.8196
 2401SOL     OW18835   2.606   2.026  17.653  0.9154  0.4418 -0.5923
 2401SOL    HW118836   2.595   2.119  17.632  0.8987  0.6543  0.3578
 2401SOL    HW218837   2.630   2.029  17.746 -1.7567  0.3748  0.0973
 2402SOL     OW18838   3.660   2.527  16.010  0.2678  0.1312  0.0887
 2402SOL    HW118839   3.755   2.537  16.006  0.3724 -0.4228  1.2811
 2402SOL    HW218840   3.654   2.502  16.102  0.5383 -2.1988 -0.5199
 2403SOL     OW18841   3.979   4.136  10.404 -0.6350  0.1559  0.3888
 2403SOL    HW118842   3.896   4.116  10.447 -1.2444  0.2884 -0.7325
 2403SOL    HW218843   3.951   4.129  10.313  3.9622 -2.1843 -0.8806
 2404SOL     OW18844   3.057   2.372   7.214  0.1655  0.2092  0.4260
 2404SOL    HW118845   2.962   2.378   7.206 -0.0701 -1.4141  1.9952
 2404SOL    HW218846   3.085   2.424   7.290  0.8961 -0.5894  0.7048
 2405SOL     OW18847   3.999   4.357   6.246  0.4408 -0.5064 -0.0742
 2405SOL    HW118848   4.054   4.310   6.309  1.8769  1.8695  0.4730
 2405SOL    HW218849   4.062   4.365   6.175 -0.9571  0.6545 -1.1866
 2406SOL     OW18850   3.696   2.787   2.940 -0.0323  0.6081  0.4856
 2406SOL    HW118851   3.730   2.853   2.879  0.1496 -0.4893 -0.6182
 2406SOL    HW218852   3.634   2.740   2.883  0.6931 -0.5663  0.6643
 2407SOL     OW18853   0.797   2.261   7.669 -0.1191  0.3756  0.2564
 2407SOL    HW118854   0.744   2.218   7.602  1.9107 -1.4477 -0.1553
 2407SOL    HW218855   0.865   2.196   7.682 -2.2395 -1.8741  0.1601
 2408SOL     OW18856   2.036   4.369   5.340  0.3425  0.3701  0.2838
 2408SOL    HW118857   2.008   4.371   5.432  0.1322  2.4541  0.1675
 2408SOL    HW218858   2.053   4.460   5.316 -0.6606  1.2361  2.8361
 2409SOL     OW18859   2.997   1.859   9.648  0.4497 -0.8156 -0.1588
 2409SOL    HW118860   2.991   1.765   9.660  0.3806 -0.6133  1.3443
 2409SOL    HW218861   2.924   1.882   9.590  1.2045 -0.1684 -0.8565
 2410SOL     OW18862   0.689   0.299  15.505  0.0980 -0.3466 -0.2503
 2410SOL    HW118863   0.703   0.210  15.471 -0.8389 -0.9147  0.8470
 2410SOL    HW218864   0.620   0.331  15.447  1.3135  1.4791 -0.6821
 2411SOL     OW18865   2.854   3.434   4.679  0.2567 -0.1944 -0.1176
 2411SOL    HW118866   2.773   3.456   4.725  0.6975  0.3212  0.4042
 2411SOL    HW218867   2.832   3.378   4.604 -0.2129 -0.0025 -0.1180
 2412SOL     OW18868   2.348   3.716   5.203  0.2399  0.0123 -0.1747
 2412SOL    HW118869   2.416   3.650   5.213  1.6052  1.4159 -0.3174
 2412SOL    HW218870   2.405   3.791   5.190 -0.4676  0.5078 -0.4360
 2413SOL     OW18871   1.758   2.137   1.830  0.1598  0.0286 -0.1818
 2413SOL    HW118872   1.675   2.105   1.795  0.2327 -0.3246 -0.0301
 2413SOL    HW218873   1.828   2.079   1.801 -0.9826 -1.3745 -0.1559
 2414SOL     OW18874   2.282   4.319   4.242  0.5614  0.0143 -0.7017
 2414SOL    HW118875   2.300   4.257   4.171  1.9253 -2.0082  1.4381
 2414SOL    HW218876   2.291   4.254   4.311 -1.4826  1.0185  0.5126
 2415SOL     OW18877   1.724   1.946   3.253  0.5563  0.4687  0.1978
 2415SOL    HW118878   1.773   1.866   3.273 -0.1913  0.1270  0.6691
 2415SOL    HW218879   1.646   1.919   3.204  0.3194  0.9359  0.3191
 2416SOL     OW18880   1.666   3.336  15.000 -0.0456 -0.0689 -0.3895
 2416SOL    HW118881   1.703   3.407  14.947  1.4618 -0.4563  0.1490
 2416SOL    HW218882   1.602   3.292  14.943  0.0613 -0.4970 -0.1709
 2417SOL     OW18883   3.949   4.269   9.012  0.3845 -0.2215 -0.0318
 2417SOL    HW118884   3.976   4.335   8.949  0.1140  1.4825  1.6149
 2417SOL    HW218885   4.036   4.244   9.045 -0.0372 -0.4303  0.9293
 2418SOL     OW18886   3.934   2.008   8.395  0.2657 -0.3497  0.0907
 2418SOL    HW118887   3.895   2.089   8.430  4.9683  0.9952  2.2108
 2418SOL    HW218888   4.023   2.021   8.427  0.8805  0.5020 -1.9445
 2419SOL     OW18889   4.416   1.574   3.906  0.1500  0.0128  0.0279
 2419SOL    HW118890   4.463   1.655   3.892 -0.1610  0.2244  0.2126
 2419SOL    HW218891   4.488   1.516   3.931  0.3057  1.1138  2.0684
 2420SOL     OW18892   3.153   0.779   4.791  0.8140  0.0389  0.7270
 2420SOL    HW118893   3.127   0.832   4.867 -1.5800 -0.4242  0.2387
 2420SOL    HW218894   3.194   0.843   4.733 -0.1649 -0.3946 -0.4599
 2421SOL     OW18895   1.488   3.302   7.245  0.2020  0.1402 -0.3752
 2421SOL    HW118896   1.579   3.308   7.217 -0.5867  1.2508 -2.7707
 2421SOL    HW218897   1.456   3.226   7.197 -0.1125  0.9748 -1.5061
 2422SOL     OW18898   3.237   0.881  16.277 -0.3829 -0.5519  0.0874
 2422SOL    HW118899   3.230   0.847  16.188  1.2503 -0.6291 -0.0091
 2422SOL    HW218900   3.322   0.926  16.268 -0.7048 -0.4009 -2.1093
 2423SOL     OW18901   4.099   3.299   0.911  0.2258 -0.3427 -1.5040
 2423SOL    HW118902   4.142   3.306   0.996  0.6293 -1.1290 -1.6389
 2423SOL    HW218903   4.172   3.314   0.851  0.5429  1.9862 -0.5068
 2424SOL     OW18904   3.465   2.081   3.075  0.1709  0.2755 -0.2602
 2424SOL    HW118905   3.456   2.147   3.143 -0.0444  0.1766 -0.1954
 2424SOL    HW218906   3.401   2.109   3.010  0.8598 -0.0557 -1.0915
 2425SOL     OW18907   1.747   3.755   5.790 -0.1236  0.4475 -0.1964
 2425SOL    HW118908   1.803   3.816   5.742  3.3871 -1.3852  1.5745
 2425SOL    HW218909   1.660   3.795   5.779 -0.5495  0.1129  1.8170
 2426SOL     OW18910   1.407   1.032   1.717 -0.6141 -0.1575  0.4528
 2426SOL    HW118911   1.464   0.968   1.759  0.0742  0.4465  0.4451
 2426SOL    HW218912   1.387   1.093   1.788  0.7509  0.3046  0.4433
 2427SOL     OW18913   2.249   2.425   5.406 -0.0377  0.4950 -0.2173
 2427SOL    HW118914   2.318   2.369   5.371  1.0694  1.0826  1.0112
 2427SOL    HW218915   2.180   2.362   5.426 -0.4205  1.5915  2.0073
 2428SOL     OW18916   4.450   0.711   7.899 -0.0463 -0.1874  0.0511
 2428SOL    HW118917   4.526   0.688   7.846  1.4413  2.4573  1.0340
 2428SOL    HW218918   4.496   0.725   7.982 -2.7076 -1.0753  1.6775
 2429SOL     OW18919   2.404   0.336   5.056  0.3622 -0.1346 -0.3911
 2429SOL    HW118920   2.440   0.414   5.013 -0.5576 -0.1531 -1.1823
 2429SOL    HW218921   2.373   0.288   4.980 -1.1927 -1.4157  1.0418
 2430SOL     OW18922   1.863   2.072   7.612 -0.2905  0.1668  0.0904
 2430SOL    HW118923   1.885   2.007   7.678  1.6158  0.0702 -0.6490
 2430SOL    HW218924   1.944   2.112   7.583  0.5240 -0.5365  1.4124
 2431SOL     OW18925   0.663   1.054   7.249 -0.1372 -0.6505  0.0286
 2431SOL    HW118926   0.759   1.057   7.245 -0.1985  1.8126  0.5142
 2431SOL    HW218927   0.632   1.114   7.317 -1.2912 -1.7801  0.5032
 2432SOL     OW18928   3.151   0.875   3.344 -0.2900  0.5402 -0.1142
 2432SOL    HW118929   3.080   0.819   3.376  0.5549  0.4536  1.6001
 2432SOL    HW218930   3.109   0.925   3.274 -1.0406  0.9919  0.6642
 2433SOL     OW18931   0.654   2.550   2.927  0.5461 -0.2131 -0.0456
 2433SOL    HW118932   0.596   2.507   2.865 -2.7000  3.0087  0.7479
 2433SOL    HW218933   0.658   2.635   2.882  1.2816 -0.3772 -0.2933
 2434SOL     OW18934   3.190   3.687   6.664 -0.0942 -0.0502 -0.1797
 2434SOL    HW118935   3.253   3.615   6.660 -0.8373 -0.7847  1.2843
 2434SOL    HW218936   3.195   3.704   6.570  0.5010  0.3564 -0.0759
 2435SOL     OW18937   3.103   3.055   7.579  0.1883 -0.0625  0.2354
 2435SOL    HW118938   3.059   3.088   7.500 -1.9913  1.3937  2.0550
 2435SOL    HW218939   3.043   3.084   7.647  0.0764  4.4490 -1.7362
 2436SOL     OW18940   0.121   4.130  10.673 -0.3279  0.0132 -0.0556
 2436SOL    HW118941   0.197   4.128  10.732 -1.0518  0.1267  0.8794
 2436SOL    HW218942   0.082   4.216  10.688  2.2528  1.0231  0.8690
 2437SOL     OW18943   3.328   0.479   2.049  0.2714 -0.4542  0.5960
 2437SOL    HW118944   3.250   0.447   2.003 -0.7947  4.4024 -0.9379
 2437SOL    HW218945   3.289   0.540   2.111  1.5166 -0.5901  1.5015
 2438SOL     OW18946   3.575   1.584  15.024  0.1295 -0.2169 -0.5916
 2438SOL    HW118947   3.610   1.632  14.949 -2.5413  0.7189 -1.2258
 2438SOL    HW218948   3.502   1.541  14.979  0.8399 -0.8288 -1.1612
 2439SOL     OW18949   0.725   0.069   3.518 -0.0960 -0.5117 -0.1245
 2439SOL    HW118950   0.679   4.730   3.549  0.0784 -1.9740 -3.5396
 2439SOL    HW218951   0.701   0.135   3.582 -0.6369 -1.1728  0.3531
 2440SOL     OW18952   3.543   1.172   8.923 -0.1789  0.1557  0.5626
 2440SOL    HW118953   3.475   1.234   8.948 -0.3065 -0.2116  1.1198
 2440SOL    HW218954   3.554   1.129   9.008 -0.0162  0.2762  0.6033
 2441SOL     OW18955   0.537   0.457  13.801  0.3854 -0.1125 -0.3437
 2441SOL    HW118956   0.583   0.373  13.803  1.5833  0.5000 -2.3677
 2441SOL    HW218957   0.478   0.448  13.876  0.6657 -0.1079 -0.1225
 2442SOL     OW18958   4.490   3.914   6.999 -0.1175 -0.0769  0.0294
 2442SOL    HW118959   4.477   3.871   6.915 -0.5665 -1.3928  0.7714
 2442SOL    HW218960   4.506   4.004   6.969 -1.7025  0.8174  1.8457
 2443SOL     OW18961   4.192   1.034   7.069 -0.2808 -0.1967  0.9318
 2443SOL    HW118962   4.103   1.072   7.075 -0.1740 -0.1118  2.0955
 2443SOL    HW218963   4.226   1.064   7.154 -1.3071  2.4057  0.4218
 2444SOL     OW18964   1.955   1.202   0.708 -0.2800 -0.3896 -0.3891
 2444SOL    HW118965   1.867   1.203   0.746  0.0477 -0.5079  0.3768
 2444SOL    HW218966   1.934   1.255   0.631  0.3280 -0.3339 -0.5128
 2445SOL     OW18967   0.919   2.928   9.052  0.0070  0.1736  0.1258
 2445SOL    HW118968   1.014   2.916   9.049  0.0508  0.1873  1.4358
 2445SOL    HW218969   0.903   2.846   9.097 -1.6754  0.7931  0.6826
 2446SOL     OW18970   0.204   4.738   1.442  0.6926  0.1410 -0.0578
 2446SOL    HW118971   0.166   0.084   1.422 -0.3123  0.2126  2.1906
 2446SOL    HW218972   0.126   4.682   1.447 -0.7183  2.2845  1.9757
 2447SOL     OW18973   0.509   2.516  11.026 -0.1844  0.6023 -0.4348
 2447SOL    HW118974   0.601   2.494  11.043 -0.5032  0.4683  1.0399
 2447SOL    HW218975   0.486   2.454  10.956 -0.2310  0.2150 -0.0715
 2448SOL     OW18976   4.591   3.734   1.383  0.1952 -0.1410  0.2628
 2448SOL    HW118977   4.600   3.645   1.417 -2.4835 -0.2443  0.7110
 2448SOL    HW218978   4.497   3.735   1.367  0.4481  0.2490 -1.1884
 2449SOL     OW18979   2.576   4.409   4.065 -0.6187 -0.0085 -0.4682
 2449SOL    HW118980   2.543   4.320   4.051 -0.7936 -0.0297  0.1048
 2449SOL    HW218981   2.503   4.451   4.110 -1.2448 -0.7625 -0.7852
 2450SOL     OW18982   1.466   3.031   2.976 -0.2395  0.0617 -0.0660
 2450SOL    HW118983   1.397   2.998   3.033  1.9785 -4.7493 -0.1796
 2450SOL    HW218984   1.466   2.962   2.909  1.4627 -0.3941  0.4195
 2451SOL     OW18985   2.627   4.681   3.161 -0.5071 -0.0923 -0.2856
 2451SOL    HW118986   2.640   0.022   3.111 -1.0889 -1.3501 -2.4488
 2451SOL    HW218987   2.720   4.662   3.173 -0.5322 -0.4886 -0.6967
 2452SOL     OW18988   0.459   2.315   4.770 -0.1096  0.4486 -0.0869
 2452SOL    HW118989   0.542   2.284   4.735  0.7296  2.2548  0.3033
 2452SOL    HW218990   0.426   2.358   4.691 -1.3914 -1.3865 -0.5493
 2453SOL     OW18991   1.088   2.958  12.929 -0.1574 -0.3238  0.0920
 2453SOL    HW118992   1.167   2.998  12.967 -0.1616  1.7659 -2.1286
 2453SOL    HW218993   1.077   2.886  12.992 -1.7181  2.2861  2.8183
 2454SOL     OW18994   2.415   2.515   8.275  0.1801 -0.2679 -0.6864
 2454SOL    HW118995   2.431   2.503   8.368 -0.9894  2.0440 -0.1694
 2454SOL    HW218996   2.494   2.478   8.235  1.1425  1.2443 -0.1790
 2455SOL     OW18997   0.423   3.731   2.216 -0.4177  0.1534 -0.2615
 2455SOL    HW118998   0.358   3.680   2.167 -1.8470  0.3318  1.4590
 2455SOL    HW218999   0.373   3.735   2.297  2.3598 -0.2185  1.4817
 2456SOL     OW19000   4.545   1.780  17.139  0.3284 -0.5103 -0.4087
 2456SOL    HW119001   4.481   1.769  17.209 -1.3007  1.1129 -1.6552
 2456SOL    HW219002   4.565   1.687  17.122 -2.4295 -1.5249  1.9757
 2457SOL     OW19003   0.591   1.585   4.526  0.1993  0.4380 -0.0176
 2457SOL    HW119004   0.577   1.504   4.477  0.9737  0.1178  0.2921
 2457SOL    HW219005   0.500   1.615   4.537  0.4265  2.1754 -2.8864
 2458SOL     OW19006   0.419   1.395   5.940  0.4476 -0.2028 -0.2756
 2458SOL    HW119007   0.434   1.391   5.845 -2.8684  0.8457 -0.8556
 2458SOL    HW219008   0.432   1.490   5.945  1.9997 -0.3882 -0.8992
 2459SOL     OW19009   2.241   4.122   6.166 -0.3282  0.0311 -0.2398
 2459SOL    HW119010   2.239   4.152   6.075 -1.6493  1.0641  0.1338
 2459SOL    HW219011   2.156   4.078   6.176 -1.4802  2.1128 -0.7831
 2460SOL     OW19012   1.265   2.605   2.934  0.2273 -0.4695 -0.0173
 2460SOL    HW119013   1.177   2.627   2.903  1.9097  1.2230 -3.6048
 2460SOL    HW219014   1.248   2.576   3.024 -0.9059  0.6897  0.1346
 2461SOL     OW19015   2.072   2.707  10.155 -0.6724  0.2478 -0.1895
 2461SOL    HW119016   2.118   2.737  10.233  1.6338  0.2953 -1.5683
 2461SOL    HW219017   1.989   2.755  10.160 -1.1433 -0.5441 -0.5091
 2462SOL     OW19018   0.200   0.102   1.728  0.3299  0.0935  0.2687
 2462SOL    HW119019   0.132   0.038   1.707  0.5633 -0.0941  0.0788
 2462SOL    HW219020   0.193   0.169   1.659  1.0305 -0.9855 -0.8353
 2463SOL     OW19021   0.013   3.457   1.639 -0.0886  0.8579  0.1791
 2463SOL    HW119022   0.079   3.520   1.609  0.0384  0.0854 -1.1938
 2463SOL    HW219023   0.023   3.389   1.572  4.0767  1.1654  0.4866
 2464SOL     OW19024   3.714   4.234   6.642 -0.3442  0.0330 -0.0248
 2464SOL    HW119025   3.734   4.141   6.647  2.1210  0.6929  2.0834
 2464SOL    HW219026   3.734   4.249   6.734  0.2715  0.8046 -0.2802
 2465SOL     OW19027   2.544   3.416  14.366  0.1014  0.1679 -0.4626
 2465SOL    HW119028   2.618   3.468  14.333  0.6375 -0.0388  0.4258
 2465SOL    HW219029   2.516   3.364  14.290  1.1295  0.5672 -1.1180
 2466SOL     OW19030   3.337   2.844  10.934  0.1429  0.4190 -0.4587
 2466SOL    HW119031   3.407   2.892  10.891 -0.1633  2.7103  1.5689
 2466SOL    HW219032   3.333   2.760  10.889 -1.2920 -0.6138  1.6141
 2467SOL     OW19033   2.737   1.799  14.629 -0.3660 -0.1657 -0.6853
 2467SOL    HW119034   2.791   1.759  14.561 -0.8133  0.2500 -1.2858
 2467SOL    HW219035   2.787   1.768  14.704  0.5739  2.4239 -0.2327
 2468SOL     OW19036   4.619   4.528   5.736  0.0835  0.3878  0.0180
 2468SOL    HW119037   4.623   4.523   5.832 -2.2028 -0.8325  0.0446
 2468SOL    HW219038   4.553   4.460   5.723  0.2062  0.3551 -0.4259
 2469SOL     OW19039   4.384   1.728   6.022 -0.3386 -0.4790 -0.1566
 2469SOL    HW119040   4.401   1.821   6.036  0.0833 -0.6780  0.6156
 2469SOL    HW219041   4.289   1.735   6.024 -0.3861 -0.9177 -0.7720
 2470SOL     OW19042   3.238   1.887   6.283  0.3738  0.2732  0.0378
 2470SOL    HW119043   3.239   1.810   6.340  3.3875  1.0956  1.0591
 2470SOL    HW219044   3.179   1.850   6.217 -0.5687  0.2846  0.8777
 2471SOL     OW19045   1.143   3.532   2.741  0.0273 -0.1882 -0.3945
 2471SOL    HW119046   1.119   3.451   2.695  2.3082 -0.6230 -0.8650
 2471SOL    HW219047   1.059   3.574   2.759  0.3662  0.6586 -0.7524
 2472SOL     OW19048   2.355   0.528   6.022 -0.5199  0.0965 -0.3733
 2472SOL    HW119049   2.351   0.435   6.044  1.5467 -0.0151 -0.5138
 2472SOL    HW219050   2.306   0.547   5.942 -0.6946 -1.1232 -0.5532
 2473SOL     OW19051   1.197   3.527   9.096 -0.7447 -0.3359  0.1817
 2473SOL    HW119052   1.175   3.591   9.028  1.9141  0.6405  0.2299
 2473SOL    HW219053   1.174   3.443   9.055 -0.3071 -0.9894  1.2860
 2474SOL     OW19054   1.677   1.069   1.161  0.1121 -0.5338  0.1889
 2474SOL    HW119055   1.716   1.138   1.214 -1.1357 -0.1338  0.5799
 2474SOL    HW219056   1.619   1.133   1.120 -1.2472 -1.4892  0.6257
 2475SOL     OW19057   3.342   2.052   1.973 -0.0165  0.5639 -0.2261
 2475SOL    HW119058   3.328   2.023   1.883  0.3636 -1.0852  0.2574
 2475SOL    HW219059   3.376   1.976   2.020 -0.9965  0.1478 -0.2032
 2476SOL     OW19060   3.283   0.633   9.547  0.2037 -0.5064  0.1093
 2476SOL    HW119061   3.339   0.587   9.484 -0.2237 -0.6014 -0.2061
 2476SOL    HW219062   3.284   0.573   9.622 -1.4047 -3.2344 -2.0241
 2477SOL     OW19063   4.220   2.027  15.855 -0.0213  0.2622  0.3527
 2477SOL    HW119064   4.137   1.984  15.834 -1.0862  1.4818  2.1364
 2477SOL    HW219065   4.274   1.966  15.804  0.3833  1.2436 -0.3976
 2478SOL     OW19066   0.933   0.890   6.162  0.0178 -0.6112 -0.1048
 2478SOL    HW119067   0.958   0.923   6.248  1.2385  0.6470 -0.9557
 2478SOL    HW219068   0.862   0.945   6.130  0.3383 -0.4255 -0.5057
 2479SOL     OW19069   4.591   3.816   3.187 -0.0666 -0.8091  0.6099
 2479SOL    HW119070   4.647   3.749   3.150 -0.0109 -0.9072  0.8742
 2479SOL    HW219071   4.655   3.885   3.206  0.1880 -1.1676  1.0499
 2480SOL     OW19072   1.424   1.605   2.328 -0.2934 -0.1957 -0.0744
 2480SOL    HW119073   1.508   1.562   2.342  0.3036  1.4830  1.4702
 2480SOL    HW219074   1.404   1.632   2.418 -2.3462  0.2405 -0.6626
 2481SOL     OW19075   1.057   1.098   8.655 -0.0965  0.3213  0.6566
 2481SOL    HW119076   0.975   1.119   8.699 -0.4913  1.4432 -0.5963
 2481SOL    HW219077   1.078   1.183   8.615 -0.0612  0.3232  0.6789
 2482SOL     OW19078   2.351   0.786   6.101 -0.3816  0.8998 -0.4353
 2482SOL    HW119079   2.275   0.809   6.048  1.3482 -0.0003 -3.3178
 2482SOL    HW219080   2.354   0.693   6.079 -0.9162  0.4868  1.2331
 2483SOL     OW19081   3.887   0.356  12.300 -0.0150  0.0858  0.0602
 2483SOL    HW119082   3.917   0.447  12.292  1.3344 -0.3143  0.5539
 2483SOL    HW219083   3.895   0.337  12.394 -0.1433 -1.5020 -0.2564
 2484SOL     OW19084   1.846   0.150   5.709  0.5413 -0.3201  0.6929
 2484SOL    HW119085   1.832   0.201   5.629 -0.8896 -0.3821  0.9041
 2484SOL    HW219086   1.763   0.167   5.753  0.6155  0.1221  0.6613
 2485SOL     OW19087   4.182   2.161  16.988 -0.7767 -0.0286 -0.4027
 2485SOL    HW119088   4.206   2.093  16.926  0.1094 -0.3323  0.2724
 2485SOL    HW219089   4.222   2.234  16.941  0.2133  0.2470  0.8670
 2486SOL     OW19090   1.476   0.873   2.637 -0.3684  0.1737 -0.0429
 2486SOL    HW119091   1.521   0.881   2.721 -1.4749  0.3245  0.5237
 2486SOL    HW219092   1.392   0.918   2.644 -0.3978  0.3006 -1.1036
 2487SOL     OW19093   0.327   0.667   2.075 -0.1344 -0.1707  0.2726
 2487SOL    HW119094   0.266   0.637   2.008  1.0530  0.2385 -0.9974
 2487SOL    HW219095   0.307   0.602   2.142  0.8663 -0.1487  0.6061
 2488SOL     OW19096   0.066   3.983   6.002  0.1887  0.2934 -0.4046
 2488SOL    HW119097   0.114   3.967   5.920 -1.1853  0.8162 -1.3165
 2488SOL    HW219098   0.081   3.901   6.049  0.1409  0.8315  0.5322
 2489SOL     OW19099   1.722   3.569   6.280 -0.2727 -0.2605  0.7159
 2489SOL    HW119100   1.660   3.496   6.281  0.2966 -0.7882 -0.9396
 2489SOL    HW219101   1.653   3.632   6.263  0.2596  0.2243  0.3528
 2490SOL     OW19102   2.136   4.040  15.785 -0.2843  0.3211 -0.3645
 2490SOL    HW119103   2.042   4.052  15.768 -0.2493 -0.3828 -1.0545
 2490SOL    HW219104   2.155   4.128  15.817  0.9944  1.0798 -3.2220
 2491SOL     OW19105   1.444   3.097   1.169  0.2334  0.4819 -0.5662
 2491SOL    HW119106   1.445   3.107   1.074  1.4826  2.5076 -0.3415
 2491SOL    HW219107   1.356   3.132   1.180  0.7201  1.1527  1.1483
 2492SOL     OW19108   2.609   3.936  11.197  0.2323  0.4191 -0.0699
 2492SOL    HW119109   2.655   3.856  11.223  0.2623  1.3921  2.8288
 2492SOL    HW219110   2.686   3.991  11.181  0.3938  0.4093  0.6717
 2493SOL     OW19111   2.753   1.134   6.669 -0.0245 -0.6501  0.1671
 2493SOL    HW119112   2.766   1.043   6.643  0.1589 -0.5137 -0.2076
 2493SOL    HW219113   2.830   1.142   6.726  0.2333  0.4549 -0.3581
 2494SOL     OW19114   0.291   4.099   4.499 -0.2081  0.6539  0.0309
 2494SOL    HW119115   0.216   4.126   4.553 -0.0972  1.3653 -0.1807
 2494SOL    HW219116   0.327   4.029   4.553  1.0615  1.3723  0.1122
 2495SOL     OW19117   3.494   1.183   0.223  0.1530 -0.1702 -0.1567
 2495SOL    HW119118   3.555   1.252   0.198 -1.6753  1.7302  0.6053
 2495SOL    HW219119   3.450   1.226   0.296  2.4449  0.4260  0.8977
 2496SOL     OW19120   0.784   3.638   6.973  0.5397 -0.1011 -0.2306
 2496SOL    HW119121   0.781   3.721   7.021 -0.3314 -0.7343  0.8273
 2496SOL    HW219122   0.736   3.577   7.030 -0.1952 -0.3912 -1.1732
 2497SOL     OW19123   2.766   2.851   2.287 -0.2284  0.8121  0.3201
 2497SOL    HW119124   2.713   2.889   2.217  0.6490  1.1983 -0.1330
 2497SOL    HW219125   2.816   2.929   2.308  0.8970  0.2325 -0.2246
 2498SOL     OW19126   0.131   0.595   4.894 -0.0330  1.1329 -0.0426
 2498SOL    HW119127   0.199   0.528   4.899 -1.0211  0.1120 -0.1213
 2498SOL    HW219128   0.056   0.541   4.919  0.8027  0.2116  0.4888
 2499SOL     OW19129   1.801   1.859   1.409  1.0330 -0.3896  0.2186
 2499SOL    HW119130   1.748   1.935   1.386  0.6535 -1.0946 -1.2627
 2499SOL    HW219131   1.814   1.821   1.322  1.6842 -0.2667  0.2617
 2500SOL     OW19132   1.014   4.152   0.689  0.8312 -0.1734  0.3661
 2500SOL    HW119133   0.972   4.129   0.606  0.6652 -1.9911  0.9400
 2500SOL    HW219134   0.996   4.071   0.738  0.7706 -0.1691  0.3499
 2501SOL     OW19135   3.187   2.226  11.846  0.5759  0.5261  0.6678
 2501SOL    HW119136   3.154   2.314  11.861  1.7266  0.8921  1.0229
 2501SOL    HW219137   3.107   2.173  11.841  1.4905 -0.7314 -0.6923
 2502SOL     OW19138   2.925   4.561   3.488  0.0534  0.6466  0.2640
 2502SOL    HW119139   2.910   4.651   3.459 -1.2334  0.2919 -0.1837
 2502SOL    HW219140   2.860   4.514   3.436  1.3416  0.8053 -1.4930
 2503SOL     OW19141   2.818   2.448   6.251  0.0845 -0.1310  0.0158
 2503SOL    HW119142   2.767   2.373   6.283  1.0706 -1.0451 -0.5823
 2503SOL    HW219143   2.749   2.513   6.269  0.6786  0.5772 -0.2714
 2504SOL     OW19144   3.179   0.911  10.936 -0.3067  0.4813  0.5006
 2504SOL    HW119145   3.209   0.821  10.924  0.6327  0.9991 -1.0929
 2504SOL    HW219146   3.261   0.959  10.945  0.6867 -1.2813  0.6191
 2505SOL     OW19147   1.664   1.098   7.484 -0.0487 -0.7797  0.3975
 2505SOL    HW119148   1.731   1.032   7.499  0.5864 -0.1973  0.1517
 2505SOL    HW219149   1.630   1.101   7.574 -1.1001  1.1442 -0.0457
 2506SOL     OW19150   0.464   4.435  14.710 -0.0019 -0.3653  0.6105
 2506SOL    HW119151   0.496   4.345  14.716 -2.4633 -1.5372 -3.1451
 2506SOL    HW219152   0.469   4.447  14.615 -1.3169  0.1081  0.5915
 2507SOL     OW19153   1.395   3.703   8.710 -0.9195  0.3004 -0.1052
 2507SOL    HW119154   1.444   3.742   8.783 -2.3433 -0.2705  1.1737
 2507SOL    HW219155   1.461   3.650   8.665 -0.1250  2.5327 -1.5815
 2508SOL     OW19156   2.899   0.420   5.531  0.4144 -0.0038 -0.2664
 2508SOL    HW119157   2.815   0.374   5.532  0.0118  0.6551 -3.6989
 2508SOL    HW219158   2.953   0.348   5.562  1.8624  0.1702 -2.3521
 2509SOL     OW19159   4.511   3.398  16.535  0.1224  0.4664  0.4291
 2509SOL    HW119160   4.424   3.357  16.534  0.0962  0.5233  0.3449
 2509SOL    HW219161   4.491   3.470  16.595 -1.0488  0.3470  0.1840
 2510SOL     OW19162   0.203   1.014   2.290 -0.2228  0.0168 -0.2853
 2510SOL    HW119163   0.288   0.989   2.256 -0.6287  0.5206 -1.6546
 2510SOL    HW219164   0.145   0.957   2.240 -0.4964  1.1938 -1.2897
 2511SOL     OW19165   2.160   1.419  15.056 -0.1118  0.6342 -0.2139
 2511SOL    HW119166   2.169   1.464  15.140 -1.4969 -0.3587  0.4739
 2511SOL    HW219167   2.163   1.328  15.087 -1.6354  0.6888  0.1129
 2512SOL     OW19168   2.742   0.062   9.209 -0.3356 -0.6585 -0.0990
 2512SOL    HW119169   2.679   0.108   9.153  3.3056 -0.7150 -4.1619
 2512SOL    HW219170   2.679   0.009   9.257  0.5724  0.1968  2.0830
 2513SOL     OW19171   3.302   2.630   5.529 -0.2501 -0.0206  0.1387
 2513SOL    HW119172   3.277   2.638   5.437 -1.3234  0.3838  0.4659
 2513SOL    HW219173   3.361   2.555   5.530 -2.9489 -2.1286  0.2034
 2514SOL     OW19174   3.190   2.633  16.797 -0.4034 -0.1684 -0.3115
 2514SOL    HW119175   3.203   2.612  16.704  0.2072 -0.7067 -0.1041
 2514SOL    HW219176   3.274   2.680  16.805 -0.6058  0.3550 -1.2671
 2515SOL     OW19177   2.430   4.114  12.249  0.1663  0.2562 -0.0857
 2515SOL    HW119178   2.389   4.129  12.164 -1.3356 -2.7456  0.1224
 2515SOL    HW219179   2.420   4.019  12.253 -0.1163  0.3052  0.3423
 2516SOL     OW19180   1.886   4.433  15.792 -0.4302  0.2299 -0.2127
 2516SOL    HW119181   1.825   4.363  15.768 -3.0431  1.6228  2.2263
 2516SOL    HW219182   1.827   4.507  15.804  1.8183  1.9319  0.3362
 2517SOL     OW19183   0.793   2.901   7.396 -0.1645 -0.9636 -0.6683
 2517SOL    HW119184   0.861   2.853   7.349  1.8493  1.7981 -0.5218
 2517SOL    HW219185   0.807   2.865   7.483  1.5169 -0.8002 -0.8797
 2518SOL     OW19186   0.639   4.196   9.246 -0.6479  0.0444  0.0271
 2518SOL    HW119187   0.579   4.248   9.193 -0.9399  0.5654  0.8847
 2518SOL    HW219188   0.587   4.127   9.287  1.7205 -0.1041  2.7822
 2519SOL     OW19189   0.294   1.467   4.843 -0.1048 -0.3482  0.2794
 2519SOL    HW119190   0.253   1.553   4.858  2.4975  1.0721 -0.6340
 2519SOL    HW219191   0.360   1.484   4.910 -1.5399 -1.1012  1.8930
 2520SOL     OW19192   1.043   1.609  15.394  0.3774 -0.0830 -0.0690
 2520SOL    HW119193   1.116   1.551  15.374 -0.9738 -1.4146 -1.2155
 2520SOL    HW219194   1.033   1.640  15.304 -0.6595 -2.9908 -0.9616
 2521SOL     OW19195   3.292   1.623   3.389 -0.2913  0.2071 -1.1094
 2521SOL    HW119196   3.323   1.535   3.409 -2.0632  0.0520  1.0586
 2521SOL    HW219197   3.198   1.614   3.369 -0.5404  1.0000 -0.2874
 2522SOL     OW19198   0.386   0.337   6.360 -0.8292 -0.5815 -0.5216
 2522SOL    HW119199   0.430   0.390   6.426  1.9843 -3.2591 -0.2401
 2522SOL    HW219200   0.439   0.259   6.373  0.5750  0.9358  2.6520
 2523SOL     OW19201   1.251   2.811  10.661 -0.9172 -0.1123  0.0755
 2523SOL    HW119202   1.318   2.768  10.714 -1.3523  0.2310  0.9029
 2523SOL    HW219203   1.200   2.854  10.730  0.0215  4.0908 -1.8541
 2524SOL     OW19204   0.220   1.728   4.846  0.0674 -0.3913 -0.0829
 2524SOL    HW119205   0.292   1.767   4.896 -0.2686 -0.4497  0.4518
 2524SOL    HW219206   0.177   1.809   4.818  2.4452  1.0074  0.3134
 2525SOL     OW19207   3.976   0.549   5.799  0.1187  0.2897  0.0207
 2525SOL    HW119208   4.055   0.549   5.853  0.6811 -1.7257 -0.7887
 2525SOL    HW219209   3.983   0.627   5.744 -1.3300 -1.3421 -2.4627
 2526SOL     OW19210   0.923   1.884   8.885  0.4549 -0.4370 -0.0900
 2526SOL    HW119211   0.927   1.937   8.805  2.0937  0.5506  0.6588
 2526SOL    HW219212   0.977   1.938   8.942 -1.3234  0.4949  0.7201
 2527SOL     OW19213   0.258   1.076   5.414 -0.1925  0.2270  0.3502
 2527SOL    HW119214   0.210   1.056   5.495 -0.3886 -0.3847  0.0816
 2527SOL    HW219215   0.274   1.170   5.421  0.0697  0.0457  2.3446
 2528SOL     OW19216   2.535   3.200   7.996 -0.6049  0.6195 -0.0017
 2528SOL    HW119217   2.485   3.271   8.037 -0.4574  0.4254  0.5101
 2528SOL    HW219218   2.619   3.246   7.995  0.1836 -0.8448 -0.0603
 2529SOL     OW19219   1.253   0.978   8.435 -0.3694  0.3352  0.0457
 2529SOL    HW119220   1.260   0.988   8.530 -0.7828  1.3896 -0.0352
 2529SOL    HW219221   1.179   1.034   8.411 -1.8890 -1.5190  0.4218
 2530SOL     OW19222   3.611   4.439  11.162 -0.5790 -0.0130  0.1732
 2530SOL    HW119223   3.613   4.363  11.104 -2.0883  1.1947 -1.4822
 2530SOL    HW219224   3.531   4.489  11.146 -0.7712 -0.4243 -0.1321
 2531SOL     OW19225   1.075   3.338   2.438 -0.1157 -0.0297  0.0647
 2531SOL    HW119226   1.002   3.398   2.425 -1.6415 -1.7533  0.6632
 2531SOL    HW219227   1.133   3.367   2.368  0.0485 -0.6108 -0.0442
 2532SOL     OW19228   4.639   3.318   7.508 -0.2607 -0.1874 -0.0028
 2532SOL    HW119229   4.690   3.319   7.589 -1.0362  1.2260  0.4695
 2532SOL    HW219230   4.679   3.396   7.470  0.4028 -0.1012  0.8644
 2533SOL     OW19231   0.777   1.435   8.913 -0.0237  0.1939  0.0605
 2533SOL    HW119232   0.778   1.494   8.988 -0.3711  0.5723 -0.2356
 2533SOL    HW219233   0.808   1.501   8.851 -1.3605 -2.1361 -3.0910
 2534SOL     OW19234   3.755   4.607   3.695 -0.0504 -0.2327 -0.0649
 2534SOL    HW119235   3.851   4.610   3.697  0.0593 -2.7675 -2.2359
 2534SOL    HW219236   3.726   4.539   3.755  2.2173 -1.2546 -0.1462
 2535SOL     OW19237   1.706   2.879  16.709  0.5671  0.5530  0.2352
 2535SOL    HW119238   1.698   2.790  16.742  2.2381  0.1516 -0.4584
 2535SOL    HW219239   1.619   2.905  16.681 -0.0398  0.2214  1.8022
 2536SOL     OW19240   1.264   2.169   7.792  0.1835 -0.3362  0.0242
 2536SOL    HW119241   1.170   2.148   7.796 -0.1098  0.5520 -2.2229
 2536SOL    HW219242   1.255   2.248   7.739  0.2032 -1.1485 -1.1865
 2537SOL     OW19243   2.581   0.690  17.530 -0.0890  0.2288  0.0169
 2537SOL    HW119244   2.485   0.685  17.522 -0.0366  1.6629 -1.3941
 2537SOL    HW219245   2.604   0.606  17.571 -3.1083 -0.5887  0.0663
 2538SOL     OW19246   3.249   3.306  16.294 -0.1663  0.6669 -0.2368
 2538SOL    HW119247   3.315   3.324  16.360 -1.5019  0.8692  1.0451
 2538SOL    HW219248   3.193   3.383  16.308 -2.1381 -0.6288 -1.0128
 2539SOL     OW19249   1.457   4.530  14.074  0.0095 -0.1019 -0.5471
 2539SOL    HW119250   1.510   4.546  14.152  0.6006 -0.9190 -0.7812
 2539SOL    HW219251   1.517   4.562  14.006  1.9118  0.8361  1.5840
 2540SOL     OW19252   0.803   1.926   9.800 -0.4866  0.3445 -0.2724
 2540SOL    HW119253   0.780   2.005   9.848 -2.0498  0.2796 -0.9058
 2540SOL    HW219254   0.895   1.923   9.826  0.3294 -0.7804 -3.3068
 2541SOL     OW19255   1.862   2.572  11.633 -0.3170 -0.0770 -0.6454
 2541SOL    HW119256   1.925   2.500  11.642 -0.8070 -0.4771 -0.3767
 2541SOL    HW219257   1.889   2.612  11.716 -3.2986  1.3009 -0.3516
 2542SOL     OW19258   0.888   4.375   8.853 -0.0800 -0.1560  0.2345
 2542SOL    HW119259   0.965   4.337   8.895 -0.4712 -0.9598  0.2094
 2542SOL    HW219260   0.927   4.433   8.787 -1.6149  0.3084 -0.2530
 2543SOL     OW19261   4.633   0.354   3.631 -0.1325  0.5548 -1.0202
 2543SOL    HW119262   4.567   0.309   3.577  0.0345 -0.2754 -0.5286
 2543SOL    HW219263   4.695   0.282   3.641 -0.0376  0.7505 -0.2000
 2544SOL     OW19264   3.392   2.902   3.972  0.1806  0.8008  0.0565
 2544SOL    HW119265   3.302   2.935   3.967 -0.4921 -1.0112  0.1719
 2544SOL    HW219266   3.418   2.918   4.062  1.7136 -0.2197 -0.2076
 2545SOL     OW19267   4.703   2.795  17.495  0.3685 -0.2271  0.1440
 2545SOL    HW119268   0.025   2.740  17.446  2.5942  3.5804 -1.3859
 2545SOL    HW219269   4.659   2.729  17.548  1.2958  0.2404  1.4929
 2546SOL     OW19270   3.651   2.471  11.358 -0.0434 -0.9388  0.0586
 2546SOL    HW119271   3.558   2.473  11.382 -0.0290  0.3086  0.0209
 2546SOL    HW219272   3.662   2.561  11.327  1.5419 -0.8753  0.8099
 2547SOL     OW19273   4.696   1.113   4.959  0.7361 -0.0989 -0.3097
 2547SOL    HW119274   4.679   1.119   4.865  0.4915 -0.3255 -0.2808
 2547SOL    HW219275   4.709   1.018   4.965 -2.2193 -0.6079 -1.7607
 2548SOL     OW19276   3.130   4.300   1.669  0.0167 -0.0282  0.3396
 2548SOL    HW119277   3.215   4.257   1.676 -0.7017 -1.5108 -0.0530
 2548SOL    HW219278   3.116   4.309   1.574 -2.5136 -0.1406  0.7057
 2549SOL     OW19279   0.758   4.319   6.857  0.9224 -0.3114 -0.9893
 2549SOL    HW119280   0.677   4.315   6.805 -1.0121  2.4653  1.8346
 2549SOL    HW219281   0.734   4.401   6.900  0.5143 -1.3910  0.8448
 2550SOL     OW19282   3.813   1.548   2.986  0.1480 -0.4804  0.2494
 2550SOL    HW119283   3.873   1.486   2.945 -0.0728 -1.0689  0.8071
 2550SOL    HW219284   3.734   1.520   2.940  1.0160 -1.2219 -0.7760
 2551SOL     OW19285   3.141   2.471  17.252 -0.3534 -0.6325  0.2046
 2551SOL    HW119286   3.215   2.415  17.278 -1.3680 -2.2751 -0.4713
 2551SOL    HW219287   3.168   2.488  17.162 -0.0634  1.3429  0.6732
 2552SOL     OW19288   2.438   2.986  17.239 -0.0321 -0.2199  0.2562
 2552SOL    HW119289   2.359   2.961  17.288  0.4090 -0.9335  0.6116
 2552SOL    HW219290   2.440   2.916  17.174 -0.3577  1.5477 -1.6349
 2553SOL     OW19291   3.371   1.399   8.307 -0.0594 -0.2622 -0.0133
 2553SOL    HW119292   3.381   1.376   8.215  0.5711  0.5745 -0.1586
 2553SOL    HW219293   3.370   1.308   8.339  0.1026 -0.2653 -0.0123
 2554SOL     OW19294   3.815   1.398   2.065 -0.4638  0.1853  0.2959
 2554SOL    HW119295   3.819   1.477   2.011  1.6349  0.4356  0.7874
 2554SOL    HW219296   3.784   1.332   2.004  1.2899 -1.0764  0.7845
 2555SOL     OW19297   0.101   3.420   7.683 -0.6776 -0.0197  0.2707
 2555SOL    HW119298   0.181   3.403   7.633 -1.7677 -0.2551 -1.3885
 2555SOL    HW219299   0.063   3.502   7.653 -1.0455 -0.0057  0.7745
 2556SOL     OW19300   3.805   4.367   4.416  0.1749  0.3485 -0.0656
 2556SOL    HW119301   3.714   4.344   4.397  0.4128 -1.3643  0.8491
 2556SOL    HW219302   3.799   4.367   4.512 -2.2456  1.1321 -0.2082
 2557SOL     OW19303   3.050   0.505   4.770  0.8835  0.0977 -0.2993
 2557SOL    HW119304   3.080   0.594   4.752 -0.8597  0.5883 -0.7605
 2557SOL    HW219305   3.033   0.511   4.864 -2.1230  1.4190 -0.9310
 2558SOL     OW19306   2.361   4.439   9.754  0.1091  0.6408  0.1154
 2558SOL    HW119307   2.381   4.473   9.842  0.0175 -0.5218  0.5744
 2558SOL    HW219308   2.272   4.410   9.772  0.7845 -0.4592  1.7428
 2559SOL     OW19309   4.135   4.032  17.304  0.0095  0.2987  0.4885
 2559SOL    HW119310   4.085   3.960  17.264  1.7224  0.5091 -2.0536
 2559SOL    HW219311   4.159   3.989  17.386 -0.5576 -1.2179 -0.1278
 2560SOL     OW19312   0.793   0.679   8.739 -0.4675  0.2748  0.6583
 2560SOL    HW119313   0.882   0.651   8.761  0.3083  0.3480 -2.4947
 2560SOL    HW219314   0.816   0.701   8.649 -0.8973 -0.3352  0.3943
 2561SOL     OW19315   3.597   3.467   7.018  0.5940 -0.2599 -0.1371
 2561SOL    HW119316   3.638   3.457   7.104 -0.1885  0.6434  0.3484
 2561SOL    HW219317   3.541   3.390   7.006 -0.5235  0.6664 -0.8294
 2562SOL     OW19318   2.880   2.569   1.665 -0.4356 -0.5754 -0.0088
 2562SOL    HW119319   2.841   2.546   1.749  0.6665  0.0997  0.7002
 2562SOL    HW219320   2.964   2.523   1.672  0.8283  2.1364  2.4711
 2563SOL     OW19321   2.472   1.664   4.584 -0.3262 -0.4313  0.0503
 2563SOL    HW119322   2.420   1.740   4.559 -1.8313 -1.5868 -0.2528
 2563SOL    HW219323   2.413   1.604   4.540 -0.5388 -0.3666  0.2457
 2564SOL     OW19324   1.692   4.186   9.982 -0.2823 -0.0789 -0.4537
 2564SOL    HW119325   1.660   4.096   9.990  0.3444 -0.1557  1.1555
 2564SOL    HW219326   1.720   4.192  10.074  0.6488 -0.3697 -0.7134
 2565SOL     OW19327   1.615   1.258   9.709 -0.6920  0.6930  0.6348
 2565SOL    HW119328   1.576   1.265   9.797  0.8277 -3.1578  1.6035
 2565SOL    HW219329   1.595   1.166   9.692 -0.1401  0.6799  0.0890
 2566SOL     OW19330   0.556   0.580   6.208  0.2442  0.9892 -0.0684
 2566SOL    HW119331   0.567   0.499   6.160 -0.7104  1.2717 -0.7715
 2566SOL    HW219332   0.631   0.565   6.264 -0.1964 -1.9952 -0.2704
 2567SOL     OW19333   1.555   0.560   8.661  0.5275 -0.0609  0.1050
 2567SOL    HW119334   1.545   0.478   8.611 -2.3231  0.4688 -0.2200
 2567SOL    HW219335   1.633   0.553   8.716  0.6669  0.0799 -0.0753
 2568SOL     OW19336   1.426   2.571   8.916  0.3463  0.0237  0.2239
 2568SOL    HW119337   1.468   2.485   8.916  0.5886  0.1435  0.8623
 2568SOL    HW219338   1.357   2.557   8.981  0.2865  0.9567  0.3534
 2569SOL     OW19339   1.491   4.067   7.728 -0.0837  1.1499  0.4460
 2569SOL    HW119340   1.475   3.989   7.782  0.4815 -0.1489 -1.2446
 2569SOL    HW219341   1.507   4.135   7.793 -0.2333  3.2245 -1.7032
 2570SOL     OW19342   2.900   3.532   0.386 -0.3421  0.4405  0.3966
 2570SOL    HW119343   2.972   3.540   0.324 -1.7919 -0.9529 -1.4778
 2570SOL    HW219344   2.950   3.509   0.464 -0.5883  1.8133  0.9618
 2571SOL     OW19345   3.529   4.068   3.477  0.2381  0.1484  0.2394
 2571SOL    HW119346   3.518   4.162   3.461 -0.4302 -0.3420 -2.1839
 2571SOL    HW219347   3.507   4.063   3.570 -2.0535 -0.5091 -0.3574
 2572SOL     OW19348   3.986   2.236   8.839  0.1041 -0.2557 -0.5810
 2572SOL    HW119349   3.933   2.185   8.900  1.7988 -1.3094  0.0296
 2572SOL    HW219350   4.008   2.161   8.784  1.4286  0.1328 -0.5813
 2573SOL     OW19351   1.617   1.813  12.142  0.1848 -0.0046 -0.0693
 2573SOL    HW119352   1.586   1.786  12.228 -0.4315 -1.9190 -0.8944
 2573SOL    HW219353   1.699   1.764  12.141  1.2293  1.7429 -1.8097
 2574SOL     OW19354   2.259   2.415   8.740  0.1470 -0.2738  0.2885
 2574SOL    HW119355   2.249   2.370   8.824  0.7012 -0.1389  0.4321
 2574SOL    HW219356   2.215   2.498   8.758  0.8742  0.5525 -1.7546
 2575SOL     OW19357   4.551   1.506  17.135  0.5843  0.1611 -0.3848
 2575SOL    HW119358   4.512   1.422  17.161  1.0769 -0.0721 -0.4065
 2575SOL    HW219359   4.626   1.506  17.194  0.4855  0.9994 -0.2670
 2576SOL     OW19360   3.191   2.239  17.435 -0.5412  0.0871  0.1505
 2576SOL    HW119361   3.162   2.174  17.370  3.0916  1.0872 -2.4682
 2576SOL    HW219362   3.108   2.283  17.453 -0.3162  0.5162  0.1461
 2577SOL     OW19363   1.803   3.317   1.020 -0.0109 -0.5980 -0.8212
 2577SOL    HW119364   1.855   3.306   0.940  1.3023  1.1079 -0.2123
 2577SOL    HW219365   1.788   3.412   1.013 -0.2035 -0.3599  3.1216
 2578SOL     OW19366   4.286   4.334   8.657 -0.2316  0.5361 -0.1638
 2578SOL    HW119367   4.369   4.361   8.695  0.5477  0.2510 -1.6742
 2578SOL    HW219368   4.296   4.368   8.568  1.0446  0.1430 -0.1619
 2579SOL     OW19369   0.528   3.815   4.848 -0.0433 -0.1816  0.2318
 2579SOL    HW119370   0.475   3.878   4.896 -1.9692 -1.2027 -0.5246
 2579SOL    HW219371   0.506   3.737   4.899 -3.1941 -0.2237 -1.2109
 2580SOL     OW19372   4.217   2.660   2.348 -0.0257 -0.0652  0.3106
 2580SOL    HW119373   4.279   2.716   2.303  0.0907 -1.7911 -1.6763
 2580SOL    HW219374   4.142   2.657   2.289  0.0340  0.3115  0.2194
 2581SOL     OW19375   3.847   4.735   4.388  0.3930  1.1753 -0.7621
 2581SOL    HW119376   3.918   4.684   4.427 -0.2775 -0.6419 -1.8880
 2581SOL    HW219377   3.835   4.691   4.304  0.0674 -0.7164  0.2577
 2582SOL     OW19378   1.147   2.340   6.712 -0.0525 -0.0224 -0.1714
 2582SOL    HW119379   1.098   2.422   6.706 -1.1465 -0.5135  2.1056
 2582SOL    HW219380   1.212   2.354   6.643 -0.2306  1.4235 -0.0433
 2583SOL     OW19381   0.186   1.721   7.170 -0.2026  0.2505 -0.0903
 2583SOL    HW119382   0.094   1.718   7.197 -0.3946 -3.7433 -1.1768
 2583SOL    HW219383   0.225   1.685   7.249  2.9980  1.4168 -1.1246
 2584SOL     OW19384   4.221   4.292   7.043  0.3360  0.0125 -0.1131
 2584SOL    HW119385   4.142   4.241   7.023  1.0968 -1.0035 -0.5529
 2584SOL    HW219386   4.220   4.277   7.137  2.4035 -1.6318 -0.3436
 2585SOL     OW19387   0.877   0.232   2.163  0.0485 -0.2195  0.3933
 2585SOL    HW119388   0.891   0.141   2.135 -1.1593  0.3351 -1.9447
 2585SOL    HW219389   0.870   0.285   2.084  2.3386  1.7472  1.4866
 2586SOL     OW19390   3.494   0.408  15.481  0.3461 -0.2221  0.1011
 2586SOL    HW119391   3.401   0.422  15.499  0.7962  1.0079  1.4687
 2586SOL    HW219392   3.486   0.393  15.387  0.7120 -0.5857  0.1302
 2587SOL     OW19393   1.024   4.700   3.612  0.4557 -0.3372 -0.5527
 2587SOL    HW119394   0.960   0.025   3.644  2.2667  0.7349  0.8667
 2587SOL    HW219395   0.967   4.658   3.548  0.4312 -0.3837 -0.5001
 2588SOL     OW19396   0.377   1.524   4.320  0.5408 -0.5646  0.0200
 2588SOL    HW119397   0.343   1.505   4.408 -0.9886  3.0706  0.2182
 2588SOL    HW219398   0.416   1.441   4.291 -0.2885 -0.8411 -0.3020
 2589SOL     OW19399   1.721   1.321   8.528 -0.3707  0.4749 -0.1254
 2589SOL    HW119400   1.671   1.352   8.452  0.9109 -0.7070 -1.4471
 2589SOL    HW219401   1.703   1.228   8.533  2.6950 -0.3100 -3.0064
 2590SOL     OW19402   1.093   4.601  10.129 -0.6487 -0.1093  0.1140
 2590SOL    HW119403   1.108   4.681  10.078 -0.0322 -1.4585 -1.8051
 2590SOL    HW219404   1.168   4.594  10.187 -0.7862  0.4074  0.3543
 2591SOL     OW19405   2.947   0.895   5.033 -0.0767 -0.4810 -0.1871
 2591SOL    HW119406   2.932   0.878   5.126  0.5947  0.4778  0.0979
 2591SOL    HW219407   2.880   0.834   5.003  0.1710 -0.5448 -0.6081
 2592SOL     OW19408   0.594   4.153   8.121 -0.4520  0.2436 -0.0214
 2592SOL    HW119409   0.577   4.159   8.027 -0.9026  1.1916  0.1168
 2592SOL    HW219410   0.687   4.133   8.111 -0.1132  2.1708 -0.7224
 2593SOL     OW19411   1.216   2.023   0.644 -0.5186  0.0108 -0.1015
 2593SOL    HW119412   1.142   1.974   0.607  0.0378 -2.2753  1.8123
 2593SOL    HW219413   1.280   1.995   0.579 -0.3299 -3.3684  1.5271
 2594SOL     OW19414   1.978   0.776   1.670 -0.6606 -0.1482  0.0849
 2594SOL    HW119415   2.049   0.746   1.614 -1.1116  1.6343 -1.4625
 2594SOL    HW219416   2.023   0.764   1.753  0.2914  1.2273 -0.2339
 2595SOL     OW19417   1.548   2.902   3.849 -0.5850 -0.2837 -0.0782
 2595SOL    HW119418   1.553   2.813   3.885  2.4082  0.4375  1.2714
 2595SOL    HW219419   1.465   2.906   3.801 -0.9106 -3.3970  0.1986
 2596SOL     OW19420   1.161   3.173   7.686 -0.4295  0.2416 -0.2643
 2596SOL    HW119421   1.181   3.086   7.650  0.7980  0.3455  0.1777
 2596SOL    HW219422   1.185   3.235   7.617 -0.4889  1.4779  0.8340
 2597SOL     OW19423   1.546   2.698   7.007 -0.1767 -0.3792  0.0196
 2597SOL    HW119424   1.547   2.621   6.951 -0.4092  0.3945 -1.0407
 2597SOL    HW219425   1.452   2.716   7.013 -0.0690  1.4175 -4.0175
 2598SOL     OW19426   0.842   2.282   8.938 -0.2215  0.1249  0.0894
 2598SOL    HW119427   0.864   2.371   8.913  0.4014  0.3531  1.4615
 2598SOL    HW219428   0.758   2.274   8.892  0.5740 -1.4663 -1.0674
 2599SOL     OW19429   3.156   2.456   1.669 -0.2002  0.4973 -0.4736
 2599SOL    HW119430   3.213   2.389   1.705  1.4299  3.2425  2.1046
 2599SOL    HW219431   3.221   2.523   1.649 -0.2900  1.2078  1.5983
 2600SOL     OW19432   1.523   2.626   3.931  0.0638  0.2065 -0.1998
 2600SOL    HW119433   1.616   2.606   3.920 -0.1514  0.0886 -1.8231
 2600SOL    HW219434   1.493   2.596   4.017 -0.0384  1.0408  0.0638
 2601SOL     OW19435   2.536   2.170   6.106  0.1634 -0.7168 -0.5834
 2601SOL    HW119436   2.519   2.263   6.093  1.5554 -0.0903  2.1639
 2601SOL    HW219437   2.600   2.171   6.034 -0.0360 -1.2896 -0.7668
 2602SOL     OW19438   1.077   0.856   5.343 -0.5281  0.0761 -0.1148
 2602SOL    HW119439   0.992   0.811   5.341 -1.0288  1.0646 -0.9097
 2602SOL    HW219440   1.105   0.858   5.252 -0.6691 -2.4852 -0.2087
 2603SOL     OW19441   0.289   2.301   8.679  0.2646  0.0919  0.4968
 2603SOL    HW119442   0.236   2.380   8.689 -0.0905  0.2224 -2.4688
 2603SOL    HW219443   0.261   2.259   8.760 -0.9376 -1.5322 -0.7743
 2604SOL     OW19444   3.360   4.692   3.269  0.1201  0.0064  0.1479
 2604SOL    HW119445   3.419   4.678   3.195 -0.5165  1.5357 -0.6600
 2604SOL    HW219446   3.280   4.648   3.241  1.0272 -1.2796 -0.3533
 2605SOL     OW19447   1.559   2.176   9.334  0.3138  0.2743 -0.0618
 2605SOL    HW119448   1.607   2.094   9.343 -1.4933 -0.8179 -0.3976
 2605SOL    HW219449   1.637   2.232   9.337  0.0580  0.7240 -2.1066
 2606SOL     OW19450   1.469   1.735   3.567 -0.0409 -0.0072  0.1370
 2606SOL    HW119451   1.522   1.670   3.613  1.8652  2.4082  1.3424
 2606SOL    HW219452   1.535   1.803   3.554 -0.4251  0.3248 -0.0912
 2607SOL     OW19453   4.553   1.841   6.610 -0.3993 -0.4200  0.1633
 2607SOL    HW119454   4.530   1.864   6.700 -2.7290 -1.9227 -0.0566
 2607SOL    HW219455   4.646   1.821   6.611 -0.6031 -1.3172  0.5616
 2608SOL     OW19456   3.572   3.000   3.791  0.0674 -0.1586 -0.1979
 2608SOL    HW119457   3.516   2.954   3.853 -0.0037 -1.9678 -1.6035
 2608SOL    HW219458   3.531   2.969   3.710 -2.1405  1.6860  0.2031
 2609SOL     OW19459   4.343   1.885   2.479 -0.0936 -0.1321  0.4426
 2609SOL    HW119460   4.297   1.949   2.534  1.4202  1.0085  0.3894
 2609SOL    HW219461   4.433   1.908   2.500  0.2100 -0.1953 -0.7749
 2610SOL     OW19462   3.073   2.524   5.661  0.0679 -0.3808  0.2044
 2610SOL    HW119463   3.145   2.555   5.605 -0.2482 -0.0577 -0.0174
 2610SOL    HW219464   3.080   2.428   5.655 -1.2944 -0.4697  0.1643
 2611SOL     OW19465   2.851   4.273   2.573  0.4179 -0.0184  0.0972
 2611SOL    HW119466   2.792   4.299   2.644  2.9353 -1.5045  2.7308
 2611SOL    HW219467   2.801   4.301   2.496 -1.1276  0.0589  1.1109
 2612SOL     OW19468   1.107   0.062   3.016 -0.0963  0.0920 -0.4121
 2612SOL    HW119469   1.161   0.005   2.961  0.6695 -0.9672  1.3988
 2612SOL    HW219470   1.125   0.145   2.972 -0.1570  1.4257  2.0732
 2613SOL     OW19471   2.154   1.642  17.334  0.1568 -0.7049  0.0119
 2613SOL    HW119472   2.162   1.598  17.249  2.1905  0.5611 -0.4261
 2613SOL    HW219473   2.110   1.724  17.311 -1.7827 -1.2211  1.8819
 2614SOL     OW19474   0.557   1.720  16.478  0.1628 -0.9899  0.5152
 2614SOL    HW119475   0.487   1.704  16.415 -0.6077  2.7068  0.4460
 2614SOL    HW219476   0.584   1.804  16.443 -0.9276 -0.1397  1.7024
 2615SOL     OW19477   4.690   0.268   2.436  0.2437  0.1027 -0.1127
 2615SOL    HW119478   4.631   0.335   2.470  1.1387 -0.5259  2.6379
 2615SOL    HW219479   4.732   0.242   2.517 -1.8350  0.5435  1.1110
 2616SOL     OW19480   1.786   2.851   5.835  0.4007  0.0812  0.3351
 2616SOL    HW119481   1.846   2.923   5.817 -0.1419  0.7303  1.0611
 2616SOL    HW219482   1.846   2.782   5.807  0.6179 -0.3831  1.9855
 2617SOL     OW19483   0.937   4.376  10.658  0.3745 -0.3745 -0.6223
 2617SOL    HW119484   0.979   4.462  10.659  1.6807 -1.0144 -0.3621
 2617SOL    HW219485   0.924   4.353  10.750 -0.2641  3.2019  0.1753
 2618SOL     OW19486   0.825   3.959   1.931 -0.0339  0.4629  0.1562
 2618SOL    HW119487   0.785   3.931   2.013 -1.4428  1.3213 -0.2296
 2618SOL    HW219488   0.816   4.054   1.921  1.6290  0.3002 -3.0153
 2619SOL     OW19489   3.622   2.682  12.742  0.0672 -0.6484  0.0053
 2619SOL    HW119490   3.686   2.619  12.709 -0.1678  0.1113 -1.8838
 2619SOL    HW219491   3.562   2.690  12.668 -0.5055  1.5315  0.6928
 2620SOL     OW19492   2.380   3.798  10.541  0.1556 -0.4742 -0.0806
 2620SOL    HW119493   2.305   3.783  10.483  0.1695  1.5425 -0.6164
 2620SOL    HW219494   2.393   3.706  10.564 -0.7235 -1.0364 -1.7714
 2621SOL     OW19495   3.286   4.049   3.384  0.3098 -0.3748  0.2239
 2621SOL    HW119496   3.269   4.026   3.292  2.8308  2.3258 -0.9104
 2621SOL    HW219497   3.376   4.080   3.395 -0.7673  2.9095 -0.0973
 2622SOL     OW19498   0.124   0.842   8.326 -0.7720 -0.0674  0.0578
 2622SOL    HW119499   0.103   0.831   8.419  1.2845  0.7479  0.6033
 2622SOL    HW219500   0.067   0.911   8.294  0.7789  1.9598  1.6715
 2623SOL     OW19501   4.704   0.089  12.312 -0.2537  0.3227 -0.2830
 2623SOL    HW119502   4.680   0.171  12.269 -0.7645  0.0264 -0.5546
 2623SOL    HW219503   4.641   0.078  12.383  0.1071 -1.7430 -0.2710
 2624SOL     OW19504   2.579   1.080   7.475  0.3233  0.7027  0.2999
 2624SOL    HW119505   2.590   1.131   7.555 -1.0609 -0.5011  1.2570
 2624SOL    HW219506   2.664   1.036   7.481 -0.0216 -0.0002  0.0359
 2625SOL     OW19507   3.751   4.462   6.253 -0.8674  0.5922 -0.0655
 2625SOL    HW119508   3.714   4.454   6.341  1.1647 -1.6773  0.5563
 2625SOL    HW219509   3.821   4.398   6.244 -2.9519 -1.4366 -1.9144
 2626SOL     OW19510   3.639   0.584   8.208  0.0045  0.0808  0.1977
 2626SOL    HW119511   3.559   0.593   8.156  0.8459 -1.8772 -1.3888
 2626SOL    HW219512   3.630   0.659   8.268 -0.8551 -1.1134  1.5779
 2627SOL     OW19513   3.623   2.651  15.082  0.5273 -0.0581 -0.0797
 2627SOL    HW119514   3.566   2.585  15.122 -1.0587  0.2593 -1.8639
 2627SOL    HW219515   3.566   2.724  15.106  1.6975  0.9693 -0.4601
 2628SOL     OW19516   0.129   1.837   5.297 -0.4016  0.3606 -0.1125
 2628SOL    HW119517   0.133   1.833   5.393 -1.5174 -0.2921 -0.0927
 2628SOL    HW219518   0.050   1.890   5.283 -0.6302 -0.4418 -1.8691
 2629SOL     OW19519   3.400   1.124   5.938  0.1362  0.4352  0.6522
 2629SOL    HW119520   3.481   1.139   5.888  0.6882 -0.6598  1.2284
 2629SOL    HW219521   3.363   1.049   5.892  1.5567 -1.6764  2.9298
 2630SOL     OW19522   2.470   0.037   3.885  0.5394 -0.0458 -0.0834
 2630SOL    HW119523   2.390   0.090   3.891 -0.5433 -1.6491 -0.5649
 2630SOL    HW219524   2.537   0.101   3.911  0.4669  0.7920 -1.9653
 2631SOL     OW19525   4.357   0.449   3.287 -0.7055  0.2527  0.3045
 2631SOL    HW119526   4.427   0.470   3.350  0.5464  0.2272 -1.0795
 2631SOL    HW219527   4.287   0.419   3.345 -0.6325 -1.4423 -0.5076
 2632SOL     OW19528   0.211   4.628  13.658 -0.2197 -0.3268  0.5431
 2632SOL    HW119529   0.205   4.539  13.624 -0.7264  0.2273 -0.7834
 2632SOL    HW219530   0.133   4.624  13.714 -1.7814 -0.3711 -1.6414
 2633SOL     OW19531   2.221   2.880   3.162  0.1089  0.7425 -0.2762
 2633SOL    HW119532   2.142   2.934   3.150 -1.0751 -1.3139 -1.6976
 2633SOL    HW219533   2.206   2.848   3.252  1.8756  0.7791  0.0157
 2634SOL     OW19534   3.460   2.663   3.841 -0.1869  0.0043 -0.2775
 2634SOL    HW119535   3.539   2.660   3.896  1.1454 -0.2007 -2.2026
 2634SOL    HW219536   3.430   2.746   3.878  1.0076  0.7078 -0.9078
 2635SOL     OW19537   0.860   3.310   6.895  0.2382 -0.1959 -0.4516
 2635SOL    HW119538   0.897   3.339   6.978  0.6945  2.0676 -1.4356
 2635SOL    HW219539   0.874   3.393   6.850  1.1561  0.9451  1.9636
 2636SOL     OW19540   2.164   2.469   4.120 -0.3493  0.4051 -0.3302
 2636SOL    HW119541   2.208   2.553   4.106  0.1882 -0.0941 -1.6235
 2636SOL    HW219542   2.097   2.486   4.186  1.0814  2.9504  0.4652
 2637SOL     OW19543   2.968   2.970  17.169  1.0835  0.1610  0.6709
 2637SOL    HW119544   3.014   3.053  17.183 -0.3511  0.6489  2.4789
 2637SOL    HW219545   2.883   3.007  17.147 -0.3976 -3.2163  0.6959
 2638SOL     OW19546   4.124   4.196   9.493 -0.2029 -0.2662 -0.0334
 2638SOL    HW119547   4.050   4.234   9.446  1.2213  1.0735 -1.1962
 2638SOL    HW219548   4.195   4.260   9.487  0.0186 -0.6132 -1.0013
 2639SOL     OW19549   1.401   2.100   8.601  0.4858  0.1745 -0.4345
 2639SOL    HW119550   1.472   2.037   8.616 -0.0675 -0.3385  0.0540
 2639SOL    HW219551   1.386   2.081   8.509  2.0274  0.9045 -0.8458
 2640SOL     OW19552   1.898   0.507  16.269 -0.1614  0.3559 -0.9119
 2640SOL    HW119553   1.966   0.570  16.294 -0.9863  0.8631  0.0786
 2640SOL    HW219554   1.843   0.574  16.227  0.2261  1.0693 -0.2960
 2641SOL     OW19555   0.494   4.708   6.000  0.2352  0.5334  0.1740
 2641SOL    HW119556   0.429   0.037   5.987 -1.2627 -1.4615 -2.9580
 2641SOL    HW219557   0.540   0.003   5.923 -0.9938 -0.4382 -0.9892
 2642SOL     OW19558   1.417   4.738  16.773  0.0907  0.1007 -0.3662
 2642SOL    HW119559   1.447   0.027  16.860 -1.2144 -1.7006  0.6748
 2642SOL    HW219560   1.345   4.681  16.800  0.9685 -0.7746  0.1493
 2643SOL     OW19561   2.616   2.351   0.455  0.1080  0.1485  0.2989
 2643SOL    HW119562   2.697   2.300   0.447  0.2957  0.3845  0.6908
 2643SOL    HW219563   2.656   2.437   0.471 -1.6436  0.9964  0.0730
 2644SOL     OW19564   1.913   0.095   1.858  0.1649  0.4316 -0.5357
 2644SOL    HW119565   1.878   0.118   1.772 -0.7403 -0.0267 -0.2828
 2644SOL    HW219566   1.936   0.007   1.831  1.1245  0.5852 -0.2307
 2645SOL     OW19567   4.506   2.804   7.161 -0.0688  0.1629 -0.5366
 2645SOL    HW119568   4.455   2.737   7.116  1.8489 -1.2062 -0.6726
 2645SOL    HW219569   4.597   2.778   7.149  0.0619  0.1882  0.3470
 2646SOL     OW19570   3.381   3.746   7.540 -0.2819 -0.0328 -0.4462
 2646SOL    HW119571   3.393   3.821   7.482  2.1032 -0.0153  0.0712
 2646SOL    HW219572   3.454   3.754   7.601 -0.1410 -2.3421 -0.2978
 2647SOL     OW19573   1.642   4.427   3.185  0.2836  0.2988 -0.0902
 2647SOL    HW119574   1.662   4.413   3.277 -0.5158  0.1568  0.0662
 2647SOL    HW219575   1.725   4.420   3.139  0.2783  0.7269 -0.1650
 2648SOL     OW19576   2.632   3.821  16.535 -0.3972  0.2929  0.0614
 2648SOL    HW119577   2.662   3.733  16.558  0.0256  0.3343 -0.3268
 2648SOL    HW219578   2.543   3.822  16.571 -0.5900 -0.1949 -0.4005
 2649SOL     OW19579   3.239   1.044  17.135  0.1861  0.1728 -0.3689
 2649SOL    HW119580   3.249   1.135  17.162  0.7645 -0.7547  2.5352
 2649SOL    HW219581   3.290   1.037  17.054  1.5028  0.3923  0.4335
 2650SOL     OW19582   4.341   3.052   1.296 -0.2668 -0.3283  0.2059
 2650SOL    HW119583   4.356   3.066   1.390  2.0301  1.8135 -0.4907
 2650SOL    HW219584   4.309   2.962   1.302  0.0065 -0.5777 -2.1312
 2651SOL     OW19585   1.495   4.118   4.148 -0.6981 -0.1921  0.1786
 2651SOL    HW119586   1.558   4.183   4.115  1.3520 -3.1678 -1.7565
 2651SOL    HW219587   1.447   4.098   4.067 -1.3427 -0.2598  0.5757
 2652SOL     OW19588   1.831   0.519   1.828 -0.3514 -0.5579 -0.0881
 2652SOL    HW119589   1.870   0.492   1.745  0.1026  2.6094 -0.8876
 2652SOL    HW219590   1.742   0.532   1.795 -0.4479 -0.4958  0.1895
 2653SOL     OW19591   4.387   1.998  17.242 -0.4795 -0.3791 -0.4815
 2653SOL    HW119592   4.368   1.914  17.284 -1.2540  0.6235  1.2160
 2653SOL    HW219593   4.426   1.974  17.158 -0.9141 -0.4568 -0.6626
 2654SOL     OW19594   0.069   4.202   4.625 -0.1644 -0.4091 -0.3176
 2654SOL    HW119595   0.053   4.293   4.649  0.4648  0.0230 -1.6010
 2654SOL    HW219596   0.078   4.170   4.715  0.7103  1.7130  0.3477
 2655SOL     OW19597   0.875   2.736   5.933  0.1074 -0.0008 -0.4277
 2655SOL    HW119598   0.843   2.688   6.009  1.2869 -2.0795 -1.2555
 2655SOL    HW219599   0.824   2.816   5.950  0.1343  0.2770 -1.6290
 2656SOL     OW19600   1.837   0.919   7.592  0.5231  0.2951 -0.1558
 2656SOL    HW119601   1.821   0.884   7.679  1.0025  0.0815 -0.1528
 2656SOL    HW219602   1.929   0.939   7.612 -0.3638  1.8835  2.4285
 2657SOL     OW19603   2.926   1.806   5.220 -0.0808 -0.0766 -0.3655
 2657SOL    HW119604   2.970   1.751   5.285  0.1838 -0.8312 -1.1804
 2657SOL    HW219605   2.876   1.860   5.281  0.3291  0.6043 -0.6352
 2658SOL     OW19606   1.507   0.656  11.030 -0.2124  0.0929  0.5537
 2658SOL    HW119607   1.566   0.730  11.038 -0.4557  0.4793 -1.2119
 2658SOL    HW219608   1.519   0.616  11.116  1.5465 -1.4636 -0.4059
 2659SOL     OW19609   4.241   1.459   7.787  0.0783  0.1385 -0.1902
 2659SOL    HW119610   4.324   1.506   7.776  0.3060 -0.2659 -0.2229
 2659SOL    HW219611   4.261   1.393   7.721  1.5090  0.4167 -0.0324
 2660SOL     OW19612   1.962   2.930   2.081  0.1893  0.0442  0.4167
 2660SOL    HW119613   1.957   2.920   2.176 -0.7634 -1.0317  0.2573
 2660SOL    HW219614   1.930   2.847   2.045  0.3439  0.4983 -0.7897
 2661SOL     OW19615   2.417   0.995   1.131  0.0253  0.3575  0.7220
 2661SOL    HW119616   2.492   1.030   1.179 -0.5875 -0.2819  2.1242
 2661SOL    HW219617   2.454   0.911   1.103  0.1939  0.4122  0.7813
 2662SOL     OW19618   1.694   1.211   3.501 -0.6003  0.4176 -0.1326
 2662SOL    HW119619   1.723   1.120   3.499 -1.0233  0.2624  1.6024
 2662SOL    HW219620   1.712   1.234   3.409  1.0816 -0.1601  0.0426
 2663SOL     OW19621   4.051   2.032   2.887  0.2222  0.5458 -0.3239
 2663SOL    HW119622   4.113   2.004   2.954  1.1977 -0.0899 -1.4972
 2663SOL    HW219623   4.040   2.122   2.916 -2.3641  0.3504 -0.6987
 2664SOL     OW19624   0.606   2.088   8.625  0.4826  0.0973  0.5610
 2664SOL    HW119625   0.562   2.009   8.656  1.1479 -0.1534  0.8470
 2664SOL    HW219626   0.614   2.131   8.710 -0.9308 -0.2862  0.8961
 2665SOL     OW19627   3.065   1.492  15.549 -0.0689  0.6602  0.4720
 2665SOL    HW119628   3.023   1.455  15.626  0.9095 -1.3085  0.0590
 2665SOL    HW219629   3.154   1.461  15.566  0.5669  3.0365  1.4988
 2666SOL     OW19630   3.527   3.441   5.054  0.4658  0.1581 -0.5259
 2666SOL    HW119631   3.528   3.535   5.039  1.4862  0.2927  0.3952
 2666SOL    HW219632   3.436   3.418   5.034 -0.1375  2.7098 -0.7384
 2667SOL     OW19633   4.565   1.774   4.051  0.4497  0.6551  0.2300
 2667SOL    HW119634   4.657   1.777   4.075  0.0986  0.6224  1.5344
 2667SOL    HW219635   4.526   1.757   4.137  0.4831 -0.0563  0.1052
 2668SOL     OW19636   1.694   1.134   9.995  0.0483 -0.2212 -0.4231
 2668SOL    HW119637   1.696   1.107  10.086  1.4578 -0.8825 -0.6367
 2668SOL    HW219638   1.634   1.069   9.959 -0.9876  0.4628  0.0882
 2669SOL     OW19639   1.141   0.685   9.612 -0.2278  0.3138  0.1062
 2669SOL    HW119640   1.213   0.626   9.593 -0.8148 -0.9048  1.6122
 2669SOL    HW219641   1.066   0.625   9.621 -1.5161  1.9612  0.3378
 2670SOL     OW19642   3.132   0.994   4.242 -0.3633 -0.1096  0.6631
 2670SOL    HW119643   3.102   0.964   4.328  0.2266 -0.0069  0.9068
 2670SOL    HW219644   3.082   0.932   4.188  0.0545  0.5874 -0.5301
 2671SOL     OW19645   0.378   0.250   3.025 -0.2342  0.4177 -0.1659
 2671SOL    HW119646   0.287   0.274   3.006 -0.7455 -1.4752 -0.1329
 2671SOL    HW219647   0.394   0.302   3.104  1.9277  0.5923 -0.7020
 2672SOL     OW19648   1.362   4.324   1.375 -0.6521  0.2984  0.1366
 2672SOL    HW119649   1.437   4.328   1.435  0.1358  0.6618 -0.8862
 2672SOL    HW219650   1.338   4.416   1.371  1.7294  0.9793  1.2722
 2673SOL     OW19651   3.407   1.768   8.102  0.1396 -0.5663 -0.0813
 2673SOL    HW119652   3.433   1.825   8.030 -1.0399 -0.4389 -0.3948
 2673SOL    HW219653   3.494   1.728   8.114  1.2390  1.9568  0.2434
 2674SOL     OW19654   1.072   1.616   0.248 -0.4302 -0.7937 -0.4798
 2674SOL    HW119655   1.036   1.532   0.222  1.8174 -1.9322  0.0255
 2674SOL    HW219656   1.009   1.681   0.217 -1.0691 -0.5685  1.2813
 2675SOL     OW19657   0.989   4.433   9.907  0.1280  0.0928 -0.2501
 2675SOL    HW119658   0.930   4.504   9.931 -1.0749 -0.5457 -1.2963
 2675SOL    HW219659   1.073   4.463   9.940  0.4837  0.2858 -1.3404
 2676SOL     OW19660   1.909   4.735   2.755 -0.5022 -0.1361 -0.6713
 2676SOL    HW119661   1.957   4.673   2.810  2.4190  1.7128 -1.1737
 2676SOL    HW219662   1.876   0.069   2.806 -1.1757 -1.2364  0.4948
 2677SOL     OW19663   3.456   1.858   5.543  0.2307  0.0795 -0.6958
 2677SOL    HW119664   3.418   1.946   5.538  2.0274  0.7735 -2.1457
 2677SOL    HW219665   3.524   1.870   5.477 -1.8937 -0.0866 -2.9209
 2678SOL     OW19666   3.860   2.434  12.278  0.1078 -0.0482 -0.2368
 2678SOL    HW119667   3.842   2.342  12.261  2.6079 -1.4316  4.4214
 2678SOL    HW219668   3.952   2.456  12.261  0.3989 -0.3462  0.9192
 2679SOL     OW19669   1.190   3.991  11.430  0.8568 -0.6054 -0.2915
 2679SOL    HW119670   1.235   4.033  11.503 -0.9239  1.8991 -0.6099
 2679SOL    HW219671   1.251   3.923  11.401  1.4782 -0.5448  0.8586
 2680SOL     OW19672   2.261   4.554   1.811  0.2313  0.1782 -0.0934
 2680SOL    HW119673   2.167   4.535   1.817 -0.5836  3.9168 -0.6776
 2680SOL    HW219674   2.267   4.637   1.764 -2.6275 -0.0350 -0.8135
 2681SOL     OW19675   0.804   3.634  15.392  0.2980 -0.6611  0.0363
 2681SOL    HW119676   0.817   3.660  15.301 -3.5495  0.5505 -0.2024
 2681SOL    HW219677   0.798   3.538  15.398 -1.4936 -0.6961 -2.1232
 2682SOL     OW19678   3.931   3.813   3.800  0.3709 -0.0551 -0.3137
 2682SOL    HW119679   3.951   3.906   3.791  0.4118 -0.0872 -0.5573
 2682SOL    HW219680   3.958   3.798   3.890  0.8179 -0.5461 -0.5278
 2683SOL     OW19681   1.800   1.371   9.895  0.1982  0.1476 -0.2013
 2683SOL    HW119682   1.765   1.333   9.815 -0.5181  0.1531  0.1079
 2683SOL    HW219683   1.772   1.306   9.960 -1.8948  0.9111 -0.3468
 2684SOL     OW19684   3.383   4.507   0.370 -0.2069  0.3414  0.0453
 2684SOL    HW119685   3.463   4.471   0.408  0.7051 -0.0485 -2.2457
 2684SOL    HW219686   3.330   4.428   0.383  0.1162  0.1543  0.2289
 2685SOL     OW19687   3.016   3.134   7.322 -0.5141 -0.2429 -0.0179
 2685SOL    HW119688   2.978   3.152   7.235 -1.1501  0.0657  0.3203
 2685SOL    HW219689   3.070   3.213   7.320  1.1584 -1.3883 -0.1298
 2686SOL     OW19690   2.987   1.333   3.555 -0.4202 -0.2300 -0.3888
 2686SOL    HW119691   2.921   1.264   3.562 -0.2420 -0.4404 -0.7725
 2686SOL    HW219692   2.989   1.354   3.461 -0.2035 -2.1487 -0.8211
 2687SOL     OW19693   2.715   2.768   5.132 -0.0650  0.0718 -0.2636
 2687SOL    HW119694   2.763   2.845   5.101  1.1740 -0.8011 -0.5197
 2687SOL    HW219695   2.640   2.770   5.072  1.4096  1.5292 -2.0916
 2688SOL     OW19696   2.282   1.934   1.447  0.6042 -0.5411  0.2218
 2688SOL    HW119697   2.351   1.999   1.429 -0.7618  1.0518  0.6824
 2688SOL    HW219698   2.230   1.949   1.368  0.0986 -0.7420  0.5189
 2689SOL     OW19699   0.169   4.293   4.355  0.1487 -0.2547 -0.0332
 2689SOL    HW119700   0.093   4.306   4.412 -0.0727  2.0371 -0.8325
 2689SOL    HW219701   0.227   4.224   4.386  1.9367  2.2231  2.1913
 2690SOL     OW19702   2.299   2.816   1.926 -0.2646 -0.3710  0.2127
 2690SOL    HW119703   2.305   2.752   1.854 -1.9486 -0.8771  0.5266
 2690SOL    HW219704   2.268   2.889   1.873 -1.2171  0.0056  1.3153
 2691SOL     OW19705   3.852   4.417   2.057  0.7106  0.0842 -0.7315
 2691SOL    HW119706   3.827   4.478   1.987  0.6277 -0.1301 -0.8917
 2691SOL    HW219707   3.776   4.420   2.115 -0.3172 -1.7037 -1.9557
 2692SOL     OW19708   0.477   4.435   3.739 -0.1378  0.8674  0.9605
 2692SOL    HW119709   0.444   4.491   3.809 -0.3666  1.4601  0.3831
 2692SOL    HW219710   0.421   4.465   3.667  0.3650  1.2604  0.7371
 2693SOL     OW19711   3.185   1.714   0.197  0.6041  0.8123  0.6571
 2693SOL    HW119712   3.235   1.632   0.188 -1.1917  0.0759 -2.6015
 2693SOL    HW219713   3.148   1.718   0.109  0.4985  1.6112  0.7413
 2694SOL     OW19714   4.275   3.409  14.120 -0.2480 -0.0774 -0.5185
 2694SOL    HW119715   4.274   3.395  14.214  0.5005 -0.3035 -0.5454
 2694SOL    HW219716   4.362   3.445  14.103 -0.4582 -0.1417 -1.7598
 2695SOL     OW19717   2.566   1.440   7.535  0.4921  0.0907 -1.1710
 2695SOL    HW119718   2.473   1.453   7.553  0.7366 -1.7171  1.4079
 2695SOL    HW219719   2.576   1.361   7.588 -2.7711  0.7637  0.4538
 2696SOL     OW19720   2.440   0.744   4.090  0.0723 -0.1478  0.1070
 2696SOL    HW119721   2.353   0.752   4.049 -0.2522 -2.1344  0.4211
 2696SOL    HW219722   2.425   0.780   4.178  0.6758  3.5745 -1.3168
 2697SOL     OW19723   3.124   1.455   8.448  0.3346  0.0851 -0.2507
 2697SOL    HW119724   3.167   1.526   8.495  0.0440 -1.1518  1.8648
 2697SOL    HW219725   3.187   1.439   8.376  1.9734  0.2517  1.1436
 2698SOL     OW19726   1.727   1.945   6.441 -0.4907  0.1685 -0.0527
 2698SOL    HW119727   1.641   1.933   6.483 -0.3493  0.3744  0.2891
 2698SOL    HW219728   1.714   2.032   6.403  2.0706  0.3992 -0.3498
 2699SOL     OW19729   0.453   2.029  14.330 -0.1549 -0.1399 -0.9399
 2699SOL    HW119730   0.409   1.967  14.388  2.0918  0.1317  1.0532
 2699SOL    HW219731   0.546   2.014  14.346 -0.4971 -0.3972  0.8112
 2700SOL     OW19732   4.479   3.738   0.152  0.2424  0.4060  0.1343
 2700SOL    HW119733   4.507   3.821   0.115 -0.1993  0.3150 -0.4078
 2700SOL    HW219734   4.528   3.680   0.093 -0.5172 -2.2724  2.1515
 2701SOL     OW19735   4.597   1.766   0.687  0.0200 -0.1544  0.1034
 2701SOL    HW119736   4.662   1.814   0.637  1.4009 -1.5795  0.5174
 2701SOL    HW219737   4.579   1.827   0.758 -1.7167 -2.0011  1.2535
 2702SOL     OW19738   1.858   4.087   2.136 -0.0325  0.3413  0.3887
 2702SOL    HW119739   1.791   4.152   2.118 -0.4383 -0.8579 -2.5312
 2702SOL    HW219740   1.935   4.141   2.153  0.7712 -0.5422 -0.4245
 2703SOL     OW19741   4.727   1.966   8.992  0.3754 -0.4991 -0.7584
 2703SOL    HW119742   4.701   1.874   8.989 -3.3943  0.5037  1.1502
 2703SOL    HW219743   4.713   1.988   9.084 -0.6471 -1.1513 -0.7503
 2704SOL     OW19744   2.759   2.780   0.720  0.5610  0.1855  0.0784
 2704SOL    HW119745   2.846   2.819   0.731  0.1974  1.6066 -1.9502
 2704SOL    HW219746   2.750   2.721   0.794  5.4069 -2.5094 -1.4752
 2705SOL     OW19747   3.026   2.430   6.460  0.4438  0.1618 -0.4166
 2705SOL    HW119748   2.954   2.413   6.399 -0.3443  3.1503 -0.3045
 2705SOL    HW219749   3.038   2.524   6.448 -1.1029  0.1703 -1.9030
 2706SOL     OW19750   3.899   0.054   7.602  0.2696 -0.6968 -0.4617
 2706SOL    HW119751   3.811   0.044   7.566  0.2263 -0.1358 -0.5059
 2706SOL    HW219752   3.936   0.134   7.564  0.3354 -0.2491  0.5541
 2707SOL     OW19753   2.694   4.583   8.301 -0.2976  0.1840  0.0736
 2707SOL    HW119754   2.765   4.522   8.284  0.6697  1.5334 -0.7298
 2707SOL    HW219755   2.723   4.668   8.267 -0.7693  0.7910  1.1571
 2708SOL     OW19756   4.195   1.324   5.481 -0.0288  0.5811  0.8077
 2708SOL    HW119757   4.237   1.301   5.398  0.4910  0.1231  1.2011
 2708SOL    HW219758   4.103   1.333   5.453 -0.2786 -2.6694  0.5881
 2709SOL     OW19759   1.143   4.725  12.473 -0.3975 -0.1531 -0.2498
 2709SOL    HW119760   1.052   4.698  12.462 -0.9011  0.2719  3.0764
 2709SOL    HW219761   1.147   0.078  12.447 -1.4475  0.5852  2.3094
 2710SOL     OW19762   0.076   3.276   3.636  0.6125  0.0138 -0.9249
 2710SOL    HW119763   0.006   3.216   3.663  0.2234  0.5618 -0.7159
 2710SOL    HW219764   0.088   3.323   3.718 -4.3085  0.4115 -0.3891
 2711SOL     OW19765   3.850   4.500  11.270  0.4277  0.3989 -0.4912
 2711SOL    HW119766   3.924   4.472  11.216 -0.4061 -0.9782 -0.9349
 2711SOL    HW219767   3.776   4.472  11.217  2.6341 -3.8631 -1.3369
 2712SOL     OW19768   2.572   3.577  16.322  0.4280 -0.2276 -0.8137
 2712SOL    HW119769   2.503   3.512  16.305  0.2607 -0.3164  0.2205
 2712SOL    HW219770   2.546   3.616  16.405 -0.5770 -1.0588 -0.7237
 2713SOL     OW19771   4.601   3.200  11.090 -0.0575 -0.0779  0.2146
 2713SOL    HW119772   4.622   3.118  11.134 -0.0455 -0.1626  0.0511
 2713SOL    HW219773   4.676   3.229  11.038  0.9983  0.6464  2.1735
 2714SOL     OW19774   2.067   3.929   4.171  0.3225  0.0758  0.0160
 2714SOL    HW119775   2.125   3.942   4.246 -0.0391  1.6333  0.0149
 2714SOL    HW219776   2.082   4.006   4.117 -3.7198  0.9542  0.1227
 2715SOL     OW19777   1.655   2.529   2.616 -0.4154  0.5191  0.0548
 2715SOL    HW119778   1.674   2.436   2.630  0.7972  0.8879  0.8498
 2715SOL    HW219779   1.572   2.519   2.663 -1.5632  1.1051 -1.8311
 2716SOL     OW19780   4.089   0.548   2.091 -0.5076 -0.5052  0.5115
 2716SOL    HW119781   4.085   0.486   2.164 -0.5221 -0.5618  0.4627
 2716SOL    HW219782   4.175   0.530   2.054 -0.4449  0.6484  0.0857
 2717SOL     OW19783   2.667   3.523   6.890  0.3521 -0.5315  0.8393
 2717SOL    HW119784   2.677   3.617   6.871 -0.9336 -0.3322  1.1721
 2717SOL    HW219785   2.753   3.506   6.929  1.6040 -2.0956 -2.5931
 2718SOL     OW19786   4.002   3.193  11.584  0.2520  0.0697  0.2399
 2718SOL    HW119787   3.981   3.232  11.500  1.4602  0.2744  0.0351
 2718SOL    HW219788   4.022   3.275  11.628 -3.3985  0.3202  1.5062
 2719SOL     OW19789   1.769   2.131   6.665 -0.1125 -0.1025 -0.1943
 2719SOL    HW119790   1.858   2.100   6.651 -0.4383 -1.5288  0.9041
 2719SOL    HW219791   1.753   2.173   6.581  0.2663 -2.2394 -1.3277
 2720SOL     OW19792   0.341   3.175  13.384  0.5869  0.0052  0.3670
 2720SOL    HW119793   0.389   3.147  13.306 -0.7108 -0.6055 -0.2179
 2720SOL    HW219794   0.249   3.166  13.358  0.8199  0.5220 -0.6480
 2721SOL     OW19795   0.302   0.407   7.702  0.9303 -0.0871  0.1655
 2721SOL    HW119796   0.352   0.465   7.761 -0.6880 -0.3865  1.8496
 2721SOL    HW219797   0.316   0.333   7.761 -1.8009  0.2839  1.2825
 2722SOL     OW19798   2.223   0.468   9.203  1.1786  0.2029 -0.8327
 2722SOL    HW119799   2.309   0.425   9.206  0.9808  0.0251  1.9846
 2722SOL    HW219800   2.202   0.459   9.110 -0.5874 -1.2424 -0.3016
 2723SOL     OW19801   1.900   3.367   6.384  0.4748 -0.8213  0.1119
 2723SOL    HW119802   1.886   3.309   6.309 -0.1461  0.4822 -0.7841
 2723SOL    HW219803   1.838   3.435   6.357  0.4112 -1.1697 -0.6194
 2724SOL     OW19804   1.608   0.397   8.217  0.3876  0.5762  0.0539
 2724SOL    HW119805   1.593   0.310   8.254  0.6077 -0.2342 -1.7538
 2724SOL    HW219806   1.702   0.406   8.231  0.5836 -0.6839 -0.4144
 2725SOL     OW19807   1.673   2.067   0.634  0.2660  0.1048  0.5750
 2725SOL    HW119808   1.666   1.972   0.642 -2.0700  0.0944 -1.5183
 2725SOL    HW219809   1.766   2.072   0.612 -0.2180  0.9001 -1.2693
 2726SOL     OW19810   3.976   2.417   2.044 -0.2805  0.3934 -0.1602
 2726SOL    HW119811   3.929   2.344   2.003  0.2027 -0.7904  1.4171
 2726SOL    HW219812   4.001   2.372   2.125 -1.8017 -3.0358 -1.5798
 2727SOL     OW19813   1.495   0.480  13.757  0.0522 -1.1825 -0.0339
 2727SOL    HW119814   1.578   0.436  13.738 -0.9223 -3.0140 -0.0116
 2727SOL    HW219815   1.457   0.436  13.833 -3.9029  2.6758  0.2319
 2728SOL     OW19816   1.869   2.894   8.379  0.0927  0.2247 -0.3187
 2728SOL    HW119817   1.931   2.966   8.390 -1.0665  0.9648  1.4564
 2728SOL    HW219818   1.789   2.947   8.372 -0.2984 -0.4957 -1.2988
 2729SOL     OW19819   1.745   0.229  16.820 -0.3332 -0.1905 -0.6495
 2729SOL    HW119820   1.699   0.313  16.816 -0.0398  0.0955  1.9005
 2729SOL    HW219821   1.776   0.216  16.909  1.3452 -0.3157 -1.2529
 2730SOL     OW19822   0.376   3.243   8.176  0.1876  0.3849  0.3902
 2730SOL    HW119823   0.465   3.269   8.155  0.5613 -1.8180 -0.7735
 2730SOL    HW219824   0.401   3.169   8.232 -0.5079  1.2093  1.7998
 2731SOL     OW19825   2.119   4.093   5.870 -0.2044 -0.0583 -0.7464
 2731SOL    HW119826   2.171   4.173   5.863  0.6834 -0.5597  0.0939
 2731SOL    HW219827   2.033   4.129   5.891  1.2350  1.7185  2.1514
 2732SOL     OW19828   4.104   3.936  17.578 -0.0740  0.0213 -0.2331
 2732SOL    HW119829   4.040   3.990  17.623  1.2230  0.4201  1.1006
 2732SOL    HW219830   4.057   3.854  17.595 -2.6530  1.2039 -1.6959
 2733SOL     OW19831   3.935   2.372   0.748  0.0711  0.4389  0.0115
 2733SOL    HW119832   4.025   2.394   0.770 -0.4710  1.5112  1.1472
 2733SOL    HW219833   3.958   2.288   0.708 -0.6922 -0.5091  1.5264
 2734SOL     OW19834   0.284   2.179   3.907  0.1486  0.1450  0.1000
 2734SOL    HW119835   0.310   2.174   3.815 -0.3496 -1.7537  0.0602
 2734SOL    HW219836   0.355   2.124   3.940  0.3018  0.4844  0.3403
 2735SOL     OW19837   1.121   1.231   0.679  0.2347 -0.0223  0.3802
 2735SOL    HW119838   1.093   1.204   0.766 -1.4305  0.6698  0.0701
 2735SOL    HW219839   1.212   1.251   0.699  0.6858 -1.4647 -0.2138
 2736SOL     OW19840   2.441   1.874   2.005  0.3581 -0.1597  0.0326
 2736SOL    HW119841   2.502   1.813   1.964 -3.4270 -3.1418 -1.1591
 2736SOL    HW219842   2.398   1.910   1.927 -0.6487 -1.4784 -0.0194
 2737SOL     OW19843   2.985   0.595  15.136 -0.0233  0.2736  0.5966
 2737SOL    HW119844   3.053   0.607  15.202 -0.0774  2.1999  0.3134
 2737SOL    HW219845   3.023   0.514  15.101  1.6464  0.7222  1.3748
 2738SOL     OW19846   1.844   1.673   3.057 -0.6022  0.3639 -0.3510
 2738SOL    HW119847   1.803   1.624   3.128 -1.3175  0.1512 -0.9112
 2738SOL    HW219848   1.916   1.615   3.033  0.0940  0.3287  1.8106
 2739SOL     OW19849   2.606   1.929   1.223 -0.1477  0.4340  0.2294
 2739SOL    HW119850   2.606   1.863   1.293  1.2415 -0.0914 -0.2637
 2739SOL    HW219851   2.632   2.008   1.269  0.2071  0.1181  0.5654
 2740SOL     OW19852   1.101   4.458   3.140 -0.2957  0.4552 -0.1070
 2740SOL    HW119853   1.161   4.524   3.173  2.1478 -1.3117 -1.0290
 2740SOL    HW219854   1.103   4.382   3.198 -1.5478  1.3290  1.0643
 2741SOL     OW19855   2.910   0.938  10.076 -0.1687  0.5845  0.1406
 2741SOL    HW119856   2.950   0.921  10.161  0.0089 -4.1326 -0.8542
 2741SOL    HW219857   2.854   0.861  10.066  0.2250  0.4499 -1.0266
 2742SOL     OW19858   2.314   4.198   4.522  0.1095 -0.1585 -0.1732
 2742SOL    HW119859   2.324   4.278   4.574 -0.5927  0.7440 -1.4371
 2742SOL    HW219860   2.389   4.151   4.559 -0.2729  0.5441  1.4713
 2743SOL     OW19861   1.182   1.785   9.589 -0.4241  0.4097  0.2721
 2743SOL    HW119862   1.173   1.729   9.512 -2.5756  0.4515  0.4925
 2743SOL    HW219863   1.165   1.724   9.661 -0.0364 -1.0307 -0.8482
 2744SOL     OW19864   0.475   2.582   0.056 -0.0714 -0.6135 -0.1000
 2744SOL    HW119865   0.483   2.677   0.045  0.2811 -0.3788  2.2859
 2744SOL    HW219866   0.569   2.565   0.068  0.0978  0.1480 -0.3710
 2745SOL     OW19867   3.503   3.324   2.820 -0.4541 -0.2160  0.7004
 2745SOL    HW119868   3.582   3.293   2.865  1.4385  1.1851 -1.6712
 2745SOL    HW219869   3.480   3.376   2.897  0.2931  1.9443 -0.5258
 2746SOL     OW19870   1.706   2.253   4.359 -0.0698  0.0062  0.0149
 2746SOL    HW119871   1.637   2.224   4.418  0.8869 -0.6408  0.8283
 2746SOL    HW219872   1.656   2.249   4.277  1.4962  1.3487 -1.0004
 2747SOL     OW19873   0.137   1.818   9.432 -0.2650 -0.3462 -0.3697
 2747SOL    HW119874   0.144   1.901   9.480  1.7471 -1.1148  0.6881
 2747SOL    HW219875   0.067   1.772   9.477 -1.2539 -0.7317 -2.3203
 2748SOL     OW19876   3.705   0.223   8.419 -0.0386 -0.0123 -0.0368
 2748SOL    HW119877   3.664   0.155   8.472  0.6930 -1.2480 -1.0820
 2748SOL    HW219878   3.663   0.204   8.336 -0.2242  2.6500 -0.5755
 2749SOL     OW19879   3.220   3.611   7.069 -0.4024 -0.3065  0.2798
 2749SOL    HW119880   3.189   3.572   6.987  0.4292  0.3651 -0.3561
 2749SOL    HW219881   3.244   3.539   7.127 -1.6951  0.6473  2.0106
 2750SOL     OW19882   3.075   2.019   2.302  0.2451 -0.4812  0.0998
 2750SOL    HW119883   3.019   2.069   2.362  1.5571  1.1292 -0.0163
 2750SOL    HW219884   3.034   1.933   2.299  0.2995 -0.4462 -1.5967
 2751SOL     OW19885   1.569   3.527   7.550 -0.4524  0.6687 -0.4102
 2751SOL    HW119886   1.502   3.546   7.616  2.2557 -2.5542  3.3269
 2751SOL    HW219887   1.646   3.569   7.588 -0.2099  0.6698 -0.9039
 2752SOL     OW19888   4.451   2.836   1.904  0.2824 -0.7979 -0.0580
 2752SOL    HW119889   4.449   2.772   1.833  2.7052  0.1476 -0.9922
 2752SOL    HW219890   4.378   2.895   1.885  0.4670 -0.9818 -1.3739
 2753SOL     OW19891   2.212   2.062   7.579 -0.0066  0.6621 -0.7302
 2753SOL    HW119892   2.297   2.022   7.562  0.7026  0.3962  3.4593
 2753SOL    HW219893   2.219   2.084   7.672  1.2397  3.5293 -1.5328
 2754SOL     OW19894   3.335   3.754   2.191 -0.0327 -0.7255  0.3090
 2754SOL    HW119895   3.265   3.698   2.158 -0.0077 -0.0933 -0.8213
 2754SOL    HW219896   3.404   3.693   2.214  0.3206 -0.1329  0.8206
 2755SOL     OW19897   1.534   2.051  12.053 -0.0871  0.6193 -0.1425
 2755SOL    HW119898   1.564   1.962  12.069  2.3887  1.1511 -1.6973
 2755SOL    HW219899   1.576   2.053  11.967 -1.3965  0.4040 -0.7923
 2756SOL     OW19900   4.384   1.857   0.127  0.0906 -0.4270  0.1732
 2756SOL    HW119901   4.392   1.913   0.050 -1.1707 -0.0666  0.3062
 2756SOL    HW219902   4.321   1.898   0.187  0.3644 -0.6310  0.6019
 2757SOL     OW19903   3.662   4.326  16.417  0.6841  0.1251 -0.0660
 2757SOL    HW119904   3.664   4.248  16.472  0.7358 -0.5793 -1.0663
 2757SOL    HW219905   3.671   4.407  16.467 -0.3452  0.5199 -0.5087
 2758SOL     OW19906   2.332   0.448   2.427  0.0391 -0.2080  0.2817
 2758SOL    HW119907   2.358   0.370   2.477  0.6540  0.1464  0.5135
 2758SOL    HW219908   2.261   0.418   2.370 -0.6396 -3.4017  2.7543
 2759SOL     OW19909   2.598   2.761   7.302  0.3910  0.4426  0.7856
 2759SOL    HW119910   2.552   2.737   7.221 -1.0373 -0.9597  2.0067
 2759SOL    HW219911   2.572   2.852   7.313  2.6691  1.3026 -0.9315
 2760SOL     OW19912   0.796   2.878   3.951  0.5958  0.6187 -0.1501
 2760SOL    HW119913   0.727   2.842   3.895  1.0016 -0.3239 -0.0427
 2760SOL    HW219914   0.828   2.955   3.903  2.9125  0.6903  1.5436
 2761SOL     OW19915   1.134   3.077   5.625 -0.1750  0.0798 -0.2753
 2761SOL    HW119916   1.137   3.169   5.599  0.3599 -0.7947 -3.2455
 2761SOL    HW219917   1.207   3.075   5.687 -1.1200  1.4361  0.8846
 2762SOL     OW19918   1.270   1.501   0.935 -0.0992 -0.4437  0.9603
 2762SOL    HW119919   1.208   1.550   0.882  0.2811  0.5048  1.3839
 2762SOL    HW219920   1.351   1.544   0.907 -1.0053  0.2176 -0.6451
 2763SOL     OW19921   0.038   0.604   0.424 -0.6719 -0.7195 -0.2941
 2763SOL    HW119922   0.104   0.581   0.488 -0.8870 -0.1930  0.1130
 2763SOL    HW219923   4.709   0.645   0.478 -0.8645 -1.4879  0.0517
 2764SOL     OW19924   2.332   0.043  10.297 -0.0925 -1.0559 -0.3099
 2764SOL    HW119925   2.396   0.056  10.227  0.0431 -0.3888 -0.0599
 2764SOL    HW219926   2.256   0.097  10.277 -0.0261 -0.0624  2.1534
 2765SOL     OW19927   0.310   4.502  10.283 -0.2897 -0.0960 -0.2302
 2765SOL    HW119928   0.329   4.596  10.285 -1.3224  0.0867  0.9813
 2765SOL    HW219929   0.319   4.474  10.192 -2.7277  1.1945 -0.8491
 2766SOL     OW19930   2.569   0.916   3.867 -0.6648  0.2208  0.0883
 2766SOL    HW119931   2.636   0.929   3.934  0.3523  0.0399 -0.9092
 2766SOL    HW219932   2.507   0.860   3.915 -2.9649  0.8409 -2.1385
 2767SOL     OW19933   2.794   2.031   7.639 -0.1886 -0.4973  0.3135
 2767SOL    HW119934   2.744   2.007   7.560 -1.5905 -5.1730  2.6158
 2767SOL    HW219935   2.880   2.059   7.606 -1.0229  1.3761 -0.2648
 2768SOL     OW19936   0.442   4.024   1.993 -0.0722 -0.0470 -0.1180
 2768SOL    HW119937   0.461   4.098   2.051 -1.6486 -0.6462  1.1774
 2768SOL    HW219938   0.352   4.000   2.014  0.4967 -0.9072  1.4351
 2769SOL     OW19939   4.729   1.270  16.581  0.2460  0.4651  0.1791
 2769SOL    HW119940   4.637   1.257  16.606  0.2897 -0.7103 -0.2754
 2769SOL    HW219941   0.025   1.203  16.641  0.0838 -0.7161 -1.0501
 2770SOL     OW19942   0.748   0.656   5.877 -0.1315  0.1982 -0.4294
 2770SOL    HW119943   0.781   0.745   5.860 -0.2721  0.3415  0.0279
 2770SOL    HW219944   0.663   0.678   5.914  1.1976  2.0192  1.5813
 2771SOL     OW19945   1.387   2.019  13.021 -0.2921  0.1544  0.2242
 2771SOL    HW119946   1.418   2.098  12.976  1.8384  0.1024  1.5762
 2771SOL    HW219947   1.467   2.002  13.072 -1.0788 -1.4578  0.9159
 2772SOL     OW19948   2.140   4.220   8.723  0.3716  0.4969 -0.1008
 2772SOL    HW119949   2.088   4.164   8.665 -0.6623  0.6895  0.6319
 2772SOL    HW219950   2.181   4.159   8.783  0.1262 -1.7858 -2.2606
 2773SOL     OW19951   1.688   0.539   3.564  0.1515 -0.1049  0.5347
 2773SOL    HW119952   1.599   0.554   3.597  0.3232  2.3132 -0.1251
 2773SOL    HW219953   1.735   0.534   3.648 -0.7414  1.0007  1.1043
 2774SOL     OW19954   1.678   3.514   2.356  0.0895  0.8961  0.0585
 2774SOL    HW119955   1.602   3.554   2.314  0.5279  0.8549 -0.7670
 2774SOL    HW219956   1.648   3.423   2.352 -0.3874  1.1273 -1.7078
 2775SOL     OW19957   2.522   2.454   6.100  0.2967 -0.0717  0.0077
 2775SOL    HW119958   2.563   2.532   6.138  0.0898 -1.0603  2.2832
 2775SOL    HW219959   2.525   2.482   6.009  0.4585 -2.8302 -0.8469
 2776SOL     OW19960   1.130   2.686  13.628 -0.8385 -1.0140  0.0346
 2776SOL    HW119961   1.074   2.619  13.588 -0.9911 -0.4922 -0.6248
 2776SOL    HW219962   1.198   2.700  13.563 -1.5004  0.1175 -0.4140
 2777SOL     OW19963   4.709   4.105   7.409  0.3271 -0.3793  0.3403
 2777SOL    HW119964   0.065   4.106   7.423  0.4318  0.3141 -0.4788
 2777SOL    HW219965   4.699   4.037   7.342  0.3596 -0.1538  0.1093
 2778SOL     OW19966   0.117   3.677   4.721 -0.1641 -0.6298  0.4772
 2778SOL    HW119967   0.089   3.640   4.637 -0.3699 -1.3104  0.8496
 2778SOL    HW219968   0.181   3.609   4.743  0.2552  0.0713  1.3978
 2779SOL     OW19969   4.534   3.054   3.321 -0.4011 -0.3732  0.0803
 2779SOL    HW119970   4.502   2.999   3.250 -0.4786 -1.1028  0.6871
 2779SOL    HW219971   4.518   2.999   3.397 -1.4862  1.5625  1.2517
 2780SOL     OW19972   0.348   2.853   3.477  0.1731 -0.4094 -0.6282
 2780SOL    HW119973   0.260   2.860   3.441  0.3740 -1.1211 -1.2586
 2780SOL    HW219974   0.396   2.847   3.395 -0.7954 -0.5877 -1.1782
 2781SOL     OW19975   3.626   3.898   4.861  0.2402  0.4656  0.4034
 2781SOL    HW119976   3.682   3.975   4.855 -2.5516  2.4194 -0.1986
 2781SOL    HW219977   3.551   3.930   4.811 -0.7842 -0.6016  1.2747
 2782SOL     OW19978   4.024   0.137   1.955  0.2485 -0.5871  0.1183
 2782SOL    HW119979   4.114   0.166   1.938  0.2083 -0.7423 -0.3410
 2782SOL    HW219980   3.976   0.194   1.896  0.7732 -0.0443  0.2143
 2783SOL     OW19981   3.763   2.696   4.740 -0.0131  0.0075  0.3954
 2783SOL    HW119982   3.826   2.642   4.692  0.6452 -1.1162  2.5461
 2783SOL    HW219983   3.692   2.634   4.725  0.4571  0.3128 -3.1729
 2784SOL     OW19984   0.595   2.587  12.755  0.5175  0.1126 -0.4445
 2784SOL    HW119985   0.655   2.626  12.691 -0.1383  1.9087  0.0358
 2784SOL    HW219986   0.614   2.494  12.748  2.1729  0.5618 -1.9279
 2785SOL     OW19987   4.209   0.936   8.408  0.2412 -0.3203  0.0791
 2785SOL    HW119988   4.117   0.920   8.429  0.0690  0.0296 -0.4146
 2785SOL    HW219989   4.201   1.016   8.356  0.4845  0.0747  0.6368
 2786SOL     OW19990   3.363   2.274   8.358 -0.1745 -0.2571 -0.2302
 2786SOL    HW119991   3.408   2.207   8.410  0.3983  0.0944 -0.2685
 2786SOL    HW219992   3.305   2.219   8.305 -1.8648 -1.0555  2.4566
 2787SOL     OW19993   0.310   1.022   6.656 -0.2472 -0.3506 -0.9610
 2787SOL    HW119994   0.248   0.975   6.711 -0.2486 -0.9465 -1.4747
 2787SOL    HW219995   0.320   0.958   6.585  1.5148  0.3038 -1.3114
 2788SOL     OW19996   2.005   2.379   7.872  0.1165 -0.2397  0.0315
 2788SOL    HW119997   2.002   2.307   7.935 -0.6765 -0.0398  0.2179
 2788SOL    HW219998   2.031   2.441   7.941 -1.2587  1.0683 -0.6118
 2789SOL     OW19999   4.653   1.695   5.563  1.0420 -0.1710  0.2682
 2789SOL    HW120000   4.626   1.659   5.648 -2.4716  2.3841  0.2107
 2789SOL    HW220001   4.726   1.638   5.538  2.3159  1.6749 -0.1716
 2790SOL     OW20002   0.351   3.288   2.937 -0.2014 -0.5290 -1.0240
 2790SOL    HW120003   0.411   3.363   2.935 -0.2010 -0.5259 -0.8970
 2790SOL    HW220004   0.275   3.336   2.903 -0.0680  0.7683  0.4941
 2791SOL     OW20005   4.617   2.768   4.972  0.3426 -0.6647  0.1501
 2791SOL    HW120006   4.663   2.697   5.017 -0.0070 -1.7219 -1.1607
 2791SOL    HW220007   4.533   2.745   5.012 -0.3531  0.4545 -0.6920
 2792SOL     OW20008   1.864   4.399   4.875 -0.0910  0.4461 -0.3622
 2792SOL    HW120009   1.842   4.379   4.966  0.8691  1.7656  0.1577
 2792SOL    HW220010   1.925   4.471   4.888  1.6688 -1.3912  1.7235
 2793SOL     OW20011   3.619   1.571   3.517  0.6672  0.4726  0.5906
 2793SOL    HW120012   3.712   1.549   3.524  0.4740 -0.0897  1.3761
 2793SOL    HW220013   3.616   1.624   3.437 -0.1860 -1.3214 -0.5486
 2794SOL     OW20014   1.003   0.086  12.747  0.3986  0.0331 -0.3101
 2794SOL    HW120015   0.945   0.158  12.722 -1.2730 -0.8941  0.9127
 2794SOL    HW220016   0.987   0.024  12.676 -1.7692  1.2299 -0.8664
 2795SOL     OW20017   0.659   2.293   2.447 -0.3356  0.2140 -0.4165
 2795SOL    HW120018   0.718   2.247   2.388 -1.7133 -1.2556 -0.6756
 2795SOL    HW220019   0.624   2.220   2.499 -0.6916 -1.1042 -2.4924
 2796SOL     OW20020   2.762   4.705   4.247 -0.1139  0.0817 -0.2339
 2796SOL    HW120021   2.815   4.725   4.324  0.1190 -1.7564  0.0899
 2796SOL    HW220022   2.685   4.661   4.283  0.2131 -0.0737  0.2849
 2797SOL     OW20023   1.885   1.432   5.817 -0.4743 -0.1292 -0.2489
 2797SOL    HW120024   1.811   1.402   5.870  0.4675  1.0527  1.7392
 2797SOL    HW220025   1.898   1.362   5.753 -0.2602 -1.5955  1.3827
 2798SOL     OW20026   0.150   4.131   0.941  0.1304 -0.1028  0.1774
 2798SOL    HW120027   0.175   4.145   0.849  2.1587  1.7389  1.0032
 2798SOL    HW220028   0.183   4.043   0.963 -2.3306 -1.3456 -1.1288
 2799SOL     OW20029   2.069   3.310   1.643  0.1913  0.3983 -0.0036
 2799SOL    HW120030   2.068   3.404   1.663 -0.2433 -0.3534  3.4592
 2799SOL    HW220031   1.982   3.290   1.677 -0.7535  1.4432 -1.8166
 2800SOL     OW20032   4.408   1.006   9.457 -0.1716  0.6307  0.5281
 2800SOL    HW120033   4.331   0.957   9.427  0.3245  0.7923 -1.0097
 2800SOL    HW220034   4.449   1.034   9.375 -0.3253 -1.1739 -0.1707
 2801SOL     OW20035   2.964   0.756   6.898 -0.6779  0.1668 -0.0987
 2801SOL    HW120036   3.036   0.706   6.861 -0.6682  1.0492 -1.2727
 2801SOL    HW220037   2.910   0.687   6.936 -2.3976  1.9612  0.7632
 2802SOL     OW20038   0.421   0.964   8.374  0.4208 -0.1378  0.7362
 2802SOL    HW120039   0.331   0.933   8.363  0.5424 -1.0157  2.1464
 2802SOL    HW220040   0.420   1.043   8.321  0.2605 -0.7064 -0.1101
 2803SOL     OW20041   4.738   1.905   7.927  0.2836  0.1908  0.1947
 2803SOL    HW120042   4.709   1.873   8.013  1.9895  1.9310  1.4088
 2803SOL    HW220043   0.089   1.929   7.948  0.6372  0.1339 -1.2531
 2804SOL     OW20044   2.336   4.590   3.723  0.3870 -0.5853  0.1448
 2804SOL    HW120045   2.344   4.656   3.655 -1.5484  1.2925  1.7555
 2804SOL    HW220046   2.385   4.625   3.797 -1.0347  2.1111 -0.1802
 2805SOL     OW20047   1.209   4.126  15.090 -0.1006 -0.5301 -0.4731
 2805SOL    HW120048   1.234   4.199  15.034 -1.2371 -0.2607 -0.6385
 2805SOL    HW220049   1.290   4.111  15.137  0.0405  0.8254 -0.2966
 2806SOL     OW20050   4.722   4.102  16.559  0.3596 -0.2862  0.0313
 2806SOL    HW120051   4.709   4.190  16.524  0.7390 -0.5223 -0.6973
 2806SOL    HW220052   0.057   4.120  16.617 -0.2486 -0.5410  0.8826
 2807SOL     OW20053   0.315   1.491   4.585  0.2108 -0.3723  0.1755
 2807SOL    HW120054   0.221   1.475   4.593  0.1539  0.1400  0.4942
 2807SOL    HW220055   0.327   1.482   4.680  1.8899 -0.8747 -0.0784
 2808SOL     OW20056   2.466   0.116  11.059 -0.1716 -0.6008  0.2075
 2808SOL    HW120057   2.437   0.133  10.969  2.3225  1.8521 -0.1396
 2808SOL    HW220058   2.437   0.197  11.102  1.8196 -0.1926  0.7749
 2809SOL     OW20059   4.164   0.523  17.673 -0.0089 -0.2092  0.3310
 2809SOL    HW120060   4.218   0.523  17.752 -0.2569 -1.4046  0.5094
 2809SOL    HW220061   4.085   0.569  17.701  0.5150  0.8776  0.0416
 2810SOL     OW20062   3.103   3.287   4.054  0.0822  0.1215 -0.4926
 2810SOL    HW120063   3.097   3.348   3.981 -2.7439  0.7159  0.2500
 2810SOL    HW220064   3.011   3.270   4.073  0.3450 -2.1283 -1.1967
 2811SOL     OW20065   1.542   4.185   7.455 -0.5577 -0.2550  0.1495
 2811SOL    HW120066   1.482   4.188   7.529 -2.1920  0.5131 -1.1947
 2811SOL    HW220067   1.619   4.154   7.501  0.8241  1.7983 -0.7923
 2812SOL     OW20068   1.731   0.609   9.578 -0.0024  0.1262 -0.0296
 2812SOL    HW120069   1.796   0.570   9.635  0.1577 -1.2829 -1.1852
 2812SOL    HW220070   1.727   0.699   9.612 -1.0307  0.3599 -0.7546
 2813SOL     OW20071   4.609   2.685   9.415 -0.0474 -0.2701 -0.4594
 2813SOL    HW120072   4.551   2.760   9.429  1.9158  0.8865  1.4647
 2813SOL    HW220073   4.665   2.718   9.345 -0.9935 -1.6176 -1.8502
 2814SOL     OW20074   1.794   1.822   4.389 -0.2300  0.5111  0.1632
 2814SOL    HW120075   1.779   1.730   4.408  0.2691  0.5576  0.7845
 2814SOL    HW220076   1.708   1.852   4.358 -0.3202 -2.0299 -1.9900
 2815SOL     OW20077   3.276   1.947   6.655 -0.0337  0.3340 -0.4152
 2815SOL    HW120078   3.321   1.863   6.649 -1.3576 -0.3060 -1.3154
 2815SOL    HW220079   3.330   1.976   6.729 -1.7134  0.0552  0.9246
 2816SOL     OW20080   4.182   1.739   3.381  0.0039 -0.2125 -0.0604
 2816SOL    HW120081   4.087   1.747   3.382 -0.0311 -0.5592 -1.5366
 2816SOL    HW220082   4.201   1.650   3.411  0.0746  0.0047  0.5408
 2817SOL     OW20083   0.579   1.327  11.984  0.7585  0.2898 -0.1902
 2817SOL    HW120084   0.620   1.275  12.053  0.2592  1.2740  0.8424
 2817SOL    HW220085   0.663   1.354  11.947  0.3816  1.2035 -0.3778
 2818SOL     OW20086   0.418   0.949   0.665 -0.3649  0.2458  0.2009
 2818SOL    HW120087   0.350   0.928   0.601 -0.3847 -0.9423  0.6237
 2818SOL    HW220088   0.497   0.919   0.620 -0.8798  1.6091 -1.6053
 2819SOL     OW20089   3.214   1.566   2.997  0.0915 -0.7678  0.3471
 2819SOL    HW120090   3.175   1.528   3.076 -0.0366 -2.2751 -0.4223
 2819SOL    HW220091   3.264   1.637   3.036  0.2452 -0.1587 -0.9440
 2820SOL     OW20092   4.612   2.299  14.137 -0.7627 -0.0137  0.3452
 2820SOL    HW120093   4.627   2.345  14.220  0.5371  1.6073 -0.7889
 2820SOL    HW220094   4.684   2.236  14.141  0.8094  1.7281 -0.3785
 2821SOL     OW20095   4.548   4.255   0.580 -0.7566 -0.2889 -0.9543
 2821SOL    HW120096   4.588   4.286   0.661  0.1477  0.9721 -1.8911
 2821SOL    HW220097   4.573   4.163   0.568 -0.3694 -0.4582  1.1316
 2822SOL     OW20098   2.254   3.885   6.472 -0.1843  0.3229 -0.3273
 2822SOL    HW120099   2.285   3.878   6.382 -0.5824 -0.4826 -0.4062
 2822SOL    HW220100   2.322   3.931   6.521 -0.2438 -1.6018  1.5770
 2823SOL     OW20101   2.410   0.595   4.541  0.1674  0.7530 -0.7082
 2823SOL    HW120102   2.480   0.533   4.522  0.5292  0.5510  1.2229
 2823SOL    HW220103   2.444   0.676   4.503  0.8532  0.4833 -0.6745
 2824SOL     OW20104   3.992   0.113   6.394  0.5127  0.1279  0.2973
 2824SOL    HW120105   4.079   0.152   6.387  0.7693 -0.1857  1.7091
 2824SOL    HW220106   3.964   0.132   6.484 -1.0388 -0.4484 -0.0573
 2825SOL     OW20107   3.719   0.164   3.804  0.2009  0.0450 -0.5041
 2825SOL    HW120108   3.624   0.149   3.807  0.2024  0.4167  1.3763
 2825SOL    HW220109   3.754   0.082   3.839 -0.1727  0.0333 -0.1507
 2826SOL     OW20110   1.863   3.731   6.707  0.5334 -0.4746 -0.2254
 2826SOL    HW120111   1.934   3.705   6.648  0.8348  1.0412 -0.5348
 2826SOL    HW220112   1.794   3.714   6.643  0.3423 -1.3864  0.2147
 2827SOL     OW20113   4.282   3.358   6.912  0.0381  0.2177 -0.2150
 2827SOL    HW120114   4.312   3.400   6.992 -2.6502  0.5894  0.6125
 2827SOL    HW220115   4.213   3.299   6.945  1.0468 -0.2680  1.0267
 2828SOL     OW20116   3.575   3.110  14.963  0.2918 -0.0582 -0.4303
 2828SOL    HW120117   3.600   3.201  14.946  1.4529 -0.3134 -0.0879
 2828SOL    HW220118   3.658   3.065  14.947  0.0904 -1.1310  1.4592
 2829SOL     OW20119   1.067   0.103  15.620 -0.0206 -0.2197  0.5758
 2829SOL    HW120120   0.994   0.140  15.668 -0.5578  1.6435 -1.7046
 2829SOL    HW220121   1.118   0.181  15.602  0.1954  0.0845  2.5879
 2830SOL     OW20122   1.441   4.228   3.812 -0.0233 -0.4932 -1.0172
 2830SOL    HW120123   1.429   4.139   3.845  0.8105 -0.6384 -1.1181
 2830SOL    HW220124   1.396   4.223   3.727  0.6002  0.5581 -1.4091
 2831SOL     OW20125   1.550   0.837   8.632  0.2836 -0.3103  0.1124
 2831SOL    HW120126   1.517   0.748   8.641  2.2792 -1.0897 -0.4177
 2831SOL    HW220127   1.576   0.846   8.724  1.2124  0.0238 -0.1775
 2832SOL     OW20128   2.365   2.577   4.285 -0.3374 -0.4705 -0.0196
 2832SOL    HW120129   2.426   2.560   4.356 -3.1239  0.2207  2.5284
 2832SOL    HW220130   2.296   2.523   4.323 -0.8948  1.3383  1.5355
 2833SOL     OW20131   1.325   4.375  14.901 -0.0886 -0.5513 -0.6588
 2833SOL    HW120132   1.339   4.460  14.858  2.9120 -0.5937  0.2556
 2833SOL    HW220133   1.293   4.332  14.822 -3.6448 -0.1315  0.5633
 2834SOL     OW20134   0.577   4.103   6.089  0.1899  0.6420 -0.1656
 2834SOL    HW120135   0.499   4.155   6.110  0.2829 -0.0479  1.9284
 2834SOL    HW220136   0.549   4.014   6.109  1.5042  0.1750 -0.3725
 2835SOL     OW20137   4.294   1.475   8.505  0.0861  0.3651 -0.4082
 2835SOL    HW120138   4.206   1.503   8.530 -0.9505 -2.0664 -1.2860
 2835SOL    HW220139   4.285   1.432   8.419 -0.5075 -0.1856 -0.0736
 2836SOL     OW20140   0.145   4.261   5.837 -0.4095 -0.3729  0.7401
 2836SOL    HW120141   0.167   4.174   5.806 -0.8626  0.2422 -1.2735
 2836SOL    HW220142   0.057   4.244   5.871 -1.8232  1.7643 -1.8596
 2837SOL     OW20143   1.865   2.726   0.479  0.4264  0.4479 -0.1162
 2837SOL    HW120144   1.908   2.790   0.535  0.1787 -0.8628  1.5550
 2837SOL    HW220145   1.921   2.729   0.401  2.5734 -2.2345  1.3390
 2838SOL     OW20146   3.018   2.542   0.484  0.5568 -0.4406 -0.2260
 2838SOL    HW120147   3.086   2.603   0.456 -1.1199  1.3221 -0.4323
 2838SOL    HW220148   3.062   2.497   0.555 -1.5025 -1.9802  0.0850
 2839SOL     OW20149   4.096   3.207   7.518 -0.4661  0.0846  0.3454
 2839SOL    HW120150   4.159   3.171   7.580  0.9996  1.5205 -0.2864
 2839SOL    HW220151   4.166   3.217   7.453 -3.7936  4.7178 -2.5635
 2840SOL     OW20152   0.355   4.671   3.013  0.4535  0.0761 -0.2611
 2840SOL    HW120153   0.357   0.026   2.996  1.8124  0.1975  0.5723
 2840SOL    HW220154   0.436   4.634   2.979 -0.2531 -1.7410  0.0420
 2841SOL     OW20155   0.259   2.012   7.991 -0.1895 -0.2189 -0.5477
 2841SOL    HW120156   0.355   2.016   7.999 -0.1022 -0.1568 -1.5833
 2841SOL    HW220157   0.241   2.106   7.993 -0.6751 -0.3480  0.9606
 2842SOL     OW20158   2.734   3.197   7.448 -0.7777 -0.6288 -0.1528
 2842SOL    HW120159   2.733   3.111   7.490  1.6382  0.9109  3.0785
 2842SOL    HW220160   2.764   3.164   7.363 -1.8146  3.2920 -2.0334
 2843SOL     OW20161   1.060   0.610   7.193  0.1158  0.4443 -0.5600
 2843SOL    HW120162   1.091   0.676   7.131 -0.2901  2.4230  1.3312
 2843SOL    HW220163   1.017   0.668   7.256  3.7968  2.2625  0.3069
 2844SOL     OW20164   4.328   2.240  16.295 -0.0827  0.1271 -0.1247
 2844SOL    HW120165   4.350   2.318  16.243 -1.2254  1.0260  0.7232
 2844SOL    HW220166   4.283   2.186  16.230 -0.5245  0.7117 -0.3108
 2845SOL     OW20167   1.870   1.788  10.582  0.2462 -0.2847  0.3741
 2845SOL    HW120168   1.796   1.843  10.558 -0.5452 -0.9252  1.3581
 2845SOL    HW220169   1.824   1.715  10.624 -0.9679 -0.3390 -1.0236
 2846SOL     OW20170   3.940   0.914  13.525 -0.1758 -0.2136  0.5795
 2846SOL    HW120171   3.845   0.915  13.513 -0.1779 -0.5191  0.5730
 2846SOL    HW220172   3.959   0.836  13.472  0.6351  0.6234 -0.3693
 2847SOL     OW20173   2.781   1.447   6.799  0.0048  0.6691 -0.8735
 2847SOL    HW120174   2.800   1.396   6.878  0.1779  1.3194 -0.4915
 2847SOL    HW220175   2.766   1.388   6.726  0.0731  0.0009 -0.3518
 2848SOL     OW20176   0.961   1.041   3.807 -0.2821  0.1630  0.4165
 2848SOL    HW120177   1.027   1.049   3.738  3.0811 -0.5185  3.5489
 2848SOL    HW220178   1.003   1.078   3.885  0.3436  1.4288 -0.5188
 2849SOL     OW20179   1.724   2.434   6.720  0.6341 -0.6061  0.2389
 2849SOL    HW120180   1.749   2.344   6.702 -0.8311 -0.5098 -2.2870
 2849SOL    HW220181   1.651   2.416   6.779  0.3101  0.1290  0.0636
 2850SOL     OW20182   1.682   2.539  17.687  0.5315  0.1661  0.4121
 2850SOL    HW120183   1.695   2.549   0.026  1.3428  1.3208  0.1819
 2850SOL    HW220184   1.615   2.470  17.688  0.3660  0.3003 -1.0860
 2851SOL     OW20185   0.760   3.603   0.876  0.1971  0.7250 -0.3293
 2851SOL    HW120186   0.805   3.530   0.919  0.0426  0.5609 -0.4474
 2851SOL    HW220187   0.784   3.679   0.929  0.7164  0.5601 -0.3294
 2852SOL     OW20188   0.242   0.550   0.578 -0.5122  0.0942 -0.2629
 2852SOL    HW120189   0.226   0.478   0.639 -0.0926 -0.0345 -0.3047
 2852SOL    HW220190   0.332   0.576   0.596 -0.3091 -0.6720 -0.1749
 2853SOL     OW20191   2.950   1.871   1.461  0.2885  0.4147  0.0038
 2853SOL    HW120192   2.886   1.835   1.522  1.8224 -1.2027  0.6622
 2853SOL    HW220193   2.951   1.797   1.401  0.0906  0.0921  0.3945
 2854SOL     OW20194   4.410   0.980   2.853  0.8160  0.3669 -0.6165
 2854SOL    HW120195   4.488   0.929   2.832  0.8911  0.6750 -1.0869
 2854SOL    HW220196   4.445   1.067   2.867 -1.7700  1.2404  0.4756
 2855SOL     OW20197   1.290   0.942   3.948 -0.6448 -0.3023 -0.2883
 2855SOL    HW120198   1.245   1.021   3.976 -0.5867 -0.5372  0.4548
 2855SOL    HW220199   1.379   0.963   3.976  0.8346 -4.1011 -2.0529
 2856SOL     OW20200   1.324   3.133   7.924  0.2336 -0.1378  0.4180
 2856SOL    HW120201   1.248   3.099   7.972 -0.2429  0.0556 -0.2046
 2856SOL    HW220202   1.288   3.157   7.838 -1.5175 -2.0022  0.6443
 2857SOL     OW20203   0.492   3.480  17.555  0.3482 -0.2981  0.3989
 2857SOL    HW120204   0.527   3.420  17.621  3.7055 -1.6317 -2.6061
 2857SOL    HW220205   0.561   3.486  17.489 -0.1778  2.2004  0.0847
 2858SOL     OW20206   2.318   1.751  17.525 -0.2982 -0.3814  0.2303
 2858SOL    HW120207   2.263   1.708  17.459 -4.3009  2.0445  2.0764
 2858SOL    HW220208   2.293   1.697  17.600 -0.3811 -1.0800 -0.2913
 2859SOL     OW20209   4.661   4.166   6.786  0.0166 -0.3138  0.2238
 2859SOL    HW120210   4.736   4.199   6.836  1.5639  0.3446 -2.5294
 2859SOL    HW220211   4.590   4.140   6.845 -0.6106 -0.2610 -0.5124
 2860SOL     OW20212   3.961   1.367  17.626  0.2534 -0.3643  0.4383
 2860SOL    HW120213   3.981   1.457  17.601  1.1372 -0.4736  0.7743
 2860SOL    HW220214   4.032   1.356  17.688  0.5511  0.9679  0.3329
 2861SOL     OW20215   0.316   0.376  14.509  0.0502 -0.1555 -0.0283
 2861SOL    HW120216   0.365   0.424  14.576  0.9727 -1.4687  0.2471
 2861SOL    HW220217   0.224   0.395  14.524  0.5530  1.2991  1.1810
 2862SOL     OW20218   0.296   1.421  14.254  0.0528 -0.2324 -0.0094
 2862SOL    HW120219   0.227   1.457  14.199  0.4474 -1.7061 -1.4658
 2862SOL    HW220220   0.307   1.339  14.206 -0.7830  0.6049 -1.6360
 2863SOL     OW20221   2.704   1.545   5.842 -0.6134 -0.4348 -0.0243
 2863SOL    HW120222   2.675   1.634   5.862  2.5842 -0.0784  2.9495
 2863SOL    HW220223   2.617   1.504   5.838 -0.5767 -0.7487  2.1345
 2864SOL     OW20224   1.163   0.900   9.183  0.0468  0.4207 -0.4391
 2864SOL    HW120225   1.108   0.822   9.174  0.4016  0.5093 -3.5367
 2864SOL    HW220226   1.232   0.884   9.118  0.6526 -0.1179  0.3285
 2865SOL     OW20227   0.679   4.170   3.556  0.0038 -0.7986  0.0209
 2865SOL    HW120228   0.615   4.207   3.496 -0.4792 -0.1385  0.9388
 2865SOL    HW220229   0.717   4.105   3.497  1.0356 -0.5358  0.3994
 2866SOL     OW20230   4.563   1.037   9.241 -0.0018 -0.5349 -0.0897
 2866SOL    HW120231   4.542   1.067   9.153 -0.4670  1.8556  0.8444
 2866SOL    HW220232   4.647   0.998   9.219  1.6953  1.2100  3.4447
 2867SOL     OW20233   2.705   2.599   7.954 -0.4689  0.1547  0.1149
 2867SOL    HW120234   2.708   2.510   7.919  2.2680 -0.0023  0.7278
 2867SOL    HW220235   2.612   2.617   7.944 -0.5564 -0.3758 -0.0335
 2868SOL     OW20236   2.554   0.081   8.011  0.0064  0.3253 -0.1523
 2868SOL    HW120237   2.550   4.731   8.045 -1.2848  0.8208  0.9690
 2868SOL    HW220238   2.550   0.061   7.918  0.1264  2.4835 -0.6233
 2869SOL     OW20239   1.431   3.604   1.509 -0.5512  0.2348 -0.0537
 2869SOL    HW120240   1.411   3.541   1.439 -1.8320  1.4069 -0.7299
 2869SOL    HW220241   1.381   3.675   1.471 -1.1235 -0.1441 -0.0084
 2870SOL     OW20242   2.586   4.604   5.894 -0.6101  0.8584 -0.0249
 2870SOL    HW120243   2.676   4.618   5.922 -0.8549 -0.1742  1.2840
 2870SOL    HW220244   2.582   4.683   5.840  1.9079  3.5296  3.7070
 2871SOL     OW20245   3.089   1.010   2.522 -0.0628 -0.0373  0.0682
 2871SOL    HW120246   3.061   0.943   2.585  0.1854 -0.4142 -0.2278
 2871SOL    HW220247   3.049   1.082   2.572 -0.4750  0.6197 -1.2164
 2872SOL     OW20248   4.597   4.654   3.418  0.0215  0.3863  0.7805
 2872SOL    HW120249   4.514   4.623   3.455 -1.2032  2.0922 -0.5234
 2872SOL    HW220250   4.570   4.641   3.327 -1.0675 -0.1699  1.1756
 2873SOL     OW20251   0.067   1.198   3.726  0.3169  0.1424  0.7414
 2873SOL    HW120252   0.105   1.158   3.805  1.7514  2.4389  1.2204
 2873SOL    HW220253   0.029   1.122   3.682  3.5991 -1.5202  0.7730
 2874SOL     OW20254   3.467   4.309  14.237 -0.3173  0.3836  0.5921
 2874SOL    HW120255   3.553   4.349  14.222 -1.2283  1.6201 -1.2530
 2874SOL    HW220256   3.411   4.368  14.186 -2.1637 -1.5121  0.4298
 2875SOL     OW20257   2.186   1.136  14.228  0.8906  0.0587  0.1818
 2875SOL    HW120258   2.247   1.128  14.301 -2.1251  0.3518  2.7358
 2875SOL    HW220259   2.121   1.189  14.274  0.2896  1.5654 -2.4452
 2876SOL     OW20260   3.349   1.842  11.809  0.6550 -0.3779 -0.5390
 2876SOL    HW120261   3.278   1.857  11.871 -0.4835 -0.8776 -1.7297
 2876SOL    HW220262   3.351   1.747  11.815 -0.7098 -0.4675 -1.5741
 2877SOL     OW20263   1.005   0.406   6.874  0.3003  0.4502  0.5385
 2877SOL    HW120264   0.983   0.318   6.843  3.9412  0.3721 -1.8581
 2877SOL    HW220265   1.079   0.428   6.817 -0.2615 -1.0877 -0.8036
 2878SOL     OW20266   2.873   2.983   3.217  0.7452  0.6256 -0.3606
 2878SOL    HW120267   2.833   2.905   3.177  0.8355  0.2751  0.2301
 2878SOL    HW220268   2.797   3.037   3.239  1.6614  2.1260 -0.8779
 2879SOL     OW20269   2.850   4.572   5.956 -0.2593 -0.1580  0.1748
 2879SOL    HW120270   2.896   4.653   5.979 -0.0393 -0.5639  1.1473
 2879SOL    HW220271   2.882   4.511   6.022 -0.6482 -1.4828 -0.8762
 2880SOL     OW20272   3.305   3.152   1.564 -0.2889  0.2273 -0.5715
 2880SOL    HW120273   3.252   3.073   1.571 -2.3090  1.4121 -2.3666
 2880SOL    HW220274   3.372   3.118   1.624 -0.4690  1.0340  0.0948
 2881SOL     OW20275   2.200   1.733   2.590 -0.2536  0.2347  0.0531
 2881SOL    HW120276   2.198   1.730   2.686 -1.2804 -1.6565 -0.0168
 2881SOL    HW220277   2.264   1.663   2.575  2.1948  2.8938 -1.7981
 2882SOL     OW20278   2.093   4.647   3.142 -0.4526  0.5691  0.0038
 2882SOL    HW120279   2.172   4.700   3.131 -1.2034  2.0663  1.8449
 2882SOL    HW220280   2.109   4.614   3.231  0.8022  0.7117 -0.1659
 2883SOL     OW20281   3.288   4.237   8.803  0.2523  0.1976  0.0049
 2883SOL    HW120282   3.330   4.197   8.879  1.2700  0.9653 -0.1550
 2883SOL    HW220283   3.205   4.271   8.837  0.9788  2.0347 -0.1051
 2884SOL     OW20284   0.078   2.105   1.605 -0.2302  0.7774 -0.2849
 2884SOL    HW120285   0.146   2.060   1.655  0.3683  0.6811 -1.1820
 2884SOL    HW220286   0.133   2.160   1.550 -1.3036  2.8572  0.7270
 2885SOL     OW20287   1.748   1.664   5.982  0.0456 -0.1058 -0.2577
 2885SOL    HW120288   1.749   1.705   6.068  1.0466 -0.1632 -0.2392
 2885SOL    HW220289   1.843   1.655   5.971  0.0672 -0.0958 -0.0843
 2886SOL     OW20290   3.148   3.670   3.345 -0.1959  0.0881  0.0802
 2886SOL    HW120291   3.144   3.587   3.299 -3.5493  1.3587 -1.8684
 2886SOL    HW220292   3.235   3.665   3.384  0.6484  3.4996 -1.3510
 2887SOL     OW20293   3.511   2.865   2.155  0.2006  0.2382 -0.0686
 2887SOL    HW120294   3.475   2.852   2.067 -0.8141 -1.5963  0.6180
 2887SOL    HW220295   3.482   2.955   2.171  0.8885  0.4651 -0.0890
 2888SOL     OW20296   0.382   3.193  17.751  0.4488  0.3673  0.1068
 2888SOL    HW120297   0.456   3.251  17.732  0.7769 -0.2576 -0.5424
 2888SOL    HW220298   0.397   3.190   0.091  0.0432  1.5761  0.2075
 2889SOL     OW20299   0.934   4.161  11.957  0.4969 -0.2134 -0.4348
 2889SOL    HW120300   0.863   4.147  11.895  1.6800 -2.7503 -1.2298
 2889SOL    HW220301   0.906   4.245  11.994  1.3631  0.6497 -1.7379
 2890SOL     OW20302   4.629   2.615   7.335 -0.1363  0.0066  0.2124
 2890SOL    HW120303   4.550   2.669   7.334 -0.8199 -1.0304 -1.0733
 2890SOL    HW220304   4.613   2.547   7.270 -1.3646  1.5801 -1.1506
 2891SOL     OW20305   1.571   0.112  13.142 -0.1595  0.1471  0.0391
 2891SOL    HW120306   1.548   0.176  13.074  1.0767 -0.6588 -1.1510
 2891SOL    HW220307   1.536   0.031  13.104 -1.5014  2.1245 -2.9739
 2892SOL     OW20308   3.487   3.699   4.115 -0.1651 -0.5496  0.5620
 2892SOL    HW120309   3.463   3.633   4.050  1.0966  0.5632 -1.0196
 2892SOL    HW220310   3.568   3.729   4.075 -0.2165  0.1485  0.9812
 2893SOL     OW20311   2.075   3.072   6.967  0.7226  0.3741 -0.0179
 2893SOL    HW120312   1.997   3.128   6.960  2.3378  2.3782 -2.0357
 2893SOL    HW220313   2.126   3.127   6.908  0.2467  1.2539  0.3855
 2894SOL     OW20314   0.610   1.954  15.913 -0.0796  0.3229  0.5254
 2894SOL    HW120315   0.688   1.901  15.897  0.2420  0.4302  1.7547
 2894SOL    HW220316   0.616   2.019  15.843 -3.2576 -0.3297 -0.3402
 2895SOL     OW20317   3.800   1.267   7.688 -0.3787  0.5672 -0.2676
 2895SOL    HW120318   3.842   1.249   7.773 -0.9435  0.8113  0.0656
 2895SOL    HW220319   3.746   1.190   7.670 -0.8925  1.2601 -1.6476
 2896SOL     OW20320   2.741   3.211  15.007  0.3514 -0.2615 -0.1184
 2896SOL    HW120321   2.722   3.272  15.079 -1.1292  0.4543 -1.1204
 2896SOL    HW220322   2.722   3.263  14.929 -1.2586 -1.9702 -0.8519
 2897SOL     OW20323   0.230   2.527   9.687  0.2766  0.0011  0.0498
 2897SOL    HW120324   0.223   2.596   9.753  0.0280 -1.1039  1.1661
 2897SOL    HW220325   0.252   2.588   9.616  1.3408  0.4854  0.7940
 2898SOL     OW20326   2.447   1.296  17.132  0.6928  0.3585 -0.2751
 2898SOL    HW120327   2.448   1.391  17.140 -0.1781  0.3841 -0.4816
 2898SOL    HW220328   2.497   1.276  17.212  1.7929  1.3715 -0.7198
 2899SOL     OW20329   0.673   4.318   8.423 -0.1597  0.3915  0.4957
 2899SOL    HW120330   0.661   4.352   8.335 -0.4070  1.3489  0.9008
 2899SOL    HW220331   0.627   4.235   8.413 -2.4328  1.6451  0.7338
 2900SOL     OW20332   3.992   2.338   4.183  0.0617 -0.1198  0.3891
 2900SOL    HW120333   3.942   2.270   4.229  0.6453  0.2561  1.5744
 2900SOL    HW220334   4.072   2.336   4.236 -0.0964  0.1354  0.6369
 2901SOL     OW20335   1.798   1.607   7.315  0.7215  0.0076 -0.1998
 2901SOL    HW120336   1.841   1.525   7.291  0.1750 -0.5452  0.7509
 2901SOL    HW220337   1.726   1.573   7.366  1.9076  0.3958  1.7199
 2902SOL     OW20338   2.865   1.769   9.420  0.0867  0.5189  0.4403
 2902SOL    HW120339   2.931   1.820   9.373 -0.6389 -1.1668 -2.4033
 2902SOL    HW220340   2.896   1.679   9.420  1.1430  0.8710  2.4629
 2903SOL     OW20341   2.921   1.338   1.039 -0.0005  0.0024 -0.4461
 2903SOL    HW120342   2.888   1.428   1.033 -1.3123 -0.4738 -0.4803
 2903SOL    HW220343   2.943   1.348   1.132  0.3959  1.7696 -0.7249
 2904SOL     OW20344   1.062   0.404   1.906  0.0806  0.3273 -0.7732
 2904SOL    HW120345   1.042   0.311   1.910 -1.4141  0.5883 -1.8074
 2904SOL    HW220346   0.979   0.441   1.938 -0.3158  0.4248 -1.9035
 2905SOL     OW20347   3.988   4.147   5.067  0.3935  0.5882 -0.1704
 2905SOL    HW120348   4.006   4.205   5.141 -0.8851 -0.2942  0.8284
 2905SOL    HW220349   3.937   4.087   5.122 -0.9395  0.9756 -0.9694
 2906SOL     OW20350   1.192   1.672  11.925 -0.7617  0.3484 -0.0422
 2906SOL    HW120351   1.134   1.669  11.849 -1.0648  1.1187  0.1589
 2906SOL    HW220352   1.135   1.717  11.988  1.2470  0.3023  1.8067
 2907SOL     OW20353   1.438   0.600   6.242  0.6703  0.0021 -0.0605
 2907SOL    HW120354   1.520   0.645   6.222  0.5753  0.6708  1.0298
 2907SOL    HW220355   1.407   0.560   6.161  3.1265 -2.3012  0.1441
 2908SOL     OW20356   1.799   1.881   7.228 -0.0244  0.2476 -0.7125
 2908SOL    HW120357   1.804   1.791   7.261  1.7058  0.3277 -0.7446
 2908SOL    HW220358   1.892   1.900   7.220 -0.1356  0.1164 -2.2913
 2909SOL     OW20359   2.688   2.136   1.386 -0.3561 -0.3721  0.2484
 2909SOL    HW120360   2.728   2.142   1.473  1.5209  1.0562 -0.7237
 2909SOL    HW220361   2.758   2.185   1.343 -1.8173  1.8680  0.4289
 2910SOL     OW20362   2.000   3.191   5.447  0.2927 -0.4477  0.6370
 2910SOL    HW120363   1.912   3.165   5.473  0.8343 -1.8980  1.0375
 2910SOL    HW220364   2.042   3.106   5.435  1.1811  0.2186 -0.9327
 2911SOL     OW20365   2.100   0.358   6.285  1.0097  0.3313 -0.5844
 2911SOL    HW120366   2.077   0.278   6.332  0.4633  0.1441 -1.1738
 2911SOL    HW220367   2.188   0.367   6.322 -0.0719 -1.4922  2.4786
 2912SOL     OW20368   3.644   1.728   3.751  0.0845 -0.4926  0.5151
 2912SOL    HW120369   3.647   1.788   3.676  1.6641 -1.0073  0.1779
 2912SOL    HW220370   3.637   1.649   3.698 -1.1142  1.4423 -2.2601
 2913SOL     OW20371   4.355   0.669   3.826 -0.1776  0.4567  0.4835
 2913SOL    HW120372   4.386   0.651   3.915  1.2661  0.4352 -0.0198
 2913SOL    HW220373   4.356   0.577   3.797  1.3657  1.1536 -1.6982
 2914SOL     OW20374   4.403   4.013   0.365  0.3208 -0.6394  0.4520
 2914SOL    HW120375   4.495   3.986   0.356  0.2420 -1.1010  1.0102
 2914SOL    HW220376   4.382   3.964   0.445  0.4076 -0.0680  0.8255
 2915SOL     OW20377   0.596   1.988   5.976  0.7278 -0.2299  0.0221
 2915SOL    HW120378   0.681   2.003   5.935 -0.9404  0.9121 -2.9852
 2915SOL    HW220379   0.622   1.921   6.040  0.5910 -1.1447 -0.8939
 2916SOL     OW20380   1.079   1.380   9.305  0.1062 -0.3958 -0.2884
 2916SOL    HW120381   1.151   1.318   9.314 -0.5784 -1.0605  0.5412
 2916SOL    HW220382   1.004   1.323   9.325 -1.5367  2.1749  0.8840
 2917SOL     OW20383   0.996   3.846   3.301  0.2657 -0.2240 -0.0124
 2917SOL    HW120384   1.076   3.857   3.353  0.1268 -1.4148  0.4422
 2917SOL    HW220385   0.936   3.818   3.369 -1.5279  2.1542 -0.6079
 2918SOL     OW20386   2.845   1.504   3.745  0.5945  0.3471 -0.1961
 2918SOL    HW120387   2.897   1.430   3.712  0.4857  0.4701 -0.6341
 2918SOL    HW220388   2.895   1.583   3.723  1.8714 -0.7087 -1.1017
 2919SOL     OW20389   2.349   1.887   1.726 -0.3400  0.1463  0.6360
 2919SOL    HW120390   2.297   1.807   1.731 -1.9214  1.2946  2.3796
 2919SOL    HW220391   2.327   1.910   1.636 -1.7048  1.0833  1.2187
 2920SOL     OW20392   0.717   0.555   7.811 -0.4368 -0.0751 -0.1391
 2920SOL    HW120393   0.649   0.582   7.873  1.3056  0.3842  1.5663
 2920SOL    HW220394   0.690   0.465   7.792  1.4051 -0.8956  1.1821
 2921SOL     OW20395   0.377   3.565   0.894  0.2949  0.6360 -0.1923
 2921SOL    HW120396   0.412   3.634   0.838  1.2640 -0.0704 -0.4691
 2921SOL    HW220397   0.286   3.593   0.902  0.2406  0.5540 -0.5140
 2922SOL     OW20398   2.148   3.822   3.084  0.2365  0.3975 -0.4134
 2922SOL    HW120399   2.081   3.780   3.138  0.5906 -0.5654 -0.7208
 2922SOL    HW220400   2.188   3.747   3.040  0.0788  0.4060 -0.5704
 2923SOL     OW20401   2.144   0.289   2.278 -0.4705 -0.0504  0.4527
 2923SOL    HW120402   2.162   0.209   2.326 -1.0981 -1.2068 -1.2362
 2923SOL    HW220403   2.069   0.275   2.220 -2.1088  2.0715  2.0564
 2924SOL     OW20404   2.202   1.403   9.955 -0.0590 -0.2529 -0.0928
 2924SOL    HW120405   2.271   1.380  10.017 -0.1705  0.5704  0.3387
 2924SOL    HW220406   2.141   1.455  10.008  0.2423  2.7820 -2.7397
 2925SOL     OW20407   4.062   2.671  13.895  0.3706  0.4716 -0.4497
 2925SOL    HW120408   4.055   2.662  13.800  0.4609 -0.9450 -0.3256
 2925SOL    HW220409   4.137   2.724  13.922  0.0576 -0.6080  2.5355
 2926SOL     OW20410   0.829   1.140   3.218  0.0937  0.2470  0.4668
 2926SOL    HW120411   0.755   1.150   3.159  1.9121  4.9285 -1.0402
 2926SOL    HW220412   0.864   1.053   3.197  1.7234  1.2969 -1.2054
 2927SOL     OW20413   3.963   3.421  17.074 -0.2134  0.0866  0.2784
 2927SOL    HW120414   4.028   3.472  17.122 -1.9084  1.2970  1.2647
 2927SOL    HW220415   3.919   3.379  17.148 -0.0303 -1.5265 -0.5285
 2928SOL     OW20416   3.411   2.070  16.497 -1.0336  0.7935 -0.1034
 2928SOL    HW120417   3.499   2.039  16.473 -1.2766 -1.5114  1.9192
 2928SOL    HW220418   3.385   2.011  16.567  3.3008  0.6080  1.3898
 2929SOL     OW20419   0.210   3.834   8.577 -0.1319 -0.5761  0.0938
 2929SOL    HW120420   0.239   3.771   8.643  2.1389 -0.4179 -0.7553
 2929SOL    HW220421   0.118   3.807   8.578 -1.3643  3.6031 -0.6001
 2930SOL     OW20422   2.392   1.861   5.345  0.0705  0.2793  0.7060
 2930SOL    HW120423   2.380   1.918   5.269 -0.3693  0.6014  1.0141
 2930SOL    HW220424   2.303   1.867   5.380  0.1245 -2.4057  1.2681
 2931SOL     OW20425   3.379   1.434   3.861  0.4713  0.0603  1.0828
 2931SOL    HW120426   3.344   1.413   3.774  0.7591  0.4909  0.8625
 2931SOL    HW220427   3.298   1.442   3.911  0.4086 -0.3450  1.0461
 2932SOL     OW20428   0.948   4.107   8.708 -0.1939  0.7713  0.2010
 2932SOL    HW120429   0.889   4.082   8.637  0.0699  0.8011 -0.0278
 2932SOL    HW220430   0.968   4.191   8.665 -2.6840  0.7662 -0.9568
 2933SOL     OW20431   0.980   3.398  17.624  0.6949 -0.3626 -0.5886
 2933SOL    HW120432   1.021   3.312  17.616 -2.1695 -1.9664  1.8956
 2933SOL    HW220433   0.931   3.390  17.706 -0.3417  0.2017 -1.1389
 2934SOL     OW20434   1.573   1.000   0.053 -0.1477 -0.2125  0.3424
 2934SOL    HW120435   1.483   1.013   0.023 -0.0918 -2.1199 -0.6936
 2934SOL    HW220436   1.617   1.006  17.722  0.6815 -0.4817  0.7582
 2935SOL     OW20437   3.642   2.522  14.004 -0.2147 -0.2744 -0.5413
 2935SOL    HW120438   3.585   2.515  14.081 -1.4874 -3.5846 -1.8177
 2935SOL    HW220439   3.710   2.575  14.047  0.0340 -1.8781  1.0291
 2936SOL     OW20440   3.751   3.841   7.970 -0.4652 -0.0276  0.6801
 2936SOL    HW120441   3.665   3.860   7.931  0.0046  0.6194 -0.0266
 2936SOL    HW220442   3.742   3.747   7.986 -0.0428 -0.0975  0.5029
 2937SOL     OW20443   0.657   3.746   3.361  0.1550 -0.1355 -0.2321
 2937SOL    HW120444   0.665   3.764   3.267 -0.5435  1.6404  0.0511
 2937SOL    HW220445   0.740   3.700   3.373  0.2256  0.4157  1.4320
 2938SOL     OW20446   2.133   0.255   5.736 -0.2063 -0.0109 -0.1285
 2938SOL    HW120447   2.041   0.236   5.750  0.1671 -1.7501 -0.0567
 2938SOL    HW220448   2.123   0.349   5.752 -0.3973 -0.3448  1.6292
 2939SOL     OW20449   1.418   4.074   7.229  0.2717  0.3045 -0.3323
 2939SOL    HW120450   1.478   4.005   7.201 -0.5081 -0.6571  0.4069
 2939SOL    HW220451   1.459   4.104   7.310  0.6190 -2.3709  0.4628
 2940SOL     OW20452   4.239   2.227  17.249  0.3735 -0.1729 -0.4515
 2940SOL    HW120453   4.208   2.209  17.161 -1.5024 -0.1935  0.2083
 2940SOL    HW220454   4.290   2.146  17.258 -0.1461 -0.2912  1.5001
 2941SOL     OW20455   1.635   2.641  10.869 -0.1214  0.1293 -0.1977
 2941SOL    HW120456   1.715   2.692  10.856 -0.3994  0.4533 -0.6523
 2941SOL    HW220457   1.616   2.624  10.776 -1.1663  0.8668 -0.1171
 2942SOL     OW20458   4.338   4.031  14.654 -0.5748 -0.0582  0.5612
 2942SOL    HW120459   4.375   4.072  14.732 -1.0061  0.8382  0.3058
 2942SOL    HW220460   4.365   4.100  14.594  1.0604 -2.9439 -2.0138
 2943SOL     OW20461   4.488   3.544  10.920  0.1454  0.2760 -0.4286
 2943SOL    HW120462   4.426   3.473  10.909  0.4459 -0.5184  2.9356
 2943SOL    HW220463   4.562   3.536  10.860  0.9424  1.4291  0.3954
 2944SOL     OW20464   2.672   0.001   2.250  0.1542 -0.1235  0.5172
 2944SOL    HW120465   2.716   0.060   2.189 -0.2276  0.3773  0.7251
 2944SOL    HW220466   2.593   0.054   2.260  0.2218  0.2804 -1.0485
 2945SOL     OW20467   3.885   2.475   3.750  0.0731 -0.0455  0.0667
 2945SOL    HW120468   3.942   2.430   3.812 -0.1574 -0.5206 -0.0641
 2945SOL    HW220469   3.909   2.415   3.679 -1.7378 -0.8160  0.0936
 2946SOL     OW20470   3.652   2.989   3.133  0.1047 -0.8026  0.1466
 2946SOL    HW120471   3.573   3.014   3.086  0.0555  3.1762  2.3220
 2946SOL    HW220472   3.694   2.921   3.081 -2.7446 -2.7634  0.3976
 2947SOL     OW20473   1.830   3.982   1.117 -0.4943 -0.0337  0.3267
 2947SOL    HW120474   1.909   3.972   1.065 -0.2044  2.3245  0.2915
 2947SOL    HW220475   1.834   4.077   1.131 -0.7307  0.2824 -1.6931
 2948SOL     OW20476   3.400   2.247   1.078 -0.1836  0.2488  0.5082
 2948SOL    HW120477   3.362   2.192   1.009 -0.1323 -1.7590  2.0950
 2948SOL    HW220478   3.448   2.308   1.021  2.4533 -1.4446  0.8826
 2949SOL     OW20479   3.102   3.545   4.706 -0.3079 -0.7329  0.2161
 2949SOL    HW120480   3.074   3.628   4.667  0.8246 -0.0502  0.8642
 2949SOL    HW220481   3.025   3.491   4.687  0.4974 -2.7841  2.9225
 2950SOL     OW20482   1.590   4.368   4.637 -0.1957  0.4870 -0.4820
 2950SOL    HW120483   1.528   4.309   4.595  0.9129  0.1404 -1.6382
 2950SOL    HW220484   1.566   4.359   4.729 -0.7320  3.5258 -0.2993
 2951SOL     OW20485   1.737   2.334   7.249 -1.0334  0.1267 -0.6693
 2951SOL    HW120486   1.740   2.243   7.217 -1.2609 -0.2805  0.4793
 2951SOL    HW220487   1.780   2.379   7.176  0.0330 -0.1737 -0.2314
 2952SOL     OW20488   4.305   2.166   0.427 -0.1420  0.3266  0.6933
 2952SOL    HW120489   4.286   2.218   0.349  1.0559 -1.0657 -0.5094
 2952SOL    HW220490   4.341   2.233   0.485  2.3279  0.4369 -0.9644
 2953SOL     OW20491   0.274   3.985   4.253 -0.1428  0.1744 -0.6853
 2953SOL    HW120492   0.287   4.016   4.343  1.9388  0.3105 -1.0339
 2953SOL    HW220493   0.195   3.933   4.268 -0.6259  0.6542 -1.5439
 2954SOL     OW20494   4.181   1.368   7.020 -0.3028 -0.3364 -0.3417
 2954SOL    HW120495   4.208   1.405   7.104  0.5102 -0.2940 -0.6254
 2954SOL    HW220496   4.125   1.443   7.001  0.9270  0.8880  0.8586
 2955SOL     OW20497   4.614   3.895   1.018  0.0815 -0.2471  0.5097
 2955SOL    HW120498   4.700   3.934   1.006 -0.7262  0.6714 -2.2607
 2955SOL    HW220499   4.634   3.805   1.040  2.7002  0.6793  1.8475
 2956SOL     OW20500   2.563   2.142  15.330  0.2197  0.1104 -0.4000
 2956SOL    HW120501   2.525   2.123  15.245  0.0347 -0.8946 -0.0889
 2956SOL    HW220502   2.493   2.099  15.380 -1.0718 -0.0541 -2.3290
 2957SOL     OW20503   2.340   3.679   6.864  0.8886  0.3731  0.5274
 2957SOL    HW120504   2.399   3.694   6.791  1.5364 -2.0528  0.5448
 2957SOL    HW220505   2.265   3.650   6.813 -0.2492  0.2323  2.2734
 2958SOL     OW20506   3.379   2.911   5.332 -0.1321  0.1695 -0.6548
 2958SOL    HW120507   3.448   2.847   5.347 -1.7991 -1.4211  0.2012
 2958SOL    HW220508   3.351   2.926   5.422  0.9817  1.3515 -0.5136
 2959SOL     OW20509   2.874   4.059  13.640 -0.0995  0.5827 -0.4840
 2959SOL    HW120510   2.821   4.029  13.566 -0.1827  0.7350 -0.4848
 2959SOL    HW220511   2.871   4.154  13.629 -1.3985  0.4127 -1.6071
 2960SOL     OW20512   2.846   0.519  16.465 -0.3581 -0.3527  0.0592
 2960SOL    HW120513   2.808   0.434  16.487  1.3015 -0.7535  1.3334
 2960SOL    HW220514   2.856   0.578  16.539 -1.1040 -1.5916  1.1419
 2961SOL     OW20515   1.014   1.705  11.667 -0.1427  0.0748  0.5947
 2961SOL    HW120516   0.951   1.640  11.636  0.0291 -0.9696  2.4314
 2961SOL    HW220517   0.958   1.783  11.674 -1.5040 -0.9160  0.8472
 2962SOL     OW20518   4.428   3.077   7.130  0.3230  0.0712 -0.1480
 2962SOL    HW120519   4.454   2.985   7.136 -0.7386 -0.2254 -0.0240
 2962SOL    HW220520   4.480   3.105   7.055 -0.4871  1.4837 -0.1720
 2963SOL     OW20521   0.593   3.658   9.418 -0.0859  0.5003  0.0439
 2963SOL    HW120522   0.512   3.709   9.418 -1.3600 -1.5252  0.0890
 2963SOL    HW220523   0.582   3.614   9.502  1.1305  1.3302  0.6357
 2964SOL     OW20524   1.821   4.727   3.191 -0.3837 -0.0957  0.1464
 2964SOL    HW120525   1.909   4.731   3.154 -0.4004  0.8119  0.2052
 2964SOL    HW220526   1.840   4.699   3.280  0.5341 -0.0634 -0.0429
 2965SOL     OW20527   1.405   2.089   5.698  1.0232 -0.3488  0.5850
 2965SOL    HW120528   1.335   2.078   5.763 -0.1145  0.3411 -0.5285
 2965SOL    HW220529   1.433   2.175   5.732  1.3265 -0.6034  0.9833
 2966SOL     OW20530   4.119   1.642   3.704  0.4294 -0.0945  0.4846
 2966SOL    HW120531   4.124   1.568   3.765 -2.4393 -2.0689 -1.6971
 2966SOL    HW220532   4.175   1.624   3.628  0.3285 -1.4906  0.7418
 2967SOL     OW20533   2.176   0.349   3.321 -0.0443 -0.1072  0.1340
 2967SOL    HW120534   2.208   0.271   3.275  0.3490 -0.9815  1.8975
 2967SOL    HW220535   2.099   0.350   3.264 -0.5349 -0.1266  0.8003
 2968SOL     OW20536   2.365   4.624   6.971 -0.0619  0.0903  0.6030
 2968SOL    HW120537   2.350   4.650   7.062  1.4264 -1.6341  1.3371
 2968SOL    HW220538   2.313   4.545   6.955  1.6689 -0.8038 -0.7007
 2969SOL     OW20539   2.768   4.609   9.538  0.2806 -0.0299  0.8170
 2969SOL    HW120540   2.792   4.698   9.564 -0.6500  0.8661 -1.4197
 2969SOL    HW220541   2.711   4.625   9.462  0.6111 -0.0446  0.5660
 2970SOL     OW20542   2.078   3.283   8.746 -0.2390  0.0069 -0.2610
 2970SOL    HW120543   2.108   3.278   8.655  2.2219  0.1342  0.5446
 2970SOL    HW220544   2.065   3.189   8.758 -0.5486  0.3577  2.0792
 2971SOL     OW20545   1.076   1.784   6.033  0.2108 -0.0124  0.3306
 2971SOL    HW120546   1.138   1.753   6.099  0.1397 -0.9753 -0.0444
 2971SOL    HW220547   1.058   1.698   5.995 -0.4036  1.4567 -2.7300
 2972SOL     OW20548   3.000   0.211  10.386  0.4057 -0.4758 -0.1440
 2972SOL    HW120549   3.025   0.230  10.476 -2.2201 -0.7989  0.6510
 2972SOL    HW220550   3.078   0.243  10.340  0.0026  0.2696 -0.3021
 2973SOL     OW20551   3.276   3.945   4.961 -0.1816 -0.0475 -0.5436
 2973SOL    HW120552   3.235   3.861   4.983 -1.8907  0.2321 -2.7474
 2973SOL    HW220553   3.197   3.996   4.942 -1.5928 -1.1407  2.2571
 2974SOL     OW20554   3.666   1.024   9.378 -0.1128  0.0613  0.1549
 2974SOL    HW120555   3.720   1.052   9.453  0.4194  2.1729 -1.0312
 2974SOL    HW220556   3.586   1.067   9.407  0.2686  0.4432  0.6367
 2975SOL     OW20557   0.020   3.950   9.911 -0.2920  0.2524 -0.0626
 2975SOL    HW120558   0.100   4.004   9.911  0.5076 -0.9156 -0.7030
 2975SOL    HW220559   4.695   4.017   9.934 -0.2933  0.5185 -0.8517
 2976SOL     OW20560   0.139   4.727   3.995 -0.0813 -0.0765 -0.4314
 2976SOL    HW120561   0.109   4.644   4.031  1.3424 -0.8009 -0.9571
 2976SOL    HW220562   0.060   0.036   3.969 -0.6472 -1.3765 -1.1384
 2977SOL     OW20563   3.919   1.911   1.925 -0.3434  0.4497  0.1396
 2977SOL    HW120564   3.993   1.850   1.913 -2.0663 -1.2847 -1.7202
 2977SOL    HW220565   3.855   1.862   1.873 -0.9272 -0.5705  1.8440
 2978SOL     OW20566   3.557   0.581   6.794 -0.9366  0.6110 -0.3669
 2978SOL    HW120567   3.590   0.670   6.786  1.2671 -0.1815 -0.0814
 2978SOL    HW220568   3.482   0.597   6.852 -0.5619  3.0864 -0.5533
 2979SOL     OW20569   1.492   1.225   3.682  0.5050  0.1670  0.6232
 2979SOL    HW120570   1.522   1.299   3.735  0.7490  0.3132  0.2818
 2979SOL    HW220571   1.557   1.225   3.612 -0.4947 -0.0048 -0.3080
 2980SOL     OW20572   2.526   1.129   7.203  0.5925 -0.2617 -0.3062
 2980SOL    HW120573   2.583   1.203   7.182  1.5615 -0.6065  1.0773
 2980SOL    HW220574   2.526   1.137   7.298 -1.0354  0.8344 -0.4136
 2981SOL     OW20575   2.442   1.701   7.749 -0.0399  0.2494  0.2127
 2981SOL    HW120576   2.357   1.732   7.781  0.2904  3.3488 -1.9625
 2981SOL    HW220577   2.458   1.622   7.802 -0.2205 -0.0754 -0.2172
 2982SOL     OW20578   0.831   1.497  11.540 -0.0589 -0.2955  0.2387
 2982SOL    HW120579   0.770   1.486  11.467  0.5716  1.7630 -0.5888
 2982SOL    HW220580   0.786   1.425  11.586 -0.1752  1.0319  2.1840
 2983SOL     OW20581   1.283   1.655   6.173  0.5812 -0.5630  0.4669
 2983SOL    HW120582   1.314   1.673   6.261  0.0208  0.0764  0.5360
 2983SOL    HW220583   1.365   1.639   6.126  0.1597  0.4795 -0.6398
 2984SOL     OW20584   3.528   1.303  15.153  0.2260  0.2142  0.6388
 2984SOL    HW120585   3.568   1.388  15.171  1.6351 -0.5988  1.2745
 2984SOL    HW220586   3.595   1.241  15.179 -0.6131 -0.7302  0.5658
 2985SOL     OW20587   3.803   1.111   6.052 -0.5645 -0.3621 -0.0058
 2985SOL    HW120588   3.821   1.027   6.093  0.6863  0.3104  0.7896
 2985SOL    HW220589   3.835   1.100   5.962 -0.9206  1.4894 -0.3495
 2986SOL     OW20590   2.089   0.931   5.458 -0.6981 -0.2930 -0.1879
 2986SOL    HW120591   2.128   0.889   5.535  0.1209 -0.1342 -0.5187
 2986SOL    HW220592   2.010   0.967   5.498  0.8617  2.6348  0.2978
 2987SOL     OW20593   1.979   2.214  16.031 -0.3747  0.4124 -0.5800
 2987SOL    HW120594   2.037   2.141  16.010  0.2552  0.2632  1.7181
 2987SOL    HW220595   2.040   2.287  16.026 -1.4593  1.3692  0.0530
 2988SOL     OW20596   4.069   1.667   1.929  0.1715  0.3380  0.5911
 2988SOL    HW120597   4.122   1.624   1.997  1.1933  0.0631 -0.3749
 2988SOL    HW220598   4.012   1.595   1.901 -0.8914  0.4366  2.5161
 2989SOL     OW20599   3.127   2.356   2.622 -0.0427  0.0519  0.5419
 2989SOL    HW120600   3.213   2.323   2.594 -1.4160 -2.7180 -0.3846
 2989SOL    HW220601   3.076   2.275   2.623 -1.2289  0.7371 -2.1129
 2990SOL     OW20602   1.645   0.597   2.820  0.1078  0.1378 -0.4186
 2990SOL    HW120603   1.622   0.544   2.896 -0.9151  1.3656  0.1308
 2990SOL    HW220604   1.718   0.546   2.785 -0.9194 -0.8538 -1.1608
 2991SOL     OW20605   0.259   0.469  15.521 -0.0926  0.2406  0.1323
 2991SOL    HW120606   0.207   0.440  15.447  0.6929 -3.0258  0.8571
 2991SOL    HW220607   0.208   0.544  15.551 -0.9421 -0.9797  1.7075
 2992SOL     OW20608   0.909   2.126  10.572  0.5008  0.1786  0.3361
 2992SOL    HW120609   0.856   2.162  10.644 -0.8372  0.0375 -0.5738
 2992SOL    HW220610   0.959   2.200  10.538 -0.8804  1.4889  1.1391
 2993SOL     OW20611   2.952   0.992   7.197  0.0153  0.0179 -0.2235
 2993SOL    HW120612   3.035   0.954   7.171  0.6794  0.3153  1.4997
 2993SOL    HW220613   2.976   1.073   7.241  1.6798 -1.4138  1.4898
 2994SOL     OW20614   0.733   2.591   0.115 -0.0502  0.0708  0.3879
 2994SOL    HW120615   0.755   2.675   0.154 -2.6375  1.3760 -0.9982
 2994SOL    HW220616   0.779   2.581   0.032  2.2794  0.5481  1.6343
 2995SOL     OW20617   2.159   2.476   8.103  0.1093  0.4305 -0.4270
 2995SOL    HW120618   2.103   2.464   8.179  0.6105 -0.0317 -0.1303
 2995SOL    HW220619   2.243   2.486   8.148  0.4744  1.3170 -1.3105
 2996SOL     OW20620   0.370   3.871   4.632  0.0927 -0.2971  0.0279
 2996SOL    HW120621   0.453   3.846   4.673  1.5618  2.1484 -1.4210
 2996SOL    HW220622   0.315   3.796   4.653 -0.4987  0.6377  1.8237
 2997SOL     OW20623   3.432   2.962   3.561  0.1286 -0.6133 -0.4419
 2997SOL    HW120624   3.363   2.896   3.570 -0.0103 -0.2399  1.3857
 2997SOL    HW220625   3.399   3.010   3.485 -0.1631 -1.7191 -1.0123
 2998SOL     OW20626   0.038   4.609   0.448 -0.3003  0.1174 -0.1235
 2998SOL    HW120627   0.078   4.685   0.403 -0.8929 -0.7401 -2.0862
 2998SOL    HW220628   0.113   4.591   0.505  0.1131  3.1085  0.3001
 2999SOL     OW20629   3.897   4.353   8.155 -0.2790 -0.1801  0.7817
 2999SOL    HW120630   3.850   4.280   8.115 -0.0160  0.5829 -0.9302
 2999SOL    HW220631   3.886   4.418   8.086  1.6904  0.1761  0.8047
 3000SOL     OW20632   2.899   4.248   6.442  0.3381 -0.6404  0.3314
 3000SOL    HW120633   2.810   4.264   6.410 -0.3317 -0.9512  2.0434
 3000SOL    HW220634   2.888   4.161   6.480 -1.0732 -2.6952 -4.8082
 3001SOL     OW20635   0.140   3.749  10.581 -0.4870  0.9486 -0.1834
 3001SOL    HW120636   0.094   3.666  10.590 -0.2860  0.9493  0.8048
 3001SOL    HW220637   0.226   3.726  10.615 -0.8375 -1.3997 -0.8761
 3002SOL     OW20638   1.094   4.056   1.485 -0.1420  0.0422 -0.1013
 3002SOL    HW120639   1.003   4.087   1.480 -0.2504 -0.2509  0.0766
 3002SOL    HW220640   1.108   4.061   1.390 -0.5253 -0.4724 -0.1846
 3003SOL     OW20641   0.570   2.270   5.822 -0.1270 -0.1936  0.0469
 3003SOL    HW120642   0.651   2.249   5.869  1.1197  2.2606 -0.9914
 3003SOL    HW220643   0.602   2.290   5.734 -0.5031  0.6846  0.1104
 3004SOL     OW20644   0.260   4.300   8.314  0.2245  0.3834 -0.2727
 3004SOL    HW120645   0.291   4.211   8.327 -0.6035 -0.1224 -1.7606
 3004SOL    HW220646   0.285   4.324   8.225 -1.0089 -0.1060 -0.7422
 3005SOL     OW20647   3.752   1.511   6.990  0.9948 -0.1425  0.3752
 3005SOL    HW120648   3.794   1.573   7.050 -0.6717  0.5102  0.8725
 3005SOL    HW220649   3.670   1.491   7.036  0.0779  0.7941 -0.8382
 3006SOL     OW20650   4.621   3.607   6.743  0.2830 -0.6098  0.2079
 3006SOL    HW120651   4.621   3.663   6.666 -1.7691 -1.3593 -0.3352
 3006SOL    HW220652   4.547   3.643   6.793  0.9102 -0.6975  1.2086
 3007SOL     OW20653   1.345   0.225  13.558  0.0715 -0.5661  0.0060
 3007SOL    HW120654   1.425   0.173  13.550  0.1908 -0.3502 -0.2253
 3007SOL    HW220655   1.340   0.226  13.653  0.1851  1.6990  0.0039
 3008SOL     OW20656   2.629   0.946   8.700 -0.1818  0.5877 -0.2740
 3008SOL    HW120657   2.671   0.908   8.777 -0.7656  0.0489 -0.2267
 3008SOL    HW220658   2.694   0.919   8.635 -0.7452 -0.4451 -0.4150
 3009SOL     OW20659   3.305   2.300   6.290 -0.1010 -0.1010 -0.0801
 3009SOL    HW120660   3.394   2.266   6.295  0.8463  1.6717 -4.7106
 3009SOL    HW220661   3.258   2.240   6.348  1.5562  0.0021  1.3298
 3010SOL     OW20662   4.648   1.021   2.552 -0.3830 -0.8667  0.3487
 3010SOL    HW120663   4.647   1.099   2.607  0.2807 -1.9678  1.9573
 3010SOL    HW220664   0.003   1.025   2.532 -0.8452 -0.7984 -1.7389
 3011SOL     OW20665   2.420   3.004  14.063 -0.2837 -0.0107  0.2734
 3011SOL    HW120666   2.340   2.961  14.032 -0.7670  0.7732  0.4412
 3011SOL    HW220667   2.483   2.974  13.998  0.7229 -0.4860  1.4773
 3012SOL     OW20668   2.208   3.072   2.178 -0.2405 -0.6286  0.4268
 3012SOL    HW120669   2.291   3.084   2.131 -0.0563 -1.0640  0.6476
 3012SOL    HW220670   2.163   3.010   2.121  1.7087 -1.8178  0.1591
 3013SOL     OW20671   3.427   3.406   4.717  0.2015  0.3257 -0.1464
 3013SOL    HW120672   3.408   3.414   4.623 -1.0353  0.5565  0.1247
 3013SOL    HW220673   3.498   3.465   4.743 -0.4090  0.2490  1.6486
 3014SOL     OW20674   3.076   0.700   8.949 -0.1240  0.2227 -0.0035
 3014SOL    HW120675   3.041   0.788   8.943 -0.6271  0.0750  0.7966
 3014SOL    HW220676   3.150   0.699   8.888 -0.0858  0.6477  0.0388
 3015SOL     OW20677   0.082   1.896  15.335  0.2815 -0.5195  0.3207
 3015SOL    HW120678   0.154   1.834  15.345  0.1143 -0.8878 -0.7878
 3015SOL    HW220679   0.111   1.942  15.414  1.3151  0.4875 -0.6420
 3016SOL     OW20680   3.137   1.746  16.922 -0.2819  1.0668 -0.2876
 3016SOL    HW120681   3.074   1.723  16.991  0.3785  1.7534  0.5486
 3016SOL    HW220682   3.173   1.824  16.964 -1.6296  0.7678  1.4559
 3017SOL     OW20683   4.696   0.850   6.450 -0.5158 -0.2604  0.2596
 3017SOL    HW120684   4.640   0.825   6.377 -1.7291 -2.9576  2.1438
 3017SOL    HW220685   4.647   0.797   6.512  0.5118 -0.4567  0.9063
 3018SOL     OW20686   0.464   4.120   9.562 -0.5453 -0.3092 -0.5102
 3018SOL    HW120687   0.503   4.077   9.486  0.8907 -2.8549  1.6793
 3018SOL    HW220688   0.544   4.148   9.606  0.4321 -4.4867  0.3270
 3019SOL     OW20689   4.202   2.805   4.817 -0.9159 -0.3467  0.6919
 3019SOL    HW120690   4.264   2.755   4.869  3.5751  0.5740 -3.7229
 3019SOL    HW220691   4.137   2.739   4.793  0.3318 -0.8004 -1.4575
 3020SOL     OW20692   1.169   4.354   3.936  0.6136 -0.4022 -0.3176
 3020SOL    HW120693   1.143   4.378   3.846  0.3582  0.3020 -0.0590
 3020SOL    HW220694   1.248   4.305   3.913 -1.2404 -1.4114 -4.5998
 3021SOL     OW20695   1.163   4.735   8.189  0.0079  0.2877 -0.0648
 3021SOL    HW120696   1.157   4.718   8.283  4.2516  0.5772  0.2943
 3021SOL    HW220697   1.176   0.091   8.198 -1.6973  0.6768 -1.7609
 3022SOL     OW20698   4.456   0.469   7.276 -0.0913 -0.4736 -0.2333
 3022SOL    HW120699   4.416   0.381   7.279  0.2137 -0.6484 -1.2800
 3022SOL    HW220700   4.518   0.444   7.344 -0.4366 -3.8715 -1.1439
 3023SOL     OW20701   1.712   2.704   8.756  0.2198  0.1073 -0.2653
 3023SOL    HW120702   1.644   2.673   8.816 -1.9176  0.3120 -2.5680
 3023SOL    HW220703   1.773   2.631   8.744  2.1950  1.1217  3.4259
 3024SOL     OW20704   3.935   2.179  13.376  0.3274 -0.2230  0.6256
 3024SOL    HW120705   3.956   2.269  13.400 -0.9129  0.1147  0.4257
 3024SOL    HW220706   3.934   2.140  13.464  1.4011  0.0062  0.7432
 3025SOL     OW20707   2.019   3.882   0.370 -0.4586  0.1653  0.2115
 3025SOL    HW120708   1.953   3.938   0.330  1.0769  2.5013  0.9327
 3025SOL    HW220709   2.006   3.802   0.319 -3.2730  1.2590 -0.7824
 3026SOL     OW20710   0.110   2.338   7.199  0.1231 -0.0584  0.1455
 3026SOL    HW120711   0.032   2.362   7.151  0.2305 -1.0093 -0.4987
 3026SOL    HW220712   0.134   2.268   7.139  0.2936  1.2944 -1.3503
 3027SOL     OW20713   1.824   3.790   4.920  0.2055  0.4285 -0.4702
 3027SOL    HW120714   1.906   3.818   4.960  0.3167  0.4991 -0.7487
 3027SOL    HW220715   1.837   3.714   4.864  1.3479  0.7641 -0.6604
 3028SOL     OW20716   0.679   0.175  14.717 -0.3598 -0.4631  0.1747
 3028SOL    HW120717   0.757   0.218  14.683 -0.3946  1.7729  2.9187
 3028SOL    HW220718   0.706   0.087  14.691  0.6151 -0.3836  0.9239
 3029SOL     OW20719   4.039   0.417   3.824 -0.6244 -0.6180  0.1883
 3029SOL    HW120720   4.026   0.372   3.741 -0.4404  0.2665 -0.3238
 3029SOL    HW220721   3.966   0.385   3.876 -1.7560  0.5399 -0.6887
 3030SOL     OW20722   4.327   3.926   1.668 -0.1686 -0.2458 -0.1775
 3030SOL    HW120723   4.304   4.018   1.682  0.7965  0.1216 -1.0796
 3030SOL    HW220724   4.247   3.888   1.631 -0.6570  2.0314 -1.4403
 3031SOL     OW20725   1.391   0.531   3.952 -0.0658  0.0054  0.2009
 3031SOL    HW120726   1.375   0.551   3.860 -0.3337 -0.9859  0.0286
 3031SOL    HW220727   1.334   0.586   4.005 -0.8612  1.4270 -2.1767
 3032SOL     OW20728   3.880   2.116  13.663 -0.0621 -0.5074 -0.5922
 3032SOL    HW120729   3.852   2.198  13.704 -2.4113 -1.1942 -0.7885
 3032SOL    HW220730   3.975   2.126  13.668  0.0768 -0.5256 -3.1418
 3033SOL     OW20731   3.585   2.674   1.764  0.0224  0.0277  0.5062
 3033SOL    HW120732   3.509   2.693   1.818 -0.7206 -0.2998 -0.4245
 3033SOL    HW220733   3.586   2.579   1.778  0.8130 -0.5457 -3.1977
 3034SOL     OW20734   0.509   4.685  10.868  0.0143 -0.7117  0.0568
 3034SOL    HW120735   0.418   4.716  10.864  0.4122  0.6269  1.3543
 3034SOL    HW220736   0.551   0.018  10.821  0.9718 -1.3701 -0.0814
 3035SOL     OW20737   1.382   4.610   5.588  0.5601  0.5753  0.0681
 3035SOL    HW120738   1.430   4.691   5.603 -0.8280  1.1383  1.4867
 3035SOL    HW220739   1.439   4.534   5.602 -3.4430 -2.5389 -0.4677
 3036SOL     OW20740   1.634   4.296   8.637 -0.6425  0.2857 -0.7987
 3036SOL    HW120741   1.601   4.213   8.605 -2.8949  1.1513 -0.6947
 3036SOL    HW220742   1.552   4.328   8.675 -0.4058  0.8987 -0.7989
 3037SOL     OW20743   0.103   2.510   3.301 -0.7239 -0.3733  0.4273
 3037SOL    HW120744   0.143   2.548   3.379  0.2211 -1.2012  0.3446
 3037SOL    HW220745   0.181   2.501   3.246  0.6886  0.7715  2.2609
 3038SOL     OW20746   1.747   1.390   1.628 -0.4550  0.0659  0.2107
 3038SOL    HW120747   1.843   1.387   1.638 -0.1595  2.5489 -2.0109
 3038SOL    HW220748   1.730   1.308   1.581  1.7018 -1.1873  1.5576
 3039SOL     OW20749   0.678   1.445   4.291  0.0229 -0.1553  0.0896
 3039SOL    HW120750   0.725   1.528   4.282  0.5134 -0.3483  0.8959
 3039SOL    HW220751   0.683   1.415   4.200 -1.4795 -0.4878  0.1254
 3040SOL     OW20752   0.208   2.653   7.309 -0.2154  0.0473 -0.5874
 3040SOL    HW120753   0.220   2.649   7.404 -0.8794  1.6804 -0.4400
 3040SOL    HW220754   0.114   2.635   7.303 -0.0754 -0.3763 -1.5357
 3041SOL     OW20755   2.344   0.432   6.611 -0.6230 -0.2483  0.6238
 3041SOL    HW120756   2.333   0.345   6.573  1.6068 -0.3022  0.1286
 3041SOL    HW220757   2.251   0.455   6.609 -0.9434 -1.5162  0.8490
 3042SOL     OW20758   4.029   2.320   3.903  0.2838 -0.2262 -0.0449
 3042SOL    HW120759   4.007   2.341   3.994 -0.6396  1.1640 -0.5910
 3042SOL    HW220760   4.076   2.237   3.916  0.2290  0.2733  3.3810
 3043SOL     OW20761   2.757   1.692  16.875  0.0708  0.2292  0.3404
 3043SOL    HW120762   2.824   1.628  16.848  0.2599  0.3189  0.6004
 3043SOL    HW220763   2.809   1.773  16.874  1.6333 -0.7775 -1.0231
 3044SOL     OW20764   0.168   3.038  16.168  0.1555 -0.0206 -0.1825
 3044SOL    HW120765   0.143   3.104  16.104 -2.3971 -0.9429 -0.1419
 3044SOL    HW220766   0.083   3.002  16.192 -0.1037  0.1582 -0.8253
 3045SOL     OW20767   3.987   4.532   7.548 -0.0943 -0.5568 -0.0930
 3045SOL    HW120768   3.915   4.505   7.491  0.7536  1.5068 -2.1459
 3045SOL    HW220769   3.967   4.625   7.561  1.4774 -0.0324 -1.4144
 3046SOL     OW20770   2.492   1.035   0.297  0.1599  0.2131 -0.6620
 3046SOL    HW120771   2.495   1.034   0.202 -1.1767 -1.1262 -0.6751
 3046SOL    HW220772   2.537   0.956   0.327  1.1895  0.8897 -0.4257
 3047SOL     OW20773   4.119   3.187   9.349  0.2791  0.1787  0.0216
 3047SOL    HW120774   4.189   3.172   9.286 -1.2514 -1.5375 -1.2700
 3047SOL    HW220775   4.149   3.125   9.415  0.6302 -0.1274 -0.4233
 3048SOL     OW20776   2.597   4.664   7.208 -0.5380  0.6826 -0.3783
 3048SOL    HW120777   2.504   4.677   7.186 -0.5251  1.0492 -0.2041
 3048SOL    HW220778   2.607   0.019   7.220  0.6140  0.4894  0.1577
 3049SOL     OW20779   0.994   1.718   1.709 -0.2258  0.2299 -0.3112
 3049SOL    HW120780   0.940   1.666   1.769  2.3967 -2.1819 -0.0343
 3049SOL    HW220781   0.965   1.681   1.625  1.0125  0.8118 -0.9926
 3050SOL     OW20782   1.785   1.824   8.491 -0.0352  0.4312 -0.3056
 3050SOL    HW120783   1.769   1.735   8.521  0.7070  0.3907 -0.0169
 3050SOL    HW220784   1.867   1.801   8.447 -1.1761  2.3083 -3.4216
 3051SOL     OW20785   0.319   1.791   3.002 -0.1727  0.1895 -0.4304
 3051SOL    HW120786   0.384   1.753   3.061 -0.4956 -2.1395 -1.5545
 3051SOL    HW220787   0.356   1.782   2.914 -0.9970 -1.3523 -0.6236
 3052SOL     OW20788   0.515   3.699  16.669 -0.5696  0.4964 -0.1152
 3052SOL    HW120789   0.478   3.787  16.664  0.0574  0.7522 -0.2387
 3052SOL    HW220790   0.603   3.713  16.702 -0.6294 -1.3523  0.8792
 3053SOL     OW20791   3.401   2.084  13.594  0.1780  0.2182 -0.4557
 3053SOL    HW120792   3.372   2.151  13.532  0.5748 -0.4893 -1.4066
 3053SOL    HW220793   3.465   2.127  13.651 -1.1688 -1.7202  2.5065
 3054SOL     OW20794   2.053   4.463   4.277 -0.4194 -0.5831 -0.0626
 3054SOL    HW120795   1.997   4.388   4.296 -0.8356 -0.8385 -2.2578
 3054SOL    HW220796   2.141   4.426   4.269  0.2181  0.8209  0.4816
 3055SOL     OW20797   1.052   2.936  15.825  0.1540 -0.3343 -0.0621
 3055SOL    HW120798   0.958   2.940  15.843  0.5850  0.5188  2.0157
 3055SOL    HW220799   1.051   2.945  15.730 -0.0168  1.4431  0.1159
 3056SOL     OW20800   0.476   2.361  16.521  0.2154 -0.0147 -0.2076
 3056SOL    HW120801   0.495   2.271  16.548 -1.5151 -0.2121  0.3319
 3056SOL    HW220802   0.441   2.347  16.434 -0.2210  1.6942 -0.3174
 3057SOL     OW20803   2.316   2.970   4.083  0.3968  0.4141  0.0220
 3057SOL    HW120804   2.368   2.897   4.049  3.1502  0.8550  3.1955
 3057SOL    HW220805   2.225   2.942   4.072  0.0257  0.8921  1.8761
 3058SOL     OW20806   3.268   3.587   9.991 -0.2189  0.0001  0.8456
 3058SOL    HW120807   3.208   3.521  10.027 -1.1460  0.7953  0.7760
 3058SOL    HW220808   3.200   3.633   9.942 -0.1792 -0.4724  0.3462
 3059SOL     OW20809   2.187   3.318   8.469 -0.2383  0.5059 -0.9605
 3059SOL    HW120810   2.267   3.299   8.419 -0.3997  1.0344 -1.4155
 3059SOL    HW220811   2.167   3.407   8.440  2.7888  2.0768  1.6376
 3060SOL     OW20812   1.669   1.311   3.169  0.3815 -0.6859 -0.2962
 3060SOL    HW120813   1.723   1.232   3.164 -0.4793 -1.2730 -0.5073
 3060SOL    HW220814   1.661   1.348   3.081 -0.7723  1.9397  0.9363
 3061SOL     OW20815   2.280   1.112   8.785 -0.0214  0.2688 -0.2007
 3061SOL    HW120816   2.338   1.120   8.861 -0.4307 -2.6056  0.4312
 3061SOL    HW220817   2.257   1.199   8.753 -0.0266  0.7494  1.1076
 3062SOL     OW20818   1.452   2.794   2.788 -0.0897 -0.5323 -0.2185
 3062SOL    HW120819   1.455   2.782   2.693 -2.4855 -0.3689 -0.3264
 3062SOL    HW220820   1.395   2.722   2.816 -1.9119  1.8006  2.1543
 3063SOL     OW20821   4.201   0.953  13.153 -0.0051  0.3568  0.0123
 3063SOL    HW120822   4.153   0.881  13.193 -2.9270  0.3643 -3.4946
 3063SOL    HW220823   4.288   0.946  13.193 -0.4900 -0.1120  0.9685
 3064SOL     OW20824   1.242   2.609   4.178  0.0222 -0.5294  0.1764
 3064SOL    HW120825   1.214   2.560   4.255  0.0733 -0.8722 -0.0231
 3064SOL    HW220826   1.193   2.569   4.106  0.7660 -1.1502  0.0185
 3065SOL     OW20827   2.371   3.654   3.644  0.2144  0.5603  0.6852
 3065SOL    HW120828   2.332   3.631   3.560  1.4561  0.5209  0.1147
 3065SOL    HW220829   2.433   3.581   3.650 -0.9012 -0.6136 -2.0332
 3066SOL     OW20830   3.920   3.250   5.774  0.1792 -0.0182 -0.5834
 3066SOL    HW120831   3.978   3.229   5.847 -0.0447  0.0193 -0.3954
 3066SOL    HW220832   3.865   3.172   5.765  2.0002 -1.2983 -0.5459
 3067SOL     OW20833   0.944   3.799   1.737  0.0154  0.3577  0.3347
 3067SOL    HW120834   0.851   3.783   1.721  0.7914  0.0053 -3.8262
 3067SOL    HW220835   0.944   3.831   1.827  1.2434  1.6992 -0.1465
 3068SOL     OW20836   0.390   1.894  14.106  0.4530  0.4411 -0.2074
 3068SOL    HW120837   0.349   1.963  14.054 -0.1725  0.1659 -0.0881
 3068SOL    HW220838   0.408   1.947  14.184 -1.1894  0.4744  0.1604
 3069SOL     OW20839   4.271   3.090   8.593  0.1723  0.3146 -0.0766
 3069SOL    HW120840   4.279   3.070   8.687  1.1487 -1.4656 -0.5497
 3069SOL    HW220841   4.317   3.174   8.589 -1.1560  1.1207  1.2390
 3070SOL     OW20842   1.826   2.236   0.045 -0.0543 -0.2229 -0.2327
 3070SOL    HW120843   1.910   2.245   0.091 -0.2589  1.5887 -0.2196
 3070SOL    HW220844   1.845   2.205  17.711  1.5557  0.6283 -0.1888
 3071SOL     OW20845   0.782   0.178   3.011  0.5540  0.1174  0.0752
 3071SOL    HW120846   0.797   0.141   3.099  2.2284 -0.9498 -0.6600
 3071SOL    HW220847   0.785   0.270   3.038 -0.9866  1.6380 -4.9716
 3072SOL     OW20848   1.508   1.384   7.224 -0.1291 -0.7834  0.4379
 3072SOL    HW120849   1.542   1.420   7.306 -0.6599  0.1689  0.2415
 3072SOL    HW220850   1.574   1.316   7.212  1.3863  0.5873  0.9597
 3073SOL     OW20851   1.963   4.157   0.642  0.0089 -0.0464 -0.1115
 3073SOL    HW120852   1.885   4.103   0.636 -0.9777  1.3853 -0.2802
 3073SOL    HW220853   1.943   4.210   0.719 -1.3365  1.0425 -1.2233
 3074SOL     OW20854   0.909   4.730   2.814 -0.2489  0.2267  0.1609
 3074SOL    HW120855   0.971   4.675   2.862 -0.1755  0.5088  0.3906
 3074SOL    HW220856   0.880   0.051   2.882 -0.0269 -0.0626  0.5135
 3075SOL     OW20857   2.489   3.653   8.239 -0.2541 -0.0485  0.4981
 3075SOL    HW120858   2.480   3.565   8.202  0.3734  0.2981 -0.4906
 3075SOL    HW220859   2.418   3.642   8.303 -1.1064 -1.6536 -0.7333
 3076SOL     OW20860   3.468   2.897   0.789  0.1219  0.2724  0.6705
 3076SOL    HW120861   3.475   2.844   0.710  0.6114  0.6472  0.4644
 3076SOL    HW220862   3.548   2.947   0.774  1.1217 -1.9039 -1.2639
 3077SOL     OW20863   0.935   4.319  13.846 -0.5388  0.1309 -0.0899
 3077SOL    HW120864   0.889   4.251  13.797 -0.6038 -0.1059  0.3016
 3077SOL    HW220865   0.875   4.394  13.839 -0.3181  0.4134  1.0444
 3078SOL     OW20866   2.925   0.536   5.051 -0.0893  0.6224  0.5004
 3078SOL    HW120867   2.893   0.456   5.092  3.4792 -0.2640  1.5756
 3078SOL    HW220868   2.999   0.545   5.112  2.3066 -2.7762 -1.9451
 3079SOL     OW20869   1.663   3.719   7.341 -0.1964 -0.4274  0.0730
 3079SOL    HW120870   1.727   3.664   7.386 -1.9214 -0.6082  2.2988
 3079SOL    HW220871   1.634   3.768   7.418 -1.5389  1.1085 -1.4126
 3080SOL     OW20872   1.032   0.161   8.673  0.0182  0.0368 -0.9573
 3080SOL    HW120873   1.005   0.222   8.604  1.7758 -1.1963 -2.7613
 3080SOL    HW220874   1.121   0.194   8.670  0.6477 -1.5524  0.1269
 3081SOL     OW20875   2.760   0.217   6.078  0.1160  0.0440  0.3106
 3081SOL    HW120876   2.810   0.159   6.020 -0.0214 -2.8796  3.1477
 3081SOL    HW220877   2.831   0.235   6.140 -1.5045  2.0772  1.5463
 3082SOL     OW20878   1.916   1.423   1.328  0.2842 -0.0333  0.0606
 3082SOL    HW120879   1.957   1.341   1.357  0.4628 -1.0289 -2.9938
 3082SOL    HW220880   1.929   1.478   1.405 -3.9489  0.5780  0.3577
 3083SOL     OW20881   4.356   2.904   0.527  0.1451 -0.0392  0.4170
 3083SOL    HW120882   4.368   2.996   0.553  2.5311  0.3893 -2.1518
 3083SOL    HW220883   4.438   2.891   0.478 -0.3201  0.3434 -0.4663
 3084SOL     OW20884   3.425   2.380   4.590 -0.4003 -0.0271 -0.1329
 3084SOL    HW120885   3.481   2.382   4.512 -0.0836 -1.4080  0.0691
 3084SOL    HW220886   3.473   2.434   4.653  0.4187 -0.6836 -0.2016
 3085SOL     OW20887   0.150   3.304  17.651  0.6049  0.2124  0.8637
 3085SOL    HW120888   0.239   3.274  17.670  0.7025  0.6664  1.1077
 3085SOL    HW220889   0.117   3.236  17.593  0.4937  0.7110  0.3483
 3086SOL     OW20890   0.674   3.054  12.658 -0.2219  0.9852  0.1110
 3086SOL    HW120891   0.666   3.122  12.591  2.2434  0.4678 -0.7000
 3086SOL    HW220892   0.716   2.988  12.605 -2.3244  1.4169 -2.0909
 3087SOL     OW20893   0.733   3.039  17.664 -0.3632  0.1712  0.1867
 3087SOL    HW120894   0.765   2.950  17.674  1.3742  0.8246  0.4629
 3087SOL    HW220895   0.677   3.032  17.587  2.1264 -3.1271 -1.2982
 3088SOL     OW20896   0.397   4.354  10.499 -0.0661 -0.8097  0.2436
 3088SOL    HW120897   0.391   4.414  10.424  1.5655 -1.1102 -0.1279
 3088SOL    HW220898   0.417   4.409  10.575  1.2376  2.2656 -2.3107
 3089SOL     OW20899   3.408   4.448   8.674 -0.0650 -0.8825  0.2272
 3089SOL    HW120900   3.344   4.509   8.710 -1.8095 -1.6373 -1.6304
 3089SOL    HW220901   3.378   4.366   8.713 -1.7176 -0.5773 -0.4052
 3090SOL     OW20902   1.095   0.415   4.942 -0.0974 -0.6529  0.2412
 3090SOL    HW120903   1.046   0.381   5.017  3.0192 -1.9597  1.7172
 3090SOL    HW220904   1.171   0.453   4.988 -1.2472  1.6690  0.2263
 3091SOL     OW20905   0.890   0.324   9.620 -0.2039  0.0786 -0.0197
 3091SOL    HW120906   0.931   0.246   9.658  0.9615  0.2190 -0.9982
 3091SOL    HW220907   0.825   0.283   9.563  2.5800 -3.2500 -0.8124
 3092SOL     OW20908   2.002   0.660   3.647 -0.1957  0.0126  0.0868
 3092SOL    HW120909   1.957   0.606   3.712  1.7958 -0.0171  1.4388
 3092SOL    HW220910   2.055   0.596   3.599 -0.0922  1.1752 -1.3613
 3093SOL     OW20911   0.776   3.143   9.150  0.2433 -0.0543 -0.3417
 3093SOL    HW120912   0.830   3.209   9.193 -0.7580  0.5116  0.0491
 3093SOL    HW220913   0.836   3.075   9.120  0.7259  0.2326 -0.0265
 3094SOL     OW20914   1.014   0.055   7.941 -0.3246  0.5940 -0.0983
 3094SOL    HW120915   1.039   0.034   8.031  0.1596 -1.1576 -0.6427
 3094SOL    HW220916   1.026   0.149   7.932  1.9291  0.3822  0.7357
 3095SOL     OW20917   4.343   1.460  11.056  0.2609  0.0454 -0.1840
 3095SOL    HW120918   4.371   1.504  10.976  1.8128  1.6628  1.2468
 3095SOL    HW220919   4.373   1.515  11.129  0.3377 -0.8950  0.5038
 3096SOL     OW20920   2.084   4.588  15.958  0.0903 -0.2387 -0.2060
 3096SOL    HW120921   2.095   4.529  16.032  2.9829 -0.0779 -0.5128
 3096SOL    HW220922   2.030   4.537  15.897  0.0900  2.4786 -2.4929
 3097SOL     OW20923   4.642   2.623  13.227  0.2259  0.9031 -0.2270
 3097SOL    HW120924   4.668   2.569  13.152 -2.4302  0.3917 -0.7774
 3097SOL    HW220925   4.716   2.685  13.227  1.0238 -0.0558  0.7481
 3098SOL     OW20926   1.213   3.902   3.692 -0.2055 -0.3836 -0.0921
 3098SOL    HW120927   1.229   3.895   3.598 -3.3315  0.2417 -0.6811
 3098SOL    HW220928   1.193   3.812   3.717 -1.5357 -0.0511  0.0529
 3099SOL     OW20929   3.444   2.187   5.321 -0.2683  0.1069 -0.2572
 3099SOL    HW120930   3.402   2.167   5.238 -0.9559  0.5454 -0.0179
 3099SOL    HW220931   3.490   2.104   5.328 -0.6593  0.0542  1.7530
 3100SOL     OW20932   4.141   4.013   9.254  0.1488  0.3232 -0.3418
 3100SOL    HW120933   4.123   4.095   9.300 -1.1433 -0.1099 -0.0810
 3100SOL    HW220934   4.233   4.024   9.229  0.8670 -2.0119  1.3071
 3101SOL     OW20935   4.335   1.188  17.017  0.2675  0.5983 -0.1046
 3101SOL    HW120936   4.295   1.103  16.996  1.8444 -0.0522 -0.4514
 3101SOL    HW220937   4.295   1.240  16.947  1.2393 -0.0371 -1.1268
 3102SOL     OW20938   3.534   4.658  13.195 -0.1284  0.4167  0.0777
 3102SOL    HW120939   3.460   4.693  13.244  0.8617 -0.2218  2.0240
 3102SOL    HW220940   3.502   4.653  13.105  0.2300 -1.0382  0.0171
 3103SOL     OW20941   0.294   0.609  12.975  0.3925 -0.9860  0.1302
 3103SOL    HW120942   0.256   0.550  13.040  1.7788 -4.5383 -2.2401
 3103SOL    HW220943   0.378   0.568  12.954  0.0420 -1.0337 -1.1979
 3104SOL     OW20944   3.963   0.667   6.939 -0.2767  0.0216  0.4996
 3104SOL    HW120945   4.048   0.641   6.903 -0.2311  0.3380  0.3773
 3104SOL    HW220946   3.981   0.674   7.033 -0.6968  2.2100  0.4082
 3105SOL     OW20947   4.497   3.229   5.830  0.0578 -0.3873  0.4789
 3105SOL    HW120948   4.433   3.273   5.774  1.9934 -0.0345 -1.4622
 3105SOL    HW220949   4.533   3.302   5.879  2.1225 -1.5889  0.7444
 3106SOL     OW20950   4.720   2.936   9.151 -0.7323  0.1477  0.0977
 3106SOL    HW120951   4.640   2.976   9.186 -1.9727 -0.9412 -1.4911
 3106SOL    HW220952   4.712   2.963   9.060  0.0536 -1.3831 -0.4235
 3107SOL     OW20953   2.514   4.249   1.193  0.1887 -0.0508  0.2465
 3107SOL    HW120954   2.552   4.311   1.130  0.3281  0.6089  0.9873
 3107SOL    HW220955   2.467   4.201   1.125  3.5033 -2.1174 -0.5728
 3108SOL     OW20956   4.318   0.371   0.362  0.5065  0.4823 -0.2331
 3108SOL    HW120957   4.346   0.374   0.271 -0.6661 -3.7628 -0.7537
 3108SOL    HW220958   4.374   0.438   0.402 -1.3500 -0.2728  3.6095
 3109SOL     OW20959   3.938   1.465   2.611 -0.1329 -0.0434  0.1860
 3109SOL    HW120960   3.972   1.384   2.573 -0.9701 -0.8066  1.0825
 3109SOL    HW220961   4.020   1.505   2.641 -0.0516  0.0648 -0.1766
 3110SOL     OW20962   4.087   0.621  17.028 -0.1144 -0.5089  0.0872
 3110SOL    HW120963   4.156   0.656  17.085  0.1925  1.2917 -1.4082
 3110SOL    HW220964   4.126   0.554  16.971  0.6544  1.5001 -1.7376
 3111SOL     OW20965   3.098   1.484   2.134  0.3403 -0.6052  0.2303
 3111SOL    HW120966   3.106   1.395   2.167 -0.2235 -0.8394 -0.2727
 3111SOL    HW220967   3.188   1.512   2.151 -0.0993  0.7779  0.3204
 3112SOL     OW20968   1.630   1.583  10.712  0.8462 -0.1402  0.4051
 3112SOL    HW120969   1.606   1.626  10.794  0.1027  0.8714 -0.3382
 3112SOL    HW220970   1.558   1.609  10.654 -0.9528  0.1917  2.7879
 3113SOL     OW20971   0.376   1.790   9.815 -0.1654 -0.1587 -0.2644
 3113SOL    HW120972   0.428   1.815   9.892  2.8540 -2.8415 -1.4045
 3113SOL    HW220973   0.308   1.850   9.845 -0.5893 -0.5204 -0.5012
 3114SOL     OW20974   3.799   3.032   7.257  0.3672  0.3401 -0.1739
 3114SOL    HW120975   3.858   3.107   7.267  0.9013 -0.1737  0.4986
 3114SOL    HW220976   3.722   3.047   7.312 -0.3710  0.3109 -1.1918
 3115SOL     OW20977   1.417   2.186   0.750  0.3076 -0.5927  0.1975
 3115SOL    HW120978   1.344   2.124   0.753  0.4319 -0.7902 -0.8487
 3115SOL    HW220979   1.492   2.144   0.708  1.0603 -0.2307  1.1678
 3116SOL     OW20980   4.668   4.355   2.646  0.1791  0.1749 -0.1133
 3116SOL    HW120981   4.671   4.449   2.657  1.5672  0.2744 -1.2939
 3116SOL    HW220982   4.584   4.344   2.601  0.3958 -0.7632 -0.2976
 3117SOL     OW20983   4.661   0.421   7.476 -0.3603 -0.3478  0.0446
 3117SOL    HW120984   4.663   0.332   7.511  0.0001  0.3294  1.7438
 3117SOL    HW220985   0.015   0.424   7.457 -0.9388  0.5166 -2.6282
 3118SOL     OW20986   4.393   4.082  16.984  0.2739  0.6632  0.1376
 3118SOL    HW120987   4.441   4.041  16.911  1.4118 -1.8035  2.2819
 3118SOL    HW220988   4.432   4.037  17.058 -1.1574 -3.6079 -1.7158
 3119SOL     OW20989   3.555   2.569   8.520 -0.0140 -0.4108  0.5756
 3119SOL    HW120990   3.567   2.664   8.530 -2.6394 -0.0184  0.1162
 3119SOL    HW220991   3.645   2.539   8.521  0.1584  0.1003  0.5719
 3120SOL     OW20992   0.345   2.818   6.899 -0.4543  0.1651  0.3304
 3120SOL    HW120993   0.346   2.909   6.927 -1.1876 -0.0688  1.1295
 3120SOL    HW220994   0.272   2.821   6.838 -0.6231  0.4278  0.5448
 3121SOL     OW20995   4.193   2.123   5.941  0.1941  0.1330 -0.3223
 3121SOL    HW120996   4.108   2.096   5.906  0.0367 -1.1079  1.0610
 3121SOL    HW220997   4.219   2.189   5.876  1.1404  0.3872  0.3180
 3122SOL     OW20998   3.540   0.745  10.991 -0.3196  0.1916 -0.6603
 3122SOL    HW120999   3.593   0.679  11.037 -1.5819 -0.1440  0.3018
 3122SOL    HW221000   3.560   0.704  10.907  0.3025 -2.0111  0.5387
 3123SOL     OW21001   1.695   0.913   5.199 -0.5030 -0.1102 -0.1164
 3123SOL    HW121002   1.739   0.833   5.171 -0.2409  0.7840 -2.2455
 3123SOL    HW221003   1.630   0.873   5.257  0.7394  0.4065  1.6321
 3124SOL     OW21004   1.794   4.363   6.951 -0.0687 -0.0672 -0.0689
 3124SOL    HW121005   1.882   4.326   6.952  0.3202  0.8054 -1.4820
 3124SOL    HW221006   1.790   4.392   6.859  1.1766  0.5493  0.0708
 3125SOL     OW21007   2.334   2.836   4.428  0.1475 -0.7798  0.3891
 3125SOL    HW121008   2.267   2.815   4.363  1.7114 -0.9921 -1.1309
 3125SOL    HW221009   2.376   2.751   4.433  0.2754 -0.8389 -1.5272
 3126SOL     OW21010   4.006   1.626  10.887 -0.2109  0.2331  0.3098
 3126SOL    HW121011   3.997   1.559  10.954 -0.1482  1.0389  1.1246
 3126SOL    HW221012   4.079   1.679  10.921 -1.1405  2.0895 -0.5592
 3127SOL     OW21013   3.872   1.697   3.920 -0.0537 -0.0709  0.4332
 3127SOL    HW121014   3.800   1.727   3.865  0.0111 -0.3966  0.1641
 3127SOL    HW221015   3.923   1.778   3.922  0.3299 -0.3042  0.2919
 3128SOL     OW21016   2.099   4.321  17.543 -0.3513 -0.4958  0.1889
 3128SOL    HW121017   2.026   4.275  17.501  0.2647  0.7947 -2.2970
 3128SOL    HW221018   2.164   4.322  17.473 -1.4241 -0.9149 -0.8151
 3129SOL     OW21019   3.432   1.835   0.212 -0.3021 -0.1432 -0.3369
 3129SOL    HW121020   3.457   1.771   0.280 -0.2740  0.3726  0.1356
 3129SOL    HW221021   3.340   1.811   0.213 -0.2494 -0.2871  2.5051
 3130SOL     OW21022   2.833   4.372   4.889  0.0184 -0.4530  0.2147
 3130SOL    HW121023   2.780   4.440   4.929 -0.3053  0.4220 -1.7370
 3130SOL    HW221024   2.767   4.302   4.891  1.7960 -2.1389  0.9639
 3131SOL     OW21025   0.079   0.781   3.090 -0.4382  0.3772 -0.2418
 3131SOL    HW121026   0.143   0.841   3.128 -0.2370  0.2968 -0.4507
 3131SOL    HW221027   0.105   0.801   2.999  1.1959 -0.4387  0.0431
 3132SOL     OW21028   3.693   1.716  14.526 -0.0987  0.6559  0.2654
 3132SOL    HW121029   3.761   1.778  14.502  1.2635 -0.8525  0.2278
 3132SOL    HW221030   3.631   1.735  14.455 -0.3316  1.1995  0.6170
 3133SOL     OW21031   1.064   1.833   9.248 -0.7586  0.3290  0.1760
 3133SOL    HW121032   1.051   1.901   9.182  1.1467  0.6784  0.1435
 3133SOL    HW221033   1.106   1.756   9.209 -0.4270  1.6091 -1.9844
 3134SOL     OW21034   0.002   3.035   5.709  0.0070 -0.3764 -0.2253
 3134SOL    HW121035   4.680   3.001   5.643 -0.4084  0.5402 -0.3147
 3134SOL    HW221036   0.033   3.116   5.667  2.6905 -1.3935 -0.1918
 3135SOL     OW21037   1.598   3.873   7.126 -0.0698 -0.3849 -0.1277
 3135SOL    HW121038   1.668   3.917   7.077  0.5567 -3.7045 -2.2870
 3135SOL    HW221039   1.634   3.828   7.202 -2.0641 -2.2176 -0.2718
 3136SOL     OW21040   1.595   3.665  15.951 -0.1567 -0.5381 -0.2092
 3136SOL    HW121041   1.666   3.603  15.968 -0.8356 -1.7451 -1.7676
 3136SOL    HW221042   1.523   3.601  15.952 -0.0901 -0.5858  2.1291
 3137SOL     OW21043   2.024   2.241   0.717  0.3249 -0.3789 -0.4104
 3137SOL    HW121044   1.976   2.219   0.797 -0.2657 -1.5159 -1.0807
 3137SOL    HW221045   2.106   2.195   0.729  1.2090  1.1730 -0.5098
 3138SOL     OW21046   0.954   0.716   9.309  0.0334  0.9638 -0.2612
 3138SOL    HW121047   0.916   0.796   9.273 -2.1174  0.5243  1.0408
 3138SOL    HW221048   0.880   0.686   9.362 -1.1946  2.2114 -1.2709
 3139SOL     OW21049   0.621   1.328   6.475  0.4340  0.0346 -0.0822
 3139SOL    HW121050   0.684   1.288   6.534  0.0947  0.2185  0.3991
 3139SOL    HW221051   0.579   1.253   6.434 -1.1219  0.9125 -0.0867
 3140SOL     OW21052   2.363   1.406   7.267 -0.4344  0.1045  0.5749
 3140SOL    HW121053   2.327   1.410   7.355  0.7762 -1.5098  1.1340
 3140SOL    HW221054   2.453   1.436   7.280  0.0276 -0.6331 -0.9131
 3141SOL     OW21055   4.342   3.335   5.216 -0.0123 -0.4685 -0.1174
 3141SOL    HW121056   4.358   3.402   5.150  1.2500 -0.9064 -0.2525
 3141SOL    HW221057   4.252   3.359   5.240  0.3810 -1.5408  2.4397
 3142SOL     OW21058   0.341   3.337  12.361 -0.3925  0.0561  0.2211
 3142SOL    HW121059   0.436   3.333  12.361 -0.3241  1.6203  0.0538
 3142SOL    HW221060   0.323   3.431  12.348 -0.6082 -0.2435 -1.6825
 3143SOL     OW21061   2.350   2.783   8.677 -0.5752 -0.3275  0.3831
 3143SOL    HW121062   2.357   2.870   8.637  1.5005 -0.3129  0.8016
 3143SOL    HW221063   2.442   2.760   8.666 -0.3780 -0.5092  2.4172
 3144SOL     OW21064   3.215   4.022   5.925 -0.2438 -0.0960 -0.1210
 3144SOL    HW121065   3.212   4.035   6.020  0.6490 -2.9159  0.2725
 3144SOL    HW221066   3.226   4.112   5.893  0.1120  0.3619  1.2446
 3145SOL     OW21067   4.718   3.794   5.784  0.3785 -0.0630 -0.2062
 3145SOL    HW121068   4.716   3.715   5.730  1.9992 -0.2348 -0.0358
 3145SOL    HW221069   0.029   3.762   5.859 -0.8811  0.0997  0.6935
 3146SOL     OW21070   0.240   0.399   4.679  0.0603 -0.3208 -0.8688
 3146SOL    HW121071   0.300   0.464   4.715 -0.6333  1.1401 -2.3460
 3146SOL    HW221072   0.299   0.330   4.650  1.9040 -0.0772  2.3870
 3147SOL     OW21073   3.894   0.325   3.210 -0.2824 -0.2392  0.1133
 3147SOL    HW121074   3.807   0.287   3.203 -1.0203  1.2632  1.1866
 3147SOL    HW221075   3.884   0.420   3.212 -0.3168 -0.2404 -0.0012
 3148SOL     OW21076   3.943   0.578   8.202 -0.0863 -0.1479  0.4843
 3148SOL    HW121077   3.874   0.574   8.136 -0.6726 -1.2189  1.1534
 3148SOL    HW221078   3.933   0.502   8.259  1.2931 -0.7175 -0.0483
 3149SOL     OW21079   2.742   2.156   3.722  0.2473  0.3507  0.1800
 3149SOL    HW121080   2.753   2.248   3.748 -2.3719  0.0542  2.3183
 3149SOL    HW221081   2.832   2.123   3.723  0.5322  1.1434  1.6835
 3150SOL     OW21082   3.619   3.406  12.936 -0.3652 -0.8918 -0.1327
 3150SOL    HW121083   3.629   3.311  12.937 -2.7742 -1.1365  0.0111
 3150SOL    HW221084   3.536   3.409  12.983 -0.3379  1.6375 -0.2711
 3151SOL     OW21085   0.280   4.255   8.618 -0.0229 -0.4099  0.1296
 3151SOL    HW121086   0.185   4.253   8.612  0.1093 -0.5365 -2.0637
 3151SOL    HW221087   0.307   4.251   8.526 -1.4814 -0.7407 -0.2759
 3152SOL     OW21088   4.079   2.308  16.095 -0.5491 -0.0785 -0.5892
 3152SOL    HW121089   4.089   2.378  16.160  0.4326  0.4283 -1.2905
 3152SOL    HW221090   4.169   2.296  16.064  0.6082  1.6378  2.0745
 3153SOL     OW21091   0.944   4.001  11.176  0.2008 -0.2398 -0.3358
 3153SOL    HW121092   0.915   3.930  11.233  0.0821  3.0072  3.6309
 3153SOL    HW221093   1.007   3.958  11.117  0.4494 -1.1172  0.5637
 3154SOL     OW21094   3.344   1.606   2.160 -0.2303 -0.4064  0.0811
 3154SOL    HW121095   3.397   1.683   2.136 -2.3587  0.3940 -1.9825
 3154SOL    HW221096   3.316   1.638   2.246 -3.5702 -2.2188 -0.3406
 3155SOL     OW21097   3.754   0.215  10.098  0.0619 -0.2030  0.1280
 3155SOL    HW121098   3.844   0.208  10.066 -0.4398 -1.0638 -1.1209
 3155SOL    HW221099   3.760   0.285  10.163  1.6716 -3.8533  3.9672
 3156SOL     OW21100   2.903   4.026   5.119 -0.1440 -0.0596 -0.6697
 3156SOL    HW121101   2.972   4.055   5.059  0.1260 -0.7590 -0.7040
 3156SOL    HW221102   2.890   3.935   5.092  0.3415  0.4672 -2.6966
 3157SOL     OW21103   2.229   3.308   2.978 -0.4768 -0.0820  0.0074
 3157SOL    HW121104   2.133   3.315   2.979 -0.5107 -0.1175 -2.9076
 3157SOL    HW221105   2.250   3.400   2.962 -0.6188  0.1184  0.9917
 3158SOL     OW21106   3.667   0.953  11.351  0.1763 -0.6257  0.4118
 3158SOL    HW121107   3.710   0.961  11.436  1.9675 -0.7885 -0.4887
 3158SOL    HW221108   3.650   1.043  11.323 -0.7973 -0.5803  1.1322
 3159SOL     OW21109   4.112   4.308   3.245 -0.2756  0.0434 -0.4313
 3159SOL    HW121110   4.082   4.279   3.158 -1.1208 -1.8431  0.4853
 3159SOL    HW221111   4.121   4.222   3.286 -2.3245  0.7044  1.4513
 3160SOL     OW21112   2.688   2.196   0.983 -0.2166 -0.1702  0.3083
 3160SOL    HW121113   2.609   2.241   1.016 -0.2796  0.1124 -0.2269
 3160SOL    HW221114   2.757   2.238   1.034 -0.9312  0.5593  0.6800
 3161SOL     OW21115   4.731   0.536   5.386 -0.0610 -0.0055 -0.3416
 3161SOL    HW121116   0.079   0.507   5.414 -0.6279 -0.4457  0.9956
 3161SOL    HW221117   4.722   0.623   5.426  1.0956 -0.3038  0.5516
 3162SOL     OW21118   4.175   1.226  13.190 -0.3839  0.3242  0.1927
 3162SOL    HW121119   4.204   1.254  13.277 -1.3786  0.3170  0.5232
 3162SOL    HW221120   4.168   1.132  13.203  3.5875  0.0663  0.6455
 3163SOL     OW21121   0.446   2.810   7.228  0.7127  0.2239  0.4636
 3163SOL    HW121122   0.423   2.888   7.278  1.7976 -0.0864  1.4277
 3163SOL    HW221123   0.368   2.754   7.228 -0.7767  2.3093  0.2934
 3164SOL     OW21124   4.705   0.228   0.836  0.6423  0.1460 -0.3602
 3164SOL    HW121125   4.612   0.225   0.858  0.3989 -1.9280 -1.5900
 3164SOL    HW221126   4.700   0.152   0.777  3.0881 -0.2623 -0.0529
 3165SOL     OW21127   1.876   0.474   2.683 -0.1375  0.2553 -0.1571
 3165SOL    HW121128   1.835   0.410   2.624 -2.2814  1.2347  0.2416
 3165SOL    HW221129   1.961   0.466   2.640  0.1706 -2.5215  0.9748
 3166SOL     OW21130   4.059   4.068  10.835 -0.1583  0.3109 -0.2707
 3166SOL    HW121131   4.054   4.005  10.763 -0.0745 -1.3119  1.1577
 3166SOL    HW221132   3.967   4.089  10.852  0.0993  1.5923 -0.4271
 3167SOL     OW21133   3.859   0.857   6.138  0.1315 -0.2752 -0.4353
 3167SOL    HW121134   3.951   0.840   6.155  0.6011  1.5201 -1.1102
 3167SOL    HW221135   3.815   0.799   6.199 -0.4830  0.3741 -0.2552
 3168SOL     OW21136   4.558   0.603   5.880  0.6432 -0.5518 -0.3102
 3168SOL    HW121137   4.475   0.648   5.863  1.0538 -0.2368 -1.4656
 3168SOL    HW221138   4.571   0.581   5.788 -0.6749  1.3203 -0.9273
 3169SOL     OW21139   4.266   2.788   5.613 -0.2331 -0.5815  0.1039
 3169SOL    HW121140   4.254   2.731   5.537 -1.5417  1.1499 -0.9648
 3169SOL    HW221141   4.339   2.741   5.654  0.6747  0.5040 -0.2829
 3170SOL     OW21142   0.570   0.819   7.721  0.0722  0.3474 -0.6453
 3170SOL    HW121143   0.538   0.898   7.678 -0.2892 -0.0494 -1.1025
 3170SOL    HW221144   0.505   0.807   7.791 -0.9028 -0.0700 -1.6217
 3171SOL     OW21145   2.662   1.946   7.860  0.0173 -0.0484 -0.3524
 3171SOL    HW121146   2.708   1.933   7.777 -1.8741 -0.0438 -1.4151
 3171SOL    HW221147   2.731   1.998   7.901 -1.3839 -0.6110  2.7263
 3172SOL     OW21148   0.108   0.060   8.754 -0.0711  0.7101  0.3661
 3172SOL    HW121149   0.179   0.119   8.781 -0.8918  2.3280 -0.9901
 3172SOL    HW221150   0.092   0.093   8.665  2.2629 -0.4491 -0.5029
 3173SOL     OW21151   0.003   0.155  16.365 -0.1328 -0.5506  0.3927
 3173SOL    HW121152   0.055   0.159  16.445 -0.9272 -1.2084  0.9366
 3173SOL    HW221153   4.699   0.072  16.384 -0.4776 -0.8592 -1.6446
 3174SOL     OW21154   1.558   3.713  15.264  0.0787  0.1330  0.0083
 3174SOL    HW121155   1.506   3.682  15.189  1.3330 -1.8361 -0.0437
 3174SOL    HW221156   1.492   3.775  15.295  0.2843  0.7959 -0.8766
 3175SOL     OW21157   3.628   4.543   7.732  0.1466  0.2328 -0.6569
 3175SOL    HW121158   3.566   4.528   7.661 -1.8954  1.1424  0.9048
 3175SOL    HW221159   3.675   4.617   7.694 -0.6915  0.0994 -1.9484
 3176SOL     OW21160   4.125   0.501  10.753  0.6616  0.7504 -0.2060
 3176SOL    HW121161   4.046   0.449  10.736  0.8674 -0.0920  1.4189
 3176SOL    HW221162   4.115   0.564  10.681 -0.8259  1.3025  0.4715
 3177SOL     OW21163   3.664   2.792   3.535 -0.3436  0.1252 -0.2861
 3177SOL    HW121164   3.580   2.832   3.558  0.6948  1.4437  1.1665
 3177SOL    HW221165   3.702   2.768   3.620 -0.3244 -1.0655 -0.6259
 3178SOL     OW21166   4.515   1.869   3.276  0.2799  0.6525  0.0367
 3178SOL    HW121167   4.533   1.876   3.369 -0.7215  0.4157  0.2452
 3178SOL    HW221168   4.488   1.779   3.259  0.4629  0.7026 -0.5493
 3179SOL     OW21169   2.364   3.015   6.459 -0.0620 -0.7392  0.2646
 3179SOL    HW121170   2.296   3.032   6.394 -1.3116  1.1838  2.0644
 3179SOL    HW221171   2.370   3.099   6.505  0.4020 -1.5820  1.7249
 3180SOL     OW21172   4.591   0.763   6.697  0.3325 -0.2248  0.5858
 3180SOL    HW121173   4.545   0.699   6.644 -0.2707  0.6469  0.0583
 3180SOL    HW221174   4.521   0.812   6.739 -1.4458 -0.8517 -1.6789
 3181SOL     OW21175   2.430   4.576   4.700  0.2642  0.0487 -0.3722
 3181SOL    HW121176   2.476   4.493   4.685  0.7754  0.3727 -0.5952
 3181SOL    HW221177   2.341   4.564   4.669 -0.1553  2.5490 -0.1683
 3182SOL     OW21178   1.880   1.630   2.689  0.5554 -0.4116  0.0660
 3182SOL    HW121179   1.917   1.542   2.694  0.9254 -0.1587  1.7818
 3182SOL    HW221180   1.928   1.669   2.616 -0.5043  0.6474 -0.0619
 3183SOL     OW21181   1.130   3.714   9.276 -0.1314 -0.2066 -0.5563
 3183SOL    HW121182   1.058   3.761   9.233 -0.0686  0.2894 -0.1196
 3183SOL    HW221183   1.145   3.649   9.208 -1.0132  0.8464 -1.7742
 3184SOL     OW21184   1.056   2.899   7.049 -0.0004  0.3323 -0.2064
 3184SOL    HW121185   0.999   2.853   7.110 -4.2841  2.4762 -2.5753
 3184SOL    HW221186   0.992   2.938   6.989  0.6050 -0.7326 -1.5528
 3185SOL     OW21187   1.100   1.313   1.977 -0.1342 -0.2953 -0.0922
 3185SOL    HW121188   1.160   1.385   1.962 -0.9769  0.6178  0.9299
 3185SOL    HW221189   1.013   1.352   1.969  0.5288  1.0979 -0.4587
 3186SOL     OW21190   4.428   2.568   9.166  0.7895  0.6009  0.1941
 3186SOL    HW121191   4.512   2.535   9.198 -0.6020 -2.4705  0.7040
 3186SOL    HW221192   4.426   2.562   9.071  2.8706  1.8593  0.0660
 3187SOL     OW21193   1.852   1.351  16.350  0.3962  0.1354 -0.3220
 3187SOL    HW121194   1.811   1.436  16.331 -1.0607 -1.4709 -4.4288
 3187SOL    HW221195   1.826   1.294  16.278 -1.3243 -0.2142  0.5705
 3188SOL     OW21196   3.845   0.444  17.509  0.4318 -0.4095 -0.4293
 3188SOL    HW121197   3.843   0.539  17.506  1.9003 -0.4083 -1.5472
 3188SOL    HW221198   3.856   0.424  17.416  0.4185  0.6031 -0.6433
 3189SOL     OW21199   0.720   3.960   0.667  0.3437 -0.0633  1.0296
 3189SOL    HW121200   0.645   3.999   0.711 -0.9980 -0.6182 -0.7863
 3189SOL    HW221201   0.754   4.041   0.630 -1.4547  0.4254  0.4609
 3190SOL     OW21202   2.338   4.638   6.685 -0.6865  0.3542  0.0169
 3190SOL    HW121203   2.374   4.550   6.702  2.0423  1.2275 -1.1042
 3190SOL    HW221204   2.344   4.664   6.777 -0.0976  1.8896 -0.4488
 3191SOL     OW21205   0.349   2.686   4.166 -0.8480 -0.3921 -0.1963
 3191SOL    HW121206   0.263   2.727   4.177 -0.8222  0.0118 -1.4989
 3191SOL    HW221207   0.399   2.764   4.192  0.3804 -1.5904  1.0163
 3192SOL     OW21208   2.192   1.796   0.578 -0.3328  0.1541  0.1062
 3192SOL    HW121209   2.272   1.758   0.615 -0.1938  1.4945  1.1985
 3192SOL    HW221210   2.234   1.821   0.496  1.7626 -1.0522  0.8063
 3193SOL     OW21211   1.342   3.994   2.921  0.7786 -0.7096 -0.9159
 3193SOL    HW121212   1.386   3.981   3.005 -0.0282 -1.7654 -0.6547
 3193SOL    HW221213   1.406   3.963   2.856 -0.8191  0.3896 -3.0071
 3194SOL     OW21214   2.810   2.327   5.488 -0.2874  0.0256  0.0207
 3194SOL    HW121215   2.811   2.383   5.411 -0.7179 -1.0318 -0.7674
 3194SOL    HW221216   2.766   2.379   5.555  1.4505  0.5653  0.7226
 3195SOL     OW21217   2.481   0.879  16.378  0.0515 -0.7199  1.0151
 3195SOL    HW121218   2.469   0.963  16.334  0.5820 -1.3803 -0.4241
 3195SOL    HW221219   2.431   0.882  16.459  2.9316 -0.8524  2.8170
 3196SOL     OW21220   3.426   4.721   4.273  0.0806  0.7171  0.1096
 3196SOL    HW121221   3.487   4.660   4.314 -0.1701 -0.5367 -1.3776
 3196SOL    HW221222   3.411   0.045   4.343  3.2518 -0.6905  2.1045
 3197SOL     OW21223   2.181   0.546   4.858  0.0361  0.8228  0.0712
 3197SOL    HW121224   2.128   0.593   4.922 -2.6100  0.4582 -1.8326
 3197SOL    HW221225   2.257   0.603   4.856  0.0431  0.8877  2.9294
 3198SOL     OW21226   1.549   4.135   5.159 -0.0035  0.1944 -0.4814
 3198SOL    HW121227   1.461   4.158   5.130 -0.0476  0.2711 -0.2874
 3198SOL    HW221228   1.539   4.183   5.241  0.2572 -1.1464  0.3363
 3199SOL     OW21229   3.863   1.622   5.145  0.1713 -0.7183  0.4005
 3199SOL    HW121230   3.880   1.609   5.239 -1.4497 -0.9047  0.6582
 3199SOL    HW221231   3.770   1.601   5.139 -0.0031 -0.1233  1.0379
 3200SOL     OW21232   1.399   0.883   4.632 -0.4973 -0.0321  0.4611
 3200SOL    HW121233   1.472   0.844   4.585  1.3271  2.0279  1.6170
 3200SOL    HW221234   1.440   0.968   4.647  1.0614 -0.7897  0.4166
 3201SOL     OW21235   2.728   3.754   3.419 -0.5103 -0.4205 -0.6005
 3201SOL    HW121236   2.741   3.673   3.467  0.3567 -0.8638 -1.5766
 3201SOL    HW221237   2.681   3.805   3.485  0.9280 -0.1997  0.2583
 3202SOL     OW21238   4.526   2.128   3.000 -0.2401  0.3757  0.0381
 3202SOL    HW121239   4.621   2.141   3.000 -0.1360 -0.4400 -0.3450
 3202SOL    HW221240   4.506   2.163   3.087 -0.2868  0.5962 -0.0599
 3203SOL     OW21241   2.239   0.760   9.241  0.1409 -0.2078  0.1004
 3203SOL    HW121242   2.217   0.788   9.153  1.0406  1.3400  0.3583
 3203SOL    HW221243   2.238   0.664   9.240  2.1257 -0.2367  1.7304
 3204SOL     OW21244   0.960   2.064   5.143 -0.2025 -0.3581 -0.1058
 3204SOL    HW121245   0.880   2.017   5.118  0.2370 -0.3593 -1.5204
 3204SOL    HW221246   1.014   1.991   5.173 -1.7888 -1.7579 -0.6187
 3205SOL     OW21247   0.533   0.196   2.587  0.2855  0.0643  0.6655
 3205SOL    HW121248   0.563   0.107   2.566 -1.5098  0.2968 -2.9033
 3205SOL    HW221249   0.537   0.197   2.683  0.5095  0.6877  0.6449
 3206SOL     OW21250   1.944   3.544   1.730  0.7587 -0.1428 -0.0570
 3206SOL    HW121251   1.896   3.485   1.789  0.7873 -1.3180 -1.2256
 3206SOL    HW221252   1.871   3.576   1.678  0.8957 -0.5569 -0.5033
 3207SOL     OW21253   1.345   1.363  11.319 -0.4931 -0.7442  0.0707
 3207SOL    HW121254   1.382   1.418  11.388  0.9292  0.5880 -1.7665
 3207SOL    HW221255   1.253   1.370  11.343 -0.7912 -1.6563 -0.7929
 3208SOL     OW21256   0.332   2.021   5.183  0.2599  0.1844 -0.0776
 3208SOL    HW121257   0.293   1.934   5.199 -0.2343  0.2679 -0.8733
 3208SOL    HW221258   0.316   2.066   5.266  1.5852  0.4708  0.0182
 3209SOL     OW21259   3.091   1.789  12.261  0.2528 -0.2847  0.6939
 3209SOL    HW121260   3.059   1.760  12.347 -1.1556 -0.2800  0.1715
 3209SOL    HW221261   3.163   1.849  12.283  1.4374 -0.5844 -2.4215
 3210SOL     OW21262   4.046   0.207   1.157 -0.2838 -0.3128 -0.1941
 3210SOL    HW121263   4.129   0.160   1.159  0.6976  1.3708 -1.3418
 3210SOL    HW221264   3.982   0.139   1.177  0.5132 -0.8409  0.5310
 3211SOL     OW21265   0.392   3.915   0.361 -0.2001 -0.3578 -0.1274
 3211SOL    HW121266   0.471   3.918   0.415 -0.0841  0.9690 -0.3761
 3211SOL    HW221267   0.314   3.905   0.416 -0.2730 -0.9332 -0.3416
 3212SOL     OW21268   4.431   2.834   3.187  0.0061 -0.1778  0.3258
 3212SOL    HW121269   4.344   2.800   3.208  1.5728 -2.1384  3.5972
 3212SOL    HW221270   4.484   2.785   3.250 -1.3986 -1.3025  0.6431
 3213SOL     OW21271   3.934   1.140   3.801 -0.5917 -0.1205 -0.0581
 3213SOL    HW121272   3.992   1.129   3.877  0.1668  0.6715 -0.5339
 3213SOL    HW221273   3.937   1.053   3.762  1.6905 -0.0584  0.0147
 3214SOL     OW21274   2.514   4.035   4.608  0.0748 -0.7245  0.9348
 3214SOL    HW121275   2.576   4.003   4.673 -0.0500 -2.8565  0.0015
 3214SOL    HW221276   2.521   3.978   4.532 -0.9243 -0.2987  0.5158
 3215SOL     OW21277   0.314   0.908   4.404 -0.3077  0.5751 -0.1728
 3215SOL    HW121278   0.380   0.864   4.458  0.4725  0.5357 -1.1632
 3215SOL    HW221279   0.231   0.872   4.434 -0.3428  0.1251 -0.7983
 3216SOL     OW21280   3.736   1.473   8.634  0.0225 -0.1253  0.0869
 3216SOL    HW121281   3.742   1.409   8.705  0.7430 -1.0369 -0.7941
 3216SOL    HW221282   3.763   1.421   8.559 -2.8171  1.4691 -2.0140
 3217SOL     OW21283   0.401   2.152  11.864 -0.2708 -0.6036  0.4046
 3217SOL    HW121284   0.424   2.229  11.916 -0.8271 -2.2960  3.0963
 3217SOL    HW221285   0.314   2.136  11.900 -0.3354  0.1608  0.5871
 3218SOL     OW21286   1.530   3.744   2.169 -0.5411  0.9757  0.2955
 3218SOL    HW121287   1.594   3.811   2.191 -1.4255  2.9194 -3.1298
 3218SOL    HW221288   1.531   3.761   2.075 -2.0521  1.2280  0.3308
 3219SOL     OW21289   1.631   0.407   3.010 -0.5346  0.2948  0.4718
 3219SOL    HW121290   1.639   0.382   3.102 -0.4180 -1.4225 -0.0067
 3219SOL    HW221291   1.543   0.376   2.989 -0.3850  0.3178 -0.2060
 3220SOL     OW21292   0.850   1.316   3.640 -0.4554  0.6683  0.5041
 3220SOL    HW121293   0.822   1.228   3.667 -0.2710 -0.0213 -1.5972
 3220SOL    HW221294   0.935   1.300   3.600 -0.2137 -1.0517  1.6639
 3221SOL     OW21295   3.536   2.445   2.275 -0.2427 -0.0851  0.0980
 3221SOL    HW121296   3.501   2.466   2.189 -1.1818 -2.9020 -0.2175
 3221SOL    HW221297   3.588   2.366   2.256  0.7064  0.3959  0.6923
 3222SOL     OW21298   2.437   0.752   3.481  0.2971  0.1122  0.7071
 3222SOL    HW121299   2.361   0.737   3.424  0.3292  2.1667  0.1526
 3222SOL    HW221300   2.446   0.660   3.506  2.6087 -0.4009 -2.0710
 3223SOL     OW21301   4.134   1.465   9.263 -0.4448 -0.2591 -0.0151
 3223SOL    HW121302   4.179   1.428   9.339  1.7233 -0.2558 -1.2952
 3223SOL    HW221303   4.186   1.542   9.239 -1.7102  1.0929  1.5089
 3224SOL     OW21304   2.207   2.466   1.934 -0.2768  0.2225  0.2234
 3224SOL    HW121305   2.206   2.400   1.865 -1.0685 -0.1586  0.6076
 3224SOL    HW221306   2.228   2.548   1.888 -2.7795  0.6514 -0.1191
 3225SOL     OW21307   2.980   1.260   2.656  0.4170 -0.8409  0.0900
 3225SOL    HW121308   3.021   1.276   2.740 -2.2528  0.8091  1.0844
 3225SOL    HW221309   2.904   1.318   2.657  0.0804 -1.2267 -2.2534
 3226SOL     OW21310   1.412   1.271   2.838 -0.7103 -0.2230 -0.4211
 3226SOL    HW121311   1.408   1.183   2.875 -0.0583 -0.0323  0.0902
 3226SOL    HW221312   1.497   1.307   2.863  0.6155 -2.6673 -1.3275
 3227SOL     OW21313   1.472   0.667  13.566 -0.2130  1.0730 -0.0205
 3227SOL    HW121314   1.474   0.607  13.491  0.9829  0.5278  0.4539
 3227SOL    HW221315   1.460   0.599  13.633 -1.0421 -0.1081 -1.3534
 3228SOL     OW21316   1.384   3.942   4.374  0.1226  0.1540  0.1636
 3228SOL    HW121317   1.454   3.878   4.390  0.8161  1.0902  0.8418
 3228SOL    HW221318   1.398   3.976   4.286  1.8183  0.1429  0.4293
 3229SOL     OW21319   2.742   3.281  14.124  0.7222 -0.0890  0.2584
 3229SOL    HW121320   2.661   3.290  14.074  1.6290 -0.0901 -1.2163
 3229SOL    HW221321   2.802   3.331  14.067  2.6666 -1.6249  0.9755
 3230SOL     OW21322   3.377   3.826  11.398 -0.0920  0.3306 -0.2963
 3230SOL    HW121323   3.392   3.732  11.402  1.1878  0.5245 -0.4987
 3230SOL    HW221324   3.397   3.858  11.486  0.3461 -0.9170  0.0546
 3231SOL     OW21325   4.053   2.417   6.294 -0.2598 -0.4133  0.5018
 3231SOL    HW121326   4.073   2.482   6.362 -0.6670 -0.8601  1.0481
 3231SOL    HW221327   4.137   2.381   6.267 -0.1378 -0.5699  1.0835
 3232SOL     OW21328   0.595   3.409   8.405 -0.6853 -0.2408 -0.0785
 3232SOL    HW121329   0.640   3.420   8.321 -3.0588 -2.4769 -1.6161
 3232SOL    HW221330   0.668   3.397   8.467  1.1807  0.3606 -2.1634
 3233SOL     OW21331   1.805   3.207   4.763  0.3978 -0.1509 -0.4564
 3233SOL    HW121332   1.860   3.131   4.778 -1.0251 -0.6251  2.3278
 3233SOL    HW221333   1.774   3.223   4.852  1.0373  0.2673 -0.3095
 3234SOL     OW21334   4.157   1.943   4.306 -0.1979  0.1502 -0.0557
 3234SOL    HW121335   4.199   1.938   4.392  1.1407 -2.6604 -0.8537
 3234SOL    HW221336   4.162   1.853   4.273 -0.4198 -1.6940  4.9638
 3235SOL     OW21337   4.556   1.873   9.369  0.9484 -0.4922 -0.2961
 3235SOL    HW121338   4.635   1.822   9.387  1.1797 -0.0812 -0.1555
 3235SOL    HW221339   4.581   1.947   9.315  1.7530 -0.0933  0.6324
 3236SOL     OW21340   3.217   1.649   4.907  0.0120  0.4351  0.7318
 3236SOL    HW121341   3.264   1.567   4.921 -0.7936 -0.1536 -0.0408
 3236SOL    HW221342   3.127   1.624   4.928 -0.2258  2.1827  1.8333
 3237SOL     OW21343   4.051   2.540  13.271 -0.3226 -0.7209  0.1288
 3237SOL    HW121344   4.104   2.464  13.293 -1.1289 -1.3533 -0.0975
 3237SOL    HW221345   3.968   2.521  13.316 -1.0115  2.3189  0.1566
 3238SOL     OW21346   2.352   3.354   1.962  0.1139  0.1617  0.1861
 3238SOL    HW121347   2.377   3.444   1.939  0.6999 -0.6490 -2.3690
 3238SOL    HW221348   2.270   3.369   2.009 -0.3018  1.4986 -0.9651
 3239SOL     OW21349   1.762   0.055   8.112 -0.3391 -0.2936 -0.5518
 3239SOL    HW121350   1.797   4.706   8.120 -0.5566 -0.2123  1.1614
 3239SOL    HW221351   1.779   0.079   8.021  0.4632 -0.1434 -0.3609
 3240SOL     OW21352   0.131   1.883  14.384 -0.4297  0.5354  0.1938
 3240SOL    HW121353   0.109   1.834  14.305 -1.7406  1.4241  0.0039
 3240SOL    HW221354   0.071   1.840  14.445  0.0811 -0.1519  0.2069
 3241SOL     OW21355   1.202   4.438  14.075  0.0876 -0.3034 -0.4642
 3241SOL    HW121356   1.165   4.483  14.000 -0.6075 -0.2459 -0.0903
 3241SOL    HW221357   1.291   4.471  14.080 -0.2076  0.1963  1.7388
 3242SOL     OW21358   2.459   2.124  17.245  0.3280  0.0230 -0.2411
 3242SOL    HW121359   2.546   2.146  17.212  0.4911 -1.3319 -0.7166
 3242SOL    HW221360   2.482   2.064  17.315  3.0496 -0.7477 -1.7992
 3243SOL     OW21361   0.716   2.884  10.255  0.0523  0.6720  0.1507
 3243SOL    HW121362   0.797   2.842  10.287  0.4519  0.0976 -1.5976
 3243SOL    HW221363   0.705   2.812  10.193  0.1019  1.2979 -0.5869
 3244SOL     OW21364   3.483   4.132   3.114 -0.0141  0.3459  0.6483
 3244SOL    HW121365   3.441   4.218   3.109 -3.1888 -1.3091 -0.8024
 3244SOL    HW221366   3.413   4.069   3.100 -0.3466  1.2651 -1.7316
 3245SOL     OW21367   3.243   1.087   9.233 -0.0140  0.1197  0.0250
 3245SOL    HW121368   3.197   1.165   9.264 -0.8707 -1.0548  1.7060
 3245SOL    HW221369   3.221   1.034   9.310 -0.8638 -1.8379 -1.5543
 3246SOL     OW21370   0.406   3.421   1.545 -0.4429  0.1672  0.1796
 3246SOL    HW121371   0.419   3.350   1.483 -1.4923 -1.1115  1.4230
 3246SOL    HW221372   0.390   3.380   1.631 -0.0798  1.1409  0.7098
 3247SOL     OW21373   4.236   3.029   7.769 -0.0278  0.2120 -0.3009
 3247SOL    HW121374   4.292   2.992   7.700  0.8754  1.0782 -0.0384
 3247SOL    HW221375   4.226   2.950   7.822 -1.8653  1.3888  1.1035
 3248SOL     OW21376   4.026   2.830   4.447 -0.0301 -0.3804 -0.1776
 3248SOL    HW121377   4.016   2.874   4.362 -4.3551 -2.4424 -0.7546
 3248SOL    HW221378   4.121   2.837   4.457  0.0438  2.4525 -2.9212
 3249SOL     OW21379   1.488   0.942   3.617 -0.6006  0.3100 -0.3157
 3249SOL    HW121380   1.558   0.893   3.659 -0.7033 -2.2282 -3.1215
 3249SOL    HW221381   1.480   1.022   3.669  0.0803 -0.4099  0.8936
 3250SOL     OW21382   2.164   1.328   4.843  0.0181  0.2239 -0.3547
 3250SOL    HW121383   2.219   1.254   4.819  0.0890  0.1893 -0.0808
 3250SOL    HW221384   2.214   1.365   4.915  1.4791 -0.4108 -1.0530
 3251SOL     OW21385   3.651   2.202   4.709 -0.6850  0.7621  0.7172
 3251SOL    HW121386   3.631   2.155   4.628  1.0751 -0.0578  0.7743
 3251SOL    HW221387   3.570   2.188   4.759 -1.2143 -0.0308 -0.3614
 3252SOL     OW21388   1.382   3.641   2.713 -0.3570  0.3095  0.1383
 3252SOL    HW121389   1.298   3.602   2.737 -0.9252  0.6718 -1.2867
 3252SOL    HW221390   1.401   3.574   2.648  0.6629  1.0509 -0.3277
 3253SOL     OW21391   0.949   0.719  17.641  0.4358  0.4204  0.2526
 3253SOL    HW121392   0.975   0.787  17.704  1.1058 -0.0985  0.5496
 3253SOL    HW221393   0.885   0.673  17.696  1.5879 -1.6370 -0.1047
 3254SOL     OW21394   4.026   3.954   8.428 -0.4970 -0.4684 -0.3789
 3254SOL    HW121395   4.017   4.044   8.396  0.2746 -0.0539  0.5898
 3254SOL    HW221396   4.046   3.947   8.521 -0.9345  0.7101 -0.1958
 3255SOL     OW21397   2.564   3.585   9.516  0.8077  0.1039 -0.0589
 3255SOL    HW121398   2.540   3.497   9.543  2.1523  0.3152  1.8955
 3255SOL    HW221399   2.633   3.598   9.582  0.0711 -0.0982  0.7488
 3256SOL     OW21400   2.696   2.921  11.744  0.0464  0.4717 -0.3476
 3256SOL    HW121401   2.718   2.829  11.752  0.1007  0.6658  1.5920
 3256SOL    HW221402   2.698   2.937  11.649 -1.5236  1.5153 -0.2227
 3257SOL     OW21403   2.429   2.229   4.676  0.3095 -0.0979 -0.0780
 3257SOL    HW121404   2.415   2.263   4.588 -0.5231 -0.6212 -0.1467
 3257SOL    HW221405   2.405   2.138   4.660 -0.0200 -0.2388  1.1717
 3258SOL     OW21406   1.979   1.422   3.037  0.2004  0.1214  0.3177
 3258SOL    HW121407   2.066   1.409   3.073 -0.2402  0.0946  1.3791
 3258SOL    HW221408   1.945   1.337   3.066  3.3040 -0.9024  0.9849
 3259SOL     OW21409   3.945   0.725   7.222  0.0833  0.0621  0.5248
 3259SOL    HW121410   4.027   0.718   7.269 -0.1154 -0.0161  0.8620
 3259SOL    HW221411   3.900   0.647   7.255 -1.1349  0.8434  0.7182
 3260SOL     OW21412   3.398   4.713   5.952  0.2932  0.1898  0.0651
 3260SOL    HW121413   3.471   0.031   5.973 -0.5132  0.6647  1.5620
 3260SOL    HW221414   3.379   4.674   6.038  1.7853 -2.5760 -0.8836
 3261SOL     OW21415   0.698   0.046   4.146 -0.3313 -1.0659 -0.3948
 3261SOL    HW121416   0.790   0.026   4.164  0.1871  0.5827 -1.1562
 3261SOL    HW221417   0.651   4.703   4.134 -1.2677 -0.8158  1.6838
 3262SOL     OW21418   1.114   1.640   2.031  0.2713 -0.1674  0.1180
 3262SOL    HW121419   1.100   1.724   2.075  1.3398  0.2610 -0.3644
 3262SOL    HW221420   1.033   1.636   1.980 -0.9267 -1.1974  2.0859
 3263SOL     OW21421   0.820   1.675   2.780 -0.2875  0.1330  0.4583
 3263SOL    HW121422   0.780   1.614   2.718 -1.8439 -0.0086  1.5860
 3263SOL    HW221423   0.909   1.696   2.752  0.3639 -1.0940  1.6072
 3264SOL     OW21424   0.310   0.374   6.781  0.2133 -0.2840  0.0006
 3264SOL    HW121425   0.234   0.347   6.832 -1.0388  1.1143 -1.1261
 3264SOL    HW221426   0.377   0.357   6.847  1.0629 -1.3791 -1.1381
 3265SOL     OW21427   2.869   2.677   2.093  0.0720 -0.2806  0.2647
 3265SOL    HW121428   2.849   2.752   2.149  1.3936 -0.8568  1.5274
 3265SOL    HW221429   2.939   2.639   2.146  1.1499 -1.5107 -2.0886
 3266SOL     OW21430   0.966   1.692   8.091 -0.7706 -0.1483 -0.0480
 3266SOL    HW121431   0.919   1.653   8.165 -0.0594  0.9796  0.9994
 3266SOL    HW221432   1.053   1.660   8.114 -1.0989 -0.6145  0.5289
 3267SOL     OW21433   4.516   1.776   5.353  0.0274  0.1057 -0.0594
 3267SOL    HW121434   4.475   1.858   5.379  1.6522  1.2075 -1.0188
 3267SOL    HW221435   4.572   1.752   5.428  0.7786  2.9893  0.2991
 3268SOL     OW21436   0.753   2.459  11.088 -0.0212  0.4274 -0.8785
 3268SOL    HW121437   0.763   2.383  11.145  2.0696  1.2085 -0.2209
 3268SOL    HW221438   0.790   2.527  11.144  2.2024 -2.6764  1.4008
 3269SOL     OW21439   3.111   1.987   7.849 -0.2352  0.3390  0.2907
 3269SOL    HW121440   3.026   2.024   7.825 -0.1467  0.2110 -0.2152
 3269SOL    HW221441   3.158   1.989   7.766  2.8155  2.2175  2.0617
 3270SOL     OW21442   3.533   3.134   1.701 -0.7145  0.1090 -0.1871
 3270SOL    HW121443   3.598   3.203   1.682 -0.5465  0.9515  3.4837
 3270SOL    HW221444   3.589   3.057   1.704 -0.5402  0.3012  1.4448
 3271SOL     OW21445   3.297   4.265   1.173 -0.2045  0.3857 -0.3163
 3271SOL    HW121446   3.360   4.262   1.102  0.4853 -0.4971  0.3283
 3271SOL    HW221447   3.221   4.227   1.127  1.0265 -1.8066 -0.5625
 3272SOL     OW21448   4.696   4.737   3.694 -0.1223 -1.2167 -0.2309
 3272SOL    HW121449   4.719   4.720   3.602  0.7081 -0.1243 -0.2270
 3272SOL    HW221450   4.613   4.693   3.712  0.3371 -1.2490  1.7932
 3273SOL     OW21451   4.323   4.589   5.980 -0.0148  0.0983  0.0052
 3273SOL    HW121452   4.361   4.673   6.006  1.2881 -0.7989  1.0200
 3273SOL    HW221453   4.271   4.618   5.905  0.3179 -0.6772 -0.5304
 3274SOL     OW21454   1.039   0.310   7.895 -0.5636 -0.3389  0.0677
 3274SOL    HW121455   0.973   0.361   7.942  0.6439  0.3754  1.0118
 3274SOL    HW221456   1.111   0.373   7.901  0.5735 -1.5889 -0.4071
 3275SOL     OW21457   1.971   1.461   6.168 -0.2641 -0.4379  0.4931
 3275SOL    HW121458   2.061   1.493   6.168 -0.0290 -1.0960  0.5306
 3275SOL    HW221459   1.953   1.446   6.075 -1.0418 -0.3369  0.6263
 3276SOL     OW21460   0.113   1.271   7.087  0.0040  0.1575  0.1758
 3276SOL    HW121461   0.180   1.318   7.037 -0.5276  1.2360  0.4678
 3276SOL    HW221462   0.040   1.260   7.026  1.2695 -2.4868 -0.8558
 3277SOL     OW21463   1.177   2.528   3.664  0.4271 -0.0882 -0.2419
 3277SOL    HW121464   1.221   2.446   3.641 -0.5829 -1.0644  1.2454
 3277SOL    HW221465   1.088   2.516   3.630  1.0448 -0.9617 -1.5484
 3278SOL     OW21466   1.096   0.040   4.864 -0.4133 -0.1831  0.3297
 3278SOL    HW121467   1.164   0.081   4.918  0.4250 -2.4006  0.9653
 3278SOL    HW221468   1.132   0.030   4.776 -3.0408 -1.8724 -0.5451
 3279SOL     OW21469   3.576   0.747   8.400  0.6268 -0.0383 -0.5727
 3279SOL    HW121470   3.515   0.679   8.430 -0.5887  1.2945 -0.0346
 3279SOL    HW221471   3.654   0.753   8.455 -0.3650 -2.1316  1.0436
 3280SOL     OW21472   2.991   4.465  12.503 -0.1282  0.0528  0.0910
 3280SOL    HW121473   3.015   4.462  12.410  1.4619  0.5016  0.4922
 3280SOL    HW221474   2.929   4.393  12.510 -1.5279  1.5051  2.6153
 3281SOL     OW21475   0.983   0.597   8.383  0.8070 -0.0800  0.4395
 3281SOL    HW121476   1.010   0.672   8.435  1.6958  0.7870 -1.2559
 3281SOL    HW221477   1.012   0.619   8.294 -0.2034 -1.5498 -0.2704
 3282SOL     OW21478   1.814   3.547   6.945  0.4630 -0.0748  0.2901
 3282SOL    HW121479   1.728   3.587   6.934 -0.2836 -1.0110  2.6586
 3282SOL    HW221480   1.866   3.604   6.888  0.3481  0.3602  0.6178
 3283SOL     OW21481   0.732   0.463   6.868 -0.1038  0.3508 -0.0197
 3283SOL    HW121482   0.826   0.448   6.872 -0.0674  0.6440  0.2227
 3283SOL    HW221483   0.727   0.557   6.850  1.0296 -0.0679 -2.5311
 3284SOL     OW21484   1.613   4.639  16.663 -0.0209  0.1561  0.1796
 3284SOL    HW121485   1.531   4.684  16.682 -1.7335 -2.8162 -0.1932
 3284SOL    HW221486   1.637   4.604  16.749 -0.3273 -0.4296  0.0264
 3285SOL     OW21487   3.491   0.997  15.889  0.3136  0.2145 -0.6056
 3285SOL    HW121488   3.446   0.917  15.864 -1.0323  0.4642  1.0119
 3285SOL    HW221489   3.409   1.042  15.908  0.8750  0.7912  0.4964
 3286SOL     OW21490   0.474   3.022   1.202 -0.1488  0.3471  0.5254
 3286SOL    HW121491   0.474   3.064   1.116 -1.5204  0.1167  0.4202
 3286SOL    HW221492   0.565   2.990   1.203 -1.4627 -3.4026  0.4389
 3287SOL     OW21493   1.769   4.212  10.234  0.1208 -0.4656 -0.4649
 3287SOL    HW121494   1.745   4.304  10.247  0.9488 -0.5007  1.4041
 3287SOL    HW221495   1.851   4.210  10.283  0.9055 -0.9114 -1.8124
 3288SOL     OW21496   4.518   2.951   5.883  0.2369 -1.0476 -0.0116
 3288SOL    HW121497   4.505   3.042   5.857 -0.4933 -0.7202  1.4558
 3288SOL    HW221498   4.597   2.931   5.834  0.4734 -0.9158  0.3149
 3289SOL     OW21499   0.794   1.280   5.494  0.2360 -0.0198  0.1360
 3289SOL    HW121500   0.804   1.185   5.502 -0.5146 -0.1799 -0.8816
 3289SOL    HW221501   0.885   1.309   5.496  0.3588 -0.4068  0.2173
 3290SOL     OW21502   3.781   3.471   9.127  0.1053  0.5766 -0.1215
 3290SOL    HW121503   3.799   3.402   9.063  2.0281 -1.0945  2.2338
 3290SOL    HW221504   3.820   3.442   9.209 -1.9906  1.4832  1.2047
 3291SOL     OW21505   4.506   0.239   5.734 -0.4737 -0.0952  0.9303
 3291SOL    HW121506   4.411   0.227   5.732 -0.2171 -1.8804  0.0967
 3291SOL    HW221507   4.541   0.159   5.695 -0.2765  0.2592  0.3785
 3292SOL     OW21508   2.188   3.149  10.369 -0.5171 -0.4894  0.1316
 3292SOL    HW121509   2.260   3.160  10.307 -1.1879  0.6373 -0.4601
 3292SOL    HW221510   2.214   3.224  10.422 -1.4893  0.4146 -0.6670
 3293SOL     OW21511   0.633   1.231   7.475  0.0921 -0.1903  0.2028
 3293SOL    HW121512   0.577   1.161   7.507 -2.5657  1.1300 -1.5346
 3293SOL    HW221513   0.701   1.235   7.542  0.8938 -0.8089 -0.5606
 3294SOL     OW21514   3.429   4.017   7.653 -0.3155 -0.0114  0.3311
 3294SOL    HW121515   3.342   4.019   7.613 -0.7902 -0.5023  1.3593
 3294SOL    HW221516   3.450   4.109   7.638  0.8826  0.0383  2.2846
 3295SOL     OW21517   4.048   1.566   5.756  0.0016  0.2862 -0.2440
 3295SOL    HW121518   4.079   1.630   5.820 -1.3737  0.5510  0.1585
 3295SOL    HW221519   4.009   1.630   5.696 -0.5045  0.6288  0.4362
 3296SOL     OW21520   0.607   0.963   5.646  0.1398  0.5731  0.1956
 3296SOL    HW121521   0.581   1.001   5.562 -1.9786 -0.6033  0.3283
 3296SOL    HW221522   0.524   0.941   5.688  0.9208 -0.5280  1.1356
 3297SOL     OW21523   3.333   1.805  14.469  0.4727  0.4821  0.6991
 3297SOL    HW121524   3.280   1.818  14.547 -2.7528  2.3597 -1.7972
 3297SOL    HW221525   3.273   1.858  14.416 -1.6164 -2.3382  0.2488
 3298SOL     OW21526   0.495   2.965   3.984 -0.3161 -0.1374  0.6064
 3298SOL    HW121527   0.524   2.897   3.924 -0.4028  0.0986  0.2984
 3298SOL    HW221528   0.402   2.982   3.966 -0.1437  0.7419  0.5855
 3299SOL     OW21529   1.546   3.768   1.903 -0.3316 -0.3694 -0.3170
 3299SOL    HW121530   1.637   3.799   1.900 -0.8704  1.5028  1.7758
 3299SOL    HW221531   1.507   3.823   1.835 -0.0993  1.6986  1.2005
 3300SOL     OW21532   0.543   0.262   9.021  0.0225  0.5003 -0.3154
 3300SOL    HW121533   0.485   0.188   9.039  0.5041 -0.0421 -1.0227
 3300SOL    HW221534   0.626   0.221   8.997  0.9312  0.3278  3.1689
 3301SOL     OW21535   1.923   0.925   1.079 -0.4727 -0.0812  0.1013
 3301SOL    HW121536   1.837   0.960   1.104 -1.2237 -1.4602 -0.5772
 3301SOL    HW221537   1.971   1.008   1.073  0.4129 -0.5237  1.1405
 3302SOL     OW21538   1.899   0.037   4.618 -0.5054  0.2508  0.0288
 3302SOL    HW121539   1.921   4.686   4.596 -0.9833 -0.5413  2.7283
 3302SOL    HW221540   1.899   0.032   4.714  3.1704 -4.2970 -0.2248
 3303SOL     OW21541   2.394   2.724   0.821  0.0185 -0.0217  0.0888
 3303SOL    HW121542   2.445   2.803   0.840 -1.0328  0.6688  0.0648
 3303SOL    HW221543   2.313   2.751   0.864  0.2331 -0.7353  0.9240
 3304SOL     OW21544   4.603   2.127   6.206 -0.1815 -0.7653  0.2524
 3304SOL    HW121545   4.649   2.084   6.279  1.9901 -2.8666 -2.3540
 3304SOL    HW221546   4.527   2.069   6.209  0.9972 -2.2581  1.3968
 3305SOL     OW21547   0.925   4.437  16.451 -0.5619 -0.2812 -0.7648
 3305SOL    HW121548   0.989   4.496  16.490  0.0721 -1.9221  0.6669
 3305SOL    HW221549   0.983   4.365  16.427 -0.0535 -0.3103  0.5727
 3306SOL     OW21550   4.250   3.644   5.813 -0.0937  0.5524  0.1264
 3306SOL    HW121551   4.312   3.616   5.881  0.1121 -0.7668 -0.6109
 3306SOL    HW221552   4.181   3.684   5.865  0.4139 -0.6785  1.7714
 3307SOL     OW21553   4.400   1.273   1.924 -0.1537  0.2167  0.0802
 3307SOL    HW121554   4.381   1.232   2.009  2.6652  0.0556  0.6231
 3307SOL    HW221555   4.474   1.218   1.901 -1.9708 -2.1906 -0.0206
 3308SOL     OW21556   2.665   1.776   2.310 -0.4889 -0.2969 -0.6319
 3308SOL    HW121557   2.696   1.702   2.258 -0.0200  0.8276 -1.9506
 3308SOL    HW221558   2.625   1.831   2.243 -1.2090  1.1897  1.0283
 3309SOL     OW21559   4.248   2.745   3.778 -0.4530 -0.2041  0.4196
 3309SOL    HW121560   4.325   2.694   3.752  0.3415  0.6920  0.9864
 3309SOL    HW221561   4.202   2.749   3.695  2.8562  0.0027 -1.3935
 3310SOL     OW21562   0.399   4.075   2.278  0.7806  0.5023  0.5992
 3310SOL    HW121563   0.364   4.024   2.351 -1.9889 -1.1357 -1.8714
 3310SOL    HW221564   0.326   4.058   2.218 -0.2604 -0.7698  2.2377
 3311SOL     OW21565   0.375   1.969   2.017  0.1586 -0.0924  0.2247
 3311SOL    HW121566   0.308   1.949   2.083 -0.7146  1.2137 -0.2615
 3311SOL    HW221567   0.439   2.017   2.069  0.7224 -0.4421 -0.1455
 3312SOL     OW21568   0.349   3.636  16.888  0.0003 -0.2767  0.0058
 3312SOL    HW121569   0.375   3.660  16.799  0.8054  2.9641  1.1063
 3312SOL    HW221570   0.374   3.544  16.889 -0.2128 -0.3478 -1.4308
 3313SOL     OW21571   2.696   1.924   5.074  0.1709  0.3747 -0.5684
 3313SOL    HW121572   2.684   1.831   5.093 -0.8756  0.9302  1.5021
 3313SOL    HW221573   2.679   1.962   5.161 -1.9055 -0.2665 -0.7122
 3314SOL     OW21574   3.086   4.291  10.650  0.3987 -0.5781  0.0113
 3314SOL    HW121575   2.995   4.300  10.621 -0.8280 -0.6276  3.9165
 3314SOL    HW221576   3.086   4.212  10.704  1.9563 -0.1898  0.5736
 3315SOL     OW21577   3.398   1.999   8.290 -0.0266  0.3419  0.1118
 3315SOL    HW121578   3.440   1.918   8.259  0.7623  0.0365  1.9104
 3315SOL    HW221579   3.347   2.023   8.213  1.0911  0.4214 -0.5995
 3316SOL     OW21580   1.092   3.310   8.975 -0.2091 -0.1784  0.1949
 3316SOL    HW121581   1.014   3.301   8.920 -0.7874  0.7364  0.8762
 3316SOL    HW221582   1.054   3.300   9.062  0.0741  1.0094  0.4514
 3317SOL     OW21583   0.950   3.775   2.576  0.1017  0.5675  0.6361
 3317SOL    HW121584   0.894   3.851   2.592  0.3072  0.2553  2.8343
 3317SOL    HW221585   0.949   3.731   2.661 -1.5647 -2.0218 -0.7194
 3318SOL     OW21586   2.762   2.943   4.507 -0.3434  0.2468 -0.2947
 3318SOL    HW121587   2.748   2.891   4.428 -1.7024  1.5177 -0.8950
 3318SOL    HW221588   2.747   3.029   4.468 -0.4616  1.1887  1.8413
 3319SOL     OW21589   3.922   1.171   6.353  0.5332 -0.2352  0.0314
 3319SOL    HW121590   4.018   1.175   6.348  0.5157  1.8530  1.3073
 3319SOL    HW221591   3.889   1.169   6.263  1.9878  0.6838 -0.5187
 3320SOL     OW21592   1.526   1.212   8.757 -0.4678 -0.2547  0.2443
 3320SOL    HW121593   1.562   1.145   8.815  1.0935  0.1449 -0.2618
 3320SOL    HW221594   1.526   1.159   8.678  0.5730 -1.4164  1.0217
 3321SOL     OW21595   3.404   3.245   7.008 -0.4952 -0.0982  0.3485
 3321SOL    HW121596   3.441   3.157   7.012 -2.8076 -1.0638  0.4979
 3321SOL    HW221597   3.331   3.238   6.947  0.2869 -0.7410 -0.5053
 3322SOL     OW21598   0.894   0.668  12.590  0.1026  0.0397  0.7473
 3322SOL    HW121599   0.837   0.744  12.599 -0.1847  0.3091 -3.2089
 3322SOL    HW221600   0.848   0.635  12.512  1.3848 -1.5200  0.6478
 3323SOL     OW21601   0.050   1.644   6.770 -0.4710  0.5410  0.1184
 3323SOL    HW121602   0.134   1.601   6.785 -0.4046  0.1821 -1.2619
 3323SOL    HW221603   0.013   1.582   6.708 -2.4579  1.1615  0.6972
 3324SOL     OW21604   4.271   3.532   6.445  0.2627 -0.0671  0.2687
 3324SOL    HW121605   4.264   3.498   6.534 -0.1247  1.0944  0.6816
 3324SOL    HW221606   4.364   3.515   6.430  0.1342 -0.4873 -0.0757
 3325SOL     OW21607   3.170   2.898   1.836 -0.0817  0.0124  0.2511
 3325SOL    HW121608   3.160   2.906   1.741  3.3586  0.8653 -0.0618
 3325SOL    HW221609   3.078   2.883   1.854 -0.0418 -0.7077 -0.1308
 3326SOL     OW21610   4.228   1.702  14.968 -0.2309 -0.4310 -0.0533
 3326SOL    HW121611   4.195   1.780  14.923  2.3408  0.3565 -0.5883
 3326SOL    HW221612   4.243   1.647  14.892 -1.6160 -4.8025  2.8475
 3327SOL     OW21613   0.322   0.667  13.375  0.1853 -0.1629 -0.4937
 3327SOL    HW121614   0.387   0.667  13.445  0.7050 -0.8986 -0.9743
 3327SOL    HW221615   0.278   0.585  13.398 -0.4733  0.5248  0.7533
 3328SOL     OW21616   1.780   4.514  10.271  0.4863 -0.4047 -0.0904
 3328SOL    HW121617   1.774   4.549  10.183  0.1556 -1.4344 -0.4788
 3328SOL    HW221618   1.871   4.484  10.273  0.5179 -0.3204 -0.3861
 3329SOL     OW21619   1.130   2.307  17.304 -0.6843  0.0249 -0.4838
 3329SOL    HW121620   1.154   2.368  17.234  0.0528  0.5734  0.2415
 3329SOL    HW221621   1.212   2.258  17.314  0.7086  2.0005 -1.9655
 3330SOL     OW21622   3.800   3.909   2.012  0.0140 -0.4064  0.6325
 3330SOL    HW121623   3.780   3.858   1.934  1.0627  1.3472 -0.7879
 3330SOL    HW221624   3.814   3.841   2.077  0.1657 -0.0222  1.0037
 3331SOL     OW21625   1.421   3.494   3.848 -0.3536 -0.1230  0.6530
 3331SOL    HW121626   1.432   3.472   3.941  1.6819 -0.1047  0.4091
 3331SOL    HW221627   1.481   3.431   3.809  0.1029  0.9830 -0.4166
 3332SOL     OW21628   4.574   4.487  11.844  0.8092  0.4539  0.1327
 3332SOL    HW121629   4.512   4.461  11.912  1.9316  3.8195  2.4456
 3332SOL    HW221630   4.542   4.567  11.802 -0.1137 -0.4166 -0.8339
 3333SOL     OW21631   2.293   3.777  12.949  0.7244  0.1153  0.1687
 3333SOL    HW121632   2.284   3.819  12.863 -0.5686 -0.7481 -0.1033
 3333SOL    HW221633   2.382   3.801  12.977 -0.2638  1.2177  2.3496
 3334SOL     OW21634   0.105   3.717   2.240 -0.1987  0.7801  0.8471
 3334SOL    HW121635   0.090   3.623   2.233  2.1409  0.6429 -2.6315
 3334SOL    HW221636   0.015   3.747   2.222  0.1879  1.0607 -0.6852
 3335SOL     OW21637   3.606   0.618   1.690  1.8912  0.5207  0.0006
 3335SOL    HW121638   3.621   0.660   1.605  2.4942  0.2585 -0.0287
 3335SOL    HW221639   3.651   0.535   1.676 -2.6320 -1.6849 -1.4151
 3336SOL     OW21640   4.316   2.563   2.571  0.2275 -0.6038  0.6528
 3336SOL    HW121641   4.304   2.626   2.500 -0.5749  0.3258  1.6048
 3336SOL    HW221642   4.229   2.525   2.575  0.6836 -1.7926 -1.0125
 3337SOL     OW21643   2.665   2.830  17.579 -0.6132 -0.1704  0.5975
 3337SOL    HW121644   2.653   2.818  17.673  0.5545  0.2589  0.8030
 3337SOL    HW221645   2.685   2.747  17.533 -1.6208 -0.3124  0.4236
 3338SOL     OW21646   0.020   3.717   2.854  0.1219  0.6279  0.3702
 3338SOL    HW121647   4.685   3.685   2.803 -0.0045 -0.3708  1.1732
 3338SOL    HW221648   0.012   3.663   2.933 -0.1186  0.8318  0.4831
 3339SOL     OW21649   1.677   1.910   3.522  0.1866  0.2016  0.6361
 3339SOL    HW121650   1.770   1.932   3.522 -0.1072  1.4438 -3.0624
 3339SOL    HW221651   1.650   1.920   3.431  0.2844 -0.6426  0.5122
 3340SOL     OW21652   1.044   4.234   7.148 -0.2253 -0.1854 -0.4805
 3340SOL    HW121653   1.096   4.315   7.147 -0.2147 -0.1864  0.5427
 3340SOL    HW221654   0.966   4.266   7.193  0.6880  1.0027  0.2578
 3341SOL     OW21655   0.738   1.778   3.215  0.2816  0.2440 -0.1032
 3341SOL    HW121656   0.820   1.808   3.255  0.4460 -0.6276  0.2094
 3341SOL    HW221657   0.721   1.857   3.165 -0.9195  0.0365 -0.0273
 3342SOL     OW21658   1.656   2.990   8.058  0.6199 -0.2552  0.1102
 3342SOL    HW121659   1.688   3.067   8.105 -0.2939  0.0720  0.2046
 3342SOL    HW221660   1.736   2.938   8.061  0.6937 -0.1336  0.2665
 3343SOL     OW21661   2.800   0.161   7.696 -0.4285  0.0336  0.1350
 3343SOL    HW121662   2.846   0.108   7.761 -0.5596 -0.6395 -0.3249
 3343SOL    HW221663   2.800   0.243   7.745  0.2544  0.0933  0.0384
 3344SOL     OW21664   2.629   1.599  11.142 -0.7525  0.0367  0.3879
 3344SOL    HW121665   2.685   1.674  11.122 -0.1096 -1.6879 -4.0355
 3344SOL    HW221666   2.688   1.527  11.123  1.0040  1.7870 -0.8422
 3345SOL     OW21667   2.201   3.042   6.004 -0.2744  0.0955 -0.2797
 3345SOL    HW121668   2.118   2.996   6.009  0.0538 -0.4279  0.3395
 3345SOL    HW221669   2.219   3.057   6.096  3.5628 -2.5079 -0.5755
 3346SOL     OW21670   4.113   2.272   1.243 -0.3388 -0.0457 -0.4110
 3346SOL    HW121671   4.204   2.245   1.253 -0.4608 -0.4538 -0.4036
 3346SOL    HW221672   4.116   2.358   1.285 -2.9091 -0.0892 -0.1340
 3347SOL     OW21673   0.277   0.178   1.999  0.0811 -0.1468  0.0728
 3347SOL    HW121674   0.287   0.104   2.059 -0.4893 -0.1328  0.1921
 3347SOL    HW221675   0.284   0.118   1.924 -2.6935 -2.0142  1.2839
 3348SOL     OW21676   2.493   0.010   8.891  0.0715  0.1737  0.2359
 3348SOL    HW121677   2.496   0.070   8.966  0.6499 -0.9832  1.1264
 3348SOL    HW221678   2.437   4.682   8.929  0.1276 -0.0885 -0.1431
 3349SOL     OW21679   2.720   4.623   2.802  0.1186  0.7464  0.1508
 3349SOL    HW121680   2.723   4.553   2.737 -0.9439 -0.7688  1.7494
 3349SOL    HW221681   2.626   4.639   2.809 -0.0368 -0.7435  1.5034
 3350SOL     OW21682   0.098   3.148   3.347  0.1202 -0.2443  0.2838
 3350SOL    HW121683   0.035   3.177   3.414  0.3731  0.4288  0.2326
 3350SOL    HW221684   0.117   3.234   3.308 -0.0935  0.9196  2.6985
 3351SOL     OW21685   1.538   0.531   7.154 -0.0312  0.4134 -1.0063
 3351SOL    HW121686   1.537   0.461   7.089  1.1453 -0.2589 -0.3193
 3351SOL    HW221687   1.460   0.506   7.204  0.9548 -1.8352 -0.5495
 3352SOL     OW21688   2.272   3.423  11.833 -0.1765 -0.8356  0.3820
 3352SOL    HW121689   2.333   3.364  11.877 -0.2282 -1.1761 -0.0058
 3352SOL    HW221690   2.187   3.378  11.840  0.1385 -0.9205  3.7696
 3353SOL     OW21691   3.762   2.013  14.250  0.1528 -0.0751  0.2277
 3353SOL    HW121692   3.683   1.972  14.285  1.0319 -2.8108 -1.0166
 3353SOL    HW221693   3.815   2.000  14.328 -1.0701  1.5963  1.3328
 3354SOL     OW21694   0.897   2.955   5.572  0.3587  0.0998 -0.6527
 3354SOL    HW121695   0.835   3.023   5.597  0.9998 -0.5982  2.9717
 3354SOL    HW221696   0.984   2.989   5.593  1.6805 -1.7790 -3.1731
 3355SOL     OW21697   1.882   1.193  17.600  0.1392 -0.8134 -0.4465
 3355SOL    HW121698   1.845   1.212  17.514  1.8686  1.3958 -0.7199
 3355SOL    HW221699   1.973   1.187  17.569  0.1246  0.5307 -0.7346
 3356SOL     OW21700   3.749   0.094   9.872 -0.3198 -0.5533 -0.0667
 3356SOL    HW121701   3.839   0.062   9.881 -0.1139  0.2563  0.8256
 3356SOL    HW221702   3.737   0.158   9.943 -1.4791 -1.0246  0.1686
 3357SOL     OW21703   4.352   0.161   1.398  0.4619 -0.2305 -0.0976
 3357SOL    HW121704   4.334   0.084   1.452  0.4894 -0.0569  0.1575
 3357SOL    HW221705   4.304   0.140   1.318 -1.6731  0.7358  0.9494
 3358SOL     OW21706   2.620   4.154   4.886 -0.2670  0.3370 -0.3260
 3358SOL    HW121707   2.547   4.151   4.947 -2.0291  0.3861 -2.4434
 3358SOL    HW221708   2.650   4.063   4.886  1.2359  0.8126  2.5978
 3359SOL     OW21709   4.349   4.046  17.587  0.2529  0.0230 -0.3450
 3359SOL    HW121710   4.362   4.088  17.671 -0.3454 -0.4438 -0.0167
 3359SOL    HW221711   4.271   3.991  17.602 -1.2233  2.5074  1.0040
 3360SOL     OW21712   1.519   1.387  11.093 -0.3581 -0.4644  0.6355
 3360SOL    HW121713   1.524   1.482  11.102 -1.1781 -0.1646 -2.0029
 3360SOL    HW221714   1.453   1.372  11.160 -1.0299  0.6062  0.2150
 3361SOL     OW21715   2.908   0.071  11.918  0.0221 -0.0616 -0.1886
 3361SOL    HW121716   2.916   0.160  11.951  0.7116  0.2752 -1.2595
 3361SOL    HW221717   2.860   0.036  11.993  0.2399  0.3286  0.1272
 3362SOL     OW21718   3.006   0.460   3.134  0.1772 -0.6544 -0.3266
 3362SOL    HW121719   2.957   0.378   3.147 -1.3432  0.4745  1.1003
 3362SOL    HW221720   3.025   0.452   3.041 -1.5889  0.1629 -0.7553
 3363SOL     OW21721   2.818   0.624   9.788 -0.9591  0.1197  0.1315
 3363SOL    HW121722   2.786   0.638   9.699 -0.8290 -0.9827 -0.0868
 3363SOL    HW221723   2.739   0.585   9.826 -0.9458  2.3489  2.4767
 3364SOL     OW21724   1.812   4.073   1.416 -0.3615 -0.4313 -0.5080
 3364SOL    HW121725   1.852   4.155   1.386  0.5934 -0.7747 -0.1732
 3364SOL    HW221726   1.859   4.006   1.367 -0.4663 -0.8468 -0.0329
 3365SOL     OW21727   1.143   1.620   5.316  0.0638  0.9188  0.2920
 3365SOL    HW121728   1.231   1.604   5.349 -0.3866 -1.4300  0.3993
 3365SOL    HW221729   1.135   1.541   5.262 -0.0979 -0.3086  2.1239
 3366SOL     OW21730   0.313   1.211   3.634 -0.1244 -0.1710  0.7173
 3366SOL    HW121731   0.359   1.273   3.690 -1.2933 -0.4341  1.9530
 3366SOL    HW221732   0.221   1.216   3.662 -1.0599 -0.9897 -2.1864
 3367SOL     OW21733   2.378   0.370   6.345  0.0707  0.0660 -0.3909
 3367SOL    HW121734   2.443   0.302   6.326  1.0939  1.1515 -0.7331
 3367SOL    HW221735   2.427   0.448   6.322 -1.7798  0.9630 -1.2930
 3368SOL     OW21736   1.611   3.526   5.300 -0.4244 -0.1981 -0.4746
 3368SOL    HW121737   1.566   3.599   5.256  0.4790  0.8560  0.3531
 3368SOL    HW221738   1.700   3.546   5.272 -1.5169  3.5231 -1.3329
 3369SOL     OW21739   0.946   3.924   4.772 -0.5733 -0.2636  0.4828
 3369SOL    HW121740   0.917   3.941   4.682  2.8257 -2.3082 -1.0100
 3369SOL    HW221741   1.036   3.955   4.759 -0.7364 -0.1747 -0.4515
 3370SOL     OW21742   2.212   3.465   6.452  0.0482 -1.0217 -0.1084
 3370SOL    HW121743   2.251   3.396   6.507 -0.3023 -1.7804 -0.8180
 3370SOL    HW221744   2.210   3.416   6.370 -0.8090 -0.3161 -0.5028
 3371SOL     OW21745   1.124   1.257   0.391  0.1364  0.2582 -0.4364
 3371SOL    HW121746   1.089   1.199   0.458 -1.1434  0.4821 -0.9020
 3371SOL    HW221747   1.189   1.301   0.446  2.1124 -1.6923 -1.2098
 3372SOL     OW21748   0.362   0.231  17.049  0.0912 -0.1244 -0.3859
 3372SOL    HW121749   0.272   0.247  17.079  0.7805 -0.3931  1.8490
 3372SOL    HW221750   0.357   0.191  16.963  2.7446 -2.3528  0.5057
 3373SOL     OW21751   0.581   0.911   3.632  0.2997 -0.3309  0.5558
 3373SOL    HW121752   0.625   0.982   3.584 -0.2029  0.1746  0.8477
 3373SOL    HW221753   0.630   0.915   3.714  0.0300  0.7805  0.6628
 3374SOL     OW21754   3.398   2.316  16.386 -0.6318  0.4742  0.1202
 3374SOL    HW121755   3.365   2.354  16.468  1.5550  3.2734 -0.3135
 3374SOL    HW221756   3.393   2.221  16.398  0.3763  0.4571  0.3533
 3375SOL     OW21757   1.620   0.887   6.901  0.0453  0.0244  0.2818
 3375SOL    HW121758   1.706   0.849   6.880 -0.5415 -0.5835 -1.0503
 3375SOL    HW221759   1.593   0.950   6.834 -0.1826  2.0914  2.3333
 3376SOL     OW21760   1.586   2.620  11.571 -0.1904  0.0825  0.0942
 3376SOL    HW121761   1.677   2.600  11.595 -0.1187 -1.4223 -1.4585
 3376SOL    HW221762   1.602   2.645  11.480  2.2687  1.9754  1.0263
 3377SOL     OW21763   0.283   3.530   4.333  0.0291  0.4335  0.0039
 3377SOL    HW121764   0.252   3.460   4.391 -1.9871  1.8940  0.6722
 3377SOL    HW221765   0.359   3.561   4.383  0.3034 -1.7418  0.9483
 3378SOL     OW21766   3.062   2.703   6.410 -0.0787 -0.4001  0.1023
 3378SOL    HW121767   3.148   2.728   6.446 -0.0495 -0.1692 -0.1272
 3378SOL    HW221768   3.016   2.786   6.408 -1.0165 -0.9321 -0.1245
 3379SOL     OW21769   3.038   0.806   9.786  0.1758  0.2595 -0.5827
 3379SOL    HW121770   2.961   0.750   9.799  1.9600 -1.3231  3.1462
 3379SOL    HW221771   3.072   0.779   9.701  0.8935 -0.7614  0.0301
 3380SOL     OW21772   4.097   1.897  17.460  0.6205 -0.5369  0.0878
 3380SOL    HW121773   4.071   1.957  17.530  2.8108  2.4118 -1.6437
 3380SOL    HW221774   4.090   1.955  17.385 -1.4525  0.5867  1.1551
 3381SOL     OW21775   0.542   2.028   7.984 -0.3384  0.8476 -0.4331
 3381SOL    HW121776   0.539   2.074   7.901  2.3525 -1.1402 -1.5966
 3381SOL    HW221777   0.607   2.074   8.038  0.0842  0.3430 -0.5089
 3382SOL     OW21778   2.919   3.523   6.690 -0.4614  0.3858  0.4675
 3382SOL    HW121779   2.996   3.576   6.710 -0.0643 -0.8403  2.1540
 3382SOL    HW221780   2.928   3.452   6.753  1.6866  1.2258  1.1031
 3383SOL     OW21781   4.249   4.157   3.864 -0.4497  0.0738 -0.2622
 3383SOL    HW121782   4.342   4.145   3.842 -0.9184 -1.1687 -1.5691
 3383SOL    HW221783   4.224   4.168   3.772 -0.5624 -0.6481 -0.3182
 3384SOL     OW21784   3.711   0.277   0.996  0.5484 -0.8607  0.0041
 3384SOL    HW121785   3.623   0.293   1.029  0.6045 -1.3029  0.3675
 3384SOL    HW221786   3.731   0.190   1.031 -0.2862 -0.2295  2.0403
 3385SOL     OW21787   0.544   4.306  11.027  0.0607 -0.0699 -0.2013
 3385SOL    HW121788   0.562   4.396  11.055  0.6926 -0.1226 -0.4460
 3385SOL    HW221789   0.597   4.254  11.088  0.9430 -0.6918 -1.5078
 3386SOL     OW21790   1.469   1.733  17.470 -0.2135  0.1319 -0.0867
 3386SOL    HW121791   1.419   1.708  17.392  1.0795  1.0637 -1.2254
 3386SOL    HW221792   1.556   1.709  17.438 -0.3608 -2.6511  1.6604
 3387SOL     OW21793   2.979   3.867   2.538 -0.4475 -0.2924 -0.2780
 3387SOL    HW121794   3.049   3.836   2.595 -3.3022 -1.4660  2.5809
 3387SOL    HW221795   2.960   3.797   2.476  0.7238 -0.8998  0.0595
 3388SOL     OW21796   3.081   0.390   1.961 -0.3110 -0.1991  0.4724
 3388SOL    HW121797   2.991   0.388   1.927 -0.5551 -0.0075  1.1066
 3388SOL    HW221798   3.104   0.297   1.966  0.4741 -0.0625 -0.4721
 3389SOL     OW21799   0.504   4.288   2.082  0.5671 -0.4111 -0.3082
 3389SOL    HW121800   0.575   4.293   2.145  1.1804 -0.8490 -0.9652
 3389SOL    HW221801   0.542   4.335   2.008  1.4427 -1.4056 -0.4979
 3390SOL     OW21802   4.127   4.338  16.688 -0.1636 -0.0361 -0.5129
 3390SOL    HW121803   4.145   4.306  16.776 -1.1922  0.2548 -0.1868
 3390SOL    HW221804   4.096   4.427  16.706 -2.0763 -1.0144  1.0893
 3391SOL     OW21805   0.490   0.292   3.304  0.2306  0.0065  0.2840
 3391SOL    HW121806   0.534   0.302   3.388  0.2673  1.2676  0.1204
 3391SOL    HW221807   0.397   0.289   3.327  0.4359 -0.5728  1.0287
 3392SOL     OW21808   3.814   1.835   1.679 -0.3321  0.2128  0.0549
 3392SOL    HW121809   3.756   1.814   1.606 -1.2702  1.6979  0.3663
 3392SOL    HW221810   3.882   1.886   1.635  0.9295 -2.8787 -1.5770
 3393SOL     OW21811   4.429   3.240   0.891  0.0920 -0.1991 -0.5343
 3393SOL    HW121812   4.451   3.216   0.801 -1.8767 -0.4924 -0.9299
 3393SOL    HW221813   4.396   3.328   0.874 -0.6975 -0.9514 -2.8523
 3394SOL     OW21814   3.887   0.685   2.734  0.0270 -0.9316 -0.0885
 3394SOL    HW121815   3.968   0.698   2.783 -1.1306  0.9877  1.3020
 3394SOL    HW221816   3.838   0.645   2.806 -1.1196 -3.0814 -2.0462
 3395SOL     OW21817   3.258   4.043   6.376  0.5321  0.0456  0.4916
 3395SOL    HW121818   3.336   4.047   6.432 -0.6699  1.7504  2.0387
 3395SOL    HW221819   3.224   3.953   6.376  1.2880 -0.2476 -0.4687
 3396SOL     OW21820   0.111   2.204   2.053 -0.4619  0.1961 -0.1315
 3396SOL    HW121821   0.075   2.242   2.134  0.2584 -0.2409  0.3893
 3396SOL    HW221822   0.158   2.279   2.016 -0.3215  0.0729 -0.2012
 3397SOL     OW21823   3.130   0.934  13.512 -0.6355 -0.1784 -0.2083
 3397SOL    HW121824   3.098   0.969  13.429  0.9659 -0.5104 -0.9758
 3397SOL    HW221825   3.222   0.961  13.519 -0.2382 -1.2596 -1.1603
 3398SOL     OW21826   0.590   0.654   3.726  0.6348  0.0495 -0.4800
 3398SOL    HW121827   0.566   0.731   3.674 -1.8530 -1.3719 -1.3992
 3398SOL    HW221828   0.628   0.612   3.649 -1.3970 -1.1519 -0.8261
 3399SOL     OW21829   0.169   3.531  15.675 -0.0310  0.4447 -0.2789
 3399SOL    HW121830   0.224   3.473  15.727  2.0106  3.6596  1.1438
 3399SOL    HW221831   0.084   3.529  15.720 -0.0864  0.7422 -0.3687
 3400SOL     OW21832   2.426   4.467   7.317 -0.8585 -0.7016 -1.0086
 3400SOL    HW121833   2.493   4.531   7.296  0.2359 -1.6952 -0.5592
 3400SOL    HW221834   2.346   4.520   7.316  0.6616  1.5705  0.6350
 3401SOL     OW21835   3.725   0.369   6.983 -0.6848 -0.3575  0.1952
 3401SOL    HW121836   3.700   0.416   7.063 -0.8064 -3.1777  1.8444
 3401SOL    HW221837   3.705   0.430   6.912 -0.7308 -2.6108 -1.7365
 3402SOL     OW21838   3.839   0.293   1.761 -0.1915  0.2108  0.3360
 3402SOL    HW121839   3.837   0.364   1.825 -1.4283  0.6788 -0.2242
 3402SOL    HW221840   3.768   0.318   1.702  0.3022 -1.4039 -0.9306
 3403SOL     OW21841   4.196   0.365   2.514  0.2682  0.0808 -0.1917
 3403SOL    HW121842   4.144   0.445   2.518  0.4219  0.0533  2.2137
 3403SOL    HW221843   4.179   0.330   2.427 -1.7560  0.0828  0.2044
 3404SOL     OW21844   0.655   0.933   2.359 -0.5653 -0.1179  0.0488
 3404SOL    HW121845   0.662   0.845   2.396 -0.5907 -1.2938 -2.7499
 3404SOL    HW221846   0.575   0.925   2.307  0.5552  0.5600 -1.7702
 3405SOL     OW21847   1.275   0.468   9.044  0.4896  0.3822  0.0546
 3405SOL    HW121848   1.263   0.412   8.967 -0.8091  0.4320  0.2110
 3405SOL    HW221849   1.364   0.502   9.039  0.3767  0.1931 -2.9645
 3406SOL     OW21850   2.939   1.779   4.959  0.0453  0.1995 -0.2769
 3406SOL    HW121851   2.949   1.792   5.054 -1.0749 -3.3770  0.3446
 3406SOL    HW221852   2.919   1.869   4.934  1.5109  0.5870 -0.0750
 3407SOL     OW21853   4.199   3.135  10.425  0.0793 -0.5154  0.3672
 3407SOL    HW121854   4.267   3.110  10.362 -2.2325  0.5878 -2.5682
 3407SOL    HW221855   4.121   3.143  10.369 -0.0936 -1.7192  0.4305
 3408SOL     OW21856   0.296   1.733  15.347 -0.2023 -0.0014 -0.2355
 3408SOL    HW121857   0.385   1.732  15.382 -0.5046 -2.4416  0.4876
 3408SOL    HW221858   0.323   1.703  15.260  2.5320 -0.8621  0.9096
 3409SOL     OW21859   0.847   2.757   8.124 -0.7284 -0.4954 -0.0159
 3409SOL    HW121860   0.817   2.812   8.197  0.9748 -0.2198  0.4948
 3409SOL    HW221861   0.781   2.763   8.055 -1.1510  1.5860  0.5657
 3410SOL     OW21862   3.816   1.385   4.816  0.3278 -0.3163 -0.1562
 3410SOL    HW121863   3.840   1.396   4.908 -0.4427 -0.6498  0.0836
 3410SOL    HW221864   3.848   1.297   4.800  0.9582  0.4096 -2.8906
 3411SOL     OW21865   3.496   2.871   8.518  0.1098 -0.0113 -0.2226
 3411SOL    HW121866   3.510   2.889   8.611 -2.4314  0.9561 -0.0387
 3411SOL    HW221867   3.480   2.959   8.486  0.1564 -0.2942 -1.0260
 3412SOL     OW21868   1.701   4.642  13.933  0.1007  0.2001 -0.1306
 3412SOL    HW121869   1.757   4.606  13.864 -1.1673  0.2040 -1.1652
 3412SOL    HW221870   1.699   4.729  13.894 -1.6833 -0.1719 -0.9127
 3413SOL     OW21871   2.821   3.918   8.872  0.5038  0.1269 -0.7616
 3413SOL    HW121872   2.907   3.958   8.860  0.9116 -0.3032  0.6973
 3413SOL    HW221873   2.840   3.828   8.844 -0.4732 -0.5632  0.8075
 3414SOL     OW21874   2.031   2.319  17.066 -0.2810 -0.1524 -0.1437
 3414SOL    HW121875   2.098   2.263  17.104  0.2333  0.2416 -0.4706
 3414SOL    HW221876   2.079   2.401  17.062  0.6256 -0.6628  0.3556
 3415SOL     OW21877   2.328   4.103   5.402 -0.1472 -0.4275  0.2034
 3415SOL    HW121878   2.395   4.061   5.457  1.2512  0.8178 -0.5336
 3415SOL    HW221879   2.292   4.027   5.358 -0.7733 -0.3686  0.6132
 3416SOL     OW21880   0.721   3.884   7.132  0.1043 -0.2524  0.2581
 3416SOL    HW121881   0.735   3.942   7.207 -1.7992 -1.5438  1.6316
 3416SOL    HW221882   0.640   3.837   7.152  0.4264 -1.5573 -1.5561
 3417SOL     OW21883   3.542   4.124   5.131 -0.2630  0.4879 -0.3349
 3417SOL    HW121884   3.455   4.150   5.100 -1.1247 -0.6570  1.1304
 3417SOL    HW221885   3.594   4.203   5.117 -2.3624  1.7069 -1.2252
 3418SOL     OW21886   4.422   2.023   8.700 -0.7260  0.5665 -0.2599
 3418SOL    HW121887   4.408   2.049   8.791  2.3892 -3.1856  1.2514
 3418SOL    HW221888   4.477   1.947   8.717 -1.6323  0.7628  3.4662
 3419SOL     OW21889   3.318   4.172   5.574  0.2448 -0.3862 -0.7390
 3419SOL    HW121890   3.354   4.090   5.538  2.6330  1.2008 -1.9562
 3419SOL    HW221891   3.393   4.223   5.603  0.1316 -0.1455 -0.8712
 3420SOL     OW21892   1.056   3.983   5.261 -0.4668 -0.1572  0.2142
 3420SOL    HW121893   1.061   3.914   5.327 -1.0532  0.4318  0.8856
 3420SOL    HW221894   1.043   3.929   5.184 -1.1477 -0.7993  0.7833
 3421SOL     OW21895   3.781   1.158   1.924  0.2016 -0.4084  0.0247
 3421SOL    HW121896   3.801   1.076   1.969 -1.6685 -0.8283  0.0801
 3421SOL    HW221897   3.748   1.127   1.840 -0.9395  2.3625 -0.5732
 3422SOL     OW21898   0.208   1.868   7.577 -0.0440  0.6965  0.6842
 3422SOL    HW121899   0.279   1.804   7.566 -0.0610  1.0339 -1.4698
 3422SOL    HW221900   0.185   1.896   7.488 -1.1165 -1.0748  0.3847
 3423SOL     OW21901   3.364   2.480   7.344  0.2814 -0.1985 -0.0004
 3423SOL    HW121902   3.457   2.464   7.361  0.2345  0.0590  0.4813
 3423SOL    HW221903   3.343   2.567   7.380  1.1693  0.3575 -0.8035
 3424SOL     OW21904   0.971   1.069   5.510  0.1668 -0.1685  0.4792
 3424SOL    HW121905   1.043   1.114   5.554  1.4659 -1.8180  0.0542
 3424SOL    HW221906   1.020   0.993   5.477 -0.8343 -0.8789  0.6379
 3425SOL     OW21907   3.297   0.437   8.795 -0.7248  0.1769  0.2171
 3425SOL    HW121908   3.334   0.387   8.722 -2.2028  1.4018 -1.3638
 3425SOL    HW221909   3.291   0.524   8.756  0.0090  0.2043  0.1521
 3426SOL     OW21910   3.722   4.274   7.754  0.3751 -0.0599  0.1487
 3426SOL    HW121911   3.643   4.234   7.790 -1.0628  2.6979  0.0390
 3426SOL    HW221912   3.694   4.363   7.776 -1.3470 -0.9480  1.5328
 3427SOL     OW21913   1.874   3.175   3.861 -0.1199  0.0038 -0.4106
 3427SOL    HW121914   1.797   3.220   3.896 -1.4062 -2.3676 -0.1676
 3427SOL    HW221915   1.886   3.208   3.772 -2.6612 -1.3003 -1.2217
 3428SOL     OW21916   0.639   1.426  17.712  0.7226  0.1817 -0.0618
 3428SOL    HW121917   0.620   1.337  17.740  0.0080  0.3824  0.0750
 3428SOL    HW221918   0.688   1.409  17.631  1.3039  1.9683 -0.0831
 3429SOL     OW21919   1.907   3.602   2.152  0.1510  0.1000 -0.3269
 3429SOL    HW121920   1.956   3.677   2.186 -1.8991  0.6659  1.3746
 3429SOL    HW221921   1.841   3.575   2.215 -0.9846 -0.0616 -1.5762
 3430SOL     OW21922   4.089   4.035   6.627 -0.3487  0.3278 -0.6936
 3430SOL    HW121923   4.080   4.056   6.720  0.7264 -0.5153 -0.3956
 3430SOL    HW221924   3.997   4.036   6.600 -0.1760 -2.3786 -1.3409
 3431SOL     OW21925   4.058   2.858   2.917  0.7982 -0.2172 -0.4780
 3431SOL    HW121926   4.034   2.795   2.985  1.7343 -0.7250 -0.6146
 3431SOL    HW221927   4.113   2.808   2.857  1.1710 -0.1546 -0.1902
 3432SOL     OW21928   1.365   3.706  10.649  0.3215 -0.0228  0.1527
 3432SOL    HW121929   1.287   3.761  10.639  0.0955 -0.1060  1.3321
 3432SOL    HW221930   1.350   3.690  10.743  0.6041  2.7155  0.6672
 3433SOL     OW21931   1.319   2.099  17.180  0.2108  0.1975 -0.8323
 3433SOL    HW121932   1.340   2.188  17.152 -0.1794  0.4824 -0.2023
 3433SOL    HW221933   1.283   2.064  17.098 -1.5414  0.9013 -0.3705
 3434SOL     OW21934   1.557   0.296  15.129  0.4494 -0.0960  0.0741
 3434SOL    HW121935   1.600   0.216  15.159  0.6181  0.5576  1.5844
 3434SOL    HW221936   1.579   0.287  15.036 -1.7275 -0.6316 -0.3688
 3435SOL     OW21937   1.797   3.552   4.744  0.6309 -0.0329 -0.1347
 3435SOL    HW121938   1.720   3.495   4.747  0.1278  0.6633  0.3857
 3435SOL    HW221939   1.864   3.493   4.777  1.0373  0.6637  0.2859
 3436SOL     OW21940   2.062   4.546   2.882  0.4584 -0.1064 -0.0883
 3436SOL    HW121941   2.152   4.568   2.858  0.5553  1.5443  1.7636
 3436SOL    HW221942   2.057   4.602   2.960 -1.6514 -0.4689  0.0217
 3437SOL     OW21943   1.211   3.089  13.770  0.2297  0.1005  0.4914
 3437SOL    HW121944   1.127   3.043  13.779  0.9649 -1.4719 -0.7061
 3437SOL    HW221945   1.188   3.136  13.690 -1.6784 -0.0452  0.9481
 3438SOL     OW21946   1.179   2.878   9.034  0.2910 -0.7292  0.4232
 3438SOL    HW121947   1.206   2.938   8.964 -1.0463 -0.8799 -0.2087
 3438SOL    HW221948   1.249   2.895   9.098  1.4319 -0.7597 -0.8203
 3439SOL     OW21949   2.219   4.233   8.375  0.2934 -0.4639 -0.0299
 3439SOL    HW121950   2.187   4.170   8.310 -1.6052 -0.0579  0.5254
 3439SOL    HW221951   2.192   4.181   8.451 -0.9329  1.7223  1.0125
 3440SOL     OW21952   1.932   3.711   4.095  0.6942 -0.0822  0.2897
 3440SOL    HW121953   1.960   3.797   4.128 -0.8501 -0.2222  1.9738
 3440SOL    HW221954   1.965   3.651   4.162  1.0693  0.8472  0.9500
 3441SOL     OW21955   4.478   1.794   9.049 -0.5265 -0.3607  0.0649
 3441SOL    HW121956   4.416   1.766   9.116 -0.2133 -0.4537  0.3191
 3441SOL    HW221957   4.513   1.708   9.023 -1.7047 -0.9232  0.3661
 3442SOL     OW21958   2.483   4.299   2.971 -0.2938 -0.0145  0.5397
 3442SOL    HW121959   2.397   4.289   2.932  0.7062 -3.1089 -0.8732
 3442SOL    HW221960   2.493   4.214   3.013  0.5917  1.1956  2.7920
 3443SOL     OW21961   0.543   2.826  12.597  0.6214  0.5472 -0.5686
 3443SOL    HW121962   0.540   2.915  12.631 -0.5266  0.2957 -0.0214
 3443SOL    HW221963   0.624   2.822  12.546  0.3606  0.2026 -0.9681
 3444SOL     OW21964   2.551   2.335   7.177 -0.1279 -0.1521  0.7781
 3444SOL    HW121965   2.503   2.257   7.206  1.4874 -0.6612  2.1021
 3444SOL    HW221966   2.525   2.394   7.249  0.3212 -0.1588  0.9428
 3445SOL     OW21967   4.724   0.666   2.056  0.6371 -0.0121 -0.8209
 3445SOL    HW121968   0.003   0.611   2.131  0.4804 -2.1783 -2.3820
 3445SOL    HW221969   0.040   0.743   2.074  1.5532 -0.5905 -1.1224
 3446SOL     OW21970   0.869   4.031   8.091  0.0242  0.2048  0.7435
 3446SOL    HW121971   0.904   4.120   8.102 -1.0052  0.3718  2.5933
 3446SOL    HW221972   0.887   3.996   8.178 -1.4392 -1.2151  0.4673
 3447SOL     OW21973   3.584   1.160   8.257 -0.0248 -0.4614 -0.8316
 3447SOL    HW121974   3.603   1.066   8.247 -1.4604 -0.6098 -2.1774
 3447SOL    HW221975   3.503   1.156   8.306  0.3304 -0.5934 -0.2569
 3448SOL     OW21976   1.628   4.727  12.203  0.0173  0.3668 -0.1069
 3448SOL    HW121977   1.642   4.671  12.280  0.2370  0.0512 -0.3786
 3448SOL    HW221978   1.586   0.065  12.243 -1.6527  0.5155 -2.1760
 3449SOL     OW21979   0.907   1.152  15.040  0.3316 -0.7713  0.2267
 3449SOL    HW121980   0.811   1.153  15.037  0.3517  0.8474 -0.2679
 3449SOL    HW221981   0.932   1.067  15.005  0.7159 -0.7101  0.3626
 3450SOL     OW21982   3.404   1.781  15.646 -0.0414 -0.0774  0.1977
 3450SOL    HW121983   3.354   1.814  15.572  0.8038  0.2277 -0.2408
 3450SOL    HW221984   3.424   1.862  15.694 -1.1444  0.3151  0.0011
 3451SOL     OW21985   2.602   0.936  14.430  0.2199  0.2601  0.6734
 3451SOL    HW121986   2.639   0.853  14.460  0.4425  1.2648  3.1595
 3451SOL    HW221987   2.679   0.985  14.458  1.2022 -1.2868  0.6670
 3452SOL     OW21988   3.580   3.518  17.035 -0.1074 -0.6460  0.2461
 3452SOL    HW121989   3.587   3.553  17.123  0.8747  1.4324 -0.6503
 3452SOL    HW221990   3.496   3.471  17.032 -0.9669  0.9732 -1.1180
 3453SOL     OW21991   3.277   3.337   2.227 -0.6807  0.6611 -0.1535
 3453SOL    HW121992   3.342   3.396   2.189 -2.2890  1.8060 -1.1154
 3453SOL    HW221993   3.202   3.360   2.172 -0.3582  0.2554 -0.7670
 3454SOL     OW21994   1.705   2.465   3.639 -0.0181  0.7399 -0.0182
 3454SOL    HW121995   1.775   2.526   3.617 -1.1872  1.4696 -1.7984
 3454SOL    HW221996   1.633   2.528   3.648 -0.4080  0.2240  0.4502
 3455SOL     OW21997   4.122   4.301  17.249  0.3064 -0.5052  0.2936
 3455SOL    HW121998   4.117   4.206  17.242  0.9109 -0.5686  0.7828
 3455SOL    HW221999   4.179   4.324  17.322 -2.1709  0.7416  1.8407
 3456SOL     OW22000   4.271   2.568   9.689 -0.2850  0.2215  0.0493
 3456SOL    HW122001   4.292   2.594   9.599 -0.9327 -1.1437 -0.4985
 3456SOL    HW222002   4.179   2.589   9.704  0.0889  0.9080  1.3658
 3457SOL     OW22003   1.119   4.593   5.370 -0.0386 -0.2002 -0.6707
 3457SOL    HW122004   1.128   4.594   5.275  2.2998 -0.0148 -0.4548
 3457SOL    HW222005   1.206   4.565   5.400 -0.7089  0.1882  1.6646
 3458SOL     OW22006   3.972   4.142   3.864 -0.5213  0.2646 -0.5362
 3458SOL    HW122007   4.047   4.172   3.813 -0.4117  1.1060  0.1297
 3458SOL    HW222008   3.963   4.213   3.927  1.5342  1.3765 -1.5124
 3459SOL     OW22009   4.491   1.542   8.671  0.1781  0.7946 -0.3006
 3459SOL    HW122010   4.556   1.478   8.643  0.9756  0.9330  1.1909
 3459SOL    HW222011   4.423   1.518   8.609  0.6946  0.1902 -0.6321
 3460SOL     OW22012   2.199   2.654   3.816 -0.2025 -0.0716  0.4218
 3460SOL    HW122013   2.223   2.576   3.766 -0.7254  0.1366 -0.1424
 3460SOL    HW222014   2.277   2.709   3.820 -0.5303  0.4629 -0.6060
 3461SOL     OW22015   2.607   2.888   6.199 -0.4715  0.0775  0.1824
 3461SOL    HW122016   2.629   2.970   6.243 -2.1518  0.3290  0.5598
 3461SOL    HW222017   2.580   2.922   6.114  1.5321  2.0035  0.3286
 3462SOL     OW22018   3.314   3.295   6.452  0.2132 -0.7416 -0.6032
 3462SOL    HW122019   3.321   3.203   6.425  2.1043 -1.1546  1.3610
 3462SOL    HW222020   3.234   3.327   6.410  0.0662 -0.2728  0.0414
 3463SOL     OW22021   0.563   0.576  12.976 -0.0835  0.5716 -0.2390
 3463SOL    HW122022   0.653   0.544  12.987 -0.0854  0.7176  0.2291
 3463SOL    HW222023   0.553   0.609  13.066  4.5552 -1.0154  0.8932
 3464SOL     OW22024   1.604   3.641   9.160  0.0141 -0.4284 -0.4677
 3464SOL    HW122025   1.675   3.586   9.127  1.1907 -0.3997  1.9419
 3464SOL    HW222026   1.555   3.571   9.203 -1.2376  1.3809  1.0607
 3465SOL     OW22027   1.441   4.129  10.279  0.8700  0.2031 -0.2023
 3465SOL    HW122028   1.372   4.193  10.299  0.5488 -0.1916 -0.0557
 3465SOL    HW222029   1.475   4.172  10.200  0.6871 -0.0704 -0.4332
 3466SOL     OW22030   0.039   3.228   1.473  0.4143 -0.1106  0.0564
 3466SOL    HW122031   0.098   3.163   1.510 -1.3566 -0.1867  2.7142
 3466SOL    HW222032   0.063   3.233   1.380 -2.1407  1.2179 -0.5152
 3467SOL     OW22033   3.182   0.910   8.726  0.4284  0.3727 -0.0945
 3467SOL    HW122034   3.264   0.872   8.756  1.1162  1.9191 -0.0137
 3467SOL    HW222035   3.211   0.999   8.709  0.3102  0.9237  2.5079
 3468SOL     OW22036   2.252   1.439   5.580 -0.4297 -0.2771 -0.0541
 3468SOL    HW122037   2.239   1.461   5.488  1.5320 -2.3718 -0.8457
 3468SOL    HW222038   2.182   1.490   5.619 -0.8512  0.7576 -2.1962
 3469SOL     OW22039   1.158   0.092  14.920  0.3575  0.6355  0.1258
 3469SOL    HW122040   1.168   0.186  14.911 -0.0514  0.5968 -0.7762
 3469SOL    HW222041   1.181   0.074  15.011 -3.2152  1.0864  1.1180
 3470SOL     OW22042   2.634   3.523   0.306  0.8782  0.0185  0.0933
 3470SOL    HW122043   2.722   3.547   0.334  1.3478 -2.0404  0.4308
 3470SOL    HW222044   2.585   3.604   0.296 -1.0582 -1.4286 -2.2973
 3471SOL     OW22045   3.344   3.719  16.467  0.3576 -0.5526  0.1192
 3471SOL    HW122046   3.400   3.740  16.392  1.5799 -0.3282  1.1095
 3471SOL    HW222047   3.283   3.656  16.427  0.9679 -0.3036 -1.2116
 3472SOL     OW22048   0.807   2.567   4.813 -0.0508  0.0562  0.7604
 3472SOL    HW122049   0.731   2.607   4.772 -0.3576 -0.5105  0.7826
 3472SOL    HW222050   0.774   2.481   4.839  2.3362 -1.8377 -2.4133
 3473SOL     OW22051   3.300   1.051  13.243 -0.0984  0.6051  0.3912
 3473SOL    HW122052   3.344   1.111  13.304  1.9480  0.8715 -1.3148
 3473SOL    HW222053   3.210   1.064  13.272 -0.2368 -1.1365  0.7023
 3474SOL     OW22054   4.333   1.033   1.711  0.6331  0.2744  0.1475
 3474SOL    HW122055   4.239   1.047   1.719  0.6311  1.8758 -2.4813
 3474SOL    HW222056   4.353   0.947   1.748 -0.5001 -0.6023 -1.3006
 3475SOL     OW22057   4.347   4.330  11.205 -0.3720 -0.1082  0.1683
 3475SOL    HW122058   4.289   4.272  11.155  0.2920 -1.8928  1.4472
 3475SOL    HW222059   4.289   4.385  11.257 -1.5043 -1.5436  0.4369
 3476SOL     OW22060   0.773   4.222  10.036  0.4339  0.0069 -0.7714
 3476SOL    HW122061   0.852   4.275  10.042  0.9039 -0.9588  1.4860
 3476SOL    HW222062   0.734   4.225  10.123 -0.8756  0.3753 -1.3741
 3477SOL     OW22063   1.587   1.469   4.662  0.3068 -0.6237  0.0317
 3477SOL    HW122064   1.507   1.518   4.676 -0.2762 -0.9247 -2.1754
 3477SOL    HW222065   1.622   1.478   4.751  0.5384 -0.1428 -0.1063
 3478SOL     OW22066   3.697   0.112  13.038 -0.7714  0.1971  0.0068
 3478SOL    HW122067   3.780   0.130  13.082 -1.4669  1.2909  0.8829
 3478SOL    HW222068   3.655   0.058  13.105 -1.5461 -2.0710 -2.2954
 3479SOL     OW22069   4.160   1.876   5.202 -0.3425 -0.1165 -0.0620
 3479SOL    HW122070   4.157   1.822   5.281 -0.1768 -0.3903 -0.2464
 3479SOL    HW222071   4.097   1.831   5.146 -0.7432  0.4760 -0.0873
 3480SOL     OW22072   0.669   3.330   4.311 -0.6297  0.7807 -0.1172
 3480SOL    HW122073   0.667   3.264   4.242  0.8920 -0.9468  1.4980
 3480SOL    HW222074   0.681   3.409   4.258 -1.6635  0.4010 -0.8922
 3481SOL     OW22075   2.818   2.474   1.920  0.0462 -0.2364 -0.4272
 3481SOL    HW122076   2.724   2.460   1.931 -0.0100 -0.8379 -1.6845
 3481SOL    HW222077   2.842   2.542   1.983 -1.5077  0.9185 -1.0825
 3482SOL     OW22078   4.388   3.339  10.447 -0.3667  0.7439 -0.4075
 3482SOL    HW122079   4.305   3.291  10.455  0.9835 -1.2893  1.5765
 3482SOL    HW222080   4.406   3.353  10.540 -1.0217  0.8682 -0.2932
 3483SOL     OW22081   0.947   4.464   6.275 -0.5039 -0.0658 -0.3401
 3483SOL    HW122082   0.890   4.502   6.209 -1.5036  0.4084  0.7888
 3483SOL    HW222083   1.037   4.487   6.253 -0.3246 -1.0364 -0.6328
 3484SOL     OW22084   1.278   0.204   4.078 -0.0970  0.1567  0.3659
 3484SOL    HW122085   1.264   0.115   4.047 -2.2369  0.3784  0.6837
 3484SOL    HW222086   1.327   0.226   3.999  1.2218 -0.3911  1.0402
 3485SOL     OW22087   0.402   0.216   7.296 -0.0798  0.0952  0.4493
 3485SOL    HW122088   0.457   0.194   7.371  1.0664  3.5690  0.6326
 3485SOL    HW222089   0.461   0.285   7.265  1.4386 -1.0488  0.7785
 3486SOL     OW22090   0.692   3.775   0.379 -0.1031  0.3037  0.4461
 3486SOL    HW122091   0.760   3.787   0.445 -0.2384  3.3834  0.0272
 3486SOL    HW222092   0.717   3.839   0.313  0.6640  0.3805  0.8147
 3487SOL     OW22093   4.694   0.286  11.660  0.5000 -0.1689  0.1224
 3487SOL    HW122094   0.031   0.295  11.602 -0.2475 -3.4675 -1.4030
 3487SOL    HW222095   4.705   0.191  11.672 -2.7899 -0.8764 -2.4341
 3488SOL     OW22096   4.683   2.945   2.673 -0.4420  0.2155 -0.0519
 3488SOL    HW122097   4.632   3.003   2.617 -3.0211 -3.3788 -1.4272
 3488SOL    HW222098   4.737   2.911   2.602  0.1291 -0.0174  0.4924
 3489SOL     OW22099   3.561   2.478   8.852  0.0822 -0.0168 -0.3962
 3489SOL    HW122100   3.496   2.489   8.783  0.1530 -0.3901 -0.5234
 3489SOL    HW222101   3.561   2.567   8.888  1.4753 -0.0710 -0.2400
 3490SOL     OW22102   1.541   4.659   3.087 -0.5260 -0.0724 -0.0045
 3490SOL    HW122103   1.614   4.715   3.112 -1.3640  0.3671  1.5171
 3490SOL    HW222104   1.563   4.576   3.129  1.6756  0.5793  0.0938
 3491SOL     OW22105   1.426   3.826   8.477  0.1176  0.5204  0.2248
 3491SOL    HW122106   1.486   3.756   8.451 -0.2304  1.3251 -2.7217
 3491SOL    HW222107   1.404   3.775   8.555 -1.7401 -0.1400 -0.7131
 3492SOL     OW22108   3.317   1.395   0.411 -0.4091 -0.2569 -0.1223
 3492SOL    HW122109   3.324   1.350   0.495  2.1846 -0.3235 -0.3859
 3492SOL    HW222110   3.223   1.386   0.394 -0.7652  0.0918  1.6746
 3493SOL     OW22111   2.336   1.526  13.607 -0.2998  0.2524  0.0323
 3493SOL    HW122112   2.250   1.485  13.603  0.1116 -0.3321 -2.5596
 3493SOL    HW222113   2.373   1.489  13.527 -0.6952  1.2953 -0.6228
 3494SOL     OW22114   0.799   3.593   8.027 -0.7840  0.1695  0.4518
 3494SOL    HW122115   0.721   3.587   8.081 -0.7344  0.7826  0.5997
 3494SOL    HW222116   0.770   3.663   7.968  1.1137 -0.2426 -0.9627
 3495SOL     OW22117   4.609   1.075   1.828 -0.2919 -0.3048 -0.6263
 3495SOL    HW122118   4.586   0.982   1.829  1.8805 -0.8542 -0.8664
 3495SOL    HW222119   4.624   1.102   1.737 -1.0292  1.2914 -0.2634
 3496SOL     OW22120   2.492   4.237   0.186  0.2535 -0.2389 -0.2276
 3496SOL    HW122121   2.400   4.231   0.158 -0.0245 -0.3087  0.7014
 3496SOL    HW222122   2.479   4.311   0.245 -0.4403  0.0648 -0.7503
 3497SOL     OW22123   3.072   1.358  12.037 -0.2523  0.3023 -0.4981
 3497SOL    HW122124   3.155   1.330  11.996  1.2506  0.7232  2.2915
 3497SOL    HW222125   3.113   1.427  12.089 -0.7844  0.4396 -0.2600
 3498SOL     OW22126   3.325   1.460   4.457  0.0106 -0.2247  0.1370
 3498SOL    HW122127   3.244   1.475   4.505 -0.0547 -0.1673  0.0108
 3498SOL    HW222128   3.295   1.386   4.405 -2.5317  0.0142  1.2634
 3499SOL     OW22129   4.540   1.142   6.192 -0.1049  0.5680 -0.2526
 3499SOL    HW122130   4.512   1.181   6.109  1.5021  3.1127  0.3977
 3499SOL    HW222131   4.474   1.073   6.197  0.5296 -0.1905 -2.2961
 3500SOL     OW22132   4.046   1.615  12.924  0.0784  0.3640 -0.2565
 3500SOL    HW122133   4.055   1.565  13.005  0.1757  0.5038 -0.1820
 3500SOL    HW222134   4.124   1.670  12.931  0.1269  0.1971  0.5178
 3501SOL     OW22135   3.864   0.917  11.550 -0.0560  0.5671 -0.2647
 3501SOL    HW122136   3.806   0.841  11.559 -1.0606  1.3392 -0.1014
 3501SOL    HW222137   3.944   0.890  11.594 -0.4061  0.7734  0.5136
 3502SOL     OW22138   2.595   3.363   6.613  0.5162 -0.0779 -0.8420
 3502SOL    HW122139   2.630   3.377   6.525 -0.1972 -0.4683 -1.1895
 3502SOL    HW222140   2.653   3.408   6.674 -1.7126  1.5158  0.1181
 3503SOL     OW22141   2.855   1.295   7.026  0.0178  0.4347 -0.0031
 3503SOL    HW122142   2.861   1.383   7.063  1.2692  0.2789  0.1933
 3503SOL    HW222143   2.830   1.244   7.103  2.7989  0.3964  0.8876
 3504SOL     OW22144   2.648   3.580  16.625 -0.5638 -0.1094  0.4662
 3504SOL    HW122145   2.623   3.488  16.628  1.7612 -0.8354 -1.7712
 3504SOL    HW222146   2.658   3.595  16.720  1.9128  3.3530 -0.3406
 3505SOL     OW22147   0.255   2.874  10.954 -0.3598 -0.4667 -0.0760
 3505SOL    HW122148   0.335   2.841  10.996  1.3548  0.0408 -2.9356
 3505SOL    HW222149   0.296   2.957  10.928  1.1417 -1.6449 -1.4521
 3506SOL     OW22150   1.447   1.435   3.421 -0.4784 -0.5364 -0.0800
 3506SOL    HW122151   1.542   1.438   3.432 -0.5940  0.7645  0.5000
 3506SOL    HW222152   1.413   1.474   3.501  0.0986 -2.0507  0.9168
 3507SOL     OW22153   1.668   3.981   8.298 -1.0246  0.1728  0.7325
 3507SOL    HW122154   1.734   4.035   8.254 -1.1509 -1.1100 -1.0223
 3507SOL    HW222155   1.712   3.898   8.283 -2.5971 -0.3564 -0.9941
 3508SOL     OW22156   4.544   3.732   9.980  0.8713 -0.1513 -0.2526
 3508SOL    HW122157   4.498   3.776  10.051 -0.2614 -2.8142  0.6436
 3508SOL    HW222158   4.601   3.800   9.943  1.6649 -1.3176 -1.1929
 3509SOL     OW22159   1.427   1.565   4.362  0.0286  0.0866 -0.3675
 3509SOL    HW122160   1.408   1.644   4.414  1.3456  0.6313 -0.7152
 3509SOL    HW222161   1.382   1.506   4.422 -0.6947  0.2798 -0.7197
 3510SOL     OW22162   4.061   2.116   7.748  0.2581 -0.1849 -0.0100
 3510SOL    HW122163   3.998   2.153   7.810  0.1690  2.4183 -1.6447
 3510SOL    HW222164   4.067   2.189   7.686  3.5273 -0.2449  0.2410
 3511SOL     OW22165   0.562   1.960   4.572  0.2518  0.0077  0.0817
 3511SOL    HW122166   0.571   1.900   4.498 -0.6297 -0.5054  0.3841
 3511SOL    HW222167   0.467   1.976   4.571  0.6107  2.1846 -0.0559
 3512SOL     OW22168   2.773   1.915   7.379  0.2885  0.0578  0.2472
 3512SOL    HW122169   2.729   1.847   7.429  0.7491  0.3469  1.0518
 3512SOL    HW222170   2.853   1.875   7.345 -0.1640  0.4218 -1.2662
 3513SOL     OW22171   1.441   1.635   0.587 -0.6458  0.1619  0.2444
 3513SOL    HW122172   1.500   1.611   0.516  1.0292 -1.3235  2.1561
 3513SOL    HW222173   1.361   1.649   0.535 -0.5160 -1.6894 -0.4700
 3514SOL     OW22174   2.385   0.027   5.278  0.1598  0.5700 -0.4533
 3514SOL    HW122175   2.381   0.062   5.189 -1.5604 -0.7070 -0.8670
 3514SOL    HW222176   2.371   0.111   5.321 -1.2154 -0.6616  1.4939
 3515SOL     OW22177   2.598   2.635   6.308 -0.3141  0.5788 -0.2978
 3515SOL    HW122178   2.578   2.724   6.280  2.1693  0.9160 -1.0739
 3515SOL    HW222179   2.587   2.640   6.403  0.2575 -1.1031 -0.1313
 3516SOL     OW22180   0.487   3.370  15.113 -0.4460  0.7241 -0.3625
 3516SOL    HW122181   0.472   3.358  15.019 -2.9734 -1.8333  0.3764
 3516SOL    HW222182   0.426   3.310  15.156  0.4599 -0.1893 -0.3399
 3517SOL     OW22183   1.211   0.386   7.262 -0.4613  0.1512  0.1397
 3517SOL    HW122184   1.174   0.473   7.247  0.6557  0.7696  0.9943
 3517SOL    HW222185   1.209   0.344   7.177 -1.6397  2.0396 -0.7676
 3518SOL     OW22186   2.033   0.960   6.933 -0.0233  0.1262  0.8945
 3518SOL    HW122187   2.014   0.945   6.840  1.0384  2.4137  0.3038
 3518SOL    HW222188   2.094   1.033   6.920 -0.4010  0.4382  0.8774
 3519SOL     OW22189   2.835   0.935   2.821  0.1255  0.1415  0.3906
 3519SOL    HW122190   2.796   0.857   2.860  1.0926  0.0429  1.1442
 3519SOL    HW222191   2.805   1.000   2.885 -1.2305 -0.9274  0.8339
 3520SOL     OW22192   1.045   2.733   4.719  0.6017 -0.2049 -0.1079
 3520SOL    HW122193   0.975   2.669   4.734  0.9898 -0.1585  1.8048
 3520SOL    HW222194   1.068   2.778   4.800  0.9040 -0.0525 -0.2773
 3521SOL     OW22195   1.202   3.998   4.624 -0.3835  0.0507  0.8697
 3521SOL    HW122196   1.215   3.969   4.534 -0.6354  2.3050  0.1082
 3521SOL    HW222197   1.173   4.087   4.608  0.3275  0.7238  3.3320
 3522SOL     OW22198   2.603   3.329  16.640 -0.2394 -0.0006  0.1493
 3522SOL    HW122199   2.629   3.251  16.589  1.7389  0.5674  0.2743
 3522SOL    HW222200   2.508   3.324  16.631  0.0369  0.3745 -3.1700
 3523SOL     OW22201   2.903   0.916   8.208 -0.4919 -0.0720 -0.7865
 3523SOL    HW122202   2.898   0.956   8.295 -2.1487  1.4334 -1.5710
 3523SOL    HW222203   2.874   0.990   8.154 -0.7461  0.2833 -0.1629
 3524SOL     OW22204   1.488   0.797   5.320 -0.3546 -0.3404 -0.1577
 3524SOL    HW122205   1.418   0.781   5.384 -1.1966  0.5661 -0.8657
 3524SOL    HW222206   1.479   0.733   5.250  0.0767  0.1763 -0.6829
 3525SOL     OW22207   0.703   4.255  16.172 -0.2744  0.1943  0.0536
 3525SOL    HW122208   0.671   4.192  16.108 -1.8545  1.4995 -0.4376
 3525SOL    HW222209   0.747   4.193  16.230  1.7568  1.1123 -0.4898
 3526SOL     OW22210   1.130   2.476   6.245  0.0809  0.1532  0.3577
 3526SOL    HW122211   1.067   2.429   6.300 -1.0978 -1.4605 -2.3170
 3526SOL    HW222212   1.106   2.566   6.265  2.9029  0.6716  1.2487
 3527SOL     OW22213   2.812   0.176   9.566  0.3778 -0.7607  0.2972
 3527SOL    HW122214   2.779   0.241   9.505  3.5357  0.0811 -0.5453
 3527SOL    HW222215   2.772   0.213   9.644  0.6753 -1.8596  0.9806
 3528SOL     OW22216   1.794   2.653  14.682  0.0753  0.2012 -0.3924
 3528SOL    HW122217   1.861   2.587  14.698  1.3953  1.7406  0.3846
 3528SOL    HW222218   1.734   2.605  14.624  1.2112 -0.4519 -1.0291
 3529SOL     OW22219   0.788   4.315   4.215  0.2820  0.6035 -0.3727
 3529SOL    HW122220   0.878   4.348   4.215 -0.1948  1.9196 -0.1129
 3529SOL    HW222221   0.810   4.223   4.226 -0.4257  0.6532  1.5304
 3530SOL     OW22222   0.772   3.996   8.526 -0.0818 -0.4779  0.4409
 3530SOL    HW122223   0.825   3.973   8.450 -1.3542 -0.0015 -0.5886
 3530SOL    HW222224   0.692   4.008   8.474 -1.0791 -1.1681  1.8287
 3531SOL     OW22225   1.496   4.694   7.126  0.1163 -0.5147 -0.1370
 3531SOL    HW122226   1.464   4.731   7.044  2.0462 -1.3927 -1.2881
 3531SOL    HW222227   1.518   4.607   7.092  0.1767 -0.3151 -0.6020
 3532SOL     OW22228   0.205   2.366   6.405  0.4567 -0.2651  0.9285
 3532SOL    HW122229   0.238   2.276   6.409 -2.2308 -1.4006 -2.8102
 3532SOL    HW222230   0.125   2.359   6.457 -0.8886 -2.3117 -1.4064
 3533SOL     OW22231   3.367   1.110  16.871  0.0793  0.0218 -0.0641
 3533SOL    HW122232   3.341   1.170  16.800 -2.2569 -0.6035  0.2741
 3533SOL    HW222233   3.415   1.173  16.924  2.7612  0.1512 -2.6554
 3534SOL     OW22234   3.375   3.287  15.782  0.2620 -0.4043 -0.0876
 3534SOL    HW122235   3.326   3.369  15.782 -0.6580 -0.9602  0.1859
 3534SOL    HW222236   3.451   3.316  15.731 -1.6755  0.8001 -2.3226
 3535SOL     OW22237   0.114   0.252   1.451  0.3951  0.2520 -0.0303
 3535SOL    HW122238   0.020   0.242   1.464  0.0577  0.6088 -2.2003
 3535SOL    HW222239   0.114   0.348   1.455  0.9633  0.3114 -1.2177
 3536SOL     OW22240   1.294   4.561   8.974 -0.1404  0.0445  0.3483
 3536SOL    HW122241   1.373   4.607   9.005  1.7414 -2.6722 -0.4002
 3536SOL    HW222242   1.270   4.537   9.064 -2.5065 -0.6198 -0.4855
 3537SOL     OW22243   0.463   3.014  13.838 -0.3020 -0.1415  0.2887
 3537SOL    HW122244   0.505   3.070  13.773 -0.0235 -1.0481 -0.3239
 3537SOL    HW222245   0.434   2.938  13.787 -0.8957  0.2551  0.0468
 3538SOL     OW22246   2.983   2.377   0.287  0.2644  0.1274 -0.0604
 3538SOL    HW122247   2.934   2.311   0.335  1.4076  0.5655  1.7312
 3538SOL    HW222248   2.991   2.442   0.358 -1.1170  2.4179 -2.0145
 3539SOL     OW22249   2.967   4.091   3.395  0.3780 -0.5071  0.4717
 3539SOL    HW122250   3.062   4.101   3.392  0.2814  0.7340  1.2764
 3539SOL    HW222251   2.953   4.001   3.368  0.4074 -0.9599  1.9781
 3540SOL     OW22252   0.932   2.943   5.139  0.1875 -0.0819  0.1028
 3540SOL    HW122253   0.876   3.008   5.181 -1.5728 -1.7305  0.3152
 3540SOL    HW222254   0.945   2.991   5.057  1.4001 -0.7106 -0.0744
 3541SOL     OW22255   0.783   4.201   5.926  0.0584  0.4452 -0.0518
 3541SOL    HW122256   0.784   4.247   5.842 -0.7986  1.9914  0.7898
 3541SOL    HW222257   0.720   4.257   5.972  1.4542  1.8764  0.1091
 3542SOL     OW22258   2.745   1.674   4.446  0.0935  0.8618 -0.5842
 3542SOL    HW122259   2.666   1.652   4.496  0.2922 -1.1350 -1.1777
 3542SOL    HW222260   2.719   1.649   4.358 -2.7416  2.1808 -0.1501
 3543SOL     OW22261   2.659   3.014   0.277 -0.4709  0.1516 -0.0099
 3543SOL    HW122262   2.580   3.066   0.267 -1.5128 -1.5611 -0.8193
 3543SOL    HW222263   2.732   3.074   0.269 -0.8868  0.7648  0.8883
 3544SOL     OW22264   0.488   0.727   8.721  0.2023 -0.1499  0.4769
 3544SOL    HW122265   0.466   0.635   8.736  0.5038 -0.2565  0.2610
 3544SOL    HW222266   0.552   0.714   8.651 -0.5636 -1.1508 -0.0491
 3545SOL     OW22267   0.461   4.598  15.069  0.2640 -0.0111 -0.5236
 3545SOL    HW122268   0.427   4.687  15.067 -0.2663 -0.1934  0.3269
 3545SOL    HW222269   0.548   4.617  15.033  0.6689  0.9507  0.9747
 3546SOL     OW22270   2.813   1.372   6.021 -0.3673  0.0296  0.0425
 3546SOL    HW122271   2.786   1.420   5.943 -0.6723 -1.1864 -0.5852
 3546SOL    HW222272   2.903   1.345   6.002  0.0585  0.5368  1.3178
 3547SOL     OW22273   0.162   4.614   7.217  0.3871  0.0555  0.0218
 3547SOL    HW122274   0.073   4.643   7.239 -0.1795 -1.2371 -0.5388
 3547SOL    HW222275   0.151   4.593   7.124  0.1265  1.1714 -0.2072
 3548SOL     OW22276   1.937   0.949   8.960  0.2624  0.0833 -0.5265
 3548SOL    HW122277   1.992   0.937   8.882  1.0501  2.5958 -0.3657
 3548SOL    HW222278   1.960   0.875   9.015  0.0368  1.6286  1.6336
 3549SOL     OW22279   2.148   1.853  11.897  0.1890 -0.1244 -0.2304
 3549SOL    HW122280   2.229   1.846  11.948 -0.1469  1.7220  0.5591
 3549SOL    HW222281   2.182   1.888  11.814  1.0379  3.0278  1.4410
 3550SOL     OW22282   1.825   4.394   2.496  0.1291  0.2171  0.0769
 3550SOL    HW122283   1.746   4.419   2.448  0.4239  0.8578 -0.0814
 3550SOL    HW222284   1.887   4.462   2.471  0.0938  0.4691  0.6676
 3551SOL     OW22285   1.083   1.150   9.033 -0.3028  0.0961  0.2777
 3551SOL    HW122286   1.157   1.117   8.981  0.7851  2.3422  0.4083
 3551SOL    HW222287   1.086   1.246   9.028 -2.8803  0.1575  0.1163
 3552SOL     OW22288   3.688   3.653   3.188 -0.5977 -0.5029  0.1878
 3552SOL    HW122289   3.681   3.734   3.239  1.6181 -0.4304  0.4159
 3552SOL    HW222290   3.656   3.683   3.103 -0.4248  1.2053  0.7369
 3553SOL     OW22291   4.613   1.094  15.479 -0.6559  0.9015 -0.2821
 3553SOL    HW122292   4.559   1.024  15.515  1.3813 -0.8256 -0.5464
 3553SOL    HW222293   4.613   1.074  15.385  2.0449 -0.3636 -0.0172
 3554SOL     OW22294   2.322   2.841  16.328 -0.3401  0.4911 -0.2012
 3554SOL    HW122295   2.268   2.848  16.407  0.9639  0.5874  0.6874
 3554SOL    HW222296   2.265   2.783  16.277  1.2657 -0.3217 -1.0714
 3555SOL     OW22297   1.561   1.189  14.733 -0.3029  0.1005  0.2043
 3555SOL    HW122298   1.631   1.253  14.717  0.4724 -1.1128 -1.2562
 3555SOL    HW222299   1.566   1.174  14.828  0.2710  1.6325  0.4167
 3556SOL     OW22300   0.997   2.132   5.454  0.2419 -0.1461  0.1362
 3556SOL    HW122301   0.905   2.123   5.477  0.2343  1.2031  0.6402
 3556SOL    HW222302   1.004   2.095   5.366 -2.2888 -0.1489 -0.0772
 3557SOL     OW22303   0.309   2.703   6.528  0.2287  0.2197  0.0683
 3557SOL    HW122304   0.297   2.631   6.591  0.6012  0.0518 -0.0510
 3557SOL    HW222305   0.369   2.656   6.471  0.1680 -1.8126  1.6666
 3558SOL     OW22306   2.199   1.855   8.129 -0.4628  0.5278 -0.1387
 3558SOL    HW122307   2.217   1.851   8.035 -0.0002 -1.6828  0.0549
 3558SOL    HW222308   2.248   1.933   8.155 -0.2679  1.1980 -2.5289
 3559SOL     OW22309   1.980   4.490   7.456 -0.2375 -0.4817  0.0981
 3559SOL    HW122310   1.946   4.475   7.544 -0.7194  0.6719  0.1015
 3559SOL    HW222311   1.929   4.566   7.429  0.6291  0.3588  0.8361
 3560SOL     OW22312   0.590   4.513   4.180 -1.0966  0.1249  0.3789
 3560SOL    HW122313   0.531   4.443   4.152 -0.0441 -0.6302  0.0447
 3560SOL    HW222314   0.663   4.455   4.198 -2.0393 -0.5570  2.0111
 3561SOL     OW22315   3.275   0.930   6.839  0.0781 -0.3680  0.0409
 3561SOL    HW122316   3.357   0.882   6.849 -1.6469 -2.9864  1.6818
 3561SOL    HW222317   3.205   0.865   6.830 -1.6402  1.0955  2.8711
 3562SOL     OW22318   3.590   0.060  11.016  0.1081  0.5091 -0.5626
 3562SOL    HW122319   3.606   0.150  10.986  0.0888  0.6025 -0.2899
 3562SOL    HW222320   3.605   0.081  11.108  3.6463 -0.3510 -0.9519
 3563SOL     OW22321   1.733   4.461   3.451 -0.0035 -0.2822 -0.4542
 3563SOL    HW122322   1.816   4.507   3.440 -0.4495  0.9150  1.1308
 3563SOL    HW222323   1.707   4.513   3.527  0.9415  2.0118 -1.6994
 3564SOL     OW22324   2.889   2.189  12.087  0.3017 -0.0400 -0.0183
 3564SOL    HW122325   2.969   2.163  12.133  0.3793 -1.5979 -1.0279
 3564SOL    HW222326   2.826   2.121  12.114 -1.5008  1.2994 -0.8694
 3565SOL     OW22327   0.169   2.983   8.454  0.2436 -0.4191  0.4026
 3565SOL    HW122328   0.235   3.012   8.391  1.7262  0.1025  2.1932
 3565SOL    HW222329   0.181   2.889   8.449 -0.5027 -0.3893 -2.0015
 3566SOL     OW22330   0.491   4.093   6.677 -0.5854 -0.1234  0.5024
 3566SOL    HW122331   0.512   4.006   6.712  1.4263  0.3140  0.3744
 3566SOL    HW222332   0.580   4.121   6.657 -0.4427 -0.0749  1.2078
 3567SOL     OW22333   3.440   0.122  15.596  0.0911  0.9223  1.5791
 3567SOL    HW122334   3.534   0.109  15.607 -0.1147 -1.6214  0.3982
 3567SOL    HW222335   3.422   0.193  15.657 -0.8208  2.5547 -0.5799
 3568SOL     OW22336   0.972   3.857   5.730  0.3763 -0.0460 -0.1584
 3568SOL    HW122337   0.955   3.940   5.685  1.1455 -0.3614 -1.0265
 3568SOL    HW222338   0.917   3.862   5.809 -1.0920  0.5954 -1.2092
 3569SOL     OW22339   1.599   2.310  17.375 -0.2693  0.1633  0.1423
 3569SOL    HW122340   1.574   2.287  17.465  0.0164 -0.5456  0.0367
 3569SOL    HW222341   1.681   2.360  17.384  0.7549 -1.4373 -0.3755
 3570SOL     OW22342   4.404   4.395   6.338 -0.0094  0.3430 -0.2440
 3570SOL    HW122343   4.450   4.475   6.366  0.8092 -0.3333  0.3449
 3570SOL    HW222344   4.334   4.443   6.295 -1.5957 -2.7221 -1.0134
 3571SOL     OW22345   3.736   3.875   8.340 -0.6602  0.2467 -0.6344
 3571SOL    HW122346   3.756   3.876   8.434 -0.5790  1.0523 -0.6638
 3571SOL    HW222347   3.676   3.800   8.343  0.6280 -0.6189  3.0605
 3572SOL     OW22348   1.973   2.436  14.578 -0.0931 -0.1459 -0.0128
 3572SOL    HW122349   1.993   2.512  14.524 -0.0551  1.5760  2.4139
 3572SOL    HW222350   2.047   2.382  14.551 -0.1440 -0.6178  0.7630
 3573SOL     OW22351   4.394   2.615   7.862 -0.0172  0.2175 -0.1609
 3573SOL    HW122352   4.469   2.673   7.850 -0.4758  0.6752 -0.8651
 3573SOL    HW222353   4.323   2.679   7.868 -1.6699 -1.5182 -1.1211
 3574SOL     OW22354   3.579   1.186  11.613  0.2472 -0.2765 -0.5726
 3574SOL    HW122355   3.621   1.272  11.616  0.5034 -0.4860  2.0569
 3574SOL    HW222356   3.574   1.163  11.520  0.0293  1.0662 -0.9027
 3575SOL     OW22357   3.124   1.870   5.656 -0.3128 -0.2056 -0.0304
 3575SOL    HW122358   3.106   1.780   5.680 -1.0338 -0.2648 -0.7869
 3575SOL    HW222359   3.139   1.865   5.561  2.3281  0.6889  0.3457
 3576SOL     OW22360   0.108   1.993   2.536  0.1239 -0.5417 -0.0047
 3576SOL    HW122361   0.023   1.973   2.575 -0.0221 -0.8085 -0.4602
 3576SOL    HW222362   0.097   2.088   2.536  0.4829 -0.4857 -2.0926
 3577SOL     OW22363   2.059   2.959   0.336  0.0461 -0.5704 -0.0728
 3577SOL    HW122364   2.098   2.872   0.337 -1.9006 -1.4074  1.0531
 3577SOL    HW222365   2.137   3.014   0.348 -0.6107  0.1169  1.0471
 3578SOL     OW22366   0.776   2.258  10.817 -0.3405  0.1287 -0.1171
 3578SOL    HW122367   0.769   2.333  10.876 -0.3301  0.7716 -0.9268
 3578SOL    HW222368   0.687   2.261  10.783 -0.5176  3.8750  0.6286
 3579SOL     OW22369   2.043   3.610   2.867  0.1768 -0.0772 -0.1787
 3579SOL    HW122370   2.112   3.615   2.801 -0.0272 -0.1936 -0.4027
 3579SOL    HW222371   1.980   3.673   2.830 -0.2738 -0.7665 -0.5852
 3580SOL     OW22372   2.414   3.095  16.266  0.1704  0.1591 -0.0299
 3580SOL    HW122373   2.399   3.005  16.292 -3.1150  0.4792 -0.7110
 3580SOL    HW222374   2.398   3.083  16.172  1.0548 -0.2934 -0.1237
 3581SOL     OW22375   0.295   3.057  16.449  0.1541 -0.3948  0.2087
 3581SOL    HW122376   0.250   2.973  16.464  1.7799 -1.0955  1.1734
 3581SOL    HW222377   0.279   3.083  16.359 -0.2350  1.3034  0.7761
 3582SOL     OW22378   0.445   0.729   6.975  0.1421 -0.2019  0.3974
 3582SOL    HW122379   0.509   0.709   6.907 -0.2390  4.5420 -1.3905
 3582SOL    HW222380   0.489   0.753   7.057 -0.0195 -2.5650  1.1740
 3583SOL     OW22381   2.685   1.473   1.644 -0.0553 -0.1972 -0.3043
 3583SOL    HW122382   2.597   1.490   1.678 -0.7214 -5.6835  0.7990
 3583SOL    HW222383   2.714   1.388   1.678  0.8480 -0.8910 -2.7490
 3584SOL     OW22384   2.786   0.129   3.811  0.1801  0.2320  0.1425
 3584SOL    HW122385   2.822   0.214   3.785 -0.3520  0.2402 -0.5673
 3584SOL    HW222386   2.751   0.154   3.897  0.6450 -1.5042  0.8409
 3585SOL     OW22387   0.768   3.115   5.231  0.4946  0.1334 -0.1191
 3585SOL    HW122388   0.732   3.040   5.278  1.5760  0.0534  0.5671
 3585SOL    HW222389   0.693   3.160   5.191  1.5545  2.3502  0.4230
 3586SOL     OW22390   0.769   1.916  14.837  0.5671 -0.0348 -0.1150
 3586SOL    HW122391   0.787   2.002  14.877 -0.3570  0.5857 -1.0379
 3586SOL    HW222392   0.699   1.941  14.776  0.5579 -2.1830 -0.9841
 3587SOL     OW22393   1.468   2.209   7.478  0.6774  0.0615  0.3178
 3587SOL    HW122394   1.441   2.295   7.509 -5.3000 -1.5029 -0.6664
 3587SOL    HW222395   1.547   2.190   7.529 -0.0016 -0.2557  1.2630
 3588SOL     OW22396   3.244   2.390  13.892  0.2265 -0.5632  0.3304
 3588SOL    HW122397   3.293   2.404  13.811  0.1668 -0.0034  0.3919
 3588SOL    HW222398   3.316   2.368  13.951 -0.8365 -1.4417  1.2892
 3589SOL     OW22399   2.725   2.615  17.406 -0.0114  0.6756  0.3527
 3589SOL    HW122400   2.719   2.594  17.313  2.6596 -0.2791  0.4001
 3589SOL    HW222401   2.819   2.615  17.421  0.2340 -2.2236 -1.4001
 3590SOL     OW22402   0.287   4.241   3.592 -0.0824  0.6998  0.6554
 3590SOL    HW122403   0.252   4.313   3.644  0.5645 -0.8347  3.2196
 3590SOL    HW222404   0.373   4.274   3.566 -0.7063  2.8978  1.4337
 3591SOL     OW22405   0.506   0.994  15.194  0.7024  0.1861  0.3498
 3591SOL    HW122406   0.535   1.047  15.268 -1.9678  0.3216  1.3085
 3591SOL    HW222407   0.477   0.914  15.238 -2.0531  1.9675  1.7827
 3592SOL     OW22408   1.151   4.186  10.615 -0.0199 -0.0794  0.5672
 3592SOL    HW122409   1.128   4.108  10.665  1.5167  1.9982  4.4674
 3592SOL    HW222410   1.072   4.240  10.619 -0.6348 -0.9284 -0.0901
 3593SOL     OW22411   0.431   3.442   2.442 -0.4237  0.1814 -0.1420
 3593SOL    HW122412   0.360   3.395   2.399  1.0122 -0.0071 -2.3576
 3593SOL    HW222413   0.394   3.452   2.529 -1.5006  0.0879 -0.5922
 3594SOL     OW22414   1.549   4.199   9.739 -0.1225 -0.1415  0.2353
 3594SOL    HW122415   1.471   4.172   9.786 -1.3487 -1.9132 -2.8349
 3594SOL    HW222416   1.611   4.211   9.811 -0.6797 -0.1230  0.7089
 3595SOL     OW22417   3.919   2.451   6.059  0.0537 -0.6347  0.1786
 3595SOL    HW122418   3.873   2.533   6.077 -0.9118 -0.9666 -0.7887
 3595SOL    HW222419   3.956   2.438   6.146  1.4547  2.9862  0.1192
 3596SOL     OW22420   2.823   2.131  11.048 -0.3393  0.5870 -0.6978
 3596SOL    HW122421   2.916   2.107  11.054  0.1087  2.3811 -0.1467
 3596SOL    HW222422   2.801   2.160  11.137 -0.1856 -2.8972  0.4570
 3597SOL     OW22423   4.133   4.550  16.437 -0.0275 -0.0320  0.4398
 3597SOL    HW122424   4.075   4.574  16.508  2.5276  2.1745  1.7773
 3597SOL    HW222425   4.084   4.481  16.391  0.1840  0.3891 -0.4307
 3598SOL     OW22426   4.569   1.006   4.609 -0.1078  0.6460  0.9077
 3598SOL    HW122427   4.536   1.085   4.653  0.9706  2.3123 -1.2791
 3598SOL    HW222428   4.558   1.040   4.521  0.3557  0.3753  0.7463
 3599SOL     OW22429   0.406   4.039  17.312 -0.2490  0.1574  0.1763
 3599SOL    HW122430   0.374   3.966  17.259 -0.4620 -0.0374  0.5765
 3599SOL    HW222431   0.328   4.073  17.355 -0.6741 -0.2369 -0.2744
 3600SOL     OW22432   4.295   2.515   7.014  0.2122 -0.1643 -0.0404
 3600SOL    HW122433   4.205   2.493   7.037 -0.4975 -0.0246 -2.6580
 3600SOL    HW222434   4.275   2.588   6.955  2.5287 -0.6297 -1.4528
 3601SOL     OW22435   2.413   1.074   2.427 -0.1531 -0.0867  0.0933
 3601SOL    HW122436   2.424   0.980   2.441  1.1092 -0.3754 -2.8139
 3601SOL    HW222437   2.494   1.112   2.463 -0.0248 -0.6006  0.3492
 3602SOL     OW22438   4.469   1.238   5.936  0.2381 -0.6538  0.0634
 3602SOL    HW122439   4.384   1.281   5.944  0.6070  0.1485 -0.3337
 3602SOL    HW222440   4.466   1.206   5.846  0.4363  1.5806 -0.7230
 3603SOL     OW22441   3.560   4.136   6.967 -0.6517 -0.5702  0.1145
 3603SOL    HW122442   3.526   4.069   6.908 -1.3537 -1.1566  1.1831
 3603SOL    HW222443   3.557   4.096   7.054  1.5357 -1.3513 -0.1761
 3604SOL     OW22444   1.040   0.417   2.873  0.5287  0.2648 -0.0340
 3604SOL    HW122445   1.120   0.404   2.822  1.1179 -1.0284  1.2387
 3604SOL    HW222446   0.974   0.413   2.803  0.8080  3.3731 -0.4762
 3605SOL     OW22447   1.585   2.356  16.446  0.5448 -0.1677  0.1887
 3605SOL    HW122448   1.669   2.373  16.403  0.5906  2.8016  1.4257
 3605SOL    HW222449   1.558   2.443  16.476 -0.9068 -0.2826 -0.8002
 3606SOL     OW22450   0.039   4.532  14.780 -0.5025  0.3668  0.0606
 3606SOL    HW122451   0.125   4.538  14.822  0.9592 -2.3979 -2.5251
 3606SOL    HW222452   4.719   4.585  14.833  0.5745  1.9400 -0.2972
 3607SOL     OW22453   4.173   2.772   7.877  0.6864  0.5059  0.4315
 3607SOL    HW122454   4.084   2.774   7.839  0.8308 -0.7775 -0.0042
 3607SOL    HW222455   4.154   2.730   7.961 -0.8647 -0.6287 -0.4673
 3608SOL     OW22456   0.780   1.746  13.368  0.2750 -0.1657 -0.0793
 3608SOL    HW122457   0.778   1.838  13.341  2.2127 -0.0354  0.2829
 3608SOL    HW222458   0.746   1.749  13.458 -0.8795 -0.1711 -0.5107
 3609SOL     OW22459   2.773   3.389  11.006 -0.2310  0.1208 -0.1263
 3609SOL    HW122460   2.737   3.356  11.088  1.4796  0.2984  0.7001
 3609SOL    HW222461   2.754   3.315  10.949  2.4214 -0.0792 -0.7140
 3610SOL     OW22462   2.878   1.433   9.975  0.3732  0.2117  0.4743
 3610SOL    HW122463   2.914   1.382  10.048  1.0221  1.4075  0.9885
 3610SOL    HW222464   2.809   1.375   9.943  0.7005 -1.2692  2.4138
 3611SOL     OW22465   3.100   0.558   8.321  0.2838 -0.1845  0.4073
 3611SOL    HW122466   3.100   0.504   8.242 -0.3916  0.5507 -0.0947
 3611SOL    HW222467   3.018   0.607   8.312  0.9518  0.8580 -0.0640
 3612SOL     OW22468   4.376   4.523   7.770  0.0585 -0.0071 -0.2170
 3612SOL    HW122469   4.286   4.542   7.796  0.2704  2.7991 -1.5967
 3612SOL    HW222470   4.376   4.428   7.785 -2.7386 -0.1029 -0.8093
 3613SOL     OW22471   4.714   1.881   4.637 -0.4782 -0.6650  0.2119
 3613SOL    HW122472   0.015   1.952   4.687 -0.3611  0.2047 -1.1102
 3613SOL    HW222473   4.645   1.850   4.696 -1.4591  1.2759  0.0776
 3614SOL     OW22474   3.631   0.660   2.656 -0.3485  0.4135 -0.1075
 3614SOL    HW122475   3.721   0.684   2.676  0.0634 -0.4133 -0.9561
 3614SOL    HW222476   3.651   0.598   2.585  1.3975 -0.0565  0.8111
 3615SOL     OW22477   4.166   0.869  12.543 -0.2309  0.0832  0.2321
 3615SOL    HW122478   4.253   0.902  12.569  0.5477 -1.2757 -0.6704
 3615SOL    HW222479   4.167   0.885  12.449 -3.1790 -0.7169  0.0860
 3616SOL     OW22480   3.588   2.164   6.749  0.1155  0.0384  0.1358
 3616SOL    HW122481   3.602   2.070   6.756  0.3564  0.1202  0.6724
 3616SOL    HW222482   3.664   2.192   6.698  0.7736 -1.5267  0.2654
 3617SOL     OW22483   1.517   3.948  12.153 -0.5542 -0.3947 -0.3185
 3617SOL    HW122484   1.426   3.974  12.163  0.1100  2.0487 -0.4079
 3617SOL    HW222485   1.507   3.853  12.152  1.5251 -0.6297  0.4444
 3618SOL     OW22486   4.395   3.238   2.302  0.5374  0.4625  0.2669
 3618SOL    HW122487   4.376   3.274   2.215  0.6254 -2.3956 -0.9112
 3618SOL    HW222488   4.388   3.323   2.345 -2.4636 -0.6916  2.0333
 3619SOL     OW22489   2.331   1.790   7.435 -0.1164 -0.4837 -0.1137
 3619SOL    HW122490   2.390   1.811   7.508 -1.4326 -1.2910  1.1665
 3619SOL    HW222491   2.379   1.837   7.367  2.7829  0.5149  2.6024
 3620SOL     OW22492   2.674   0.879   3.624 -0.1778  0.1502  0.1519
 3620SOL    HW122493   2.588   0.837   3.627 -0.8089  1.2698 -2.9460
 3620SOL    HW222494   2.696   0.877   3.717  1.4495 -0.4212 -0.2418
 3621SOL     OW22495   0.385   0.990   2.527 -0.2174 -0.7884  0.1488
 3621SOL    HW122496   0.443   1.059   2.495 -0.1696 -0.6727  0.4769
 3621SOL    HW222497   0.310   1.004   2.469 -1.1223  1.5987  1.8924
 3622SOL     OW22498   4.173   2.629  14.972 -0.1991 -0.0039  0.2739
 3622SOL    HW122499   4.101   2.612  14.912 -0.6254  4.3120 -0.4697
 3622SOL    HW222500   4.125   2.667  15.045 -0.5366 -0.8335  0.4825
 3623SOL     OW22501   3.726   0.023   1.123  0.0924  0.5224  0.8072
 3623SOL    HW122502   3.793   0.017   1.191 -1.1086  2.0520  2.1122
 3623SOL    HW222503   3.649   0.007   1.177  1.0137 -0.9792  1.6594
 3624SOL     OW22504   1.176   3.222   5.104 -0.5201  0.1834 -0.0566
 3624SOL    HW122505   1.170   3.276   5.025 -1.7859  1.1578  0.6914
 3624SOL    HW222506   1.121   3.149   5.077 -0.6846 -0.2693  1.4884
 3625SOL     OW22507   2.319   0.644  17.458 -0.1405  0.0820  0.3145
 3625SOL    HW122508   2.249   0.625  17.521 -0.0851 -1.6100 -0.1326
 3625SOL    HW222509   2.281   0.721  17.416  1.5842  0.3441 -0.7679
 3626SOL     OW22510   3.849   3.891   3.187  0.2883 -0.3701 -0.1321
 3626SOL    HW122511   3.862   3.863   3.278  0.0530  0.6985  0.2350
 3626SOL    HW222512   3.803   3.974   3.198  4.3372  1.6184  1.5890
 3627SOL     OW22513   4.373   1.003   5.715  0.1551  0.2263  0.1335
 3627SOL    HW122514   4.457   0.959   5.726 -0.0878 -0.9401 -2.8752
 3627SOL    HW222515   4.341   0.977   5.802 -1.0635 -0.7631 -0.6116
 3628SOL     OW22516   0.569   2.226   8.884 -0.5212 -0.7557 -0.0596
 3628SOL    HW122517   0.489   2.277   8.899  0.5770  0.5849  1.2297
 3628SOL    HW222518   0.582   2.185   8.969  1.3223  0.4638  0.2431
 3629SOL     OW22519   1.247   2.722  12.721 -0.6897  0.1717  0.1080
 3629SOL    HW122520   1.217   2.710  12.811 -0.0640 -2.0032  0.0091
 3629SOL    HW222521   1.324   2.666  12.721 -1.5621 -1.0256  2.1109
 3630SOL     OW22522   1.081   2.183   8.556  0.3109 -0.0262 -0.4258
 3630SOL    HW122523   1.153   2.246   8.556  1.7111 -1.6119 -0.8882
 3630SOL    HW222524   1.098   2.148   8.469 -1.0831  1.1018 -1.1518
 3631SOL     OW22525   0.441   1.290   0.405  0.2652  0.7975  0.2321
 3631SOL    HW122526   0.397   1.375   0.399  0.7334  1.0990  0.9977
 3631SOL    HW222527   0.410   1.249   0.486  2.1809 -0.3930  0.3801
 3632SOL     OW22528   3.950   3.538   4.665  0.3000  0.6442  0.6530
 3632SOL    HW122529   4.020   3.599   4.644  0.3321  0.5463  0.4823
 3632SOL    HW222530   3.992   3.455   4.645 -0.9276  0.4377 -1.0856
 3633SOL     OW22531   0.829   0.768   5.171  0.1636  0.5304 -0.4016
 3633SOL    HW122532   0.777   0.825   5.115 -1.4019 -1.3412 -0.8680
 3633SOL    HW222533   0.763   0.759   5.240 -0.0963  0.7361 -0.6250
 3634SOL     OW22534   3.216   3.978   1.660 -0.5738  0.2810 -0.4649
 3634SOL    HW122535   3.233   4.000   1.752 -1.4391 -1.9933  0.2324
 3634SOL    HW222536   3.299   3.953   1.621  0.7990  2.7485  0.8194
 3635SOL     OW22537   1.217   2.759   3.888  0.2683 -0.3947  0.0499
 3635SOL    HW122538   1.135   2.738   3.933  0.6721 -0.7997  0.6020
 3635SOL    HW222539   1.279   2.698   3.930 -0.6016 -2.0207 -1.0136
 3636SOL     OW22540   2.536   1.218   3.723 -0.2255  0.2601  0.3790
 3636SOL    HW122541   2.616   1.243   3.676 -1.4499  1.6987 -0.9328
 3636SOL    HW222542   2.562   1.152   3.788  1.6622  1.4611  0.8431
 3637SOL     OW22543   4.506   4.059  10.056  0.3643  0.1541 -0.2592
 3637SOL    HW122544   4.418   4.027  10.078  0.6123 -1.2117 -1.2175
 3637SOL    HW222545   4.551   4.024  10.133  1.5455 -0.7689 -1.3678
 3638SOL     OW22546   2.223   2.752  17.323 -0.1360  0.0686 -0.7528
 3638SOL    HW122547   2.286   2.806  17.369  0.3490 -0.3035 -0.9853
 3638SOL    HW222548   2.266   2.751  17.237  1.3833 -2.0419  0.0632
 3639SOL     OW22549   1.587   3.813   4.520  0.7364  0.6577  0.3967
 3639SOL    HW122550   1.620   3.854   4.600 -0.6311 -0.1728  1.3826
 3639SOL    HW222551   1.526   3.747   4.555 -0.0391  0.0648 -2.1055
 3640SOL     OW22552   1.997   0.632  10.346  0.1391 -0.1862  0.2559
 3640SOL    HW122553   1.941   0.617  10.422 -0.3545 -1.1365 -0.2851
 3640SOL    HW222554   1.938   0.700  10.312  0.0195 -1.2877 -1.8082
 3641SOL     OW22555   3.183   2.220   1.465 -0.1711  0.5030  0.0023
 3641SOL    HW122556   3.232   2.291   1.506  0.6499  0.0916 -0.2537
 3641SOL    HW222557   3.093   2.226   1.496  0.0395 -0.6372  0.8002
 3642SOL     OW22558   4.291   1.352   6.613  0.0175 -0.0414  0.1385
 3642SOL    HW122559   4.287   1.413   6.539  0.5044  0.6090  0.6456
 3642SOL    HW222560   4.202   1.325   6.634  0.9425 -1.9953  1.5006
 3643SOL     OW22561   0.571   3.502  14.692  0.1174 -0.0394  0.6755
 3643SOL    HW122562   0.587   3.596  14.700 -2.4838  0.3667  1.1891
 3643SOL    HW222563   0.589   3.489  14.599  0.6419 -0.6315  0.8576
 3644SOL     OW22564   0.297   0.801   7.791 -0.3427 -0.5222  0.2839
 3644SOL    HW122565   0.291   0.748   7.711 -0.8736  1.4603 -1.0047
 3644SOL    HW222566   0.310   0.725   7.848 -0.2227  1.2733  2.6463
 3645SOL     OW22567   3.008   1.434   1.629 -0.5701 -0.3226 -0.0281
 3645SOL    HW122568   2.939   1.370   1.646 -0.8725 -0.7190 -2.6211
 3645SOL    HW222569   2.966   1.516   1.654  2.4287  0.7266  1.5444
 3646SOL     OW22570   0.827   0.875   3.136 -0.1618  0.1451  0.1875
 3646SOL    HW122571   0.857   0.815   3.068 -2.7350  0.6431 -1.3726
 3646SOL    HW222572   0.874   0.833   3.209 -1.5447  1.3343  1.7769
 3647SOL     OW22573   2.114   3.876   4.953 -0.1005 -0.2120  0.2572
 3647SOL    HW122574   2.172   3.842   4.886  0.8778  0.1619  0.9134
 3647SOL    HW222575   2.078   3.954   4.910 -1.1016 -0.7768  0.0624
 3648SOL     OW22576   3.409   4.618  11.166  0.1895 -0.4406 -0.2199
 3648SOL    HW122577   3.347   4.634  11.095 -0.4541 -0.1178  0.4207
 3648SOL    HW222578   3.450   4.705  11.170  1.4938 -1.0161 -1.0365
 3649SOL     OW22579   2.491   1.411   8.954 -0.3694 -0.3420  0.5274
 3649SOL    HW122580   2.426   1.362   8.904 -2.8158  2.2690  1.1582
 3649SOL    HW222581   2.474   1.497   8.917 -0.4416 -0.5770  0.0087
 3650SOL     OW22582   1.032   4.299   9.318 -0.1797 -0.2777  0.2401
 3650SOL    HW122583   1.034   4.297   9.414  1.6556  0.7970  0.2298
 3650SOL    HW222584   0.969   4.369   9.305 -0.0246  0.2218  2.2758
 3651SOL     OW22585   3.039   3.478   5.075  0.3413  0.1558 -0.2491
 3651SOL    HW122586   3.000   3.485   5.162 -3.7954 -1.4028 -1.9409
 3651SOL    HW222587   2.967   3.448   5.019 -0.2472  0.8904  0.1046
 3652SOL     OW22588   1.429   2.246   6.572 -0.5006 -0.1890 -0.2209
 3652SOL    HW122589   1.467   2.237   6.659  0.2311  1.5813 -0.3700
 3652SOL    HW222590   1.407   2.339   6.567 -1.7308 -0.4070  0.9975
 3653SOL     OW22591   0.010   3.122   9.443 -0.4741  0.0934  0.4214
 3653SOL    HW122592   4.658   3.138   9.464 -0.2834  0.9724  0.5581
 3653SOL    HW222593   0.044   3.210   9.458 -1.7988  0.5326  0.8506
 3654SOL     OW22594   1.462   2.438   7.893 -0.4089  0.0582  0.6481
 3654SOL    HW122595   1.417   2.403   7.816  0.1194 -0.5182  0.6103
 3654SOL    HW222596   1.547   2.462   7.856 -0.5175  1.2480  1.1482
 3655SOL     OW22597   3.914   2.653   8.598  0.6138  0.0905  0.2508
 3655SOL    HW122598   3.981   2.602   8.551  0.6329 -0.4683  0.8716
 3655SOL    HW222599   3.875   2.587   8.657 -1.3722 -0.1558 -1.3465
 3656SOL     OW22600   2.777   2.209  11.289 -0.5058  0.1546  0.5063
 3656SOL    HW122601   2.695   2.238  11.328  0.1624  0.5300  1.6554
 3656SOL    HW222602   2.838   2.249  11.351  2.5565 -0.0690 -2.3513
 3657SOL     OW22603   3.367   0.947   2.681 -0.6679 -0.3955  0.9520
 3657SOL    HW122604   3.342   0.866   2.637  2.8443 -1.4395  0.9199
 3657SOL    HW222605   3.284   0.995   2.676 -0.3094  0.0023 -1.1659
 3658SOL     OW22606   3.485   4.070  10.362 -0.3537  0.2629 -0.2387
 3658SOL    HW122607   3.452   4.153  10.327 -1.5032  1.1488  2.9319
 3658SOL    HW222608   3.399   4.040  10.392  0.7474 -0.0753  2.5734
 3659SOL     OW22609   3.885   2.411  13.731  0.3267 -0.7865 -0.1446
 3659SOL    HW122610   3.905   2.478  13.796 -1.3029 -0.5435  0.1206
 3659SOL    HW222611   3.792   2.428  13.717  0.8239  1.4573 -0.7439
 3660SOL     OW22612   1.600   3.973   6.043  0.4143  0.2978  0.1074
 3660SOL    HW122613   1.687   3.933   6.044  1.4086  2.4218  0.1080
 3660SOL    HW222614   1.628   4.060   6.012 -1.1265  0.9051  0.4144
 3661SOL     OW22615   1.877   4.544  15.056  0.0863 -0.1578  0.0199
 3661SOL    HW122616   1.910   4.634  15.046 -0.9592  0.0669 -1.3953
 3661SOL    HW222617   1.919   4.521  15.139  1.0447 -0.1323 -0.4573
 3662SOL     OW22618   0.991   3.602  11.564 -0.0852  0.5550  0.1760
 3662SOL    HW122619   1.046   3.539  11.518 -0.2025  0.5712  0.0137
 3662SOL    HW222620   0.957   3.539  11.627  1.7377 -2.9094 -2.3282
 3663SOL     OW22621   2.718   4.610   7.599  0.6893 -0.3157 -0.1020
 3663SOL    HW122622   2.674   4.665   7.535 -0.0241  0.3232  0.9282
 3663SOL    HW222623   2.664   4.629   7.676  0.4384 -1.6143  0.0385
 3664SOL     OW22624   3.810   0.737   6.574 -0.0462  0.1755  0.3621
 3664SOL    HW122625   3.780   0.714   6.486  0.5459 -0.9834  0.4543
 3664SOL    HW222626   3.762   0.819   6.585  0.1473  0.4563 -0.8380
 3665SOL     OW22627   1.636   2.617   5.747  0.2286  0.2089  0.1039
 3665SOL    HW122628   1.676   2.695   5.786  0.6905  0.5684 -1.1102
 3665SOL    HW222629   1.557   2.652   5.706  0.1161  2.9868  2.6841
 3666SOL     OW22630   2.381   3.907   7.563 -0.1922  0.4590  0.1594
 3666SOL    HW122631   2.391   3.991   7.518  0.8104  0.7967  0.9982
 3666SOL    HW222632   2.354   3.853   7.488 -0.1678 -2.8893  2.5428
 3667SOL     OW22633   2.089   1.621   4.982 -0.1681  0.0853  0.2082
 3667SOL    HW122634   2.054   1.532   4.992 -0.2520  0.0161 -0.6825
 3667SOL    HW222635   2.070   1.667   5.064 -2.6750  1.4307 -1.1228
 3668SOL     OW22636   2.888   3.859   7.751  0.2250 -0.1873 -0.5068
 3668SOL    HW122637   2.966   3.804   7.764  1.1979  0.7101 -2.5388
 3668SOL    HW222638   2.812   3.804   7.730 -0.5527  0.5553  0.4070
 3669SOL     OW22639   3.877   4.730   5.155  0.3313 -0.3766 -0.5589
 3669SOL    HW122640   3.955   0.010   5.104 -0.0879  1.9601 -0.3470
 3669SOL    HW222641   3.898   4.645   5.192  0.6143 -0.2170 -0.3592
 3670SOL     OW22642   4.521   3.080   4.010  0.1788  0.5316 -0.2233
 3670SOL    HW122643   4.451   3.026   3.975 -0.3965  1.5988 -0.7169
 3670SOL    HW222644   4.542   3.031   4.090  0.1222  2.4255  0.9708
 3671SOL     OW22645   4.441   0.436   5.067 -0.2058  0.4277  0.4167
 3671SOL    HW122646   4.528   0.418   5.104 -1.3115 -0.6199  2.4933
 3671SOL    HW222647   4.382   0.398   5.132  0.5419 -1.5237 -0.0281
 3672SOL     OW22648   1.710   3.744   1.232 -0.4309 -0.6937 -0.1408
 3672SOL    HW122649   1.619   3.772   1.228 -0.4031 -0.5420  0.3388
 3672SOL    HW222650   1.750   3.827   1.205  1.1074 -0.5939  2.4578
 3673SOL     OW22651   2.275   0.086   1.705  0.2405  0.5730 -0.1862
 3673SOL    HW122652   2.212   0.152   1.678 -2.0766 -1.5265  0.0961
 3673SOL    HW222653   2.312   0.125   1.784 -1.5782 -0.0256  0.9672
 3674SOL     OW22654   1.813   0.829   9.705  0.2127  0.1357  0.3060
 3674SOL    HW122655   1.864   0.909   9.714 -0.2917  0.5794 -0.6705
 3674SOL    HW222656   1.832   0.785   9.787 -3.2713  0.6251  1.3914
 3675SOL     OW22657   0.918   1.341   3.964 -0.3332  0.0137  0.5765
 3675SOL    HW122658   0.917   1.436   3.979  0.0926 -0.0561  1.0417
 3675SOL    HW222659   0.890   1.337   3.873 -0.3034  1.2115  0.5116
 3676SOL     OW22660   0.065   4.667   1.907  0.1953 -0.0288  0.4042
 3676SOL    HW122661   0.002   4.692   1.975  0.6854 -2.1283  1.6333
 3676SOL    HW222662   0.106   4.594   1.954  0.0531 -2.1018 -2.6920
 3677SOL     OW22663   0.595   2.728   0.765  0.1856  0.3067  0.0994
 3677SOL    HW122664   0.566   2.734   0.856  1.5138 -3.8131  0.8099
 3677SOL    HW222665   0.584   2.821   0.744  2.1516 -0.0086 -2.3201
 3678SOL     OW22666   1.745   4.495   8.163  0.4586 -0.1722 -0.1230
 3678SOL    HW122667   1.655   4.489   8.193  0.5202  0.5174  0.1938
 3678SOL    HW222668   1.787   4.443   8.232 -0.3568 -0.2771  0.2846
 3679SOL     OW22669   2.984   0.664   5.361  0.1450  0.1632 -0.3175
 3679SOL    HW122670   3.020   0.604   5.296  1.6224 -1.4188  1.9806
 3679SOL    HW222671   2.961   0.592   5.419 -0.6090  0.9917  0.4280
 3680SOL     OW22672   1.375   3.211   3.216  0.0892  0.0457  0.3237
 3680SOL    HW122673   1.308   3.220   3.150  0.4534  0.4702  0.0149
 3680SOL    HW222674   1.459   3.223   3.172 -0.3657  1.1310 -0.2322
 3681SOL     OW22675   1.216   3.682   3.828  0.2832 -0.4927 -0.8461
 3681SOL    HW122676   1.273   3.607   3.843 -0.0270 -0.1786  2.0314
 3681SOL    HW222677   1.177   3.688   3.915 -1.0853 -1.1449 -1.4337
 3682SOL     OW22678   1.502   0.808   2.061 -0.0498 -1.0706  0.1854
 3682SOL    HW122679   1.511   0.743   2.130 -0.4797 -0.5288  0.7606
 3682SOL    HW222680   1.411   0.808   2.030 -0.5009 -1.3083  1.5247
 3683SOL     OW22681   2.586   1.768   1.794  0.3108  0.1116 -0.0903
 3683SOL    HW122682   2.513   1.822   1.766 -0.1307  0.5554  1.9131
 3683SOL    HW222683   2.661   1.823   1.773 -0.0970  0.4057 -0.7570
 3684SOL     OW22684   1.003   1.373   0.188  0.0960  0.7016  0.2501
 3684SOL    HW122685   1.007   1.306   0.119  0.2310 -1.6980  2.5807
 3684SOL    HW222686   1.035   1.319   0.260  0.1520  0.0606 -0.2474
 3685SOL     OW22687   2.593   3.250   5.594  0.0374  0.0934  0.0032
 3685SOL    HW122688   2.607   3.272   5.686  0.0071 -0.8065  0.2234
 3685SOL    HW222689   2.524   3.183   5.601 -0.4852  0.8702  2.5350
 3686SOL     OW22690   0.711   0.825  16.516  0.3260 -0.1212  1.0705
 3686SOL    HW122691   0.794   0.803  16.472 -0.0016 -1.7622  1.2727
 3686SOL    HW222692   0.746   0.813  16.604 -1.0133 -0.9752  1.4910
 3687SOL     OW22693   4.155   1.251   7.916  0.1806  0.2272 -0.5312
 3687SOL    HW122694   4.219   1.187   7.886 -0.7236  0.4421 -2.9506
 3687SOL    HW222695   4.196   1.331   7.883  1.5188  0.0231  0.6443
 3688SOL     OW22696   4.658   4.704   9.059 -0.0811 -0.0439  0.7493
 3688SOL    HW122697   0.010   4.674   9.058 -0.6276 -1.7145  1.1507
 3688SOL    HW222698   4.660   0.014   9.141  1.7221  0.0631  0.6523
 3689SOL     OW22699   0.463   3.808   4.181  0.0131  0.7543 -0.2433
 3689SOL    HW122700   0.390   3.868   4.197 -1.3723 -0.8291 -0.6813
 3689SOL    HW222701   0.518   3.869   4.132 -0.9048  1.7395 -0.0364
 3690SOL     OW22702   3.761   4.185   4.142 -0.1870 -0.5324  0.8888
 3690SOL    HW122703   3.697   4.206   4.210 -1.0538 -3.1554  0.8812
 3690SOL    HW222704   3.837   4.169   4.198  0.2980  2.2534  1.0460
 3691SOL     OW22705   4.381   1.702   7.798  0.5672  0.4654  0.4273
 3691SOL    HW122706   4.334   1.774   7.756 -1.2222 -0.3659  0.9841
 3691SOL    HW222707   4.468   1.697   7.760 -0.7129  2.0195 -2.7223
 3692SOL     OW22708   4.441   2.940   2.936  0.3737 -0.0044  0.1042
 3692SOL    HW122709   4.436   2.912   3.028 -1.8726  0.3100  0.0869
 3692SOL    HW222710   4.535   2.943   2.921  0.4776  0.8463  0.9013
 3693SOL     OW22711   1.322   0.519   6.001 -0.0100  0.3480 -0.0258
 3693SOL    HW122712   1.230   0.509   5.978  0.2547 -0.6124 -0.6601
 3693SOL    HW222713   1.355   0.477   5.922  0.5795 -1.3376  1.1259
 3694SOL     OW22714   1.221   1.086   7.752 -0.1465 -0.1065  0.0949
 3694SOL    HW122715   1.164   1.099   7.676  0.1011 -0.7076 -0.1876
 3694SOL    HW222716   1.293   1.047   7.704 -0.7301  1.2640 -1.8945
 3695SOL     OW22717   2.054   3.266  11.827  0.0554  0.5819  0.4134
 3695SOL    HW122718   1.977   3.317  11.851  1.4218  2.7094  0.2996
 3695SOL    HW222719   2.019   3.249  11.740 -1.1996 -0.9378  1.2394
 3696SOL     OW22720   3.629   2.466   9.484 -0.1007 -0.1101  0.5179
 3696SOL    HW122721   3.575   2.544   9.465 -1.4008 -1.0715  0.2719
 3696SOL    HW222722   3.603   2.412   9.409  1.2387  1.3990 -1.0314
 3697SOL     OW22723   2.449   1.086   3.356 -0.2109  0.0143 -0.3046
 3697SOL    HW122724   2.530   1.121   3.394  0.6073 -0.1318 -1.9583
 3697SOL    HW222725   2.415   1.048   3.437 -0.0865 -1.7087 -1.0672
 3698SOL     OW22726   0.138   3.829  17.524  0.4519 -0.1302 -0.2583
 3698SOL    HW122727   0.208   3.891  17.541 -1.2775  2.2880 -1.9525
 3698SOL    HW222728   0.179   3.743  17.534  1.1972  0.3577  0.8702
 3699SOL     OW22729   4.092   3.855  10.660  0.0156 -0.4045  0.5239
 3699SOL    HW122730   4.007   3.841  10.616  0.2002 -0.1104  0.0728
 3699SOL    HW222731   4.095   3.792  10.732  0.8859 -0.8770  0.0724
 3700SOL     OW22732   4.462   2.876   3.530  0.2163 -0.5218  0.2090
 3700SOL    HW122733   4.377   2.838   3.511 -0.1421 -0.8434  2.5156
 3700SOL    HW222734   4.510   2.800   3.562 -0.0978 -1.3238 -1.2330
 3701SOL     OW22735   2.730   1.067  16.754 -0.3327 -0.0349  0.4304
 3701SOL    HW122736   2.639   1.088  16.734 -0.0928  0.7723  0.1818
 3701SOL    HW222737   2.758   1.128  16.822 -1.1589 -1.5180  2.1033
 3702SOL     OW22738   4.120   2.006  16.123  0.1911 -0.0241  0.2290
 3702SOL    HW122739   4.043   2.058  16.146 -1.9169 -0.9792 -4.5096
 3702SOL    HW222740   4.148   2.025  16.033  0.4232 -0.7713  0.1422
 3703SOL     OW22741   0.957   0.081   6.120  0.2696  0.0258  0.2193
 3703SOL    HW122742   0.931   0.102   6.210 -0.6631 -0.8641  0.1473
 3703SOL    HW222743   0.879   0.042   6.083  0.9936  0.1474 -1.4272
 3704SOL     OW22744   0.905   2.455   7.872  0.2352 -0.2157 -0.0928
 3704SOL    HW122745   0.823   2.444   7.920 -0.3411  0.5064 -0.9135
 3704SOL    HW222746   0.878   2.406   7.795  0.9788  1.2666 -1.2938
 3705SOL     OW22747   3.324   2.164   6.872  0.1130  0.1500  0.3530
 3705SOL    HW122748   3.278   2.244   6.899 -0.8129 -0.2762  0.0089
 3705SOL    HW222749   3.409   2.192   6.838 -0.7845  0.6360 -1.4943
 3706SOL     OW22750   1.399   2.739   5.696 -0.7575  0.2117  0.1559
 3706SOL    HW122751   1.346   2.807   5.654  0.8764  1.8453  0.7586
 3706SOL    HW222752   1.339   2.705   5.763  2.5485 -2.6704  1.6638
 3707SOL     OW22753   3.943   2.752  12.157 -0.3267 -0.3185 -0.4277
 3707SOL    HW122754   3.965   2.766  12.065 -1.0149  0.4624 -0.4782
 3707SOL    HW222755   3.847   2.749  12.162 -0.3942  1.4950 -0.4123
 3708SOL     OW22756   1.549   3.666   6.943  0.3410 -0.1036 -0.2309
 3708SOL    HW122757   1.547   3.719   7.023  1.5250 -0.8649  0.3080
 3708SOL    HW222758   1.456   3.670   6.922  0.5526  0.9490 -0.9455
 3709SOL     OW22759   3.509   0.866   4.174  0.1597 -0.1430  0.2517
 3709SOL    HW122760   3.494   0.948   4.127 -2.2315 -1.1684 -0.7423
 3709SOL    HW222761   3.475   0.808   4.106  1.4992 -1.9061  1.0952
 3710SOL     OW22762   4.446   0.798   5.100  0.2474  0.3428 -0.2137
 3710SOL    HW122763   4.470   0.754   5.018 -0.2921 -0.8560  0.2651
 3710SOL    HW222764   4.355   0.827   5.096 -0.5465 -1.8899  1.4901
 3711SOL     OW22765   1.505   1.554   4.952 -0.3570 -0.1652 -0.0407
 3711SOL    HW122766   1.492   1.489   5.021  1.5032 -2.0772 -1.5055
 3711SOL    HW222767   1.422   1.559   4.906 -1.4432  0.4729  1.9814
 3712SOL     OW22768   4.043   0.248   5.545 -0.6318  0.3066 -0.2267
 3712SOL    HW122769   4.005   0.240   5.633  2.2166  0.1117  0.9715
 3712SOL    HW222770   3.973   0.224   5.484  0.5941  2.5526 -2.5077
 3713SOL     OW22771   0.936   4.447   2.950 -0.3714 -0.8211 -0.3847
 3713SOL    HW122772   0.992   4.442   3.027 -2.0825 -2.4852  0.7694
 3713SOL    HW222773   0.853   4.410   2.982 -0.0520 -1.2159 -0.0062
 3714SOL     OW22774   4.419   4.068   4.864  0.4958  0.1756  0.6375
 3714SOL    HW122775   4.486   4.001   4.878 -1.3752 -1.7261  0.3990
 3714SOL    HW222776   4.368   4.046   4.942 -2.0675  1.4037 -0.6967
 3715SOL     OW22777   0.266   4.690   2.185 -0.4440  0.2915  0.6374
 3715SOL    HW122778   0.282   4.595   2.178 -2.0214  0.1659 -1.1776
 3715SOL    HW222779   0.190   4.688   2.243 -0.7436  0.2497  0.2492
 3716SOL     OW22780   2.713   2.086  14.901 -0.3002 -0.0391  0.8160
 3716SOL    HW122781   2.733   2.008  14.952  0.1501  0.2983  1.1586
 3716SOL    HW222782   2.618   2.094  14.910 -0.6419 -1.4452 -1.5031
 3717SOL     OW22783   0.931   4.170   9.099  0.1192  0.6136  0.0532
 3717SOL    HW122784   0.934   4.202   9.189  1.9508  1.9017 -0.4685
 3717SOL    HW222785   0.993   4.220   9.047 -1.1120  1.1541 -0.8770
 3718SOL     OW22786   0.403   3.805   5.862  0.0818 -0.5466  0.1194
 3718SOL    HW122787   0.408   3.710   5.863 -0.8030 -0.6064 -0.6474
 3718SOL    HW222788   0.372   3.814   5.772 -0.4237  0.6525  0.4128
 3719SOL     OW22789   2.453   2.918   5.405  0.1392  0.0113 -0.0907
 3719SOL    HW122790   2.506   2.887   5.479 -0.0020  0.1560  0.0713
 3719SOL    HW222791   2.386   2.851   5.394  0.7439 -0.7636  0.9625
 3720SOL     OW22792   0.528   1.753   7.956 -0.1080 -0.0442 -0.1460
 3720SOL    HW122793   0.548   1.843   7.983 -1.4998 -0.4830  2.3616
 3720SOL    HW222794   0.614   1.729   7.922  0.3901  1.0927  0.3116
 3721SOL     OW22795   3.282   3.073   7.931 -0.9178  0.0537 -0.0267
 3721SOL    HW122796   3.370   3.097   7.961 -0.1363 -0.0215 -2.2593
 3721SOL    HW222797   3.236   3.156   7.945 -1.3564 -0.4107  1.2667
 3722SOL     OW22798   0.501   1.338  11.711 -0.2509  0.2409  0.2635
 3722SOL    HW122799   0.533   1.320  11.799  0.1962  3.4649  0.7539
 3722SOL    HW222800   0.563   1.294  11.653 -0.6496 -4.0388  3.0740
 3723SOL     OW22801   3.783   2.895   0.461 -0.2598  0.1804  0.0552
 3723SOL    HW122802   3.841   2.846   0.519 -1.6911 -0.7253  0.7143
 3723SOL    HW222803   3.845   2.924   0.393  0.7676  0.2647  1.0351
 3724SOL     OW22804   4.734   4.478  10.324 -0.1295  0.3219  0.5760
 3724SOL    HW122805   4.726   4.423  10.246  0.3132 -1.0462  1.5045
 3724SOL    HW222806   0.089   4.494  10.335 -0.1351 -0.1547  1.3300
 3725SOL     OW22807   3.499   2.993   2.844 -0.6306  0.4525 -0.1421
 3725SOL    HW122808   3.474   3.067   2.789 -1.0885 -0.2354 -0.8714
 3725SOL    HW222809   3.543   2.934   2.782 -0.6105 -1.0487  1.2996
 3726SOL     OW22810   0.044   3.414   9.582  0.0853  0.0206  0.2213
 3726SOL    HW122811   0.131   3.430   9.619 -0.8117  1.9048  1.4944
 3726SOL    HW222812   0.004   3.373   9.659  0.0204 -0.6854 -0.1833
 3727SOL     OW22813   2.433   4.726   5.562 -0.7278 -0.1819  0.4622
 3727SOL    HW122814   2.384   4.645   5.551  0.0574 -0.5949 -0.0475
 3727SOL    HW222815   2.365   0.039   5.520 -0.3348  0.2182  0.3122
 3728SOL     OW22816   1.246   2.880   4.238 -0.0927 -0.3622 -0.2326
 3728SOL    HW122817   1.233   2.806   4.179 -2.3737 -1.4937  1.6930
 3728SOL    HW222818   1.270   2.948   4.176  0.7602 -2.1119 -1.8211
 3729SOL     OW22819   1.433   2.456   2.790 -0.0901 -0.2951 -0.2805
 3729SOL    HW122820   1.461   2.398   2.861  1.2392  0.8264  0.1197
 3729SOL    HW222821   1.380   2.516   2.842 -1.0653 -0.5556 -0.9690
 3730SOL     OW22822   2.962   3.798  16.319  0.1267  0.5889  0.4276
 3730SOL    HW122823   2.948   3.813  16.226  0.1303 -1.4852  0.1118
 3730SOL    HW222824   3.050   3.835  16.320 -0.5595  2.2704 -1.3076
 3731SOL     OW22825   4.263   0.830   9.090 -0.2659  0.6338 -0.2491
 3731SOL    HW122826   4.206   0.778   9.033  1.4026  1.6199 -2.8377
 3731SOL    HW222827   4.314   0.882   9.027  1.0166  0.2911  0.5151
 3732SOL     OW22828   1.351   0.460  16.474  0.0944  0.4932  0.3060
 3732SOL    HW122829   1.265   0.503  16.469 -0.8538 -1.3740  0.3395
 3732SOL    HW222830   1.330   0.385  16.530 -2.4135  1.5989  0.8515
 3733SOL     OW22831   3.323   4.211   2.685  0.0024 -0.5224 -0.3199
 3733SOL    HW122832   3.285   4.213   2.773  1.2376 -0.5563  0.2226
 3733SOL    HW222833   3.249   4.159   2.654  0.5577 -0.7795 -1.2279
 3734SOL     OW22834   1.413   1.355   1.784  0.3312  0.0759  0.1751
 3734SOL    HW122835   1.326   1.392   1.765 -0.3110 -2.4653 -1.7643
 3734SOL    HW222836   1.460   1.402   1.716  1.0899  1.3187  1.5363
 3735SOL     OW22837   3.448   3.153   2.574  0.1333  0.1288  0.1293
 3735SOL    HW122838   3.504   3.190   2.506  0.8243  2.0662  1.7735
 3735SOL    HW222839   3.377   3.217   2.569  0.7189  0.8409  1.0237
 3736SOL     OW22840   3.089   2.731   3.864  0.5908 -0.3297  0.4710
 3736SOL    HW122841   3.065   2.664   3.800  2.3378 -0.9252  0.4283
 3736SOL    HW222842   3.146   2.788   3.811 -0.7898  0.6501  0.0343
 3737SOL     OW22843   1.993   0.920   4.298 -0.3328  0.4341 -0.2491
 3737SOL    HW122844   2.003   0.842   4.242 -0.1791 -0.0272  0.4278
 3737SOL    HW222845   2.044   0.903   4.377 -0.1419 -0.8649 -0.6423
 3738SOL     OW22846   4.286   4.430  17.467  0.5428 -0.3485  0.5963
 3738SOL    HW122847   4.357   4.486  17.437  0.5350  0.2422  1.6835
 3738SOL    HW222848   4.338   4.350  17.477  0.8955 -0.4258 -1.8344
 3739SOL     OW22849   1.605   0.480   6.749  0.5517 -0.0768 -0.4362
 3739SOL    HW122850   1.561   0.517   6.673  0.1174  0.5575  0.1197
 3739SOL    HW222851   1.531   0.463   6.806  0.4707  0.3815 -0.4055
 3740SOL     OW22852   0.497   4.439   6.762  0.0601  0.2700 -0.1068
 3740SOL    HW122853   0.452   4.358   6.738  0.3994  0.5354 -1.5886
 3740SOL    HW222854   0.455   4.506   6.709  1.2839  2.2129  1.3649
 3741SOL     OW22855   3.678   1.964   8.532 -0.2405  0.2233  0.6332
 3741SOL    HW122856   3.690   2.015   8.452  0.9974  0.7324  1.1441
 3741SOL    HW222857   3.588   1.981   8.559 -0.7099  0.4973 -1.1346
 3742SOL     OW22858   2.775   3.742  10.557 -0.8041 -0.8353 -0.0058
 3742SOL    HW122859   2.783   3.696  10.641 -1.4789  0.2601  0.6607
 3742SOL    HW222860   2.729   3.823  10.577 -0.8561 -1.2259  1.4862
 3743SOL     OW22861   1.448   0.174   2.956  0.0987  0.0755 -0.1637
 3743SOL    HW122862   1.465   0.083   2.981  0.8490  0.8815  2.2057
 3743SOL    HW222863   1.442   0.170   2.860  3.0503 -0.3016 -0.3215
 3744SOL     OW22864   3.196   4.422   1.892  0.2648  0.5105 -0.2609
 3744SOL    HW122865   3.243   4.340   1.906  0.1020  0.6992  1.3602
 3744SOL    HW222866   3.176   4.417   1.799  0.3455 -1.2087 -0.1900
 3745SOL     OW22867   4.129   3.344   4.551 -0.8894  0.0631  0.4438
 3745SOL    HW122868   4.103   3.265   4.598 -2.7578 -0.6141 -1.7337
 3745SOL    HW222869   4.216   3.374   4.579  0.9851 -2.0551 -3.2100
 3746SOL     OW22870   1.203   3.280  14.282 -1.0703 -0.3652  0.3307
 3746SOL    HW122871   1.255   3.336  14.341 -1.5470  0.7128 -0.2750
 3746SOL    HW222872   1.138   3.242  14.341 -1.1767  0.6322  0.8657
 3747SOL     OW22873   3.536   1.916   0.571  0.3001  0.0385  0.0028
 3747SOL    HW122874   3.497   1.838   0.610 -2.4269  1.4892  0.1322
 3747SOL    HW222875   3.489   1.991   0.608 -0.0194 -0.2441  0.1616
 3748SOL     OW22876   0.302   2.705   3.839  0.5674  0.2543  0.1460
 3748SOL    HW122877   0.297   2.622   3.888  0.1246  0.5755  0.6508
 3748SOL    HW222878   0.284   2.775   3.902  1.0318 -1.3236  2.0386
 3749SOL     OW22879   1.471   3.036   9.269 -0.1972 -0.0012 -0.3761
 3749SOL    HW122880   1.533   3.039   9.196  0.0433  0.5559 -0.1508
 3749SOL    HW222881   1.520   3.011   9.347 -1.2632  0.9344  0.6045
 3750SOL     OW22882   1.184   3.547   6.525  0.0368  0.2956  0.1069
 3750SOL    HW122883   1.256   3.506   6.573  1.3097  0.4972 -1.6225
 3750SOL    HW222884   1.164   3.627   6.573 -2.5400 -0.0386 -0.4087
 3751SOL     OW22885   3.622   4.723  16.344  0.0057 -0.1494 -0.2032
 3751SOL    HW122886   3.715   4.724  16.368 -0.1086 -1.4553  0.2794
 3751SOL    HW222887   3.630   4.668  16.266 -0.3691  0.6625 -0.8214
 3752SOL     OW22888   3.561   4.342   5.659  0.0870 -0.1402  0.4337
 3752SOL    HW122889   3.566   4.435   5.680 -0.1492  0.3730 -1.8468
 3752SOL    HW222890   3.555   4.343   5.564  1.1527 -2.4643  0.3383
 3753SOL     OW22891   4.394   0.008   5.021  0.0109 -0.3577  0.0585
 3753SOL    HW122892   4.458   0.058   4.970 -0.5827  1.1984  0.8401
 3753SOL    HW222893   4.433   0.008   5.108  0.3526 -0.3162 -0.0916
 3754SOL     OW22894   4.203   0.475   5.968  0.3922  0.1882 -0.3847
 3754SOL    HW122895   4.255   0.499   6.045 -2.9814  2.8001  1.0593
 3754SOL    HW222896   4.231   0.541   5.905 -0.9021  1.2805  0.1931
 3755SOL     OW22897   4.059   0.526   5.458  0.2458  0.2089 -0.3278
 3755SOL    HW122898   3.966   0.534   5.436 -0.2061  0.8409  1.7972
 3755SOL    HW222899   4.056   0.432   5.474 -3.2449  0.6446  1.5362
 3756SOL     OW22900   4.687   3.464   0.308  0.3141  0.8097  0.0780
 3756SOL    HW122901   0.016   3.435   0.248 -0.6834  1.9505 -1.6115
 3756SOL    HW222902   4.608   3.442   0.258  1.1755  2.6826 -2.0943
 3757SOL     OW22903   2.335   2.702   7.566 -0.1553 -0.2521  0.8443
 3757SOL    HW122904   2.316   2.649   7.643  0.3952 -0.0361  1.1281
 3757SOL    HW222905   2.247   2.712   7.529 -0.4301  0.0808  1.5975
 3758SOL     OW22906   3.585   0.854   8.907 -0.2890 -0.4868 -0.6701
 3758SOL    HW122907   3.576   0.918   8.978 -2.2727  1.0366 -2.3030
 3758SOL    HW222908   3.633   0.787   8.956  1.1233  0.6831 -0.4518
 3759SOL     OW22909   0.161   4.089   9.540  0.5170 -0.4414 -0.1540
 3759SOL    HW122910   0.150   3.994   9.537  3.2704 -0.7092 -1.1994
 3759SOL    HW222911   0.253   4.103   9.518  0.5502 -0.3565  0.0407
 3760SOL     OW22912   3.550   1.330   5.570  0.2420  0.1365 -0.2377
 3760SOL    HW122913   3.536   1.422   5.593  1.7245 -0.2442  2.1712
 3760SOL    HW222914   3.465   1.291   5.550  0.1143 -0.1264  0.8557
 3761SOL     OW22915   4.063   4.558   1.818 -0.1000  0.3278  0.6072
 3761SOL    HW122916   4.151   4.531   1.789 -0.5538  0.7985 -1.1858
 3761SOL    HW222917   4.094   4.609   1.893  1.3445  1.5981 -0.8530
 3762SOL     OW22918   4.153   1.425   0.700  0.3219 -0.5255 -0.2930
 3762SOL    HW122919   4.248   1.429   0.715  0.3085  1.0572 -0.7105
 3762SOL    HW222920   4.118   1.477   0.772 -2.3299 -1.7026 -0.7457
 3763SOL     OW22921   3.960   2.613   6.694  0.3344  0.5181 -0.3326
 3763SOL    HW122922   3.981   2.585   6.605 -1.6790  0.5945 -0.8467
 3763SOL    HW222923   3.936   2.533   6.741  1.3942  0.0095 -0.6747
 3764SOL     OW22924   0.608   3.923  15.571 -0.0996  0.7025 -0.1856
 3764SOL    HW122925   0.696   3.951  15.593 -0.4628  1.6281  0.0588
 3764SOL    HW222926   0.545   3.983  15.610 -1.7169 -1.9620  1.3647
 3765SOL     OW22927   3.762   3.921   9.088 -0.0792 -0.1177 -0.3961
 3765SOL    HW122928   3.719   3.837   9.103  1.5381 -1.0737 -1.2365
 3765SOL    HW222929   3.809   3.932   9.171  0.3984  0.3529 -0.7338
 3766SOL     OW22930   1.294   0.961   5.717 -0.4308 -0.4738  0.3658
 3766SOL    HW122931   1.354   0.904   5.764  0.4934 -0.6224 -1.0077
 3766SOL    HW222932   1.228   0.894   5.700 -2.7820  1.8212  0.4467
 3767SOL     OW22933   1.050   0.752   4.399  0.0003 -0.3497  0.0859
 3767SOL    HW122934   1.061   0.678   4.339  1.1396 -0.6529  0.6769
 3767SOL    HW222935   1.025   0.816   4.331  0.7409 -0.2471 -0.0881
 3768SOL     OW22936   0.811   0.165   9.973  0.2857  0.2178  0.6490
 3768SOL    HW122937   0.882   0.217  10.009  0.0012  0.3435  1.0259
 3768SOL    HW222938   0.744   0.230   9.950 -0.2199 -0.4091  0.3331
 3769SOL     OW22939   3.094   1.112   9.921 -0.1248  0.5364  0.4638
 3769SOL    HW122940   3.060   1.040   9.973 -1.9147 -0.3701 -2.0130
 3769SOL    HW222941   3.146   1.169   9.979 -2.0738  0.2061  2.5184
 3770SOL     OW22942   2.533   3.056  12.340 -0.1315 -0.3894 -0.3833
 3770SOL    HW122943   2.530   2.989  12.409 -1.6574  0.4618  0.3703
 3770SOL    HW222944   2.627   3.069  12.330 -0.0774 -0.1031  0.4255
 3771SOL     OW22945   2.355   2.377   5.747  0.1324  0.0661  0.4195
 3771SOL    HW122946   2.402   2.325   5.682  0.7114 -0.3713  1.1995
 3771SOL    HW222947   2.423   2.436   5.780 -1.0212  1.2437  0.7096
 3772SOL     OW22948   1.068   3.678   4.282  0.7165  0.2947 -0.0596
 3772SOL    HW122949   1.071   3.770   4.309 -1.2239  0.1351  0.6567
 3772SOL    HW222950   1.089   3.632   4.363 -1.6799 -0.6510  0.0208
 3773SOL     OW22951   3.730   1.152   7.206  0.0211 -0.4942 -0.2372
 3773SOL    HW122952   3.719   1.186   7.294  1.6519 -1.0126  0.1656
 3773SOL    HW222953   3.650   1.181   7.161 -0.2920 -1.5221 -0.3304
 3774SOL     OW22954   0.023   4.697   5.320  0.2131 -0.0405  0.0791
 3774SOL    HW122955   0.024   4.602   5.333 -0.0915 -0.4279 -2.7824
 3774SOL    HW222956   0.085   4.703   5.246 -2.8515 -1.7921 -2.6247
 3775SOL     OW22957   2.619   2.990   8.127  0.1673 -0.1495  0.5163
 3775SOL    HW122958   2.569   2.923   8.079 -0.4575  1.3541 -0.9200
 3775SOL    HW222959   2.587   3.070   8.087 -0.7554 -0.2908  0.9590
 3776SOL     OW22960   3.710   1.474  13.851 -0.1296 -0.3373  0.0957
 3776SOL    HW122961   3.653   1.447  13.923 -2.4478  0.6319 -1.3926
 3776SOL    HW222962   3.769   1.399  13.843  0.1492 -0.2205  1.0401
 3777SOL     OW22963   4.314   1.533  15.267  0.0382 -0.1529 -0.2001
 3777SOL    HW122964   4.379   1.570  15.207  1.0794 -2.4440 -0.4674
 3777SOL    HW222965   4.254   1.608  15.269 -1.6465 -1.5829  2.9537
 3778SOL     OW22966   0.887   1.365   6.796  0.2876  0.1729 -0.3618
 3778SOL    HW122967   0.951   1.417   6.844 -0.8731 -0.1864  1.5795
 3778SOL    HW222968   0.800   1.404   6.803  0.3858  0.8839 -2.7932
 3779SOL     OW22969   1.167   1.620  12.322 -0.7898 -0.1129  0.4518
 3779SOL    HW122970   1.209   1.596  12.404  1.1004 -0.7107 -0.7039
 3779SOL    HW222971   1.215   1.560  12.265  1.2282  2.0441 -0.1119
 3780SOL     OW22972   2.688   3.602  14.247  0.0901 -0.3264  0.4291
 3780SOL    HW122973   2.720   3.626  14.160  1.2339  1.7303  1.4044
 3780SOL    HW222974   2.704   3.679  14.302 -2.2366  0.0859  0.5223
 3781SOL     OW22975   2.914   4.306   2.921 -0.1646  0.2224  0.0992
 3781SOL    HW122976   2.832   4.267   2.952 -1.0915  0.5123 -1.9760
 3781SOL    HW222977   2.913   4.289   2.826 -1.5838 -3.6159  0.8181
 3782SOL     OW22978   1.970   2.343  17.490 -0.4000 -0.0749 -0.1931
 3782SOL    HW122979   2.050   2.336  17.437 -0.2600  1.5562 -0.1846
 3782SOL    HW222980   1.983   2.279  17.560 -1.4671 -1.5937 -1.3762
 3783SOL     OW22981   0.175   0.258   3.872 -0.0989  0.0987 -0.2305
 3783SOL    HW122982   0.189   0.190   3.938  1.1483  0.5267 -0.0517
 3783SOL    HW222983   0.111   0.306   3.925 -1.0390 -2.3460  0.8857
 3784SOL     OW22984   1.610   3.853  11.202 -0.0171  0.3749 -0.1574
 3784SOL    HW122985   1.598   3.809  11.118 -0.9823  1.3911 -0.5621
 3784SOL    HW222986   1.705   3.852  11.203 -0.0656 -0.2449  4.3659
 3785SOL     OW22987   4.467   3.671  10.607 -0.1722  0.3255 -0.3918
 3785SOL    HW122988   4.543   3.626  10.644 -2.5300 -2.3855  1.1930
 3785SOL    HW222989   4.392   3.623  10.642 -0.0109 -1.4294 -2.4524
 3786SOL     OW22990   0.221   0.828  14.155 -0.1075 -0.3616 -0.0088
 3786SOL    HW122991   0.198   0.917  14.181  0.2299 -0.4916  0.7324
 3786SOL    HW222992   0.235   0.842  14.061 -1.7041 -0.3090 -0.2379
 3787SOL     OW22993   0.400   1.866   6.429 -0.0963 -0.0855  0.4856
 3787SOL    HW122994   0.413   1.959   6.450  0.5325 -0.1388  0.3368
 3787SOL    HW222995   0.490   1.838   6.416 -0.4139 -0.7996 -0.1487
 3788SOL     OW22996   1.915   3.793   3.221 -0.2581 -0.1611 -0.2809
 3788SOL    HW122997   1.820   3.794   3.236  0.0145  2.9325  1.1181
 3788SOL    HW222998   1.938   3.880   3.254 -0.2405 -0.3789  0.2901
 3789SOL     OW22999   4.520   0.082   5.244  0.0244  0.5249 -0.0501
 3789SOL    HW123000   4.609   0.046   5.252 -0.5231 -0.6535  0.7107
 3789SOL    HW223001   4.537   0.170   5.277 -1.7920  0.0794  2.0573
 3790SOL     OW23002   1.283   4.304   9.548  0.1678  0.0888  0.6085
 3790SOL    HW123003   1.209   4.363   9.566 -1.1239 -0.9278 -1.4005
 3790SOL    HW223004   1.232   4.224   9.544  0.0737  0.1160  1.1850
 3791SOL     OW23005   3.879   2.462   9.109  0.1484  0.1836  0.3767
 3791SOL    HW123006   3.884   2.555   9.088 -1.5775 -0.0415 -0.9547
 3791SOL    HW223007   3.946   2.463   9.178 -0.1293 -2.0434  0.6814
 3792SOL     OW23008   4.222   2.112   3.951 -0.1369 -0.0962  0.3130
 3792SOL    HW123009   4.315   2.087   3.955 -0.4667 -0.9087  2.7521
 3792SOL    HW223010   4.178   2.034   3.983 -0.7217 -0.0981 -0.5298
 3793SOL     OW23011   3.960   0.113   8.969  0.3358  0.1991 -0.5661
 3793SOL    HW123012   3.888   0.097   9.031 -0.2813  0.7925 -1.1438
 3793SOL    HW223013   3.925   0.168   8.900 -3.1517 -0.3107  0.7874
 3794SOL     OW23014   1.212   0.664   2.613  0.1372  0.2283  0.4354
 3794SOL    HW123015   1.139   0.726   2.604 -0.3582 -0.2538  1.1535
 3794SOL    HW223016   1.268   0.685   2.539  1.1029 -0.3574  1.0002
 3795SOL     OW23017   3.522   4.622   5.707 -0.4983 -0.4201  0.5499
 3795SOL    HW123018   3.461   4.653   5.774 -0.0698 -2.7529  1.9884
 3795SOL    HW223019   3.587   4.693   5.708  1.0736 -1.8232 -1.0893
 3796SOL     OW23020   4.325   0.292   7.025 -0.1497 -0.0718  0.7090
 3796SOL    HW123021   4.383   0.282   6.949 -1.9631  0.5361 -0.7559
 3796SOL    HW223022   4.340   0.385   7.043  1.2761 -0.0091 -0.8945
 3797SOL     OW23023   4.737   4.296   7.781 -0.9094 -0.5689 -0.7475
 3797SOL    HW123024   4.722   4.209   7.743  0.2478 -1.8799  1.7987
 3797SOL    HW223025   4.716   4.346   7.701  1.3962  1.1528 -0.2507
 3798SOL     OW23026   2.567   2.189  13.732 -0.0714  0.3605  0.4156
 3798SOL    HW123027   2.574   2.113  13.790 -0.7303 -0.7959 -1.0448
 3798SOL    HW223028   2.541   2.256  13.796 -1.0299  1.0867 -0.7276
 3799SOL     OW23029   2.650   3.885   4.840  0.4440  0.0460  0.1902
 3799SOL    HW123030   2.677   3.821   4.774 -1.9274  0.4581 -1.1703
 3799SOL    HW223031   2.703   3.867   4.917  1.4256  0.3708 -0.4103
 3800SOL     OW23032   0.561   1.492   7.536  0.2849  0.2395  0.2587
 3800SOL    HW123033   0.631   1.489   7.603 -1.0608  1.9815  1.7568
 3800SOL    HW223034   0.594   1.418   7.485 -0.3310  0.8729 -1.0448
 3801SOL     OW23035   2.712   3.379   9.317  0.1157 -0.3661 -0.5407
 3801SOL    HW123036   2.790   3.332   9.347  0.7882  0.9165 -0.3076
 3801SOL    HW223037   2.674   3.394   9.403 -0.4207  2.4014 -1.2548
 3802SOL     OW23038   3.069   3.044   6.171 -0.2775  0.0265 -0.3281
 3802SOL    HW123039   2.984   3.051   6.127  0.0850  1.2404 -0.8337
 3802SOL    HW223040   3.092   3.137   6.175  0.1176 -0.0707 -0.3584
 3803SOL     OW23041   1.658   0.283   3.253  0.1099 -0.1458  0.2728
 3803SOL    HW123042   1.580   0.290   3.307 -0.7922 -1.9565 -0.7680
 3803SOL    HW223043   1.680   0.190   3.255 -0.2134 -0.1435  3.1092
 3804SOL     OW23044   0.558   2.259   7.018  0.2637  0.0980  0.2370
 3804SOL    HW123045   0.524   2.171   7.030 -0.3587  0.3916  0.6275
 3804SOL    HW223046   0.536   2.270   6.925 -0.0946  2.8882  0.6376
 3805SOL     OW23047   4.141   3.138   7.021 -0.2769 -0.1075 -0.0558
 3805SOL    HW123048   4.165   3.053   7.059  0.5756  0.6336  1.0587
 3805SOL    HW223049   4.074   3.165   7.083 -0.7852  2.5249 -1.7874
 3806SOL     OW23050   2.897   1.714  14.429 -0.1208 -0.2035 -0.0476
 3806SOL    HW123051   2.980   1.696  14.385 -0.7778 -0.4037 -1.2055
 3806SOL    HW223052   2.829   1.682  14.369 -1.4002  1.0095  0.7608
 3807SOL     OW23053   4.509   3.987   1.466 -0.9187  0.0535 -0.4357
 3807SOL    HW123054   4.571   3.921   1.434 -1.3051 -0.2594 -0.5291
 3807SOL    HW223055   4.463   3.936   1.532 -1.2233  0.7056 -0.1452
 3808SOL     OW23056   2.639   2.905   3.806 -0.3955  0.0612  0.1503
 3808SOL    HW123057   2.561   2.961   3.806 -0.6650 -0.3187 -0.0788
 3808SOL    HW223058   2.655   2.882   3.715 -0.7934  2.9495 -0.6577
 3809SOL     OW23059   4.667   3.817  16.386  0.2144  0.4765 -0.0667
 3809SOL    HW123060   0.021   3.796  16.379 -0.5598 -1.7803 -3.2907
 3809SOL    HW223061   4.668   3.910  16.410 -1.0310  0.5461 -0.2756
 3810SOL     OW23062   0.887   2.270  16.091 -0.3387  0.0636 -0.3342
 3810SOL    HW123063   0.924   2.241  16.008 -1.5409 -2.6841  0.0648
 3810SOL    HW223064   0.935   2.351  16.105 -2.2336  0.9425  1.1594
 3811SOL     OW23065   3.540   4.656  10.010 -0.1433 -0.5930 -0.0384
 3811SOL    HW123066   3.565   4.593  10.078 -1.2423 -3.1395 -1.9765
 3811SOL    HW223067   3.618   4.677   9.959 -1.1835 -2.0613 -2.1972
 3812SOL     OW23068   3.913   3.291   8.947 -0.1227  0.2935  0.3569
 3812SOL    HW123069   4.005   3.266   8.958 -0.3839 -1.5589 -1.5475
 3812SOL    HW223070   3.907   3.310   8.853 -0.3502  0.0927  0.3296
 3813SOL     OW23071   1.633   2.605   6.536  0.0732  0.2823 -0.2641
 3813SOL    HW123072   1.675   2.549   6.601 -0.3603  1.0538  0.6721
 3813SOL    HW223073   1.555   2.554   6.513  0.1299 -0.1507  0.5045
 3814SOL     OW23074   4.228   1.189   2.165 -0.3138 -0.5015  0.2135
 3814SOL    HW123075   4.142   1.170   2.203 -0.8404 -0.9167 -1.1546
 3814SOL    HW223076   4.289   1.152   2.228  1.8670  1.7426 -0.5753
 3815SOL     OW23077   3.821   2.100   2.657 -0.0061  0.2009  0.2083
 3815SOL    HW123078   3.736   2.134   2.686  0.7969  0.4136  2.2830
 3815SOL    HW223079   3.816   2.076   2.564 -1.5183 -0.1775  0.3838
 3816SOL     OW23080   4.603   3.487   3.769  0.4007 -0.3953 -0.1163
 3816SOL    HW123081   4.646   3.557   3.818 -0.6107  0.4337 -0.4293
 3816SOL    HW223082   4.529   3.475   3.829 -0.4353  0.6762 -0.9471
 3817SOL     OW23083   4.325   3.058   2.720  0.0041  0.4803 -0.0331
 3817SOL    HW123084   4.243   3.107   2.727  0.4550  1.1307  0.7050
 3817SOL    HW223085   4.338   3.025   2.809 -3.9821 -1.4969 -0.1822
 3818SOL     OW23086   3.211   1.641  16.697 -0.1869 -0.3375  0.2259
 3818SOL    HW123087   3.189   1.686  16.778 -0.6439  1.1377 -0.7215
 3818SOL    HW223088   3.306   1.647  16.696 -0.2985  1.2890 -0.6965
 3819SOL     OW23089   1.269   3.502   6.997 -0.2801 -0.1714 -0.1159
 3819SOL    HW123090   1.310   3.482   7.081 -0.2494 -3.9838 -1.0488
 3819SOL    HW223091   1.180   3.519   7.029  0.0488  3.5020 -1.1429
 3820SOL     OW23092   2.268   1.842   4.647  0.2168 -0.3673 -0.3000
 3820SOL    HW123093   2.199   1.881   4.701  0.4206 -0.6443  0.1609
 3820SOL    HW223094   2.224   1.849   4.563  0.5145  2.1476 -0.2425
 3821SOL     OW23095   2.667   1.235   3.440  0.6278  0.1369 -0.9099
 3821SOL    HW123096   2.712   1.199   3.517 -0.6291  0.7964  0.1424
 3821SOL    HW223097   2.660   1.326   3.469  3.2969  0.2586 -0.6577
 3822SOL     OW23098   3.093   1.688   1.888  0.3908 -0.3792 -0.1425
 3822SOL    HW123099   3.029   1.664   1.821 -1.0695  0.6486  0.8781
 3822SOL    HW223100   3.101   1.612   1.946 -0.0134  0.6953  1.3158
 3823SOL     OW23101   1.650   3.889   8.764  0.2973  0.3223 -0.0312
 3823SOL    HW123102   1.620   3.953   8.700 -1.2237 -2.3289 -1.9619
 3823SOL    HW223103   1.740   3.921   8.760  0.1999  0.7030  0.6805
 3824SOL     OW23104   1.493   3.502  14.786  0.9914 -0.0762  0.5025
 3824SOL    HW123105   1.468   3.518  14.877 -0.3539 -2.0810  0.4705
 3824SOL    HW223106   1.468   3.582  14.738 -2.8061 -2.4807 -1.5764
 3825SOL     OW23107   4.693   0.437  17.039 -0.1385  0.0442  0.0807
 3825SOL    HW123108   4.701   0.489  16.958  1.5457  1.7867  1.3695
 3825SOL    HW223109   4.610   0.469  17.072  0.9208 -0.6895  3.4820
 3826SOL     OW23110   2.721   2.740   4.327  0.1432 -0.2755  0.1423
 3826SOL    HW123111   2.649   2.727   4.266 -0.5470 -2.5095  1.4449
 3826SOL    HW223112   2.798   2.744   4.270 -0.2830  2.2201 -0.2550
 3827SOL     OW23113   1.316   1.773   5.598  0.0770  0.2277  0.2744
 3827SOL    HW123114   1.334   1.841   5.533  0.0326  1.2673  1.3398
 3827SOL    HW223115   1.344   1.820   5.677 -1.4115  1.4885  0.0485
 3828SOL     OW23116   1.433   3.635   6.426 -0.6757  0.3419 -0.1868
 3828SOL    HW123117   1.432   3.731   6.433  0.7552  0.4155 -1.0961
 3828SOL    HW223118   1.341   3.613   6.418 -1.1252  1.9907  0.3975
 3829SOL     OW23119   0.415   1.737   5.365  0.0487  0.9933  0.2051
 3829SOL    HW123120   0.418   1.664   5.303  2.5223  1.9225 -0.7777
 3829SOL    HW223121   0.473   1.798   5.320  3.3876 -1.0805  1.6459
 3830SOL     OW23122   2.764   3.654   2.886 -0.5232  0.1005 -0.1492
 3830SOL    HW123123   2.838   3.605   2.922 -0.5115  0.7275  0.7006
 3830SOL    HW223124   2.744   3.719   2.953 -2.7388  0.1502 -0.8663
 3831SOL     OW23125   0.945   2.472   3.535  0.0544 -0.7242 -0.1118
 3831SOL    HW123126   0.883   2.400   3.525 -1.6413  1.0309 -2.2220
 3831SOL    HW223127   0.920   2.524   3.459  0.2008 -1.0870 -0.4106
 3832SOL     OW23128   4.702   1.365   8.222 -0.7084 -0.3806  0.0877
 3832SOL    HW123129   4.654   1.405   8.150  0.6698  0.1349 -0.5372
 3832SOL    HW223130   4.653   1.389   8.301 -0.5542  1.5893 -0.4182
 3833SOL     OW23131   1.940   0.334   3.198 -0.1444 -0.1994  0.0466
 3833SOL    HW123132   1.863   0.308   3.249  0.4775  0.8203  1.4924
 3833SOL    HW223133   1.917   0.291   3.116  1.2390 -1.5770  0.3979
 3834SOL     OW23134   2.556   0.104  10.151  0.0998 -0.2120  0.1273
 3834SOL    HW123135   2.616   0.139  10.085  0.0188 -0.6837 -0.1978
 3834SOL    HW223136   2.610   0.035  10.189  2.1890  1.0289 -0.5814
 3835SOL     OW23137   1.516   2.136   4.494  0.0760  0.1915 -0.4453
 3835SOL    HW123138   1.447   2.191   4.457  1.6888  1.9013 -0.8601
 3835SOL    HW223139   1.477   2.102   4.575  1.4932  0.5507  0.3901
 3836SOL     OW23140   2.902   4.561   3.049  0.2311  0.5498  0.3336
 3836SOL    HW123141   2.878   4.617   2.975 -2.2347 -1.0913 -0.1024
 3836SOL    HW223142   2.900   4.473   3.012  2.0421  0.2637  0.9345
 3837SOL     OW23143   4.377   0.798  13.411  0.1861  0.0194 -0.6633
 3837SOL    HW123144   4.295   0.759  13.382  1.8506 -2.5104 -1.9434
 3837SOL    HW223145   4.426   0.794  13.329  1.3486  0.5368  0.0036
 3838SOL     OW23146   1.770   3.187   1.272  0.2827 -0.5842  0.1718
 3838SOL    HW123147   1.764   3.218   1.181  2.0811 -2.1479 -0.4741
 3838SOL    HW223148   1.724   3.259   1.314  2.1944  1.5638 -1.3872
 3839SOL     OW23149   3.482   3.409   9.917  0.1679 -0.2200 -0.0225
 3839SOL    HW123150   3.544   3.466   9.872 -0.3645  0.6687  0.3849
 3839SOL    HW223151   3.409   3.469   9.928 -0.5638 -1.1157  0.0912
 3840SOL     OW23152   3.978   3.419   0.159 -0.1828  0.2011  0.2819
 3840SOL    HW123153   4.023   3.348   0.204 -0.7052  0.0926  0.6315
 3840SOL    HW223154   3.894   3.413   0.205 -0.6481  2.7003 -0.2292
 3841SOL     OW23155   1.122   3.256   8.203  0.1744  0.2375 -0.1482
 3841SOL    HW123156   1.110   3.161   8.210  0.3260  0.2498  0.3016
 3841SOL    HW223157   1.109   3.265   8.298 -3.4720 -1.3873 -0.4825
 3842SOL     OW23158   4.376   1.760   6.436 -0.0709 -0.1695 -0.2395
 3842SOL    HW123159   4.313   1.832   6.446 -0.5124 -0.5500 -0.2686
 3842SOL    HW223160   4.450   1.796   6.485  0.1271 -0.3058 -0.4416
 3843SOL     OW23161   2.958   3.086  12.822 -0.3263  0.7199  0.1897
 3843SOL    HW123162   3.016   3.142  12.873 -0.6045  0.2219  1.0536
 3843SOL    HW223163   3.009   3.016  12.780  1.1253  0.5042  2.3147
 3844SOL     OW23164   3.860   3.786  10.505  0.6805  0.1764  0.3324
 3844SOL    HW123165   3.899   3.805  10.419 -0.8319 -0.2973 -0.4593
 3844SOL    HW223166   3.771   3.810  10.479  0.4730 -1.4962 -0.5475
 3845SOL     OW23167   4.216   3.795   7.082  0.2575  0.2645  0.4900
 3845SOL    HW123168   4.162   3.754   7.150 -0.4394  0.3555 -0.0052
 3845SOL    HW223169   4.301   3.819   7.119  1.1277 -2.3656  0.2731
 3846SOL     OW23170   0.221   2.617   7.586  0.0255  0.4232  0.3202
 3846SOL    HW123171   0.211   2.522   7.584  0.1019  0.4429 -1.3026
 3846SOL    HW223172   0.140   2.642   7.631 -0.1920 -0.1912  0.2711
 3847SOL     OW23173   3.052   0.233   4.075 -0.1727  0.0146  0.4082
 3847SOL    HW123174   3.126   0.178   4.047  0.0793  0.5499  0.0266
 3847SOL    HW223175   2.998   0.157   4.099 -0.3100 -0.2506 -0.7318
 3848SOL     OW23176   2.017   0.134   2.505 -0.7952  0.6069 -0.1061
 3848SOL    HW123177   2.105   0.131   2.540 -0.2282 -0.3248 -1.6161
 3848SOL    HW223178   1.959   0.084   2.563 -0.0395 -1.1290 -0.8737
 3849SOL     OW23179   4.669   1.428   5.998 -0.3672  0.2024 -0.2997
 3849SOL    HW123180   4.587   1.378   6.001 -0.0280 -0.2506  1.2561
 3849SOL    HW223181   4.663   1.485   5.921  1.1365  0.5092 -0.1891
 3850SOL     OW23182   3.429   1.854   6.935 -0.3375  0.4576  0.2941
 3850SOL    HW123183   3.417   1.930   6.993 -0.0887  0.5226  0.2565
 3850SOL    HW223184   3.368   1.795   6.981  2.1260 -0.3130  2.5596
 3851SOL     OW23185   3.629   4.719   6.790  0.3586 -0.1221  0.0982
 3851SOL    HW123186   3.579   0.057   6.763  3.2533  0.6020 -3.2264
 3851SOL    HW223187   3.692   0.010   6.855  0.4407  1.5131 -0.7412
 3852SOL     OW23188   0.492   3.699  12.395  0.1630 -0.2124 -0.2946
 3852SOL    HW123189   0.523   3.755  12.325 -1.4124 -1.8507 -2.3153
 3852SOL    HW223190   0.489   3.612  12.356  0.2999 -1.0562  1.5742
 3853SOL     OW23191   1.777   3.915   1.903  0.9230 -0.4476  1.0744
 3853SOL    HW123192   1.821   3.959   1.830  1.0653  0.0889  1.4798
 3853SOL    HW223193   1.823   3.960   1.974 -1.5886  3.4168  0.2168
 3854SOL     OW23194   2.146   3.536   6.728  0.5288  0.1029  0.1601
 3854SOL    HW123195   2.061   3.492   6.718 -0.4138  1.7082  1.1787
 3854SOL    HW223196   2.139   3.582   6.644 -2.4357 -1.7824 -0.6288
 3855SOL     OW23197   1.106   0.225  13.187 -0.0566 -0.1991  0.1163
 3855SOL    HW123198   1.187   0.276  13.186  0.3579 -0.8528  0.6065
 3855SOL    HW223199   1.105   0.168  13.110 -2.8793 -2.4333  1.8121
 3856SOL     OW23200   0.655   3.210   4.061 -0.1786  0.5246 -0.6051
 3856SOL    HW123201   0.582   3.254   4.017  0.0514  1.6071  0.0750
 3856SOL    HW223202   0.682   3.133   4.012  2.2002  0.5918  0.6335
 3857SOL     OW23203   1.717   1.298   6.514 -0.4431 -0.6948  0.2669
 3857SOL    HW123204   1.764   1.218   6.539  0.8127  0.4884  1.7169
 3857SOL    HW223205   1.633   1.268   6.479 -1.0899  0.4854  0.8181
 3858SOL     OW23206   2.564   4.323   4.648 -0.1747  0.2442  0.1666
 3858SOL    HW123207   2.572   4.269   4.726 -2.1810  0.0280  0.2052
 3858SOL    HW223208   2.625   4.270   4.597 -2.2337  0.7991 -2.8986
 3859SOL     OW23209   4.242   3.834  10.428  0.5404 -0.1909  0.8464
 3859SOL    HW123210   4.205   3.752  10.460 -0.3144  0.3698  1.3055
 3859SOL    HW223211   4.198   3.892  10.490 -0.9980 -2.1868  1.6255
 3860SOL     OW23212   0.708   2.623   4.443  0.0418 -0.0949 -0.2076
 3860SOL    HW123213   0.713   2.536   4.403 -2.5292 -0.7811  0.9777
 3860SOL    HW223214   0.788   2.654   4.400 -0.2856  0.9829 -0.0498
 3861SOL     OW23215   1.126   4.091   7.673  0.4144  0.1133  0.0929
 3861SOL    HW123216   1.171   4.156   7.619 -0.7557  1.3207  0.5863
 3861SOL    HW223217   1.185   4.016   7.661 -1.8224 -1.7207  0.4816
 3862SOL     OW23218   1.739   0.786  10.033  0.2094 -0.3488  0.4886
 3862SOL    HW123219   1.665   0.834   9.994  2.4089  2.7119  0.1185
 3862SOL    HW223220   1.752   0.817  10.122  0.1764 -2.3992  1.2199
 3863SOL     OW23221   1.723   1.310   0.845 -0.1488  0.4240  0.1983
 3863SOL    HW123222   1.693   1.311   0.936 -2.3542 -2.1318 -0.4903
 3863SOL    HW223223   1.691   1.395   0.817  1.2978 -0.0289 -2.8095
 3864SOL     OW23224   2.163   2.812   7.008 -0.0783  0.1652 -0.1239
 3864SOL    HW123225   2.159   2.901   6.974  0.6178  0.2127 -0.0785
 3864SOL    HW223226   2.094   2.817   7.075  0.3731 -1.0860  0.4383
 3865SOL     OW23227   0.077   1.049   6.148 -0.6886  0.0184 -0.6023
 3865SOL    HW123228   4.732   1.095   6.149 -0.7158 -0.1014  1.8403
 3865SOL    HW223229   0.107   1.065   6.237 -0.4454  1.1598 -0.8838
 3866SOL     OW23230   4.212   3.357   4.912  0.5236  0.2632  0.2776
 3866SOL    HW123231   4.143   3.318   4.858  0.9887 -0.2151  0.0384
 3866SOL    HW223232   4.241   3.273   4.947  0.4066 -0.5064 -1.4551
 3867SOL     OW23233   0.793   0.111   9.053  0.6647 -0.0095  0.0521
 3867SOL    HW123234   0.726   0.042   9.055 -0.8347  1.4153 -0.6353
 3867SOL    HW223235   0.873   0.061   9.065  1.1860  1.0162  0.8252
 3868SOL     OW23236   0.818   1.022   0.373  0.4794 -0.3638  0.3176
 3868SOL    HW123237   0.866   0.978   0.443 -1.0861 -0.3727  1.4045
 3868SOL    HW223238   0.805   1.107   0.415  1.2666 -0.5778  0.9888
 3869SOL     OW23239   3.081   1.282   7.326  0.2066  0.5339 -0.0510
 3869SOL    HW123240   3.110   1.193   7.346  1.7627  0.3735 -3.1305
 3869SOL    HW223241   3.030   1.315   7.400 -1.4491  0.8944 -1.3398
 3870SOL     OW23242   1.892   0.119   6.298 -0.0435 -0.4661 -0.0364
 3870SOL    HW123243   1.804   0.112   6.261 -0.6600  0.3626  1.2583
 3870SOL    HW223244   1.903   0.206   6.259 -2.5532 -0.2927 -0.3631
 3871SOL     OW23245   2.179   3.825   5.916 -0.4905  0.1652 -0.0409
 3871SOL    HW123246   2.087   3.810   5.938  0.0234 -0.6035  1.5333
 3871SOL    HW223247   2.184   3.921   5.915  1.9419  0.0329  0.5631
 3872SOL     OW23248   0.475   2.937   8.066  0.2904  0.4314  0.0851
 3872SOL    HW123249   0.507   2.994   8.136  1.2077  1.0757 -0.8535
 3872SOL    HW223250   0.405   2.881   8.098  0.1394  0.4304 -0.2557
 3873SOL     OW23251   2.849   4.359  13.563 -0.0280  0.0996 -0.0482
 3873SOL    HW123252   2.766   4.374  13.607  0.5242  2.1632  0.2580
 3873SOL    HW223253   2.846   4.412  13.483 -0.2230  0.1020 -0.0389
 3874SOL     OW23254   2.843   4.412   5.293  0.1305  0.4324 -0.2561
 3874SOL    HW123255   2.892   4.417   5.210  2.1933  0.9806  0.9910
 3874SOL    HW223256   2.792   4.492   5.290 -1.0938 -0.4231 -2.9151
 3875SOL     OW23257   1.959   1.776   9.236  0.1731  0.0772  0.2827
 3875SOL    HW123258   1.940   1.776   9.330  0.1343  1.8393  0.2785
 3875SOL    HW223259   1.921   1.690   9.219  0.1682  0.3609 -1.1485
 3876SOL     OW23260   0.263   1.777   4.345  0.3428 -0.4204 -0.4134
 3876SOL    HW123261   0.307   1.693   4.330 -1.3045 -1.4211  0.4151
 3876SOL    HW223262   0.339   1.835   4.351  1.2699 -1.5621 -1.1818
 3877SOL     OW23263   3.070   0.566  14.138  0.1204 -0.5561  0.0616
 3877SOL    HW123264   3.084   0.630  14.068 -1.7661  2.5368  2.4584
 3877SOL    HW223265   2.975   0.552  14.128  0.2495 -1.0182 -0.4829
 3878SOL     OW23266   0.422   1.403   3.265 -0.2227  0.4013 -0.1293
 3878SOL    HW123267   0.510   1.440   3.259  0.2315 -0.7887 -0.7086
 3878SOL    HW223268   0.365   1.480   3.270 -1.1260 -0.5028  3.2024
 3879SOL     OW23269   0.696   4.119  11.182 -0.4919 -0.0474  0.5043
 3879SOL    HW123270   0.704   4.042  11.239 -1.6386  0.7650  1.7510
 3879SOL    HW223271   0.756   4.091  11.112 -0.9481 -0.8272  0.4174
 3880SOL     OW23272   3.157   1.383   0.766  0.7602  0.0183 -1.0204
 3880SOL    HW123273   3.220   1.341   0.706  0.8188 -0.3583 -0.6929
 3880SOL    HW223274   3.152   1.329   0.845  1.6213  0.9152 -0.3448
 3881SOL     OW23275   2.937   1.631   7.416  0.6617  0.6298  0.5464
 3881SOL    HW123276   3.003   1.698   7.427 -1.8455  2.9986  1.1254
 3881SOL    HW223277   2.940   1.577   7.495 -1.4325  1.3954  1.1482
 3882SOL     OW23278   0.117   3.074  14.321  0.1863 -0.3278  0.0566
 3882SOL    HW123279   0.024   3.053  14.320  0.2620 -0.6401 -0.3196
 3882SOL    HW223280   0.147   3.037  14.405  0.1759  0.4675  0.4079
 3883SOL     OW23281   4.033   4.621   2.194 -0.1478  1.1248 -0.1539
 3883SOL    HW123282   4.002   4.710   2.177 -0.8167  0.5532 -1.9428
 3883SOL    HW223283   3.980   4.562   2.141  0.3569  0.8126 -0.3153
 3884SOL     OW23284   4.586   1.477   2.182  0.0579  0.0961 -0.0140
 3884SOL    HW123285   4.635   1.395   2.183 -0.0278  0.0463  0.2186
 3884SOL    HW223286   4.574   1.496   2.089 -0.4981 -3.0426 -0.5859
 3885SOL     OW23287   0.554   2.503  17.033  0.1025 -0.4421 -0.1730
 3885SOL    HW123288   0.591   2.572  16.979  1.7327 -2.0637 -1.0933
 3885SOL    HW223289   0.459   2.511  17.027 -0.0179 -0.7338  1.1747
 3886SOL     OW23290   3.654   1.596   9.145  0.0920 -0.4994 -0.3568
 3886SOL    HW123291   3.750   1.594   9.150  0.0739  1.9139  1.0262
 3886SOL    HW223292   3.634   1.513   9.187 -0.7825  0.4028  0.9983
 3887SOL     OW23293   0.293   2.875   1.370 -0.0892  0.1638  0.0039
 3887SOL    HW123294   0.332   2.928   1.301 -0.1679 -1.9490 -1.6768
 3887SOL    HW223295   0.350   2.798   1.372  1.0542  0.9762 -1.4363
 3888SOL     OW23296   3.908   4.228   3.037 -0.2852 -0.4599 -0.2185
 3888SOL    HW123297   3.893   4.152   2.980  1.1954 -1.8858  1.2584
 3888SOL    HW223298   3.858   4.199   3.113 -1.3123 -1.4247 -1.2469
 3889SOL     OW23299   2.779   2.290  15.160  0.0618 -0.1386  0.7173
 3889SOL    HW123300   2.691   2.281  15.196 -1.1669  1.2044 -1.9935
 3889SOL    HW223301   2.756   2.360  15.099  2.2878 -1.2002 -1.3371
 3890SOL     OW23302   4.179   1.705   4.162 -0.0733 -0.4786 -0.3947
 3890SOL    HW123303   4.202   1.661   4.080  3.4675  1.7549 -0.5976
 3890SOL    HW223304   4.149   1.638   4.224  1.7399 -1.8191 -0.9496
 3891SOL     OW23305   0.205   0.917   8.871  0.1635 -0.2394  0.3376
 3891SOL    HW123306   0.209   0.967   8.789 -2.3408 -1.4813 -0.5049
 3891SOL    HW223307   0.166   0.834   8.843  0.0147 -1.0044  2.8170
 3892SOL     OW23308   4.246   1.181   8.640  0.2059 -0.2392 -0.1184
 3892SOL    HW123309   4.320   1.240   8.627  1.6617 -2.4826 -2.0381
 3892SOL    HW223310   4.204   1.193   8.555  0.1745  3.8949  0.5034
 3893SOL     OW23311   0.807   2.542   7.178  0.5227  0.3879  0.0852
 3893SOL    HW123312   0.720   2.540   7.139  2.1218 -1.3491 -3.3283
 3893SOL    HW223313   0.803   2.458   7.224 -1.1244 -0.0067 -0.8038
 3894SOL     OW23314   3.896   1.347   5.478 -0.4251  0.7339  0.1564
 3894SOL    HW123315   3.887   1.441   5.494  0.6905  1.0023 -0.7921
 3894SOL    HW223316   3.844   1.313   5.551  1.1448 -0.4737  0.7008
 3895SOL     OW23317   4.337   2.628   4.974  0.3965  0.6970  0.2978
 3895SOL    HW123318   4.252   2.612   5.016  0.5255 -0.5129  0.1097
 3895SOL    HW223319   4.346   2.552   4.917  2.6678  1.3060 -0.1365
 3896SOL     OW23320   0.380   2.435   8.286 -1.0055  0.4746  0.2059
 3896SOL    HW123321   0.406   2.370   8.351 -2.1567  0.5291  0.7325
 3896SOL    HW223322   0.466   2.460   8.251 -0.1285 -0.7560  1.4759
 3897SOL     OW23323   0.245   4.152  10.437  0.1418  0.0662 -0.0552
 3897SOL    HW123324   0.289   4.227  10.476  2.9039 -1.8657  0.5617
 3897SOL    HW223325   0.192   4.127  10.513 -0.2506  1.0448 -0.0077
 3898SOL     OW23326   3.437   1.467   7.060 -0.5138  0.0548  0.3035
 3898SOL    HW123327   3.454   1.538   7.122  0.4530  0.3144 -0.2695
 3898SOL    HW223328   3.342   1.462   7.073 -0.9860 -2.6767 -4.4301
 3899SOL     OW23329   3.358   2.492  13.652 -0.3832 -0.1682 -0.6795
 3899SOL    HW123330   3.353   2.416  13.594  3.2875 -0.0456 -1.1507
 3899SOL    HW223331   3.313   2.559  13.601 -0.9563 -0.3549 -0.4260
 3900SOL     OW23332   4.209   2.058   2.636  0.0959 -0.5286 -0.2256
 3900SOL    HW123333   4.165   2.024   2.714  0.3150  1.5728  0.7962
 3900SOL    HW223334   4.144   2.123   2.609  0.3976  0.2605  0.9371
 3901SOL     OW23335   0.844   2.241   5.888  0.0667  0.3952 -0.2148
 3901SOL    HW123336   0.908   2.228   5.818  0.3320 -1.5332  0.3932
 3901SOL    HW223337   0.861   2.156   5.928  0.4967  2.0409  3.1417
 3902SOL     OW23338   1.081   2.147  15.033  0.1865 -0.3418  0.0034
 3902SOL    HW123339   1.038   2.063  15.045 -0.7853 -0.1535 -2.2605
 3902SOL    HW223340   1.160   2.148  15.087 -0.8054  0.9579  1.4383
 3903SOL     OW23341   1.778   1.962  17.394 -0.4338  0.2555  0.1581
 3903SOL    HW123342   1.831   1.933  17.321 -0.0655  2.8492 -0.6196
 3903SOL    HW223343   1.849   2.005  17.442  0.0008  0.1411 -0.3813
 3904SOL     OW23344   0.667   4.250   7.750  0.1220 -0.6396  0.2497
 3904SOL    HW123345   0.748   4.210   7.781 -1.4763 -1.4034  3.4680
 3904SOL    HW223346   0.644   4.186   7.682 -2.1704  0.3003  0.1160
 3905SOL     OW23347   0.074   0.070  10.250  0.4877 -0.4834 -0.2975
 3905SOL    HW123348   0.159   0.115  10.251 -0.3796  1.1483 -0.3563
 3905SOL    HW223349   0.080   0.012  10.175  1.7843  1.0250 -1.3746
 3906SOL     OW23350   3.444   1.613  12.382  0.0778  0.2959 -0.4353
 3906SOL    HW123351   3.442   1.695  12.431  1.7206  0.1355 -0.0975
 3906SOL    HW223352   3.437   1.552  12.456 -0.8704  1.9488  0.8166
 3907SOL     OW23353   0.240   0.190   9.763  0.6816  0.2347  0.6856
 3907SOL    HW123354   0.181   0.265   9.765  1.2931  0.7647 -0.7169
 3907SOL    HW223355   0.253   0.168   9.855 -0.7363 -0.4427  0.7230
 3908SOL     OW23356   1.144   0.603  17.414  0.6891 -0.0723 -0.1184
 3908SOL    HW123357   1.083   0.649  17.471  0.9135  0.0055  0.0575
 3908SOL    HW223358   1.215   0.667  17.413  0.4798  0.1525 -0.3317
 3909SOL     OW23359   1.560   4.409   3.959 -0.1604 -0.1588 -0.2323
 3909SOL    HW123360   1.523   4.352   3.892  0.0293  0.7739 -1.1404
 3909SOL    HW223361   1.650   4.376   3.960  0.4027  1.4054  0.5099
 3910SOL     OW23362   3.455   0.812   6.431  0.1397  0.1585  0.4586
 3910SOL    HW123363   3.415   0.883   6.480 -0.0933  1.5738 -1.7867
 3910SOL    HW223364   3.387   0.769   6.379  1.1212  2.9454 -3.1428
 3911SOL     OW23365   2.223   0.822   7.396  0.1318  0.0115 -0.7421
 3911SOL    HW123366   2.203   0.915   7.408 -0.6785 -0.3911  1.0288
 3911SOL    HW223367   2.164   0.796   7.325 -0.3278 -2.0709  0.3951
 3912SOL     OW23368   3.351   0.718   8.830  0.3770 -0.1752  0.2745
 3912SOL    HW123369   3.400   0.776   8.888 -0.6421  0.0869  0.8781
 3912SOL    HW223370   3.423   0.664   8.798  0.7110  0.3278  0.1886
 3913SOL     OW23371   4.159   2.130   9.171  0.5162  0.0677  0.1873
 3913SOL    HW123372   4.165   2.045   9.128 -1.5513  0.2443 -0.4218
 3913SOL    HW223373   4.143   2.099   9.260 -0.9807 -2.4907 -0.9897
 3914SOL     OW23374   2.622   3.154  15.364 -0.7841  0.4678 -0.1000
 3914SOL    HW123375   2.592   3.127  15.450 -0.7854 -1.9418 -0.8733
 3914SOL    HW223376   2.614   3.250  15.364  3.3696  0.8023  0.6061
 3915SOL     OW23377   3.719   0.405   4.692  0.0559 -0.3115 -0.0954
 3915SOL    HW123378   3.680   0.354   4.764  0.9768 -0.6684  0.1525
 3915SOL    HW223379   3.813   0.388   4.701 -0.1350 -1.7259 -0.7007
 3916SOL     OW23380   2.247   0.091  15.922  0.2380 -0.1953 -0.0832
 3916SOL    HW123381   2.207   0.010  15.952 -2.1042  1.1948  0.5533
 3916SOL    HW223382   2.167   0.144  15.913  0.5336  0.1392 -0.8022
 3917SOL     OW23383   0.017   3.460   3.362 -0.2532 -0.0152  0.6556
 3917SOL    HW123384   4.667   3.464   3.394 -0.6830  0.0262 -0.5458
 3917SOL    HW223385   0.063   3.477   3.444  1.5276 -3.1355  0.3164
 3918SOL     OW23386   3.869   4.589   8.023 -0.1441  0.7789 -0.1173
 3918SOL    HW123387   3.926   4.617   8.095  1.1500  0.4784 -1.0236
 3918SOL    HW223388   3.844   4.678   7.995  0.7280  0.8935 -0.5431
 3919SOL     OW23389   4.357   3.226   6.456  0.4507  0.2719  0.0612
 3919SOL    HW123390   4.295   3.299   6.448 -0.3636 -0.4620 -0.3159
 3919SOL    HW223391   4.390   3.248   6.543 -1.6095  0.2689  0.8314
 3920SOL     OW23392   3.530   3.443   3.458  0.0151 -0.4537  0.2999
 3920SOL    HW123393   3.486   3.429   3.542 -0.7758 -1.1265 -0.2290
 3920SOL    HW223394   3.620   3.410   3.464 -0.1144 -0.5838  1.5168
 3921SOL     OW23395   0.533   1.399   5.004  0.0499 -0.2866  0.0776
 3921SOL    HW123396   0.579   1.361   5.078  1.4359 -1.7297 -1.5108
 3921SOL    HW223397   0.556   1.333   4.938 -3.4612 -0.1837 -1.2870
 3922SOL     OW23398   2.926   3.489   5.925  0.1292  0.1034  0.0858
 3922SOL    HW123399   2.926   3.535   6.008  0.9475  0.2144  0.0279
 3922SOL    HW223400   3.016   3.504   5.896 -0.7044  1.8126 -1.5681
 3923SOL     OW23401   0.837   3.217   8.881  0.0653 -0.1892  0.1889
 3923SOL    HW123402   0.797   3.211   8.968  0.4463  0.0066  0.3780
 3923SOL    HW223403   0.766   3.197   8.820 -1.1306 -0.9389  1.8222
 3924SOL     OW23404   3.986   3.417   8.678  0.1249 -0.4681  0.2010
 3924SOL    HW123405   3.981   3.482   8.608 -0.3124  1.0852  1.6562
 3924SOL    HW223406   4.018   3.347   8.622  1.6171 -1.7271  2.6231
 3925SOL     OW23407   2.054   0.966   8.719  0.3131 -0.4388 -0.0050
 3925SOL    HW123408   2.012   1.037   8.671  0.3259 -0.6707 -0.3593
 3925SOL    HW223409   2.137   1.004   8.748  0.1578 -1.3459  1.6415
 3926SOL     OW23410   3.238   2.091   8.058  0.2342 -0.0390  0.6837
 3926SOL    HW123411   3.205   2.048   7.979  0.7900 -2.1050  1.5568
 3926SOL    HW223412   3.162   2.141   8.088  0.2969  0.6046 -0.2604
 3927SOL     OW23413   2.407   3.756   4.445  0.3647 -0.2071 -0.5032
 3927SOL    HW123414   2.360   3.711   4.516  0.0329  0.5736 -0.2336
 3927SOL    HW223415   2.462   3.693   4.399  0.9137  1.0861 -1.6153
 3928SOL     OW23416   4.160   0.510  10.217  0.2425  0.1192  0.9501
 3928SOL    HW123417   4.139   0.505  10.124 -0.5487  0.0886  1.1294
 3928SOL    HW223418   4.201   0.595  10.208 -0.0001  0.0364 -0.7815
 3929SOL     OW23419   0.605   1.627   8.533 -0.0717  0.3064 -0.1498
 3929SOL    HW123420   0.525   1.680   8.530  0.2987  1.0274  3.0044
 3929SOL    HW223421   0.656   1.639   8.452  0.7965  1.0271  0.5041
 3930SOL     OW23422   3.691   2.172  14.029  0.4296  0.2645 -0.2973
 3930SOL    HW123423   3.743   2.251  14.045  0.2533  0.4903 -0.8525
 3930SOL    HW223424   3.723   2.117  14.101 -0.6324  0.7951  0.5843
 3931SOL     OW23425   3.697   0.880  13.447 -0.0204 -0.1067  0.2556
 3931SOL    HW123426   3.666   0.969  13.465 -1.1540 -0.6026  0.7637
 3931SOL    HW223427   3.620   0.830  13.421 -0.2446 -0.1581  1.0162
 3932SOL     OW23428   4.112   2.431   5.864 -0.4685  0.0793  0.1306
 3932SOL    HW123429   4.057   2.401   5.791  2.1247 -2.7953 -0.6487
 3932SOL    HW223430   4.047   2.425   5.933 -1.5063 -1.0610 -0.9380
 3933SOL     OW23431   2.504   0.642   7.944  0.2038  0.3599 -0.2828
 3933SOL    HW123432   2.568   0.570   7.943  1.0192  1.0896 -0.2564
 3933SOL    HW223433   2.464   0.648   8.030  0.3134  2.1375 -0.3597
 3934SOL     OW23434   0.300   4.416   2.208  0.4654 -0.2032  0.1243
 3934SOL    HW123435   0.381   4.376   2.176 -0.3079 -0.5128 -1.4453
 3934SOL    HW223436   0.292   4.391   2.300  0.0826  0.5515  0.2979
 3935SOL     OW23437   4.029   2.966   0.323  0.4540  0.6740  0.1150
 3935SOL    HW123438   4.086   2.891   0.334 -0.9949 -0.3725  0.4998
 3935SOL    HW223439   4.013   2.966   0.228 -1.0758 -1.4197  0.3572
 3936SOL     OW23440   0.840   4.017   4.525  0.1737 -0.4069  0.1186
 3936SOL    HW123441   0.784   3.998   4.450 -0.0430 -0.3764  0.2726
 3936SOL    HW223442   0.804   4.102   4.548  3.0866  1.3495 -1.8683
 3937SOL     OW23443   4.668   4.010   0.549  0.3096 -0.2369 -0.5016
 3937SOL    HW123444   4.713   3.940   0.596 -0.2476  0.2198  0.7168
 3937SOL    HW223445   4.682   3.990   0.457 -1.2122  1.2577 -1.0714
 3938SOL     OW23446   1.889   4.236   0.074 -0.6333 -0.2270 -0.0434
 3938SOL    HW123447   1.865   4.188  17.749  0.3958 -1.1119  0.1741
 3938SOL    HW223448   1.859   4.178   0.145 -2.0784 -0.8639 -1.1680
 3939SOL     OW23449   1.809   3.779   7.785 -0.1025 -0.7315 -0.2858
 3939SOL    HW123450   1.764   3.810   7.707 -0.6518  2.8473  1.4783
 3939SOL    HW223451   1.743   3.800   7.851 -0.4123  0.1197 -0.8683
 3940SOL     OW23452   3.195   1.687   5.951  0.4688 -0.0713  0.0932
 3940SOL    HW123453   3.282   1.724   5.937  0.5485 -0.1525  0.3623
 3940SOL    HW223454   3.194   1.656   6.042 -2.5890 -1.2121 -0.3375
 3941SOL     OW23455   2.416   3.106   3.725 -0.4201  0.5875  0.4962
 3941SOL    HW123456   2.469   3.135   3.651  1.6288  0.0234  1.7479
 3941SOL    HW223457   2.422   3.182   3.783 -0.8139  1.2859 -0.3877
 3942SOL     OW23458   3.660   3.232  11.747  0.2390 -1.3618 -0.3879
 3942SOL    HW123459   3.657   3.189  11.662  0.7945 -1.7151 -0.2277
 3942SOL    HW223460   3.742   3.199  11.784  1.3447  0.0833 -1.5585
 3943SOL     OW23461   1.915   4.447   7.715  0.6865 -0.4564 -0.4090
 3943SOL    HW123462   1.972   4.413   7.784  2.1796 -1.8188 -2.2649
 3943SOL    HW223463   1.829   4.428   7.752  0.5561 -2.6300 -1.8192
 3944SOL     OW23464   2.971   3.779  16.632  0.0426 -0.5464  0.0708
 3944SOL    HW123465   2.982   3.690  16.596 -0.6489  0.4390 -2.6311
 3944SOL    HW223466   3.002   3.776  16.722  1.1862  2.4494 -0.2486
 3945SOL     OW23467   3.197   0.927   5.357 -0.0838 -0.3776  0.4198
 3945SOL    HW123468   3.190   1.004   5.300  0.2344 -0.1840  0.6442
 3945SOL    HW223469   3.155   0.857   5.306 -1.2500 -0.6935  1.8104
 3946SOL     OW23470   0.866   0.625  10.634 -0.0495 -0.1803 -0.5119
 3946SOL    HW123471   0.895   0.596  10.721 -1.8102  0.8943  0.4406
 3946SOL    HW223472   0.935   0.646  10.571  2.4304  1.0911  2.6304
 3947SOL     OW23473   3.890   4.267   7.276 -0.0278 -0.4564  0.6797
 3947SOL    HW123474   3.866   4.350   7.235 -0.6075 -1.0813 -0.2528
 3947SOL    HW223475   3.903   4.212   7.199 -3.4941  0.6127 -0.6641
 3948SOL     OW23476   0.456   3.547   7.459  0.0668 -0.2636 -0.0338
 3948SOL    HW123477   0.427   3.463   7.495 -0.8711  0.4013  0.7193
 3948SOL    HW223478   0.546   3.521   7.438 -0.9213 -1.6819 -2.5272
 3949SOL     OW23479   1.541   1.843   0.979  0.6582 -0.0669 -0.0544
 3949SOL    HW123480   1.622   1.844   0.929  0.2077  2.0254 -0.7381
 3949SOL    HW223481   1.528   1.937   0.994 -0.3277 -0.0319 -1.1992
 3950SOL     OW23482   0.557   0.432   6.567  0.0925  0.2531 -0.1637
 3950SOL    HW123483   0.504   0.413   6.644 -1.8139  0.1657 -1.5010
 3950SOL    HW223484   0.619   0.359   6.574 -1.9087 -1.3625  0.4892
 3951SOL     OW23485   3.537   2.185   2.626 -0.3202  0.1434 -0.0990
 3951SOL    HW123486   3.461   2.195   2.568  0.7546  1.7505 -1.2582
 3951SOL    HW223487   3.537   2.089   2.619  0.9736  0.2826 -2.3626
 3952SOL     OW23488   2.542   1.745   2.968  0.1800 -0.0373 -0.5388
 3952SOL    HW123489   2.547   1.818   3.030 -1.2603  1.2183 -1.8673
 3952SOL    HW223490   2.469   1.705   3.015 -0.2138  1.2366 -0.0663
 3953SOL     OW23491   0.675   0.859  12.594  0.0020 -0.4463  0.9078
 3953SOL    HW123492   0.583   0.856  12.570 -0.1119 -0.9896  1.4109
 3953SOL    HW223493   0.663   0.859  12.689 -1.1401  1.1475  0.7640
 3954SOL     OW23494   3.390   4.272   4.084 -0.0636  0.1856  0.4756
 3954SOL    HW123495   3.469   4.277   4.138 -0.6836 -0.4371  1.4487
 3954SOL    HW223496   3.381   4.178   4.070 -1.6274  0.5050 -0.5543
 3955SOL     OW23497   0.737   4.018   4.909  0.5167 -0.5708 -0.0939
 3955SOL    HW123498   0.685   3.955   4.861 -1.3784 -1.7187  3.4866
 3955SOL    HW223499   0.825   3.981   4.900 -0.3873 -2.7057 -0.0562
 3956SOL     OW23500   1.508   2.624   4.246  0.0539 -0.3552  0.4320
 3956SOL    HW123501   1.428   2.571   4.242  1.2763 -2.1619  0.0184
 3956SOL    HW223502   1.477   2.690   4.307 -0.1250 -0.4566  0.4514
 3957SOL     OW23503   2.057   1.048   3.594  0.0992  0.0112  0.2566
 3957SOL    HW123504   2.088   0.994   3.667 -0.4671 -2.5233 -1.3741
 3957SOL    HW223505   2.078   1.135   3.626  3.3955 -0.3132 -1.0091
 3958SOL     OW23506   1.603   2.481  15.240 -0.0766  0.2537 -0.1327
 3958SOL    HW123507   1.597   2.516  15.151 -2.9609  0.8252  0.3114
 3958SOL    HW223508   1.566   2.394  15.224 -4.2836  1.7767  1.3865
 3959SOL     OW23509   4.029   1.896   3.753 -0.1481 -0.3989 -0.3917
 3959SOL    HW123510   4.034   1.811   3.709  1.0412 -0.8165  0.5449
 3959SOL    HW223511   4.116   1.894   3.792 -0.1560 -1.7851 -0.4409
 3960SOL     OW23512   3.049   0.534  14.776  0.1039  0.0106 -0.0477
 3960SOL    HW123513   3.103   0.613  14.783  0.4699 -0.1450 -1.0378
 3960SOL    HW223514   3.088   0.481  14.846  0.5783 -2.4261 -2.1656
 3961SOL     OW23515   0.372   0.997   9.055 -0.0035 -0.1177 -0.0455
 3961SOL    HW123516   0.460   0.973   9.027 -1.4026 -3.7383 -1.3559
 3961SOL    HW223517   0.317   0.967   8.983  1.6312 -2.0324 -0.4790
 3962SOL     OW23518   2.216   2.544   7.759  0.3524 -0.0900  0.3938
 3962SOL    HW123519   2.138   2.599   7.760  0.1294 -0.4163  0.9046
 3962SOL    HW223520   2.184   2.453   7.761 -3.3540  1.2296  0.8749
 3963SOL     OW23521   3.233   0.489   4.557  0.0131  0.6114 -0.2033
 3963SOL    HW123522   3.245   0.395   4.539  2.7485  0.7051  1.1478
 3963SOL    HW223523   3.164   0.476   4.621  0.8474 -0.3687  0.5084
 3964SOL     OW23524   2.381   0.191   1.912 -0.6098 -0.5519  0.2417
 3964SOL    HW123525   2.476   0.194   1.906 -0.5358 -0.0705  1.7500
 3964SOL    HW223526   2.363   0.276   1.951 -2.4918 -0.4588 -0.7915
 3965SOL     OW23527   1.541   1.295  16.347  0.2773  0.5610 -0.3243
 3965SOL    HW123528   1.536   1.382  16.305 -0.6000 -0.4578 -2.3482
 3965SOL    HW223529   1.598   1.249  16.285 -1.8720 -1.3732 -0.8653
 3966SOL     OW23530   1.829   2.678  15.002  0.3324 -0.2836  0.6265
 3966SOL    HW123531   1.880   2.695  15.082  0.6076  2.0472 -0.0379
 3966SOL    HW223532   1.905   2.701  14.949 -0.2709 -0.8039 -0.4500
 3967SOL     OW23533   3.112   2.822   5.052  0.0139  0.3558 -0.4215
 3967SOL    HW123534   3.053   2.890   5.083 -1.3108 -0.0347 -2.0455
 3967SOL    HW223535   3.068   2.802   4.969  0.5830 -1.3758 -0.3097
 3968SOL     OW23536   3.418   4.701  14.209 -0.3682  0.0345  0.4355
 3968SOL    HW123537   3.387   4.625  14.159  1.9405 -0.1802 -0.6972
 3968SOL    HW223538   3.423   0.027  14.139 -0.0510  0.8225  1.1943
 3969SOL     OW23539   4.686   0.474   6.140  0.0318  0.2084  0.1972
 3969SOL    HW123540   4.686   0.443   6.050  1.4064  2.1574 -0.4840
 3969SOL    HW223541   0.010   0.416   6.183  2.2165  1.5391 -1.2324
 3970SOL     OW23542   1.918   4.522   2.123  0.0348 -0.0478  0.5328
 3970SOL    HW123543   1.932   4.551   2.213  1.4940  0.8376  0.0164
 3970SOL    HW223544   1.824   4.504   2.125  0.1699 -0.9231 -0.9199
 3971SOL     OW23545   3.541   2.738   8.891 -0.0657 -0.5945  0.2184
 3971SOL    HW123546   3.576   2.816   8.847 -2.4699  0.5816  0.4015
 3971SOL    HW223547   3.491   2.778   8.962 -0.1203 -1.0093  0.4087
 3972SOL     OW23548   3.441   2.312  14.043 -0.1124  0.3332  0.2842
 3972SOL    HW123549   3.509   2.262  13.997 -1.1651  0.7426 -1.7243
 3972SOL    HW223550   3.499   2.353  14.106 -0.4780  1.6819 -0.2584
 3973SOL     OW23551   2.630   0.572   9.250  0.0442 -0.6127 -0.1969
 3973SOL    HW123552   2.691   0.633   9.291  0.3132 -1.0923  0.0982
 3973SOL    HW223553   2.674   0.491   9.274 -0.7729 -0.8488  0.4827
 3974SOL     OW23554   4.045   2.830   6.170  0.1554 -0.1600  0.5371
 3974SOL    HW123555   3.962   2.786   6.189 -0.2164  0.7581  0.9982
 3974SOL    HW223556   4.014   2.921   6.165  0.9324  0.0460 -0.5949
 3975SOL     OW23557   1.549   3.274   2.399  0.5126  0.4645  0.0176
 3975SOL    HW123558   1.511   3.196   2.440 -1.0767  1.3217  0.1620
 3975SOL    HW223559   1.516   3.338   2.461 -0.3281 -0.0988  0.1590
 3976SOL     OW23560   1.740   0.197   6.632 -0.5063  0.3571  0.3736
 3976SOL    HW123561   1.826   0.234   6.652 -0.7912  0.0038  2.2101
 3976SOL    HW223562   1.708   0.262   6.571  0.6487 -0.5798 -1.2433
 3977SOL     OW23563   0.400   3.492   8.764 -0.1649  0.1119 -0.2037
 3977SOL    HW123564   0.495   3.497   8.754 -0.4681  1.8890 -2.1812
 3977SOL    HW223565   0.372   3.583   8.754  0.3722  0.3448  0.4372
 3978SOL     OW23566   3.292   3.000   6.322  0.0603  0.5181  0.6721
 3978SOL    HW123567   3.202   3.002   6.290 -0.1747  0.6295  1.3212
 3978SOL    HW223568   3.332   2.948   6.252 -1.6798  0.9309 -0.6199
 3979SOL     OW23569   0.860   0.858   8.991  0.4204 -0.1929  0.0639
 3979SOL    HW123570   0.926   0.789   8.980 -1.1786 -1.8377  0.7779
 3979SOL    HW223571   0.805   0.851   8.913 -1.6805  3.6376  1.2349
 3980SOL     OW23572   2.962   1.384  17.445 -0.0334 -0.7020  0.0003
 3980SOL    HW123573   2.870   1.401  17.466  0.0684 -1.6232  1.1753
 3980SOL    HW223574   2.981   1.299  17.483 -0.2480 -0.6520  0.2184
 3981SOL     OW23575   1.456   1.956   7.820  0.3816  0.8054 -0.2855
 3981SOL    HW123576   1.540   2.002   7.826  1.5490 -1.0458 -2.7249
 3981SOL    HW223577   1.391   2.025   7.808  0.7205  0.9900 -1.0990
 3982SOL     OW23578   3.172   3.430   3.241 -0.0296 -0.5663  0.2913
 3982SOL    HW123579   3.202   3.383   3.319 -1.3921 -1.0991  0.4890
 3982SOL    HW223580   3.158   3.354   3.185  3.2410 -0.1890 -1.0817
 3983SOL     OW23581   1.526   0.949   7.161  0.5577 -0.0977 -0.5752
 3983SOL    HW123582   1.566   0.903   7.087 -0.6915 -1.6233 -0.2962
 3983SOL    HW223583   1.538   1.037   7.125 -0.3232  0.4514  0.4652
 3984SOL     OW23584   1.407   0.694   2.410  0.5554  0.2715  0.5021
 3984SOL    HW123585   1.382   0.760   2.346  1.8596  1.2221  0.9786
 3984SOL    HW223586   1.480   0.743   2.448  0.7551  0.9125 -0.7017
 3985SOL     OW23587   2.402   4.361  14.026  0.2953  0.0186 -0.1500
 3985SOL    HW123588   2.372   4.440  14.070 -0.4941 -1.0448  1.2452
 3985SOL    HW223589   2.317   4.328  13.998 -0.7493  2.1139  0.5611
 3986SOL     OW23590   3.109   1.861  14.626  0.3840 -0.2688 -0.7651
 3986SOL    HW123591   3.057   1.826  14.699  0.8352  0.6717  0.0122
 3986SOL    HW223592   3.040   1.869  14.561  0.3574 -1.6253 -0.9032
 3987SOL     OW23593   0.032   3.843   4.378  0.4422  0.4276  0.5419
 3987SOL    HW123594   0.009   3.771   4.437  1.5499 -0.9195 -0.6668
 3987SOL    HW223595   0.065   3.796   4.301 -0.5172  1.1311 -0.2885
 3988SOL     OW23596   0.218   2.154   6.991 -0.0464  0.4001  0.0462
 3988SOL    HW123597   0.149   2.087   6.981 -0.1051 -0.1325  4.0078
 3988SOL    HW223598   0.278   2.106   7.048  0.6402 -0.0132 -1.0412
 3989SOL     OW23599   0.070   1.726   4.164  0.0822 -0.0405 -0.0586
 3989SOL    HW123600   0.150   1.703   4.116 -1.1932 -3.4191 -0.5219
 3989SOL    HW223601   0.106   1.776   4.237 -2.9673  0.8329  0.8348
 3990SOL     OW23602   1.297   0.723  13.993  0.4381  0.1103  0.1567
 3990SOL    HW123603   1.319   0.730  13.900  0.1337  0.7943  0.1356
 3990SOL    HW223604   1.209   0.760  13.987  0.0123 -0.6015  1.9673
 3991SOL     OW23605   2.401   3.676   3.904  0.2997  0.0848 -0.0644
 3991SOL    HW123606   2.383   3.716   3.819  1.7053  0.4412 -0.1846
 3991SOL    HW223607   2.319   3.627   3.908  0.6309 -0.6747 -2.3947
 3992SOL     OW23608   1.302   2.548  16.138  0.6471 -0.8458  0.0148
 3992SOL    HW123609   1.392   2.576  16.153 -0.2792  2.0844  0.1855
 3992SOL    HW223610   1.294   2.610  16.065 -4.0127 -0.4963  0.8270
 3993SOL     OW23611   4.591   3.607   0.980 -0.3294  0.4431 -0.5131
 3993SOL    HW123612   4.512   3.587   1.030  0.2185 -2.2909 -0.7269
 3993SOL    HW223613   4.560   3.582   0.893 -2.0431 -1.8464  0.7422
 3994SOL     OW23614   2.236   2.115  17.491  0.0197  0.5281 -0.2023
 3994SOL    HW123615   2.322   2.086  17.519 -0.2645  0.9641  1.0971
 3994SOL    HW223616   2.243   2.210  17.482  1.9675  0.3785 -0.2520
 3995SOL     OW23617   1.411   0.297   6.246  0.4152  0.5022  0.0886
 3995SOL    HW123618   1.395   0.390   6.227  0.7293  0.5597  0.1006
 3995SOL    HW223619   1.342   0.252   6.198  2.0991 -2.2098  0.1742
 3996SOL     OW23620   1.615   4.447   4.235 -0.0342 -0.1804 -0.2562
 3996SOL    HW123621   1.587   4.535   4.260 -1.1940 -0.9106  1.0676
 3996SOL    HW223622   1.609   4.443   4.140 -2.2225 -0.4125 -0.1210
 3997SOL     OW23623   2.797   0.082   8.197  0.1462  0.4759 -0.4495
 3997SOL    HW123624   2.888   0.052   8.188 -0.3458 -0.9685 -0.5124
 3997SOL    HW223625   2.754   0.076   8.111 -0.9631  0.7224  0.0935
 3998SOL     OW23626   4.055   0.522   4.389  0.4803 -0.0766  0.3306
 3998SOL    HW123627   3.965   0.550   4.407  0.9191  1.8549 -0.5146
 3998SOL    HW223628   4.056   0.441   4.441 -0.6310  1.3592  2.5784
 3999SOL     OW23629   4.275   1.329  13.417  0.0639  0.0851 -0.0874
 3999SOL    HW123630   4.228   1.330  13.501 -0.4697  0.7343 -0.3937
 3999SOL    HW223631   4.343   1.396  13.427 -0.9032  0.8727  1.1788
 4000SOL     OW23632   3.342   3.674   4.348  0.1642  0.5869  0.2097
 4000SOL    HW123633   3.406   3.688   4.278 -0.5487  0.3695 -0.4922
 4000SOL    HW223634   3.386   3.723   4.417 -2.2637 -1.5098  3.2324
 4001SOL     OW23635   3.963   2.543   2.677  0.2545 -0.4487 -0.0646
 4001SOL    HW123636   3.965   2.621   2.620 -0.5267  0.2153  0.8314
 4001SOL    HW223637   3.875   2.513   2.657  0.3588 -0.2413 -0.8372
 4002SOL     OW23638   4.452   3.221   6.710 -0.3750  0.1876 -0.1930
 4002SOL    HW123639   4.508   3.184   6.778 -1.6117 -2.3644 -0.5317
 4002SOL    HW223640   4.399   3.282   6.761 -0.2189 -0.1606  0.3840
 4003SOL     OW23641   2.080   2.883  12.076 -0.2723 -0.4480 -0.4206
 4003SOL    HW123642   2.022   2.899  12.150 -0.7666  1.4407 -1.2255
 4003SOL    HW223643   2.100   2.789  12.076  0.9709 -0.1870  2.9534
 4004SOL     OW23644   1.400   1.107   8.244 -0.2946  0.4558  0.1175
 4004SOL    HW123645   1.349   1.071   8.171 -1.0397 -1.2708  1.4864
 4004SOL    HW223646   1.355   1.070   8.320  1.8551 -0.7872  0.7797
 4005SOL     OW23647   0.438   4.349   9.111  0.1679  0.2575  0.4091
 4005SOL    HW123648   0.357   4.303   9.134 -0.2884 -0.0145 -1.7680
 4005SOL    HW223649   0.436   4.335   9.016  1.1990  1.1050  0.2651
 4006SOL     OW23650   1.482   0.772   9.463  0.2636  0.4072 -0.3702
 4006SOL    HW123651   1.400   0.821   9.456 -0.6698 -1.1403 -0.2495
 4006SOL    HW223652   1.451   0.688   9.429 -0.3568  1.3845 -2.2786
 4007SOL     OW23653   0.859   2.942   6.343  0.0577  0.1798 -0.3896
 4007SOL    HW123654   0.808   2.871   6.381  0.0738  0.0789 -0.5556
 4007SOL    HW223655   0.931   2.935   6.406 -0.8665 -1.9205  0.4376
 4008SOL     OW23656   4.013   1.505  10.659 -0.2048 -0.2975 -0.2666
 4008SOL    HW123657   3.918   1.500  10.671 -0.4325 -0.0047 -1.9390
 4008SOL    HW223658   4.038   1.550  10.739  1.3368  0.8182 -1.3703
 4009SOL     OW23659   1.491   2.462   5.184  0.2489 -0.2766 -0.0368
 4009SOL    HW123660   1.470   2.499   5.270  1.6570 -1.1619  0.6971
 4009SOL    HW223661   1.444   2.524   5.129  1.3588 -1.0830 -1.8869
 4010SOL     OW23662   2.600   0.173   6.671 -0.4751 -0.2415  0.2716
 4010SOL    HW123663   2.543   0.140   6.602  0.0305 -3.4248  1.3731
 4010SOL    HW223664   2.687   0.138   6.652 -0.9376 -1.0878 -0.2512
 4011SOL     OW23665   0.992   3.516  12.301 -0.0316 -0.0531 -0.3481
 4011SOL    HW123666   1.028   3.589  12.251  0.4791 -0.3642 -0.4366
 4011SOL    HW223667   0.923   3.491  12.240 -0.7114 -0.0503  0.4132
 4012SOL     OW23668   1.639   2.434   5.541  0.1185  0.3383  0.7332
 4012SOL    HW123669   1.553   2.453   5.503  0.1564 -1.1757 -0.0989
 4012SOL    HW223670   1.644   2.477   5.626 -0.2147 -0.0085  0.9323
 4013SOL     OW23671   2.591   4.568   5.241 -0.4268 -0.3307  0.5421
 4013SOL    HW123672   2.536   4.494   5.216  2.3281 -1.2707 -2.7857
 4013SOL    HW223673   2.534   4.644   5.251 -2.7901 -1.9336 -0.6932
 4014SOL     OW23674   2.828   3.491   5.636  0.1232 -0.1480 -0.6856
 4014SOL    HW123675   2.831   3.583   5.610  0.4426 -0.2490 -1.0146
 4014SOL    HW223676   2.877   3.501   5.717 -2.2169  0.0638  0.7108
 4015SOL     OW23677   4.627   1.269   2.627 -0.4683  0.4728  0.5473
 4015SOL    HW123678   4.592   1.312   2.549 -2.4646 -0.9812  0.6527
 4015SOL    HW223679   4.579   1.319   2.693  2.1166  0.9347  2.0996
 4016SOL     OW23680   1.841   1.956   2.985  0.4904  0.5646  0.0313
 4016SOL    HW123681   1.779   1.978   3.054  0.7183 -0.0752  0.4445
 4016SOL    HW223682   1.859   1.865   3.010  1.1181  0.9778  1.0522
 4017SOL     OW23683   2.010   2.069  10.068 -0.4262  0.1396 -0.5099
 4017SOL    HW123684   1.946   2.135  10.039 -0.4007 -0.1995 -1.3468
 4017SOL    HW223685   1.951   2.021  10.126 -0.5980  1.3241  0.2978
 4018SOL     OW23686   4.538   1.849   3.005 -0.4520  0.2744  0.2289
 4018SOL    HW123687   4.550   1.870   3.098  3.7466 -0.3561 -0.1896
 4018SOL    HW223688   4.513   1.935   2.973 -1.0724  0.2321  0.5906
 4019SOL     OW23689   1.372   3.793  11.378 -0.8398  0.8482  0.4580
 4019SOL    HW123690   1.449   3.820  11.328  0.3600 -0.9963  1.2981
 4019SOL    HW223691   1.334   3.717  11.335  1.4829  0.8302 -1.5428
 4020SOL     OW23692   4.069   3.357   3.194 -0.6314  0.3725 -0.3608
 4020SOL    HW123693   4.047   3.379   3.285 -1.4493  0.3895 -0.5634
 4020SOL    HW223694   4.036   3.441   3.160  2.2762  1.6504 -0.0279
 4021SOL     OW23695   2.951   4.015   1.604 -0.2040  0.0940 -0.3779
 4021SOL    HW123696   2.909   4.089   1.648 -1.0654 -1.1668  0.9076
 4021SOL    HW223697   3.044   4.027   1.624  0.1650 -0.6624 -1.6534
 4022SOL     OW23698   4.258   0.600   8.482 -0.0137  0.0687 -0.5379
 4022SOL    HW123699   4.292   0.516   8.512 -1.6806 -0.4523 -0.1162
 4022SOL    HW223700   4.167   0.589   8.508  0.4703  2.2573  2.1167
 4023SOL     OW23701   2.589   0.603  16.836  0.0428 -0.1578 -0.2761
 4023SOL    HW123702   2.523   0.563  16.780  0.3630  0.1947 -0.9003
 4023SOL    HW223703   2.561   0.688  16.869 -0.2458  0.5896 -2.4473
 4024SOL     OW23704   1.953   3.070   1.847  0.3153  0.0966  0.3831
 4024SOL    HW123705   1.956   3.032   1.934 -1.6562 -0.2067  0.3273
 4024SOL    HW223706   1.892   3.008   1.806  1.9094 -1.2851  0.1338
 4025SOL     OW23707   2.614   2.079  15.733 -0.0930 -0.2585 -0.1501
 4025SOL    HW123708   2.656   2.147  15.787  1.4954 -0.5859 -0.9669
 4025SOL    HW223709   2.529   2.114  15.709 -0.1458  1.4397  2.4980
 4026SOL     OW23710   1.684   1.504   7.903  0.7699  0.0328 -0.1842
 4026SOL    HW123711   1.627   1.574   7.872 -1.8035 -2.3564 -0.8993
 4026SOL    HW223712   1.680   1.513   7.998 -0.6358 -0.3147 -0.2079
 4027SOL     OW23713   3.854   2.697   8.989  0.1328 -0.7722  0.0916
 4027SOL    HW123714   3.845   2.792   8.997 -1.0452 -0.7211 -1.8474
 4027SOL    HW223715   3.803   2.675   8.911 -2.0917  0.9151  1.0748
 4028SOL     OW23716   2.876   0.993  14.452 -0.3613 -0.2218 -0.0927
 4028SOL    HW123717   2.862   1.047  14.373 -0.6680 -2.6182 -1.6650
 4028SOL    HW223718   2.967   1.006  14.476 -0.3750  0.0433 -0.1730
 4029SOL     OW23719   0.349   2.696  12.741  0.7065 -0.5573 -0.7625
 4029SOL    HW123720   0.413   2.745  12.690  0.7021 -1.4271 -1.5899
 4029SOL    HW223721   0.414   2.632  12.769  1.9088 -0.4448 -3.3533
 4030SOL     OW23722   0.175   1.007  15.538 -0.2004  0.0765  0.2117
 4030SOL    HW123723   0.162   1.088  15.587  0.7166  0.5296 -0.2941
 4030SOL    HW223724   0.103   1.016  15.475  0.6642  0.7189 -0.6749
 4031SOL     OW23725   3.663   3.609   6.379  0.5329  0.5299  0.6536
 4031SOL    HW123726   3.659   3.523   6.420  0.4702 -0.1586 -0.7971
 4031SOL    HW223727   3.748   3.611   6.334  1.0764 -1.6226  1.5918
 4032SOL     OW23728   0.960   2.271   9.179 -0.0969  0.2363  0.6570
 4032SOL    HW123729   0.902   2.258   9.104 -0.3013  0.7528  0.7263
 4032SOL    HW223730   0.978   2.365   9.174 -1.2540  0.5219  1.7303
 4033SOL     OW23731   1.604   1.618   8.163 -0.4621  0.7402 -0.5440
 4033SOL    HW123732   1.695   1.639   8.185 -0.6706  0.4699  0.5775
 4033SOL    HW223733   1.562   1.702   8.180  1.0765  1.0575  1.8308
 4034SOL     OW23734   2.072   1.538   2.199 -0.6432 -0.4280 -0.2617
 4034SOL    HW123735   2.055   1.471   2.133  0.9074 -0.0453 -1.0636
 4034SOL    HW223736   2.047   1.485   2.274 -0.7500 -0.3105 -0.2141
 4035SOL     OW23737   0.328   0.415   8.603 -0.6776  0.1059 -0.1242
 4035SOL    HW123738   0.282   0.339   8.567  1.1143  0.3326 -2.8872
 4035SOL    HW223739   0.343   0.390   8.694  0.6788  0.9548 -0.1271
 4036SOL     OW23740   3.608   3.704   3.526 -0.3095 -0.4868 -0.0190
 4036SOL    HW123741   3.576   3.623   3.487 -0.3771 -0.7990  0.6871
 4036SOL    HW223742   3.554   3.767   3.477 -0.4665  0.2692  1.1152
 4037SOL     OW23743   1.307   4.368   2.626  0.5312  0.7310 -0.3950
 4037SOL    HW123744   1.298   4.406   2.713 -1.2635  2.0838 -1.1663
 4037SOL    HW223745   1.377   4.304   2.636 -0.3770 -0.7686 -3.3776
 4038SOL     OW23746   4.685   0.253   8.867  0.0837  0.1318  0.3229
 4038SOL    HW123747   4.590   0.254   8.853  0.3033 -0.0962 -1.1730
 4038SOL    HW223748   4.720   0.180   8.816  0.3140 -0.9911  2.0984
 4039SOL     OW23749   3.221   4.320   6.843 -0.6519 -0.0264  0.5438
 4039SOL    HW123750   3.146   4.357   6.890 -0.5212  2.8365 -1.5150
 4039SOL    HW223751   3.254   4.252   6.902  0.5966 -1.4321 -1.7546
 4040SOL     OW23752   1.145   2.975  12.659  0.7513 -0.1129 -0.5878
 4040SOL    HW123753   1.176   2.890  12.690 -0.2931 -0.7431 -1.2774
 4040SOL    HW223754   1.105   2.998  12.743 -1.5566 -2.3092 -1.0951
 4041SOL     OW23755   0.590   1.928  12.884 -0.0217  0.0783 -0.5212
 4041SOL    HW123756   0.555   1.922  12.795 -1.0284 -0.2768 -0.1027
 4041SOL    HW223757   0.682   1.919  12.860 -0.3668 -2.0691 -1.0837
 4042SOL     OW23758   3.024   3.219   6.571  0.1140  0.2009 -0.5448
 4042SOL    HW123759   3.073   3.169   6.637 -1.2746  0.4256  0.6707
 4042SOL    HW223760   2.941   3.218   6.618  0.6470  0.6416  0.4196
 4043SOL     OW23761   0.326   1.971   1.009  0.3782  0.1741 -0.2179
 4043SOL    HW123762   0.418   1.945   1.005 -0.0333 -1.8428  3.1834
 4043SOL    HW223763   0.292   1.965   0.920  1.2711 -0.2351 -0.5291
 4044SOL     OW23764   3.862   3.071   7.772 -0.4091  0.0816  0.0781
 4044SOL    HW123765   3.938   3.107   7.818  0.5163 -1.7325 -0.0272
 4044SOL    HW223766   3.868   2.981   7.803  1.2558  0.2277  0.2033
 4045SOL     OW23767   0.391   4.724   9.641 -0.0233  0.1281 -0.2249
 4045SOL    HW123768   0.448   4.707   9.716 -0.4632  0.1190  0.1096
 4045SOL    HW223769   0.334   0.058   9.667  1.4990  1.4204 -0.5342
 4046SOL     OW23770   4.644   1.546   0.517 -0.1735 -0.0840  0.3571
 4046SOL    HW123771   4.626   1.618   0.577  0.1429  1.0208 -0.8849
 4046SOL    HW223772   4.624   1.590   0.435 -1.5921  1.3299  1.4629
 4047SOL     OW23773   1.170   2.974   7.402 -0.4167  0.1068 -0.1632
 4047SOL    HW123774   1.228   2.983   7.477  2.9136  1.9759 -2.9921
 4047SOL    HW223775   1.170   2.879   7.389 -1.2937 -0.3224  2.9532
 4048SOL     OW23776   0.298   3.583   3.023 -0.7254  0.3217 -0.0238
 4048SOL    HW123777   0.388   3.553   3.028 -0.0845  2.4386  1.3370
 4048SOL    HW223778   0.309   3.659   2.965 -0.2106 -1.3015 -2.0612
 4049SOL     OW23779   0.762   1.987   0.314 -0.3510  0.7862  0.3372
 4049SOL    HW123780   0.837   2.036   0.346  0.7663 -0.9652  0.3739
 4049SOL    HW223781   0.796   1.899   0.303 -0.5673  0.6097  1.0611
 4050SOL     OW23782   0.246   3.964   2.485 -0.3501 -0.0953 -0.2654
 4050SOL    HW123783   0.199   3.991   2.565 -2.8236 -1.0551 -1.3908
 4050SOL    HW223784   0.205   3.878   2.478  2.1714 -1.3449  0.4627
 4051SOL     OW23785   1.946   4.214   3.457 -0.1807  1.0172 -0.3744
 4051SOL    HW123786   1.860   4.206   3.499  0.4751 -3.8551  0.0466
 4051SOL    HW223787   1.981   4.150   3.519 -1.9237  1.6449  1.2831
 4052SOL     OW23788   3.153   0.117  12.791 -0.4486  0.4082  0.5272
 4052SOL    HW123789   3.213   0.087  12.723  1.0296 -2.5673  3.1213
 4052SOL    HW223790   3.088   0.169  12.743  1.0868  0.5938 -1.3182
 4053SOL     OW23791   4.432   0.288   9.398  0.3295 -0.5051  0.5953
 4053SOL    HW123792   4.466   0.338   9.323  0.2726  0.9524  1.5345
 4053SOL    HW223793   4.449   0.337   9.478  0.1709 -0.8630  0.8438
 4054SOL     OW23794   0.428   1.875  15.004 -0.6808 -0.5310 -0.2326
 4054SOL    HW123795   0.494   1.843  15.066 -0.4769 -1.1743 -0.7809
 4054SOL    HW223796   0.364   1.804  14.995 -0.5353 -0.7180  0.2166
 4055SOL     OW23797   4.541   1.110   5.523 -0.4533 -0.1819  0.2647
 4055SOL    HW123798   4.555   1.062   5.441  3.3247 -1.2114  1.5389
 4055SOL    HW223799   4.450   1.083   5.536 -1.2373  0.7205 -3.3018
 4056SOL     OW23800   2.563   1.419   2.091 -0.4050  0.0035 -0.3284
 4056SOL    HW123801   2.540   1.350   2.029 -0.2561 -1.2639  1.0175
 4056SOL    HW223802   2.480   1.466   2.099 -1.7370 -2.3472 -0.2852
 4057SOL     OW23803   1.532   1.078   8.514 -0.5870 -0.0808 -0.7023
 4057SOL    HW123804   1.515   1.091   8.421  2.1181  2.2915 -0.8618
 4057SOL    HW223805   1.534   0.982   8.509 -1.8520 -0.0532 -1.6772
 4058SOL     OW23806   2.766   0.387   0.764  0.2887 -0.1464 -0.1277
 4058SOL    HW123807   2.804   0.436   0.691 -0.6229  1.2485  0.3220
 4058SOL    HW223808   2.775   0.296   0.737  0.8368  0.2318 -1.2079
 4059SOL     OW23809   3.053   0.435   8.086 -0.5482 -0.0976 -0.4834
 4059SOL    HW123810   3.042   0.351   8.042  0.5163 -0.7021  0.3977
 4059SOL    HW223811   3.108   0.482   8.023  2.1140 -2.4277  0.0983
 4060SOL     OW23812   3.953   2.659   2.159 -0.0656  0.0572  0.8659
 4060SOL    HW123813   3.882   2.706   2.203 -0.0352  0.1216  0.8462
 4060SOL    HW223814   3.920   2.575   2.127 -1.3754  0.8899  0.0468
 4061SOL     OW23815   4.358   3.078  10.229 -0.4427  0.1925  0.1613
 4061SOL    HW123816   4.401   2.995  10.212  0.2168  0.6843 -0.5475
 4061SOL    HW223817   4.411   3.146  10.187 -1.4769  0.7244 -0.2899
 4062SOL     OW23818   0.016   4.585  16.918 -0.5438 -0.0036  0.5773
 4062SOL    HW123819   0.044   4.510  16.865 -1.1695  0.8753 -0.9963
 4062SOL    HW223820   4.712   4.535  16.987 -0.7902 -1.8614 -0.9244
 4063SOL     OW23821   1.043   3.385   7.105 -0.3179  0.0209  0.7663
 4063SOL    HW123822   1.023   3.326   7.177 -2.6484  1.5339  1.3476
 4063SOL    HW223823   1.081   3.316   7.050  0.7928  1.3208 -0.1035
 4064SOL     OW23824   3.822   2.022   3.865  0.5042 -0.4301  0.0932
 4064SOL    HW123825   3.898   1.999   3.811  0.8103  3.0141 -0.9278
 4064SOL    HW223826   3.861   2.019   3.953  2.1337  1.2149 -0.5808
 4065SOL     OW23827   4.158   3.898   4.002 -0.3537  0.0503  0.0511
 4065SOL    HW123828   4.152   3.933   4.091  1.3352 -2.3439  1.1116
 4065SOL    HW223829   4.181   3.977   3.953 -1.2365 -0.5540 -1.3133
 4066SOL     OW23830   1.440   1.986   3.856  0.0361  0.7494  0.2567
 4066SOL    HW123831   1.469   2.025   3.774  0.6355  0.1290  0.1685
 4066SOL    HW223832   1.409   2.065   3.900 -1.1386 -0.7557  2.1208
 4067SOL     OW23833   3.039   1.230   3.019  0.0910 -0.4502 -0.4509
 4067SOL    HW123834   3.086   1.305   3.055  2.8070 -1.3046 -2.1948
 4067SOL    HW223835   2.951   1.257   3.047 -1.0626 -2.3154 -2.3428
 4068SOL     OW23836   3.855   1.380   5.782 -0.4781 -0.0297 -0.2811
 4068SOL    HW123837   3.938   1.426   5.796 -0.4948 -0.2198  0.4287
 4068SOL    HW223838   3.793   1.431   5.833  0.2130  0.2527  0.2855
 4069SOL     OW23839   1.186   1.419   2.814  0.0670 -0.6250 -0.4736
 4069SOL    HW123840   1.145   1.369   2.885  0.8023  0.0165  0.4041
 4069SOL    HW223841   1.269   1.373   2.824  0.3468 -0.3539 -1.5662
 4070SOL     OW23842   1.436   3.933   2.437 -0.0053  0.1794  0.1045
 4070SOL    HW123843   1.343   3.918   2.454  0.3633  0.1043  2.0348
 4070SOL    HW223844   1.471   3.945   2.525  0.0775 -0.6713  0.1886
 4071SOL     OW23845   4.471   2.140   3.763  0.2585  0.1090 -0.7195
 4071SOL    HW123846   4.426   2.204   3.709  1.2256  0.8311 -0.6588
 4071SOL    HW223847   4.436   2.054   3.737  0.6763  0.0641 -1.1324
 4072SOL     OW23848   1.797   0.341   5.512  0.2887  0.0313  0.8937
 4072SOL    HW123849   1.856   0.339   5.437 -0.1394 -0.6163  0.5718
 4072SOL    HW223850   1.742   0.417   5.494 -0.4295 -0.4213  1.1948
 4073SOL     OW23851   2.268   4.350   3.654  0.0307  0.3168 -0.0989
 4073SOL    HW123852   2.226   4.395   3.581 -1.9462  1.5091  1.7511
 4073SOL    HW223853   2.285   4.430   3.704  0.3182 -0.9457  1.8484
 4074SOL     OW23854   3.774   1.578   6.575  0.3339  0.5012 -0.1780
 4074SOL    HW123855   3.735   1.492   6.562  1.6355  0.2568 -2.4423
 4074SOL    HW223856   3.726   1.628   6.509 -0.9259  2.3412  2.0955
 4075SOL     OW23857   3.171   1.214   3.356  0.3871 -0.3800  0.3811
 4075SOL    HW123858   3.241   1.170   3.308 -0.8168 -0.0577 -1.6885
 4075SOL    HW223859   3.163   1.156   3.432 -1.1297 -2.0339 -1.0204
 4076SOL     OW23860   1.279   2.190   5.434 -0.7772 -0.1073  0.3890
 4076SOL    HW123861   1.320   2.264   5.479 -0.9005  0.5258 -0.5333
 4076SOL    HW223862   1.186   2.210   5.436 -0.5290  1.0591  0.4920
 4077SOL     OW23863   2.121   4.241   1.129 -0.4760 -0.1961 -0.6681
 4077SOL    HW123864   2.174   4.169   1.097 -0.3634 -0.0000 -0.9215
 4077SOL    HW223865   2.103   4.273   1.041 -0.0189  0.2261 -0.6070
 4078SOL     OW23866   1.408   3.935   9.992 -0.3293 -0.6400  0.0937
 4078SOL    HW123867   1.494   3.950  10.029 -0.4109 -0.4309  0.1971
 4078SOL    HW223868   1.353   3.937  10.070 -0.7167  0.4343 -0.2067
 4079SOL     OW23869   2.357   0.517   9.879  0.5634 -0.3947  0.3858
 4079SOL    HW123870   2.306   0.478   9.808  0.1442  1.0969 -0.1420
 4079SOL    HW223871   2.309   0.476   9.950 -0.2502  1.3484  0.8513
 4080SOL     OW23872   3.459   4.566   7.494 -0.2344  0.0597  0.1432
 4080SOL    HW123873   3.402   4.488   7.492  1.3495 -1.1263  1.8238
 4080SOL    HW223874   3.405   4.636   7.458 -2.4189 -2.1199 -0.9143
 4081SOL     OW23875   1.511   0.632  16.622  0.4647  0.7918  0.2034
 4081SOL    HW123876   1.507   0.723  16.594 -0.6277  0.1370 -1.7730
 4081SOL    HW223877   1.462   0.589  16.552 -1.3845  2.8045  0.2671
 4082SOL     OW23878   4.294   0.091   1.128  0.5725 -0.1321 -0.0950
 4082SOL    HW123879   4.380   0.109   1.164  1.1592  0.6572 -1.9080
 4082SOL    HW223880   4.298   0.027   1.057 -0.0680 -2.0581  1.5874
 4083SOL     OW23881   1.420   1.608   3.870  0.3173  0.4139 -0.1921
 4083SOL    HW123882   1.492   1.657   3.910 -1.0062  0.7810  1.7304
 4083SOL    HW223883   1.443   1.517   3.891 -0.1823 -0.0950 -1.8457
 4084SOL     OW23884   2.760   0.202   4.621 -0.3210  0.1682 -0.3905
 4084SOL    HW123885   2.699   0.271   4.645  2.3188  1.5112  2.5373
 4084SOL    HW223886   2.701   0.127   4.610 -0.0623  0.1465 -1.5851
 4085SOL     OW23887   0.856   1.367   7.120 -0.2385  0.0167  0.5159
 4085SOL    HW123888   0.790   1.303   7.092  0.0047 -0.8244  1.8815
 4085SOL    HW223889   0.935   1.314   7.116 -0.8297 -0.8888  0.6700
 4086SOL     OW23890   0.022   0.109   9.621  0.2155 -0.6517 -0.4289
 4086SOL    HW123891   0.106   0.100   9.666 -0.3446 -2.4555  0.2691
 4086SOL    HW223892   0.012   0.204   9.625 -0.9784 -0.8169  0.4019
 4087SOL     OW23893   0.153   1.635   5.139 -0.7777 -0.0467 -0.0119
 4087SOL    HW123894   0.142   1.715   5.191  3.1134  0.3245  0.2172
 4087SOL    HW223895   0.070   1.624   5.091 -0.8098 -0.7538  0.2112
 4088SOL     OW23896   2.708   1.813   3.423  0.0455  0.3406 -0.7605
 4088SOL    HW123897   2.796   1.844   3.444 -0.7972  0.6905  2.3313
 4088SOL    HW223898   2.655   1.835   3.500 -0.5111  1.3125 -1.4216
 4089SOL     OW23899   2.330   1.106  17.457 -0.2509 -1.0454 -0.2692
 4089SOL    HW123900   2.408   1.049  17.450  1.8180  1.6605  0.7722
 4089SOL    HW223901   2.265   1.063  17.402  1.3109  1.2226 -3.8572
 4090SOL     OW23902   0.225   2.971   3.966 -0.1287  0.1657 -0.1860
 4090SOL    HW123903   0.208   3.035   4.035 -2.0994  0.5930 -1.0889
 4090SOL    HW223904   0.149   2.990   3.912 -0.5188  0.1880  0.3788
 4091SOL     OW23905   1.233   2.999   2.801  0.6982 -0.2246 -0.4393
 4091SOL    HW123906   1.246   2.919   2.749  1.0563 -0.0632 -0.5995
 4091SOL    HW223907   1.238   2.958   2.887  0.1882  3.7890  1.4815
 4092SOL     OW23908   1.367   2.606  14.804  0.3152 -0.0102  0.7761
 4092SOL    HW123909   1.315   2.539  14.850 -0.0475 -0.6554 -0.5789
 4092SOL    HW223910   1.442   2.610  14.864  1.2789 -2.0169 -0.2924
 4093SOL     OW23911   2.105   1.088   7.295  0.0143  0.0212 -0.2662
 4093SOL    HW123912   2.179   1.097   7.234  1.1854 -2.4785  0.7843
 4093SOL    HW223913   2.138   1.129   7.375  1.2852 -0.7977 -0.3712
 4094SOL     OW23914   1.340   2.905   7.619 -0.2078 -0.1182  0.1007
 4094SOL    HW123915   1.368   2.820   7.586  0.1679 -0.0596  0.2646
 4094SOL    HW223916   1.423   2.951   7.605 -0.6660  0.5018 -0.5517
 4095SOL     OW23917   1.951   0.120   7.665 -0.4986  0.4104 -0.6968
 4095SOL    HW123918   1.914   0.118   7.577 -0.7286 -0.5760 -0.5750
 4095SOL    HW223919   2.028   0.177   7.663  1.3407 -2.0065  0.7793
 4096SOL     OW23920   1.368   4.445  10.069 -0.1479  0.8584  0.3499
 4096SOL    HW123921   1.314   4.461  10.146 -1.7383  1.8006 -0.9476
 4096SOL    HW223922   1.455   4.480  10.088  0.6906  0.3521 -2.5081
 4097SOL     OW23923   0.053   1.318   5.207  0.3950 -0.1881  0.1930
 4097SOL    HW123924   4.711   1.269   5.196  0.2318  0.5596 -1.8830
 4097SOL    HW223925   0.016   1.406   5.206  0.1218 -0.3100 -0.6362
 4098SOL     OW23926   1.021   4.555   7.293 -0.2029  0.0460 -0.3067
 4098SOL    HW123927   0.946   4.508   7.257 -1.2671  1.6369 -0.2013
 4098SOL    HW223928   1.092   4.522   7.240 -0.2962 -1.5884  0.5897
 4099SOL     OW23929   3.814   2.718   3.738  0.3535 -0.1281  0.0120
 4099SOL    HW123930   3.852   2.630   3.745  2.4889  0.6526 -1.6630
 4099SOL    HW223931   3.812   2.751   3.828 -3.3671 -3.8116  1.2967
 4100SOL     OW23932   3.137   1.678   1.045 -0.6964 -0.2263  0.2459
 4100SOL    HW123933   3.047   1.676   1.079 -1.0375 -0.8194 -0.6835
 4100SOL    HW223934   3.185   1.620   1.105  3.2821  2.7936 -0.0432
 4101SOL     OW23935   4.124   0.696   4.693  0.2967 -0.0688  0.3225
 4101SOL    HW123936   4.080   0.740   4.620  0.4146  0.2626  0.4524
 4101SOL    HW223937   4.111   0.762   4.761  0.4159  0.7401 -0.4476
 4102SOL     OW23938   0.925   0.976   7.217 -0.6611  0.1232  0.6791
 4102SOL    HW123939   0.944   0.897   7.267  1.4560  0.0085 -0.3325
 4102SOL    HW223940   1.005   1.000   7.170  0.8044  1.0601  3.6498
 4103SOL     OW23941   0.244   1.605   9.655 -0.2564  0.5157  0.0894
 4103SOL    HW123942   0.234   1.659   9.577 -1.1233 -0.3150 -0.3615
 4103SOL    HW223943   0.284   1.665   9.719  1.6437  1.3158 -1.8234
 4104SOL     OW23944   0.636   4.387   7.504 -0.2974  0.7175  0.8341
 4104SOL    HW123945   0.593   4.381   7.589 -0.8629  0.8543  0.5576
 4104SOL    HW223946   0.720   4.431   7.520 -1.1543  2.7476 -0.2409
 4105SOL     OW23947   1.166   4.473   6.559  0.0699  0.6947 -0.4690
 4105SOL    HW123948   1.105   4.442   6.627  0.8949  0.8702  0.3485
 4105SOL    HW223949   1.194   4.389   6.522 -0.6756  0.1494  0.2000
 4106SOL     OW23950   2.865   4.003   3.626  0.2694  0.5074  0.2378
 4106SOL    HW123951   2.908   4.055   3.558  1.0600  1.0840  1.1749
 4106SOL    HW223952   2.917   3.923   3.625 -1.0692 -0.3613  1.7140
 4107SOL     OW23953   4.044   3.906   9.952  0.6378  0.3122 -0.1865
 4107SOL    HW123954   4.131   3.890   9.987 -0.5808 -0.5376  2.5116
 4107SOL    HW223955   4.051   3.982   9.894  0.7250  0.1123 -0.4345
 4108SOL     OW23956   3.280   0.346   4.875 -0.2767 -0.4203  0.1406
 4108SOL    HW123957   3.243   0.284   4.811 -1.5847 -0.1920  0.6751
 4108SOL    HW223958   3.246   0.322   4.961  0.5456  0.6035  0.7481
 4109SOL     OW23959   1.550   1.950   5.180  0.7226  0.0223 -0.0832
 4109SOL    HW123960   1.532   2.036   5.140 -1.4617  0.5756  2.0575
 4109SOL    HW223961   1.490   1.898   5.127  1.1788 -0.0507 -0.5291
 4110SOL     OW23962   4.005   2.244   3.210  0.0875  0.3916  0.3407
 4110SOL    HW123963   4.039   2.280   3.128  2.0417 -0.1968  0.8888
 4110SOL    HW223964   3.920   2.288   3.208  0.5382  1.3538  2.0551
 4111SOL     OW23965   0.672   4.555  16.204  0.2656 -0.2861  0.2163
 4111SOL    HW123966   0.671   4.546  16.299 -0.6093  0.8836  0.3168
 4111SOL    HW223967   0.658   4.462  16.185 -0.7373 -0.0252 -0.3237
 4112SOL     OW23968   0.286   2.851   5.462 -0.0665  0.5306 -0.2536
 4112SOL    HW123969   0.272   2.881   5.372 -0.1632  0.5490 -0.2324
 4112SOL    HW223970   0.204   2.882   5.501 -0.2234 -0.6077  0.3130
 4113SOL     OW23971   1.038   1.973   7.257 -0.3031 -0.2449 -0.1878
 4113SOL    HW123972   1.114   2.004   7.306 -0.1208 -0.7931 -0.1236
 4113SOL    HW223973   1.081   1.960   7.172  1.3680  0.7359  0.5193
 4114SOL     OW23974   4.354   0.638   0.121  0.2142 -0.4642 -0.2586
 4114SOL    HW123975   4.319   0.673   0.203  0.3494  0.0346 -0.4172
 4114SOL    HW223976   4.430   0.590   0.155 -1.0747 -0.8942  1.9949
 4115SOL     OW23977   2.548   1.603   4.207 -0.7614  0.8041 -0.2165
 4115SOL    HW123978   2.500   1.646   4.137  0.6696  0.5243 -1.3651
 4115SOL    HW223979   2.595   1.530   4.167 -1.1072  1.2256 -1.3966
 4116SOL     OW23980   4.677   1.701   7.253 -0.0312 -0.3221 -0.4568
 4116SOL    HW123981   4.608   1.727   7.192 -0.3811  0.5380  0.3139
 4116SOL    HW223982   4.625   1.641   7.307  0.4666 -1.7246 -1.5303
 4117SOL     OW23983   0.767   3.179   7.335 -0.3456 -0.2952 -0.5195
 4117SOL    HW123984   0.773   3.093   7.376  0.1884 -0.8790 -1.8385
 4117SOL    HW223985   0.836   3.190   7.270 -0.5043  0.1645 -0.6121
 4118SOL     OW23986   2.200   4.052   3.215 -0.0009  0.3755  0.2252
 4118SOL    HW123987   2.187   4.038   3.309 -0.7432 -0.7302 -0.0420
 4118SOL    HW223988   2.156   3.977   3.176  0.5831  0.2170 -0.1250
 4119SOL     OW23989   1.068   2.171   5.727  0.1635 -0.3549 -1.0172
 4119SOL    HW123990   1.079   2.257   5.688  1.3456  0.4133  1.0359
 4119SOL    HW223991   1.056   2.121   5.646  0.5283  0.2126 -1.4206
 4120SOL     OW23992   1.238   2.567   2.390 -0.5974  0.5062  0.5623
 4120SOL    HW123993   1.182   2.533   2.320  0.1297  0.9278 -0.2225
 4120SOL    HW223994   1.222   2.489   2.442 -1.6157  0.1644 -0.2675
 4121SOL     OW23995   3.524   3.459   2.584  0.2255  0.4416  0.1548
 4121SOL    HW123996   3.520   3.410   2.666 -0.4790  0.3845  0.0870
 4121SOL    HW223997   3.438   3.451   2.543  1.6477  0.0399 -2.7671
 4122SOL     OW23998   3.592   0.765   1.445  0.2400  0.2623 -0.2285
 4122SOL    HW123999   3.521   0.763   1.381  1.3578  1.8026 -1.5227
 4122SOL    HW224000   3.655   0.746   1.376  0.2885  0.5781 -0.2686
 4123SOL     OW24001   2.012   2.172   8.060 -0.0600  0.0549  0.2936
 4123SOL    HW124002   2.048   2.169   8.149 -0.6497 -0.3487  0.5137
 4123SOL    HW224003   1.926   2.135   8.075  0.3472 -0.6663  0.8700
 4124SOL     OW24004   0.555   0.881   6.565  0.1448  0.1835 -0.2533
 4124SOL    HW124005   0.481   0.928   6.526  0.4170  2.5050  2.0506
 4124SOL    HW224006   0.603   0.855   6.486 -0.1842 -1.7727  0.1830
 4125SOL     OW24007   3.247   3.134   0.057  0.9928 -0.2950  0.0070
 4125SOL    HW124008   3.154   3.147   0.039  0.9038 -2.1954 -0.8885
 4125SOL    HW224009   3.255   3.197   0.129  0.8293  0.0672 -0.2947
 4126SOL     OW24010   1.026   2.422   5.640  0.5516 -0.9156  0.2238
 4126SOL    HW124011   0.960   2.487   5.665 -1.2079 -2.9079  0.6671
 4126SOL    HW224012   1.046   2.468   5.558 -0.5172 -0.4047  0.2507
 4127SOL     OW24013   3.015   4.356   8.829  0.2128 -0.2024  0.2675
 4127SOL    HW124014   3.031   4.423   8.895 -0.2810  1.7792 -1.6263
 4127SOL    HW224015   2.989   4.421   8.764 -1.6127 -1.4883 -0.3003
 4128SOL     OW24016   0.663   0.551   3.452 -0.0051 -0.5144 -0.1444
 4128SOL    HW124017   0.661   0.608   3.375  0.9810 -1.0751 -0.5861
 4128SOL    HW224018   0.756   0.533   3.460 -0.5919 -3.0451  1.0362
 4129SOL     OW24019   1.529   0.876  13.389 -0.1938 -0.0054  0.3561
 4129SOL    HW124020   1.503   0.805  13.447  1.8984 -0.8731  0.2024
 4129SOL    HW224021   1.530   0.830  13.305  0.0818  1.1789 -0.3007
 4130SOL     OW24022   2.935   3.107  16.787 -0.0091 -0.1980 -0.0838
 4130SOL    HW124023   2.982   3.024  16.797  0.0761 -0.4470 -2.3932
 4130SOL    HW224024   2.934   3.142  16.876 -1.5556  1.0278 -0.5778
 4131SOL     OW24025   1.097   1.576   4.369  0.0760  0.0891 -0.1110
 4131SOL    HW124026   1.117   1.659   4.414  0.7728  0.9487 -1.9946
 4131SOL    HW224027   1.168   1.524   4.406  0.1937 -0.2177 -0.7698
 4132SOL     OW24028   1.448   2.923   6.863 -0.1623 -0.7384  0.0702
 4132SOL    HW124029   1.501   2.973   6.926  0.4306 -1.2846  0.0088
 4132SOL    HW224030   1.451   2.848   6.922 -0.4576 -1.2561 -0.5859
 4133SOL     OW24031   2.058   4.273   7.294 -0.0456  0.2887  0.3065
 4133SOL    HW124032   2.137   4.305   7.251  0.8735 -1.6487  0.5983
 4133SOL    HW224033   2.035   4.346   7.352 -0.7537  0.7391 -0.5249
 4134SOL     OW24034   0.631   0.064   5.784 -0.0044  0.1221 -0.7430
 4134SOL    HW124035   0.671   0.096   5.703  2.5714  1.0672  0.9103
 4134SOL    HW224036   0.690   0.114   5.840 -0.1443  0.1321 -0.6034
 4135SOL     OW24037   2.002   2.103   2.797 -0.3858  0.0568  0.2742
 4135SOL    HW124038   2.015   2.176   2.858  0.3751 -0.4439  0.7117
 4135SOL    HW224039   1.937   2.057   2.850 -0.6215  1.0745  0.8781
 4136SOL     OW24040   0.499   3.139   0.525  0.1834  0.3593  0.0224
 4136SOL    HW124041   0.461   3.222   0.551 -1.7415 -0.7406  0.6923
 4136SOL    HW224042   0.490   3.094   0.609  3.1258 -0.4602 -0.1016
 4137SOL     OW24043   0.076   4.295   6.230 -0.7482 -0.5810 -0.1348
 4137SOL    HW124044   4.725   4.301   6.199 -0.3269  0.0899 -1.1930
 4137SOL    HW224045   0.091   4.381   6.268 -1.1716 -0.9916  0.9588
 4138SOL     OW24046   1.623   1.282   4.454 -0.1229  0.7619  0.5488
 4138SOL    HW124047   1.667   1.206   4.491 -0.3375  1.2798  1.8399
 4138SOL    HW224048   1.601   1.339   4.528  0.8059  2.3302 -0.3741
 4139SOL     OW24049   1.522   2.840   7.284  0.4035  0.1854  0.5501
 4139SOL    HW124050   1.515   2.783   7.361  0.7354  1.2876  1.4003
 4139SOL    HW224051   1.463   2.791   7.227  2.5890  0.3371 -1.8446
 4140SOL     OW24052   1.290   4.725  11.298  0.0733  0.8065 -0.4596
 4140SOL    HW124053   1.336   0.003  11.380  0.2620 -1.4765 -0.0708
 4140SOL    HW224054   1.199   4.726  11.327  0.0653  2.0618 -0.5415
 4141SOL     OW24055   0.205   0.229   8.477  0.0114  0.3496  0.1173
 4141SOL    HW124056   0.166   0.151   8.438 -0.4978 -0.7932  2.8885
 4141SOL    HW224057   0.210   0.284   8.399  0.3877  1.1418  0.6974
 4142SOL     OW24058   0.638   3.872   8.731  0.7569 -0.0829  0.5369
 4142SOL    HW124059   0.691   3.876   8.810  1.0148 -3.1120  0.4865
 4142SOL    HW224060   0.696   3.916   8.669 -0.2577  2.9097  1.6880
 4143SOL     OW24061   0.465   3.293   4.505  0.7403  0.1405  0.3478
 4143SOL    HW124062   0.413   3.214   4.489  1.5427 -0.2208 -0.4530
 4143SOL    HW224063   0.535   3.277   4.442 -0.9190 -1.8115 -0.9929
 4144SOL     OW24064   2.632   4.574   0.539  0.1907 -0.7017 -0.1296
 4144SOL    HW124065   2.574   4.640   0.578  1.9330  0.1255  1.0265
 4144SOL    HW224066   2.694   4.564   0.610  0.6819  1.6955 -0.2141
 4145SOL     OW24067   1.244   1.267   4.219 -0.0484  0.1008 -0.3435
 4145SOL    HW124068   1.339   1.277   4.225 -0.1523  0.7666  0.1859
 4145SOL    HW224069   1.230   1.235   4.308  2.1590 -1.2815 -0.4969
 4146SOL     OW24070   4.330   0.570   2.773 -0.2658  0.1107 -0.7152
 4146SOL    HW124071   4.410   0.608   2.810 -0.7482  0.5210 -0.0821
 4146SOL    HW224072   4.264   0.632   2.805  1.9448  1.2382  1.7204
 4147SOL     OW24073   3.057   4.083   4.894  0.0593  0.5058 -0.0445
 4147SOL    HW124074   3.001   4.057   4.820  1.0878  2.5325 -1.5224
 4147SOL    HW224075   3.062   4.178   4.894 -0.0255  0.5118 -0.5521
 4148SOL     OW24076   2.073   0.219   6.608  0.1330 -0.2339 -0.8444
 4148SOL    HW124077   2.084   0.206   6.702 -2.0032 -0.6930 -0.6423
 4148SOL    HW224078   2.090   0.313   6.609  0.2436 -0.2519 -0.9769
 4149SOL     OW24079   3.379   1.136   8.424 -0.1301  0.3993  0.2348
 4149SOL    HW124080   3.314   1.065   8.424  1.4923 -1.0709 -0.3484
 4149SOL    HW224081   3.418   1.133   8.511  0.4383 -1.9363 -0.1099
 4150SOL     OW24082   0.072   2.909   7.989 -0.3480 -0.2284  0.1330
 4150SOL    HW124083   0.018   2.921   7.910  0.1239 -1.3810 -0.3740
 4150SOL    HW224084   0.110   2.995   8.001 -1.9107  0.4401  0.3439
 4151SOL     OW24085   0.499   4.212   4.351 -0.5541 -0.7412  0.1333
 4151SOL    HW124086   0.453   4.266   4.287  1.1234 -1.5846 -1.7982
 4151SOL    HW224087   0.453   4.222   4.434  1.9729  0.4069  1.4009
 4152SOL     OW24088   1.604   2.915   1.268 -0.2169  0.6689  0.1638
 4152SOL    HW124089   1.518   2.954   1.255  0.7871  2.8933  0.1354
 4152SOL    HW224090   1.664   2.982   1.234 -1.0930  2.3273  1.9140
 4153SOL     OW24091   1.800   1.818   6.944 -0.1149  0.3520 -0.7850
 4153SOL    HW124092   1.743   1.895   6.936  0.5932  1.1733  2.4147
 4153SOL    HW224093   1.820   1.821   7.037  0.1496  3.4699 -0.9452
 4154SOL     OW24094   0.645   0.643   2.419 -0.1340  0.3566 -0.8216
 4154SOL    HW124095   0.651   0.589   2.498  0.4316  1.9931  0.2618
 4154SOL    HW224096   0.671   0.578   2.354  0.8958 -0.2710  0.2001
 4155SOL     OW24097   1.629   3.896   7.986 -0.0878  0.2771 -0.1733
 4155SOL    HW124098   1.546   3.943   7.993 -1.4984 -2.1705 -0.4494
 4155SOL    HW224099   1.701   3.957   7.999  0.5449 -0.8708  1.6166
 4156SOL     OW24100   1.744   1.605   2.039  0.0334 -0.0672  0.2001
 4156SOL    HW124101   1.751   1.566   2.126 -0.6771 -1.9546 -0.5939
 4156SOL    HW224102   1.721   1.530   1.983 -0.7081  1.0657 -1.0207
 4157SOL     OW24103   4.025   0.533  15.847  0.0865 -0.1398  0.3293
 4157SOL    HW124104   3.969   0.569  15.916  0.7413 -2.3461  2.0023
 4157SOL    HW224105   4.052   0.615  15.806 -0.9578 -0.0266 -0.1186
 4158SOL     OW24106   3.210   3.161  10.802 -0.8537  0.1747 -0.3166
 4158SOL    HW124107   3.254   3.246  10.804  1.1518 -0.9262  2.2806
 4158SOL    HW224108   3.204   3.140  10.709 -0.5975  1.8579 -0.6980
 4159SOL     OW24109   4.101   3.182   8.353 -0.0881 -0.1326 -0.5320
 4159SOL    HW124110   4.119   3.141   8.438  1.7715 -1.6437 -1.6346
 4159SOL    HW224111   4.174   3.244   8.357 -0.8803  0.6167  1.9493
 4160SOL     OW24112   3.028   2.675   5.883  0.4447  0.6684  0.0750
 4160SOL    HW124113   3.041   2.621   5.961 -3.1390  1.7833  1.4498
 4160SOL    HW224114   3.063   2.629   5.806  0.3502  1.8034 -0.6366
 4161SOL     OW24115   3.615   0.339   1.643  0.0845  0.2933  0.3419
 4161SOL    HW124116   3.591   0.322   1.552 -1.1276  0.8698  0.5543
 4161SOL    HW224117   3.532   0.312   1.683 -0.6704 -0.6387 -1.8625
 4162SOL     OW24118   3.742   4.364  13.858 -0.2157 -0.3946 -0.2079
 4162SOL    HW124119   3.749   4.274  13.826 -0.5382 -0.8444  0.9653
 4162SOL    HW224120   3.794   4.405  13.789 -4.4183  1.0311 -2.5511
 4163SOL     OW24121   3.773   3.727  14.673  0.4244  0.3453  0.3088
 4163SOL    HW124122   3.774   3.769  14.587 -0.0389  3.0790  1.6188
 4163SOL    HW224123   3.764   3.801  14.734  2.1581  0.2929  0.6343
 4164SOL     OW24124   0.290   1.593   6.509 -0.2161 -0.7736  0.2903
 4164SOL    HW124125   0.324   1.504   6.514 -1.4905 -1.2234  0.7882
 4164SOL    HW224126   0.294   1.604   6.414 -1.8009  0.0645  0.3277
 4165SOL     OW24127   1.897   2.510   5.466 -0.3051 -0.1629  0.4608
 4165SOL    HW124128   1.814   2.468   5.489 -0.2327 -0.5350  0.0346
 4165SOL    HW224129   1.957   2.458   5.519  0.6782 -0.3085 -0.7868
 4166SOL     OW24130   1.916   0.587   6.990  0.6025 -0.7071  0.2889
 4166SOL    HW124131   1.857   0.658   7.016 -0.1509 -0.5525 -1.7644
 4166SOL    HW224132   1.997   0.604   7.037  1.3782 -0.8264 -0.9899
 4167SOL     OW24133   4.097   1.233   6.765 -0.0528 -0.3783 -0.3325
 4167SOL    HW124134   4.122   1.292   6.836  0.5742 -1.8790  0.6917
 4167SOL    HW224135   4.048   1.172   6.821 -0.2247  1.0945  1.1280
 4168SOL     OW24136   3.675   3.210   2.146 -0.0329  0.5583  0.0903
 4168SOL    HW124137   3.600   3.193   2.089  0.9267 -0.7911 -0.7627
 4168SOL    HW224138   3.631   3.228   2.229 -1.0343  1.8793 -0.7352
 4169SOL     OW24139   1.332   2.752  17.459 -0.0697  0.1598 -0.5867
 4169SOL    HW124140   1.408   2.711  17.417  0.6304  0.1070  0.7170
 4169SOL    HW224141   1.375   2.791  17.535  1.1930 -3.2917  0.4673
 4170SOL     OW24142   0.201   1.985  15.548  0.1045  0.2498  0.4463
 4170SOL    HW124143   0.218   2.079  15.559  0.4999  0.4917 -2.3107
 4170SOL    HW224144   0.174   1.963  15.637 -0.9400 -0.4231 -0.0277
 4171SOL     OW24145   1.316   1.425   5.796 -0.2809 -0.3082  0.1732
 4171SOL    HW124146   1.272   1.375   5.865  3.6889 -0.9919  2.2664
 4171SOL    HW224147   1.350   1.496   5.851 -1.3219 -0.8969  1.5797
 4172SOL     OW24148   1.291   2.185   8.063  0.4119 -0.0204  0.0031
 4172SOL    HW124149   1.232   2.251   8.100  0.0260 -0.9988  1.1719
 4172SOL    HW224150   1.303   2.221   7.976  1.0547  0.4550  0.2956
 4173SOL     OW24151   0.634   2.068   5.407  0.1333 -0.1769 -0.1516
 4173SOL    HW124152   0.642   2.006   5.335 -3.3270 -0.6304 -0.1393
 4173SOL    HW224153   0.653   2.001   5.472  2.3298  0.1330 -0.4787
 4174SOL     OW24154   0.956   1.898   4.146  0.1479 -0.1028 -0.1179
 4174SOL    HW124155   1.018   1.945   4.090  1.8404 -1.2509  0.7753
 4174SOL    HW224156   0.893   1.962   4.179 -1.0349 -1.1076 -0.4373
 4175SOL     OW24157   2.672   4.176   6.729 -0.2723  0.2087 -0.1136
 4175SOL    HW124158   2.601   4.149   6.671 -0.1363  0.4611 -0.4007
 4175SOL    HW224159   2.682   4.091   6.771 -0.0026  1.3114  2.0700
 4176SOL     OW24160   0.915   3.951   9.437 -0.2314  0.3872 -0.4389
 4176SOL    HW124161   1.000   3.987   9.464 -0.9748 -0.3361  2.9082
 4176SOL    HW224162   0.929   3.941   9.343  0.5574 -0.3032 -0.2414
 4177SOL     OW24163   3.061   0.165   2.840 -1.1664  0.0470 -0.1231
 4177SOL    HW124164   3.136   0.114   2.869 -1.0071  1.0775  1.3287
 4177SOL    HW224165   3.023   0.108   2.774  2.0021 -1.8213 -0.2901
 4178SOL     OW24166   1.745   1.674   5.024 -0.2864 -0.1500 -0.1077
 4178SOL    HW124167   1.665   1.631   4.992  0.3130 -2.0509  1.0041
 4178SOL    HW224168   1.794   1.599   5.058 -1.7926 -1.2722 -0.3833
 4179SOL     OW24169   1.075   1.417   8.943  0.0773  0.6901 -0.0303
 4179SOL    HW124170   0.981   1.411   8.930 -0.0249 -0.6971  1.3505
 4179SOL    HW224171   1.103   1.441   8.854  0.9707  1.1929  0.3884
 4180SOL     OW24172   4.437   1.257  12.688 -0.5008 -0.4054  0.4088
 4180SOL    HW124173   4.365   1.233  12.746 -2.9569  0.9902 -2.1187
 4180SOL    HW224174   4.505   1.242  12.754 -0.1670  0.9098  0.3628
 4181SOL     OW24175   0.358   0.644   5.315  0.1805  0.0532 -0.0131
 4181SOL    HW124176   0.306   0.721   5.292  0.1242  0.4497  1.4235
 4181SOL    HW224177   0.311   0.591   5.380 -0.3375  0.6289  0.0895
 4182SOL     OW24178   3.605   1.829   7.904  0.0482 -0.0589 -0.2645
 4182SOL    HW124179   3.654   1.761   7.951 -0.8147 -1.1185 -0.8829
 4182SOL    HW224180   3.649   1.823   7.820 -1.0096  1.3793 -0.9131
 4183SOL     OW24181   0.335   1.837   6.701 -0.3970 -0.0537 -0.7364
 4183SOL    HW124182   0.239   1.830   6.703 -0.5347  1.9475 -0.0560
 4183SOL    HW224183   0.346   1.841   6.606  0.9004  1.1507 -0.5327
 4184SOL     OW24184   2.555   1.393   5.226 -0.3271 -0.2539 -0.2830
 4184SOL    HW124185   2.612   1.317   5.214 -0.1626 -0.0957 -0.4966
 4184SOL    HW224186   2.501   1.363   5.299 -0.5694 -1.2468 -0.8697
 4185SOL     OW24187   3.037   0.262  15.749  0.2833  0.3272 -0.0799
 4185SOL    HW124188   3.000   0.313  15.821 -0.2380  1.1135 -0.8918
 4185SOL    HW224189   2.953   0.216  15.747 -0.4294  1.5049  2.3473
 4186SOL     OW24190   2.837   2.333   0.061 -0.0268  0.6947 -0.2934
 4186SOL    HW124191   2.876   2.375   0.138 -1.5157  0.4347  0.6055
 4186SOL    HW224192   2.746   2.361   0.070 -1.0528 -2.5746 -0.4668
 4187SOL     OW24193   3.836   2.584   8.289  0.1226  0.3646  0.0296
 4187SOL    HW124194   3.767   2.533   8.247 -0.7536  1.6790 -0.1276
 4187SOL    HW224195   3.780   2.655   8.319 -2.1598 -1.1333 -0.6521
 4188SOL     OW24196   3.115   4.285   1.393 -0.8692  0.4733 -0.7033
 4188SOL    HW124197   3.086   4.376   1.400  1.4241  1.2369 -1.1351
 4188SOL    HW224198   3.161   4.286   1.309 -0.7755  0.2039 -0.6568
 4189SOL     OW24199   3.235   3.838   8.444 -0.1058  0.4217  1.1947
 4189SOL    HW124200   3.221   3.853   8.537 -1.1431 -2.3794  1.5040
 4189SOL    HW224201   3.277   3.918   8.412 -1.2978  0.4921 -0.1981
 4190SOL     OW24202   1.622   3.028   5.979  0.3245 -0.2459 -0.1984
 4190SOL    HW124203   1.634   2.944   5.935  0.2568 -0.2447 -0.2192
 4190SOL    HW224204   1.712   3.030   6.012 -0.3724  2.0768  1.5581
 4191SOL     OW24205   3.392   2.829   8.249  0.2197  0.1784  0.5892
 4191SOL    HW124206   3.376   2.861   8.338  0.7171  1.8347  0.0899
 4191SOL    HW224207   3.312   2.855   8.203 -1.0073 -1.3938  1.8706
 4192SOL     OW24208   3.439   4.426   2.605 -0.1804 -0.0567  0.2003
 4192SOL    HW124209   3.361   4.477   2.584  0.2029  0.5456  0.2299
 4192SOL    HW224210   3.400   4.345   2.638  1.6413 -2.0212 -2.4396
 4193SOL     OW24211   3.197   0.916  16.542 -0.2991 -0.3991  0.5076
 4193SOL    HW124212   3.195   0.897  16.448 -0.8411  1.4162  0.1435
 4193SOL    HW224213   3.225   1.008  16.546  1.3311 -1.0307  3.1292
 4194SOL     OW24214   1.797   3.960   6.842 -0.1820 -0.2875 -0.9625
 4194SOL    HW124215   1.833   3.881   6.800 -0.0076 -0.4341 -0.5346
 4194SOL    HW224216   1.709   3.954   6.803 -1.3830  0.3702  1.6813
 4195SOL     OW24217   2.698   1.024   1.665 -0.0257 -0.0668 -0.2500
 4195SOL    HW124218   2.629   1.085   1.692 -0.5410  0.0640 -1.8760
 4195SOL    HW224219   2.770   1.082   1.693  0.1521 -0.3789 -0.0675
 4196SOL     OW24220   3.927   2.718  14.743 -0.0107 -0.4746 -0.0677
 4196SOL    HW124221   3.832   2.732  14.748  0.2860  1.3733  0.4064
 4196SOL    HW224222   3.954   2.807  14.767 -1.7843 -0.1627  0.8341
 4197SOL     OW24223   2.750   2.849   3.565 -0.6032  0.3396 -0.3486
 4197SOL    HW124224   2.834   2.807   3.542  0.8555  1.8267  2.2958
 4197SOL    HW224225   2.773   2.942   3.570 -1.4973  0.5983 -1.0670
 4198SOL     OW24226   1.731   0.788  10.358  0.3961  0.1766  0.3204
 4198SOL    HW124227   1.740   0.795  10.453  1.2775  0.9990  0.1674
 4198SOL    HW224228   1.657   0.727  10.355  0.5639  0.0773 -2.5164
 4199SOL     OW24229   3.921   1.099   5.757 -0.3985 -1.0423 -0.4844
 4199SOL    HW124230   3.973   1.076   5.680  0.1552 -1.5050  0.0264
 4199SOL    HW224231   3.930   1.194   5.751 -0.1652 -0.9647  1.1267
 4200SOL     OW24232   1.505   4.597   2.739  0.1711 -0.1053  0.0472
 4200SOL    HW124233   1.562   4.594   2.662 -0.4395  0.7351 -0.4467
 4200SOL    HW224234   1.556   4.572   2.816  1.0511 -2.8792 -1.4319
 4201SOL     OW24235   2.283   0.575  16.627  0.4060 -0.1392  0.1757
 4201SOL    HW124236   2.362   0.558  16.576  0.5578 -0.5720  0.5563
 4201SOL    HW224237   2.229   0.497  16.610  2.4522 -0.7937 -3.1851
 4202SOL     OW24238   4.382   2.436   5.755 -0.2011 -0.0009  0.0501
 4202SOL    HW124239   4.398   2.530   5.755  1.4625 -0.2871  0.0943
 4202SOL    HW224240   4.287   2.441   5.768 -0.2916 -0.0921 -0.5819
 4203SOL     OW24241   4.664   1.099   8.310 -0.2138  0.5335  0.7840
 4203SOL    HW124242   4.694   1.190   8.304 -2.7210  1.3075 -0.3507
 4203SOL    HW224243   4.671   1.088   8.405  0.5452 -0.2065  0.6442
 4204SOL     OW24244   0.845   3.337   4.549  0.2380 -0.0114 -0.3703
 4204SOL    HW124245   0.787   3.341   4.473 -0.5528 -0.2668  0.2216
 4204SOL    HW224246   0.789   3.294   4.613  0.1121  0.4653 -0.1593
 4205SOL     OW24247   3.740   2.304   3.934  0.0701 -0.5444  0.0602
 4205SOL    HW124248   3.749   2.356   3.854  1.5596 -0.2481  0.4163
 4205SOL    HW224249   3.794   2.229   3.908  1.0013 -0.0160  0.4391
 4206SOL     OW24250   2.087   4.732   6.443  0.0222  0.3325  0.4379
 4206SOL    HW124251   2.093   0.072   6.496  0.0976 -0.8983  2.2708
 4206SOL    HW224252   2.041   0.027   6.367 -0.8969 -0.3203  0.7033
 4207SOL     OW24253   3.415   3.313   3.662 -0.1769  0.2420  0.0670
 4207SOL    HW124254   3.436   3.286   3.752 -1.2539 -0.4889  0.1045
 4207SOL    HW224255   3.475   3.252   3.621 -0.2902 -0.2089  0.5597
 4208SOL     OW24256   1.320   3.738  10.243 -0.4505 -0.0090  0.2471
 4208SOL    HW124257   1.280   3.824  10.257  0.1637  0.2955  0.1532
 4208SOL    HW224258   1.263   3.710  10.172  0.4140 -2.3186  0.4584
 4209SOL     OW24259   2.896   3.719   5.397  0.2678 -0.4353  0.3072
 4209SOL    HW124260   2.973   3.770   5.372 -0.4910  0.0831 -0.9977
 4209SOL    HW224261   2.869   3.779   5.467 -0.7729 -0.2743 -0.2254
 4210SOL     OW24262   2.436   3.446   7.018  0.1183  0.3582 -0.6171
 4210SOL    HW124263   2.510   3.474   6.965  3.3209 -1.2477  2.9359
 4210SOL    HW224264   2.374   3.424   6.948  0.5791  1.1476 -1.2680
 4211SOL     OW24265   1.006   1.570   3.498 -0.2922 -0.0659  0.4692
 4211SOL    HW124266   1.069   1.621   3.447 -0.6301  1.2580  1.3574
 4211SOL    HW224267   1.061   1.554   3.575 -2.0816  0.9758  1.9779
 4212SOL     OW24268   3.787   0.789   1.843  0.0588 -0.0341 -0.0232
 4212SOL    HW124269   3.717   0.751   1.790 -0.2123  0.7124 -0.1981
 4212SOL    HW224270   3.825   0.847   1.776 -0.0981 -0.2981 -0.3426
 4213SOL     OW24271   1.350   2.352   3.588  0.4235 -0.8807  0.0746
 4213SOL    HW124272   1.383   2.262   3.581  0.5630 -0.8921  0.8722
 4213SOL    HW224273   1.417   2.413   3.558 -1.6663  1.0924 -0.5008
 4214SOL     OW24274   4.449   0.589   2.274 -0.1533 -0.7083  0.6674
 4214SOL    HW124275   4.363   0.603   2.315  0.1571 -0.6627  1.3081
 4214SOL    HW224276   4.505   0.576   2.350  0.3029  1.0567  0.6117
 4215SOL     OW24277   0.103   3.027  17.561  0.5674 -0.4014 -0.5397
 4215SOL    HW124278   0.166   3.002  17.629  0.3550  0.1180 -0.1540
 4215SOL    HW224279   0.048   2.950  17.548 -0.3085  0.1349 -0.0198
 4216SOL     OW24280   4.581   3.974  15.960 -0.0784  0.4054  0.4188
 4216SOL    HW124281   4.550   4.010  16.043 -1.1289 -0.2717  0.3225
 4216SOL    HW224282   4.586   4.048  15.900  2.7952 -1.5482 -1.7995
 4217SOL     OW24283   3.072   3.872   1.128 -0.1725 -0.2678  0.0983
 4217SOL    HW124284   2.986   3.833   1.111 -1.3144  2.9245 -1.6257
 4217SOL    HW224285   3.061   3.921   1.209 -1.2703 -0.1413 -0.1301
 4218SOL     OW24286   2.164   2.134   7.188 -0.0349  0.7263  0.1343
 4218SOL    HW124287   2.136   2.143   7.097 -0.4219 -1.0057  0.0881
 4218SOL    HW224288   2.114   2.056   7.213 -0.6473  0.5568 -1.6120
 4219SOL     OW24289   1.365   1.691  11.228 -0.1255  0.2651  0.0447
 4219SOL    HW124290   1.313   1.767  11.250  1.7258  1.4385  0.4041
 4219SOL    HW224291   1.391   1.704  11.136  1.3056 -1.0144  0.2737
 4220SOL     OW24292   0.824   1.184   8.823 -0.3827 -0.5056 -0.4337
 4220SOL    HW124293   0.801   1.275   8.847 -0.3187 -0.5669 -0.1368
 4220SOL    HW224294   0.851   1.150   8.908  2.7077 -1.1340 -1.7000
 4221SOL     OW24295   2.749   0.799   8.877  0.0598 -0.2011 -0.3692
 4221SOL    HW124296   2.804   0.842   8.943  1.3774 -0.9775 -0.9458
 4221SOL    HW224297   2.678   0.762   8.930 -0.1909  0.1851 -0.4400
 4222SOL     OW24298   0.624   4.607   2.962 -0.4347  0.0507 -0.1507
 4222SOL    HW124299   0.695   4.629   3.021 -0.9201 -0.5938  0.6897
 4222SOL    HW224300   0.665   4.614   2.876 -1.1593  0.1096 -0.4987
 4223SOL     OW24301   3.602   2.167  13.766  0.4882 -0.2048 -0.6426
 4223SOL    HW124302   3.638   2.088  13.726 -1.8943 -1.4741 -0.2250
 4223SOL    HW224303   3.641   2.150  13.852 -1.3483 -0.6762  0.1015
 4224SOL     OW24304   1.233   1.828   1.376  0.3002  0.8647  0.6828
 4224SOL    HW124305   1.251   1.802   1.286 -0.1642  0.1821  0.7895
 4224SOL    HW224306   1.189   1.752   1.414 -1.6211  0.9431 -1.4203
 4225SOL     OW24307   0.207   0.367   0.812  0.3835 -0.5663 -0.2028
 4225SOL    HW124308   0.253   0.283   0.807 -0.1192 -0.9013  0.8169
 4225SOL    HW224309   0.117   0.334   0.802  0.6800 -2.1730  2.7004
 4226SOL     OW24310   0.283   4.091  12.903 -0.2005 -0.3579  0.2213
 4226SOL    HW124311   0.320   4.170  12.863  0.0458 -0.4315  0.3036
 4226SOL    HW224312   0.203   4.098  12.851  0.9243  2.6194 -1.0806
 4227SOL     OW24313   1.878   2.971  12.449 -0.5230  0.0007 -0.2939
 4227SOL    HW124314   1.787   2.973  12.479 -0.1375  0.1474  0.8690
 4227SOL    HW224315   1.868   2.988  12.355  1.2986  3.9271  0.2447
 4228SOL     OW24316   1.861   2.705   2.664 -0.0542  0.3204  0.0178
 4228SOL    HW124317   1.918   2.631   2.643 -0.3346  0.0070  0.3694
 4228SOL    HW224318   1.785   2.652   2.689 -0.1288  0.6819  0.5631
 4229SOL     OW24319   0.595   0.293   7.511 -0.2870  0.3527  0.1006
 4229SOL    HW124320   0.576   0.360   7.576  0.3390  1.8449 -1.2551
 4229SOL    HW224321   0.635   0.347   7.443 -2.3844  0.4989 -1.0211
 4230SOL     OW24322   0.404   1.625  11.374 -0.5115  0.0444 -0.0216
 4230SOL    HW124323   0.334   1.582  11.324 -0.1137  0.3918 -0.8735
 4230SOL    HW224324   0.488   1.585  11.352  0.6511  1.9102  1.1037
 4231SOL     OW24325   2.470   2.620   4.546 -0.1224  0.3085 -0.0615
 4231SOL    HW124326   2.564   2.606   4.551 -0.0835  0.7135  0.4445
 4231SOL    HW224327   2.436   2.589   4.630  1.7299 -0.0149  0.5682
 4232SOL     OW24328   4.145   1.023   3.395 -0.1974 -0.0827 -0.0683
 4232SOL    HW124329   4.069   1.050   3.446  0.9546 -0.9027  2.0937
 4232SOL    HW224330   4.114   0.946   3.347 -3.0051  1.2728 -0.4206
 4233SOL     OW24331   1.227   3.133  11.483 -0.7749 -0.0359 -0.1074
 4233SOL    HW124332   1.287   3.180  11.540 -0.8348  1.3572 -1.1797
 4233SOL    HW224333   1.219   3.048  11.524 -2.7171 -0.1759 -0.7947
 4234SOL     OW24334   3.523   4.512   9.338 -0.4741  0.0885  0.6802
 4234SOL    HW124335   3.430   4.514   9.314 -0.5890  0.6007  1.1718
 4234SOL    HW224336   3.537   4.422   9.309 -1.9046 -0.5199  1.8887
 4235SOL     OW24337   3.683   1.550   9.578 -0.2361 -0.0002  0.4267
 4235SOL    HW124338   3.764   1.555   9.528 -0.1626  3.0644  0.8535
 4235SOL    HW224339   3.721   1.555   9.666  1.1080  1.5779 -0.2552
 4236SOL     OW24340   2.144   1.926   5.449 -0.1895  0.4474 -0.4832
 4236SOL    HW124341   2.092   1.990   5.400  1.3420  1.5496 -0.6689
 4236SOL    HW224342   2.086   1.904   5.521  0.5790 -2.1200 -0.6523
 4237SOL     OW24343   0.624   2.975   9.302 -0.4904 -0.5929  0.2098
 4237SOL    HW124344   0.660   3.016   9.223 -0.5695  1.6830  1.3679
 4237SOL    HW224345   0.692   2.911   9.324  0.7053  0.4027 -0.5588
 4238SOL     OW24346   4.038   4.198   8.341 -0.8137 -0.0274  0.0356
 4238SOL    HW124347   4.069   4.273   8.393 -0.1114 -1.8924  2.3212
 4238SOL    HW224348   3.966   4.238   8.293 -3.3492 -2.4839  1.8465
 4239SOL     OW24349   4.656   2.248   7.740  0.1684 -0.2867 -0.8491
 4239SOL    HW124350   0.006   2.223   7.715  0.7588  0.6680  0.2864
 4239SOL    HW224351   4.614   2.162   7.739 -1.4554  0.4175  3.5577
 4240SOL     OW24352   2.926   4.144   3.875  0.2143  0.7660  1.1292
 4240SOL    HW124353   2.866   4.071   3.860  0.6355  0.9984 -1.6013
 4240SOL    HW224354   2.914   4.199   3.798  1.1477  0.5870  0.8669
 4241SOL     OW24355   0.772   3.144   3.311 -0.5386 -0.3640 -0.8083
 4241SOL    HW124356   0.767   3.070   3.372 -1.8989 -0.3504 -0.9109
 4241SOL    HW224357   0.856   3.127   3.269  0.3101 -2.2446  1.6149
 4242SOL     OW24358   0.191   2.597  17.708  0.0111 -0.3630 -0.1988
 4242SOL    HW124359   0.170   2.632  17.621  2.9171  0.7516 -0.4524
 4242SOL    HW224360   0.284   2.619  17.715  0.0683 -1.0697  1.2310
 4243SOL     OW24361   4.067   3.171   0.528 -0.3828  0.0631 -0.7900
 4243SOL    HW124362   4.085   3.237   0.461  0.8926 -1.3015 -1.7876
 4243SOL    HW224363   4.075   3.092   0.475  1.7405 -0.7765  0.7793
 4244SOL     OW24364   3.271   2.526  17.034 -0.4145 -0.0103 -0.3014
 4244SOL    HW124365   3.327   2.456  17.000  0.9790  1.1660 -0.4017
 4244SOL    HW224366   3.255   2.566  16.949 -3.0058 -0.9505 -0.2675
 4245SOL     OW24367   0.363   2.968  15.084 -0.0006  0.2703 -0.1711
 4245SOL    HW124368   0.339   3.037  15.145  0.2719 -0.3647  0.6707
 4245SOL    HW224369   0.338   2.892  15.138 -2.0654  1.5099  0.6044
 4246SOL     OW24370   2.727   3.709  12.038 -0.0477 -0.5354  1.0484
 4246SOL    HW124371   2.726   3.613  12.030  0.7483 -0.4677  0.1423
 4246SOL    HW224372   2.816   3.723  12.007 -0.2927 -3.4420 -0.9826
 4247SOL     OW24373   0.409   0.814   3.894 -0.2936 -0.1797 -0.6599
 4247SOL    HW124374   0.490   0.852   3.928  0.7157 -2.4115 -0.5718
 4247SOL    HW224375   0.439   0.738   3.844  0.0418 -2.3354  2.7537
 4248SOL     OW24376   1.547   1.404   8.327 -0.2941  0.4023  0.4180
 4248SOL    HW124377   1.480   1.427   8.391 -0.4206  0.9660  0.0891
 4248SOL    HW224378   1.540   1.461   8.250 -0.3480  0.3302  0.3693
 4249SOL     OW24379   1.994   3.016   8.777  0.5623  0.3290  0.0211
 4249SOL    HW124380   1.899   3.026   8.782  0.5841 -0.0228  1.2493
 4249SOL    HW224381   2.018   2.966   8.856 -2.9543 -0.4549  0.6111
 4250SOL     OW24382   0.090   0.792   6.819 -0.4960  0.5902  0.3133
 4250SOL    HW124383   0.146   0.727   6.777 -0.2594  0.3743  0.9692
 4250SOL    HW224384   0.005   0.773   6.780 -0.5306 -2.2436  1.8151
 4251SOL     OW24385   3.775   4.131   4.849  0.0237 -0.7921  0.2765
 4251SOL    HW124386   3.826   4.152   4.927  1.3803 -1.5676 -0.4008
 4251SOL    HW224387   3.691   4.173   4.867 -0.1738 -0.3418 -1.6721
 4252SOL     OW24388   0.339   0.185   7.895  0.2316 -0.1009 -0.5481
 4252SOL    HW124389   0.340   0.146   7.983  0.7250  0.0698 -0.4796
 4252SOL    HW224390   0.245   0.175   7.879  0.2353  0.3874 -0.8654
 4253SOL     OW24391   1.113   3.762   7.321 -0.3298 -0.8682  0.3672
 4253SOL    HW124392   1.116   3.857   7.310  1.6583 -0.7902  1.4946
 4253SOL    HW224393   1.029   3.759   7.365 -0.8535  1.2843 -0.4719
 4254SOL     OW24394   1.546   3.623   9.688  0.2119  0.4106 -0.2576
 4254SOL    HW124395   1.577   3.680   9.617  0.1141  0.0999 -0.5542
 4254SOL    HW224396   1.471   3.674   9.717  1.1125 -0.6154  3.8871
 4255SOL     OW24397   0.391   1.157   4.359  0.2538 -0.2176  0.3637
 4255SOL    HW124398   0.327   1.203   4.413  1.2161  0.7694  0.6567
 4255SOL    HW224399   0.366   1.064   4.358 -2.4138  0.4942  0.3375
 4256SOL     OW24400   0.626   1.959  16.343  0.3586  0.1158 -0.2969
 4256SOL    HW124401   0.616   1.986  16.434  1.6577  0.9148 -0.3842
 4256SOL    HW224402   0.640   2.044  16.301  0.9914  0.0061 -0.3125
 4257SOL     OW24403   1.262   3.375   8.744 -0.1115 -0.7707  0.6878
 4257SOL    HW124404   1.348   3.376   8.785  0.7345 -0.9030 -1.0909
 4257SOL    HW224405   1.212   3.340   8.818 -1.2364  1.3690  0.9528
 4258SOL     OW24406   0.508   2.694   1.040 -0.6737 -0.1394  0.2307
 4258SOL    HW124407   0.494   2.600   1.034 -0.7189 -0.0275 -1.5004
 4258SOL    HW224408   0.592   2.702   1.087  0.2587 -0.5542 -1.3779
 4259SOL     OW24409   3.637   0.351   6.316 -0.0881  0.1964  0.1511
 4259SOL    HW124410   3.598   0.318   6.397  2.2980 -4.3089 -0.5338
 4259SOL    HW224411   3.725   0.360   6.353 -0.0923  1.4836 -0.1769
 4260SOL     OW24412   2.867   2.165   5.227  0.2523  0.1755  0.0345
 4260SOL    HW124413   2.810   2.093   5.255  1.8996 -1.0975  0.1706
 4260SOL    HW224414   2.817   2.245   5.240  0.6928  0.6455 -1.1227
 4261SOL     OW24415   0.604   2.141  12.127 -0.1430 -0.2562 -0.2270
 4261SOL    HW124416   0.514   2.147  12.159 -0.3933  2.1296 -1.3996
 4261SOL    HW224417   0.638   2.220  12.169  1.3883 -1.0980  0.1480
 4262SOL     OW24418   4.432   4.653   4.682 -0.3241 -0.0384  0.6728
 4262SOL    HW124419   4.354   4.629   4.732 -1.9305  4.6502  0.4055
 4262SOL    HW224420   4.464   4.734   4.723 -2.0096  0.8928  0.1429
 4263SOL     OW24421   1.972   0.434   9.734  0.5777 -0.6593 -0.0304
 4263SOL    HW124422   1.924   0.457   9.814  0.3846  0.7426 -0.5504
 4263SOL    HW224423   2.063   0.436   9.762 -0.0336  0.1788  1.9355
 4264SOL     OW24424   0.644   1.108  14.969  0.1223 -0.4393  0.3298
 4264SOL    HW124425   0.604   1.032  15.012  1.2303 -1.7681 -0.9793
 4264SOL    HW224426   0.577   1.170  14.997  0.6696 -0.5869  1.9683
 4265SOL     OW24427   2.633   4.368   2.732 -0.1944 -0.0183  0.0283
 4265SOL    HW124428   2.588   4.310   2.670  2.4186 -2.1245  0.0933
 4265SOL    HW224429   2.587   4.347   2.813 -1.7673  1.5129 -0.4617
 4266SOL     OW24430   1.516   3.770   3.752  0.0160 -0.5374 -0.1350
 4266SOL    HW124431   1.571   3.692   3.750 -0.6152 -1.0123  1.1221
 4266SOL    HW224432   1.445   3.735   3.807  0.2611  2.8654  2.3631
 4267SOL     OW24433   3.422   0.141  17.273  0.1513  0.1765 -0.2899
 4267SOL    HW124434   3.477   0.157  17.349  0.8415 -2.4506 -0.2315
 4267SOL    HW224435   3.331   0.147  17.303  0.4205 -1.0120  0.7486
 4268SOL     OW24436   3.167   1.778   8.229 -0.0489 -0.0927 -0.0841
 4268SOL    HW124437   3.201   1.773   8.319 -1.4222  0.6319  0.4739
 4268SOL    HW224438   3.245   1.761   8.176  0.7536  1.4525  0.5840
 4269SOL     OW24439   3.025   0.646  13.534  0.4711 -0.1301  0.4119
 4269SOL    HW124440   2.991   0.733  13.511 -0.5845 -0.4806  0.6351
 4269SOL    HW224441   3.116   0.664  13.558 -0.1881  2.0183  1.3244
 4270SOL     OW24442   2.412   2.022  13.494 -0.1129 -0.0724 -0.0462
 4270SOL    HW124443   2.397   1.936  13.533 -1.3010 -0.3349 -1.0912
 4270SOL    HW224444   2.435   2.080  13.567 -2.6062  0.1082  0.5843
 4271SOL     OW24445   0.396   2.151   6.106 -0.3178  0.3861 -0.5673
 4271SOL    HW124446   0.460   2.088   6.074  0.2581  0.9416 -0.5210
 4271SOL    HW224447   0.326   2.092   6.135  1.3027 -2.1665 -1.8629
 4272SOL     OW24448   0.535   4.699   8.774 -0.0481  0.4053  0.1642
 4272SOL    HW124449   0.565   4.610   8.756 -1.7724 -0.3149  0.8732
 4272SOL    HW224450   0.618   4.739   8.748 -0.0395 -0.5892 -1.3245
 4273SOL     OW24451   3.506   1.625  16.859 -0.0729  0.0225 -0.4758
 4273SOL    HW124452   3.585   1.642  16.911  0.5489 -1.8717 -0.7786
 4273SOL    HW224453   3.545   1.653  16.776 -0.1536  1.2145 -0.1038
 4274SOL     OW24454   2.046   0.242  16.789  0.2602  0.5559  0.7267
 4274SOL    HW124455   1.959   0.262  16.753 -1.1193  0.4806  4.0681
 4274SOL    HW224456   2.103   0.259  16.713 -0.3111  0.8676  0.3611
 4275SOL     OW24457   2.646   2.669   2.763 -0.0453  0.4032 -0.1422
 4275SOL    HW124458   2.726   2.678   2.712  0.8042 -0.4802  1.0417
 4275SOL    HW224459   2.655   2.582   2.803  0.6286  0.6417  0.2139
 4276SOL     OW24460   1.522   4.178   2.658 -0.0669 -0.0461  0.1286
 4276SOL    HW124461   1.611   4.195   2.689 -0.0540  1.3555 -0.6390
 4276SOL    HW224462   1.514   4.091   2.696 -2.0776  0.2528  0.3697
 4277SOL     OW24463   0.861   0.358   4.304  0.5346  0.4541  0.0918
 4277SOL    HW124464   0.814   0.354   4.221 -0.6755 -2.9321  0.9124
 4277SOL    HW224465   0.937   0.303   4.281  0.6050  1.1256 -1.2272
 4278SOL     OW24466   2.234   2.949  12.733 -0.1750  0.2686  0.5631
 4278SOL    HW124467   2.270   3.036  12.751  3.1839 -0.9537 -0.3661
 4278SOL    HW224468   2.307   2.900  12.696 -0.4637 -1.4923  2.2884
 4279SOL     OW24469   1.044   2.162  16.314  0.4110  0.1011  0.0634
 4279SOL    HW124470   1.124   2.213  16.326  0.3452  0.9125 -2.9322
 4279SOL    HW224471   0.994   2.205  16.244 -0.3105  0.1834  0.6263
 4280SOL     OW24472   3.844   2.635   7.482  0.6204 -0.3321  0.5342
 4280SOL    HW124473   3.760   2.605   7.517  0.8748 -0.7657  0.7727
 4280SOL    HW224474   3.843   2.728   7.504 -0.3220 -0.2305  0.0691
 4281SOL     OW24475   0.102   2.782  15.986  0.0925 -0.3430 -0.7467
 4281SOL    HW124476   0.043   2.834  15.930  2.4697 -0.9185 -3.8285
 4281SOL    HW224477   0.099   2.825  16.071  0.3844 -1.7310 -0.0557
 4282SOL     OW24478   1.028   3.284   9.231  0.0339  0.1914  0.4982
 4282SOL    HW124479   1.100   3.243   9.279 -0.2407 -0.8995 -0.0151
 4282SOL    HW224480   1.022   3.363   9.284 -1.0254 -0.1447  0.8719
 4283SOL     OW24481   0.465   2.896  12.344  0.5086  0.3294  0.2403
 4283SOL    HW124482   0.384   2.947  12.344  0.4385  0.2196  0.2082
 4283SOL    HW224483   0.458   2.857  12.431  0.9875  1.8367  0.9417
 4284SOL     OW24484   0.918   0.328  14.702 -0.4019  0.1271 -0.0780
 4284SOL    HW124485   0.954   0.364  14.621 -0.1248 -0.8895 -0.4068
 4284SOL    HW224486   0.992   0.342  14.761 -1.4515  0.6552  1.1140
 4285SOL     OW24487   1.808   4.038   0.272  0.1637  0.4449 -0.0606
 4285SOL    HW124488   1.786   4.089   0.350  0.0191 -1.3471  1.0664
 4285SOL    HW224489   1.722   4.015   0.239  0.3674 -0.3475 -0.0420
 4286SOL     OW24490   2.179   0.147   6.846  0.3061  0.2156 -0.1134
 4286SOL    HW124491   2.124   0.212   6.889  0.6633  1.1465 -1.0626
 4286SOL    HW224492   2.258   0.157   6.900 -0.0918 -3.2868  1.1175
 4287SOL     OW24493   3.405   2.013   4.759 -0.1980 -0.2211 -0.3335
 4287SOL    HW124494   3.328   1.961   4.735 -0.9586  0.5563  0.3893
 4287SOL    HW224495   3.449   1.948   4.815  0.5907 -1.1687 -2.0696
 4288SOL     OW24496   3.815   3.438   4.210  0.2565 -0.2754 -0.1371
 4288SOL    HW124497   3.788   3.529   4.226 -1.7531 -0.7142 -1.0988
 4288SOL    HW224498   3.771   3.400   4.286  0.8565 -0.1071  0.3028
 4289SOL     OW24499   4.138   1.061   5.586  1.0407  0.0714 -0.2935
 4289SOL    HW124500   4.208   1.020   5.638 -0.7808 -1.7890  0.7143
 4289SOL    HW224501   4.175   1.148   5.571  2.2908 -0.8692 -2.6238
 4290SOL     OW24502   0.979   0.776   6.528 -0.4482 -0.5009 -0.0107
 4290SOL    HW124503   0.978   0.865   6.494 -0.6933  0.1673  1.7699
 4290SOL    HW224504   1.022   0.779   6.613 -0.7748 -2.6042  0.2358
 4291SOL     OW24505   3.514   3.327   7.367  0.1377  0.0977 -0.2770
 4291SOL    HW124506   3.471   3.321   7.452  1.1449  1.0322  0.2966
 4291SOL    HW224507   3.517   3.236   7.339  2.5615  0.4368 -1.1053
 4292SOL     OW24508   2.958   2.712   4.515  0.3585 -0.3099 -0.5129
 4292SOL    HW124509   2.886   2.649   4.509  0.3991 -0.2589 -1.6572
 4292SOL    HW224510   2.918   2.795   4.490  2.0129  0.6228 -0.0511
 4293SOL     OW24511   4.371   0.903  17.433 -0.6650  0.2717 -0.0083
 4293SOL    HW124512   4.328   0.986  17.448 -0.1773  0.5439 -0.1150
 4293SOL    HW224513   4.374   0.868  17.523  2.6438 -2.1790 -1.0642
 4294SOL     OW24514   1.998   1.749   6.071  0.1656  0.1188  0.3771
 4294SOL    HW124515   2.041   1.736   6.155  2.1385  3.1534 -0.1640
 4294SOL    HW224516   2.057   1.713   6.005 -1.1309  0.1631 -0.8155
 4295SOL     OW24517   1.080   1.087   0.941  0.6332  1.0117 -0.0540
 4295SOL    HW124518   1.089   0.999   0.976 -2.0103  1.4724  1.7943
 4295SOL    HW224519   1.019   1.127   1.003 -0.0316  1.3013 -0.8919
 4296SOL     OW24520   1.978   3.970   4.577  0.4617 -0.3913 -0.2585
 4296SOL    HW124521   2.055   3.960   4.522  0.4389 -2.6003  0.0909
 4296SOL    HW224522   1.984   4.050   4.630 -2.4842 -0.7811  0.6945
 4297SOL     OW24523   3.433   3.272   1.933  0.1629 -0.1411 -0.5580
 4297SOL    HW124524   3.362   3.209   1.931 -0.4343  0.5077  0.4598
 4297SOL    HW224525   3.480   3.251   1.852  1.2279  0.3143 -0.0632
 4298SOL     OW24526   2.288   4.591  12.722 -0.2767  0.1591  0.1056
 4298SOL    HW124527   2.310   4.659  12.658  1.9827  0.1111  0.8084
 4298SOL    HW224528   2.217   4.551  12.672  0.3568 -2.2051  1.0985
 4299SOL     OW24529   4.597   0.464   8.136  0.0412 -0.1401  0.1297
 4299SOL    HW124530   4.604   0.376   8.098 -0.0757 -0.2882  0.4484
 4299SOL    HW224531   4.631   0.442   8.223 -0.8438  1.5070  0.9041
 4300SOL     OW24532   4.208   4.445   2.716 -0.3456  0.3409 -0.4989
 4300SOL    HW124533   4.187   4.438   2.623 -2.0945 -3.2616  0.1505
 4300SOL    HW224534   4.237   4.536   2.717 -0.6773  0.4535 -1.0967
 4301SOL     OW24535   3.880   0.617   8.808 -0.0936  0.4835 -0.1323
 4301SOL    HW124536   3.811   0.565   8.848  1.7428 -1.3715  0.6368
 4301SOL    HW224537   3.851   0.703   8.840  0.1852  0.3275  0.5354
 4302SOL     OW24538   1.265   1.002  15.791 -0.4158  0.5612  0.8457
 4302SOL    HW124539   1.253   1.087  15.749  0.9193 -0.3800 -1.4475
 4302SOL    HW224540   1.248   0.950  15.713  1.1848 -0.4011  1.1304
 4303SOL     OW24541   2.344   4.110  11.949 -0.3835 -0.1712  0.7334
 4303SOL    HW124542   2.411   4.044  11.931 -0.8010 -0.4393  0.1751
 4303SOL    HW224543   2.292   4.117  11.869  2.4542 -0.6943 -1.1523
 4304SOL     OW24544   0.975   4.652   5.877  0.1236 -0.3791  0.0188
 4304SOL    HW124545   1.066   4.678   5.884 -0.2321  0.8164  0.2340
 4304SOL    HW224546   0.963   4.673   5.785  1.6714 -0.5050 -0.1966
 4305SOL     OW24547   2.594   3.233   5.875 -0.3946 -0.0670  0.3676
 4305SOL    HW124548   2.680   3.270   5.895 -0.3673 -0.7495  1.5274
 4305SOL    HW224549   2.530   3.294   5.912  0.4317  1.3667 -0.5859
 4306SOL     OW24550   2.877   2.358  15.662 -0.2971 -0.8114 -0.0142
 4306SOL    HW124551   2.839   2.367  15.575 -0.1848  0.2277  0.0501
 4306SOL    HW224552   2.873   2.262  15.659 -0.5742 -0.7352 -2.1142
 4307SOL     OW24553   2.840   1.473   8.519  0.4896 -0.3591  0.0890
 4307SOL    HW124554   2.836   1.463   8.614 -2.1770 -2.3708 -0.2301
 4307SOL    HW224555   2.933   1.458   8.507  0.4961 -0.4527  0.2634
 4308SOL     OW24556   2.091   1.070   7.630 -0.1496 -0.0664  0.3770
 4308SOL    HW124557   2.124   1.062   7.719 -0.2502 -0.2248  0.4011
 4308SOL    HW224558   2.170   1.088   7.579  0.0031 -1.4489  0.1239
 4309SOL     OW24559   2.406   0.692   3.779 -0.3399  0.6230 -0.5821
 4309SOL    HW124560   2.455   0.628   3.728  0.1468  1.4850 -1.1965
 4309SOL    HW224561   2.354   0.637   3.838 -1.0217  1.2078 -0.6272
 4310SOL     OW24562   0.564   1.883   9.229  0.2973 -0.2224 -0.2411
 4310SOL    HW124563   0.473   1.854   9.232  0.4937 -0.7683  0.2969
 4310SOL    HW224564   0.583   1.882   9.135  0.8477 -1.5841 -0.1125
 4311SOL     OW24565   1.486   3.810   5.727 -0.3061 -0.2860 -0.3344
 4311SOL    HW124566   1.414   3.825   5.789  2.1907 -0.4633  2.5854
 4311SOL    HW224567   1.463   3.720   5.703  1.3445 -1.2394  1.6888
 4312SOL     OW24568   1.867   2.164   8.441  0.0626  0.1738 -0.3692
 4312SOL    HW124569   1.946   2.117   8.414 -0.4585  0.1661 -1.8631
 4312SOL    HW224570   1.824   2.086   8.476 -0.2281  0.6690  0.3689
 4313SOL     OW24571   2.646   1.192   5.752 -0.1080 -0.5618 -0.4049
 4313SOL    HW124572   2.724   1.177   5.805  1.0697  1.3272 -1.5887
 4313SOL    HW224573   2.578   1.226   5.809  1.1072  1.0902  0.0505
 4314SOL     OW24574   4.648   3.886   7.240 -0.1245 -0.3384 -0.4309
 4314SOL    HW124575   4.618   3.865   7.152  0.5987 -0.0444 -0.7470
 4314SOL    HW224576   4.598   3.831   7.300  0.4124 -1.0700 -0.6555
 4315SOL     OW24577   2.381   1.053   6.631  0.1577  0.0397 -0.2329
 4315SOL    HW124578   2.439   1.112   6.584  1.0189 -0.6779 -0.0780
 4315SOL    HW224579   2.442   0.980   6.642  0.7313  0.1741 -2.5894
 4316SOL     OW24580   3.660   0.037   8.895  0.4011  0.2080 -0.0612
 4316SOL    HW124581   3.665   0.070   8.984  1.6793  2.4070 -0.9557
 4316SOL    HW224582   3.630   4.688   8.919 -0.9326  0.5956 -0.3250
 4317SOL     OW24583   2.088   3.842  12.283 -0.2564  0.2212  0.3336
 4317SOL    HW124584   2.172   3.887  12.299  0.2308 -0.8625  0.7956
 4317SOL    HW224585   2.050   3.835  12.371  0.1249  0.7227  0.5385
 4318SOL     OW24586   1.188   0.109   5.509  0.4395  0.2344  1.0628
 4318SOL    HW124587   1.176   0.015   5.493 -1.8225  0.6566  0.2826
 4318SOL    HW224588   1.129   0.153   5.449 -1.4374 -1.4012  1.6814
 4319SOL     OW24589   1.674   2.213  13.518  0.4914 -0.2921  0.0233
 4319SOL    HW124590   1.592   2.220  13.468 -0.2111  0.4524  1.2824
 4319SOL    HW224591   1.696   2.121  13.528  2.8726  0.1094 -1.4258
 4320SOL     OW24592   1.956   0.115  13.343  0.2659  0.5569  0.2328
 4320SOL    HW124593   2.040   0.114  13.388  0.4583  2.3406 -0.0622
 4320SOL    HW224594   1.955   0.210  13.331  1.0143  0.2596 -2.2183
 4321SOL     OW24595   1.812   4.142   5.061  0.2605  0.0389  0.0194
 4321SOL    HW124596   1.836   4.066   5.114 -0.0439 -0.1614 -0.1269
 4321SOL    HW224597   1.719   4.143   5.084  0.1437 -2.7597 -0.3507
 4322SOL     OW24598   2.024   2.818   6.364 -0.0910  0.6197 -0.3031
 4322SOL    HW124599   2.088   2.761   6.407 -2.9192  0.6497  3.8634
 4322SOL    HW224600   1.945   2.769   6.385 -0.2874  1.6065  1.2211
 4323SOL     OW24601   3.015   2.683  12.510 -0.4289  0.1031  0.1870
 4323SOL    HW124602   3.032   2.774  12.532 -0.5741  0.2251 -0.1873
 4323SOL    HW224603   2.987   2.651  12.596  0.1771 -0.4734  0.1721
 4324SOL     OW24604   2.007   1.321   2.028  0.5071 -0.3258 -0.2189
 4324SOL    HW124605   2.020   1.246   2.085 -0.9596 -1.3316 -1.2232
 4324SOL    HW224606   1.947   1.286   1.962  2.1454 -0.6779 -1.5339
 4325SOL     OW24607   0.460   0.082   6.376 -0.1716  0.0459 -0.5574
 4325SOL    HW124608   0.463   4.733   6.414  0.8246  0.3885  0.1324
 4325SOL    HW224609   0.498   0.070   6.289 -0.4907  0.8432 -0.8090
 4326SOL     OW24610   2.288   0.771   5.291 -0.0317 -0.2390  0.6621
 4326SOL    HW124611   2.333   0.797   5.372  0.1650  0.1186  0.4409
 4326SOL    HW224612   2.200   0.807   5.304  0.2770  0.8788 -0.2816
 4327SOL     OW24613   2.970   1.144   1.496  0.0845  1.0182 -0.1937
 4327SOL    HW124614   2.983   1.050   1.483 -1.3905  1.1092 -2.3079
 4327SOL    HW224615   2.917   1.143   1.576  1.7686 -1.0404  0.9002
 4328SOL     OW24616   1.264   0.267   8.566  0.3048  0.4841  0.1276
 4328SOL    HW124617   1.220   0.344   8.601 -3.3935 -1.0628 -1.1477
 4328SOL    HW224618   1.356   0.293   8.571  0.5947 -0.6021  0.4970
 4329SOL     OW24619   1.971   4.600   5.817  0.3090 -0.4778 -0.2814
 4329SOL    HW124620   1.991   4.582   5.725 -0.1102  2.5043 -0.9371
 4329SOL    HW224621   1.889   4.551   5.828  0.4285 -0.7546 -0.6351
 4330SOL     OW24622   4.603   1.943   2.698  0.1837  0.1504 -0.0956
 4330SOL    HW124623   4.557   2.024   2.718 -0.8562 -0.5007  0.1345
 4330SOL    HW224624   4.630   1.906   2.783 -0.8650 -0.0094  0.1651
 4331SOL     OW24625   0.566   2.639   4.680 -0.3560 -0.1207 -0.7116
 4331SOL    HW124626   0.491   2.589   4.647 -1.9274  0.2338  2.3061
 4331SOL    HW224627   0.617   2.654   4.600  1.2596  0.5250  0.4350
 4332SOL     OW24628   2.087   2.807   4.012 -0.0854  0.2023  0.6511
 4332SOL    HW124629   2.037   2.832   3.934  0.5560 -2.3895 -0.5986
 4332SOL    HW224630   2.143   2.748   3.961 -1.1716  0.0522 -0.3748
 4333SOL     OW24631   4.706   3.750   8.063  0.0254  0.2818 -0.2825
 4333SOL    HW124632   4.629   3.698   8.040 -0.4748  1.0133 -0.2864
 4333SOL    HW224633   4.671   3.831   8.099  1.7073  0.6042  0.6221
 4334SOL     OW24634   0.625   1.113   3.058  0.0989 -0.1643  0.1269
 4334SOL    HW124635   0.550   1.057   3.077 -0.1797 -0.3993 -1.6750
 4334SOL    HW224636   0.660   1.076   2.977 -2.2261 -0.8943 -0.5437
 4335SOL     OW24637   2.064   1.993  16.994 -0.0620  0.0190 -0.5823
 4335SOL    HW124638   2.105   1.906  16.998 -2.7279 -1.1599  1.8253
 4335SOL    HW224639   2.130   2.035  17.049 -0.2018 -3.0528  1.9787
 4336SOL     OW24640   1.602   1.890   8.275 -0.0021 -0.8958 -0.6458
 4336SOL    HW124641   1.544   1.966   8.279  0.2113 -0.6531 -2.4644
 4336SOL    HW224642   1.634   1.876   8.365 -1.9474 -2.3131 -0.1734
 4337SOL     OW24643   2.271   4.171   3.849 -0.2128 -0.0895 -0.7538
 4337SOL    HW124644   2.299   4.107   3.784 -0.1963 -3.2426  2.3703
 4337SOL    HW224645   2.248   4.242   3.789  1.6590  0.6067 -0.6451
 4338SOL     OW24646   3.791   1.872  16.272 -0.4051  0.6793 -0.0851
 4338SOL    HW124647   3.773   1.966  16.269 -5.5543 -0.3652 -0.5547
 4338SOL    HW224648   3.710   1.834  16.305  0.1091  0.1037  0.5150
 4339SOL     OW24649   0.335   1.209   8.219 -0.2206 -0.2549 -0.1576
 4339SOL    HW124650   0.409   1.269   8.213  0.9577 -1.2911  3.8027
 4339SOL    HW224651   0.292   1.201   8.134 -3.3320  1.3713  1.2596
 4340SOL     OW24652   2.566   3.513   8.497 -0.5543 -0.2937 -0.4540
 4340SOL    HW124653   2.516   3.592   8.519 -1.3200 -0.1922 -2.5712
 4340SOL    HW224654   2.635   3.550   8.442 -0.6677  0.6034 -0.0078
 4341SOL     OW24655   1.572   3.596   8.499  0.4221  0.0738 -1.0607
 4341SOL    HW124656   1.585   3.538   8.425  0.9252 -1.1949  0.0128
 4341SOL    HW224657   1.644   3.562   8.553  1.2764 -1.5229 -3.2303
 4342SOL     OW24658   0.700   2.629   6.763  0.0438 -0.4714  0.0056
 4342SOL    HW124659   0.639   2.559   6.741  0.5839 -1.3037  1.1509
 4342SOL    HW224660   0.658   2.642   6.848  0.4321  0.6232  0.0283
 4343SOL     OW24661   0.433   3.828   1.033 -0.2469 -0.0094  0.4754
 4343SOL    HW124662   0.463   3.803   1.121  2.0348  1.0208  0.0052
 4343SOL    HW224663   0.516   3.833   0.985 -0.5580  1.2461  0.0669
 4344SOL     OW24664   2.570   1.595   7.202  0.7432  0.7574  0.2204
 4344SOL    HW124665   2.541   1.611   7.112 -2.1643 -0.4000  0.9460
 4344SOL    HW224666   2.519   1.665   7.244 -2.7226 -1.3642 -0.4620
 4345SOL     OW24667   1.643   1.761   6.239  0.3053  0.0803 -0.0816
 4345SOL    HW124668   1.592   1.717   6.308  0.0012  1.5054  0.6086
 4345SOL    HW224669   1.683   1.828   6.295 -0.4618 -0.1729  0.7750
 4346SOL     OW24670   1.484   0.677   9.735  0.0243 -0.4231 -0.0813
 4346SOL    HW124671   1.403   0.727   9.725  0.2875  0.0767  0.2585
 4346SOL    HW224672   1.513   0.668   9.644 -1.4575 -0.4694 -0.5597
 4347SOL     OW24673   2.239   1.265   8.448  0.2960  0.5860 -0.2744
 4347SOL    HW124674   2.164   1.320   8.425 -0.8290 -1.5217 -1.5432
 4347SOL    HW224675   2.275   1.313   8.523  1.8134  2.3632 -2.0999
 4348SOL     OW24676   0.553   2.587   9.801 -0.1960  0.0540  0.2263
 4348SOL    HW124677   0.458   2.584   9.814 -0.1115 -1.6379  0.4094
 4348SOL    HW224678   0.552   2.679   9.775  3.2753 -0.2129 -0.7663
 4349SOL     OW24679   3.347   1.699  14.885  0.2335 -0.1039  0.2962
 4349SOL    HW124680   3.378   1.789  14.872  0.6874 -0.4835 -1.2437
 4349SOL    HW224681   3.391   1.652  14.814  3.9187 -1.5887  3.6093
 4350SOL     OW24682   3.373   2.756   1.921 -0.1286 -0.5124 -0.5748
 4350SOL    HW124683   3.305   2.803   1.874 -0.4674  0.5944  1.0526
 4350SOL    HW224684   3.314   2.737   1.993 -2.6619  1.3020 -2.1742
 4351SOL     OW24685   0.929   2.715   3.367 -0.5016  0.4338 -0.0570
 4351SOL    HW124686   0.900   2.801   3.336 -2.6877 -0.3116 -0.0529
 4351SOL    HW224687   0.950   2.741   3.457  0.1230  1.5415 -0.5183
 4352SOL     OW24688   2.230   1.295   3.941 -1.2118  0.2868 -0.6064
 4352SOL    HW124689   2.290   1.221   3.929 -1.2519 -0.1112  1.6203
 4352SOL    HW224690   2.209   1.297   4.035  0.2025  1.4538 -0.3105
 4353SOL     OW24691   3.262   2.041   7.610 -0.3630 -0.4673 -0.4134
 4353SOL    HW124692   3.336   2.098   7.594 -0.6823 -0.0073 -0.2609
 4353SOL    HW224693   3.297   1.954   7.592 -1.8867 -1.2755  0.4601
 4354SOL     OW24694   3.699   0.594   4.355  0.7238  0.0381 -0.7043
 4354SOL    HW124695   3.621   0.630   4.314  1.3242  3.1889  0.8798
 4354SOL    HW224696   3.734   0.673   4.397 -0.9227  0.7939 -0.7551
 4355SOL     OW24697   2.054   2.251   5.484 -0.1137 -0.3742  0.4052
 4355SOL    HW124698   1.966   2.230   5.516 -0.3152  0.6037  0.4957
 4355SOL    HW224699   2.054   2.205   5.400 -2.4359 -0.5041  0.4708
 4356SOL     OW24700   4.200   0.021   7.742 -0.0830  0.3848 -0.0665
 4356SOL    HW124701   4.145   0.025   7.820 -0.5066  0.1631 -0.3539
 4356SOL    HW224702   4.244   0.106   7.747 -0.2918  0.5650 -1.4881
 4357SOL     OW24703   0.243   2.906   1.850  0.2229 -0.0222 -0.3947
 4357SOL    HW124704   0.226   2.817   1.819  0.3783 -0.0107 -0.5131
 4357SOL    HW224705   0.160   2.949   1.831 -0.5556 -0.3922  2.1174
 4358SOL     OW24706   1.115   2.086   8.302 -0.2340 -0.3267  0.6592
 4358SOL    HW124707   1.109   2.152   8.233  2.6528 -0.8967 -0.1444
 4358SOL    HW224708   1.045   2.025   8.279 -1.4487  0.7428  1.5622
 4359SOL     OW24709   3.799   4.578   9.686  0.5519  0.1169 -0.3263
 4359SOL    HW124710   3.869   4.614   9.741 -0.9310  1.5541  0.6069
 4359SOL    HW224711   3.788   4.489   9.718  1.2017 -0.1346 -0.8007
 4360SOL     OW24712   3.314   3.587   8.670  0.1242  0.2408 -0.5093
 4360SOL    HW124713   3.351   3.510   8.627 -0.0011  0.9343 -1.8457
 4360SOL    HW224714   3.397   3.625   8.699 -0.2931  0.6059  0.1843
 4361SOL     OW24715   1.261   4.355   2.927  0.4161 -0.0383 -0.2370
 4361SOL    HW124716   1.340   4.314   2.963 -0.0640 -0.7907 -0.0536
 4361SOL    HW224717   1.209   4.386   3.001  1.0335  1.1486 -0.3076
 4362SOL     OW24718   1.363   2.387   5.563 -0.4090 -0.0281 -0.6581
 4362SOL    HW124719   1.309   2.463   5.541 -1.7998 -0.5730  0.8237
 4362SOL    HW224720   1.395   2.397   5.653 -2.0997  1.4931 -0.2403
 4363SOL     OW24721   3.883   2.715  17.442  0.2339 -0.0753 -0.8389
 4363SOL    HW124722   3.822   2.669  17.500 -2.9396  1.7923 -2.7024
 4363SOL    HW224723   3.855   2.667  17.364 -1.1411  0.4477 -0.6583
 4364SOL     OW24724   3.947   0.324   1.362 -0.2396 -0.2825  1.0967
 4364SOL    HW124725   3.864   0.348   1.320  0.5729  1.0664  0.2206
 4364SOL    HW224726   3.978   0.285   1.280 -1.8252  1.6337 -0.4194
 4365SOL     OW24727   2.417   1.222   6.015 -0.1175 -0.2210 -0.6547
 4365SOL    HW124728   2.479   1.263   6.074 -0.7488 -0.4059  0.1481
 4365SOL    HW224729   2.343   1.233   6.076  0.8386 -0.6201  0.5775
 4366SOL     OW24730   1.899   2.207  10.971 -0.0274  0.0680 -0.3231
 4366SOL    HW124731   1.966   2.160  11.020  0.2567  1.4112  0.5634
 4366SOL    HW224732   1.834   2.215  11.041 -1.2462 -2.0695 -1.2046
 4367SOL     OW24733   0.754   4.347   4.494  0.1168 -0.0437  0.1521
 4367SOL    HW124734   0.738   4.320   4.404  2.7319  1.3858 -0.7248
 4367SOL    HW224735   0.662   4.360   4.518 -0.3238 -0.4864 -1.3283
 4368SOL     OW24736   0.720   3.420   6.202  0.1611  0.1976 -0.4843
 4368SOL    HW124737   0.709   3.330   6.232  1.1913  0.0707 -0.4924
 4368SOL    HW224738   0.753   3.402   6.114 -3.1676  2.4083 -2.2068
 4369SOL     OW24739   0.488   0.228   4.692 -0.3958 -0.4806 -0.0433
 4369SOL    HW124740   0.527   0.218   4.605 -0.3393  0.5353 -0.1388
 4369SOL    HW224741   0.543   0.299   4.726  0.4406 -0.8278 -0.6643
 4370SOL     OW24742   1.335   4.045   8.274 -0.6644 -0.1098 -0.0857
 4370SOL    HW124743   1.414   4.043   8.329 -1.3898 -1.1218  0.9144
 4370SOL    HW224744   1.282   4.111   8.318  2.2806  2.2582 -0.0750
 4371SOL     OW24745   0.376   2.309   6.768 -0.7032  0.3499  0.3003
 4371SOL    HW124746   0.355   2.402   6.776  0.6918  0.8249 -1.6116
 4371SOL    HW224747   0.320   2.278   6.839  0.0414 -0.9983  0.3026
 4372SOL     OW24748   3.009   1.032   3.786 -0.1807  0.0342  0.0696
 4372SOL    HW124749   3.094   1.029   3.828  1.4545  2.1424 -3.1370
 4372SOL    HW224750   2.981   0.940   3.785  0.7272 -0.2503  1.3038
 4373SOL     OW24751   3.862   1.546   3.638  0.5989 -0.3466  0.3500
 4373SOL    HW124752   3.944   1.595   3.643 -0.1573  0.8673  0.6784
 4373SOL    HW224753   3.831   1.528   3.726 -0.4001 -0.2706  0.0096
 4374SOL     OW24754   2.657   0.376   7.266  0.6566  0.2271  0.1674
 4374SOL    HW124755   2.618   0.382   7.353  1.1714  0.0292  0.4150
 4374SOL    HW224756   2.581   0.355   7.212  1.3037 -2.7074  0.4000
 4375SOL     OW24757   2.746   2.792   4.754 -0.1941 -0.3146  0.0878
 4375SOL    HW124758   2.738   2.706   4.713 -1.1436  0.4306 -1.2782
 4375SOL    HW224759   2.727   2.848   4.679  1.3717 -1.1033 -0.9105
 4376SOL     OW24760   4.184   2.939  17.178  0.2994  0.4087 -0.3494
 4376SOL    HW124761   4.120   3.009  17.185 -1.2985 -1.0122 -0.9860
 4376SOL    HW224762   4.227   2.947  17.093  0.2187  0.8452 -0.3468
 4377SOL     OW24763   3.633   2.488  13.748  0.3766 -0.5493 -0.1971
 4377SOL    HW124764   3.625   2.490  13.843  1.6987  1.2324 -0.1217
 4377SOL    HW224765   3.541   2.490  13.722 -0.9166 -0.9527  4.2333
 4378SOL     OW24766   0.326   2.829  16.855 -0.1005 -0.2153 -0.0159
 4378SOL    HW124767   0.271   2.805  16.780  1.8343 -1.1058 -1.1549
 4378SOL    HW224768   0.311   2.923  16.869  1.1278  0.2877 -2.0584
 4379SOL     OW24769   0.666   2.966  12.189  0.0542  0.9437  0.0301
 4379SOL    HW124770   0.591   2.919  12.226 -0.0806 -1.1212 -2.8741
 4379SOL    HW224771   0.732   2.898  12.203 -0.7891  0.1801  0.3161
 4380SOL     OW24772   1.748   0.214   4.181  0.2083 -0.5081  0.4542
 4380SOL    HW124773   1.685   0.200   4.252  1.2557  1.0762  1.6924
 4380SOL    HW224774   1.801   0.138   4.204 -2.2718 -2.0880  0.9252
 4381SOL     OW24775   4.164   4.178  11.070  0.5643 -0.0222  0.1013
 4381SOL    HW124776   4.073   4.183  11.101  0.5555  1.5679 -0.1714
 4381SOL    HW224777   4.151   4.174  10.975  3.8655 -1.6842 -0.2817
 4382SOL     OW24778   3.886   0.855   9.328  0.0709  0.8328  0.0746
 4382SOL    HW124779   3.813   0.914   9.345 -1.5210 -1.3140  0.7001
 4382SOL    HW224780   3.873   0.783   9.389  0.6154  0.6995  0.0352
 4383SOL     OW24781   4.710   1.608   9.461  0.1168 -0.1025 -0.7180
 4383SOL    HW124782   0.030   1.550   9.509  1.3610  1.8521  0.1137
 4383SOL    HW224783   4.723   1.570   9.374 -0.5477 -0.6582 -0.5740
 4384SOL     OW24784   3.856   2.924   2.754 -0.0996 -0.3072 -0.0727
 4384SOL    HW124785   3.885   2.884   2.673  4.1128 -0.5912  1.5780
 4384SOL    HW224786   3.932   2.916   2.812  1.8010 -0.3356 -2.6055
 4385SOL     OW24787   1.820   3.677  12.702 -0.3334 -0.2295  0.9146
 4385SOL    HW124788   1.744   3.721  12.739 -0.6216 -0.7451  0.9291
 4385SOL    HW224789   1.789   3.591  12.675  0.8590 -0.2840 -0.2992
 4386SOL     OW24790   3.668   2.660  14.810  0.4450 -0.8258  0.1229
 4386SOL    HW124791   3.578   2.691  14.817  1.2370  1.7142 -0.9952
 4386SOL    HW224792   3.682   2.654  14.904  1.2280 -0.2961  0.0426
 4387SOL     OW24793   3.628   4.079   5.781  0.7511  0.0999  0.3270
 4387SOL    HW124794   3.603   4.161   5.738 -0.4905 -1.8364 -2.6794
 4387SOL    HW224795   3.635   4.018   5.707  0.7470 -0.6820  0.9720
 4388SOL     OW24796   2.693   2.085  14.613  0.1604  0.1244 -0.0721
 4388SOL    HW124797   2.698   1.990  14.611  2.7116  0.2832 -0.9954
 4388SOL    HW224798   2.737   2.106  14.695 -0.5835  0.7722  0.1577
 4389SOL     OW24799   0.213   0.847   5.190 -0.0337  0.5751 -0.5326
 4389SOL    HW124800   0.204   0.942   5.189  1.9089  0.7595 -1.1035
 4389SOL    HW224801   0.160   0.820   5.116  0.4980  0.3344 -0.8263
 4390SOL     OW24802   3.977   1.810   5.635  0.0950  0.1246 -0.3465
 4390SOL    HW124803   3.966   1.894   5.590 -0.5989 -0.5298 -1.4063
 4390SOL    HW224804   3.885   1.794   5.658  0.2866 -0.2347  0.1899
 4391SOL     OW24805   3.386   3.377   4.453  0.1576 -0.1331  0.2866
 4391SOL    HW124806   3.311   3.345   4.402  2.2524  0.0816 -2.9670
 4391SOL    HW224807   3.380   3.462   4.410  1.3460 -0.4246 -0.4651
 4392SOL     OW24808   0.044   2.741  12.977 -0.3327  0.0476 -0.5595
 4392SOL    HW124809   0.137   2.730  12.998 -0.3445 -1.0049 -1.0585
 4392SOL    HW224810   0.039   2.828  12.937 -1.0459  1.3428  2.3158
 4393SOL     OW24811   0.738   3.629  11.183  0.3568  0.1819  0.5957
 4393SOL    HW124812   0.830   3.604  11.193 -0.1432 -1.5947  0.7504
 4393SOL    HW224813   0.714   3.685  11.258 -1.9127 -1.0061  0.7493
 4394SOL     OW24814   1.223   1.753   6.672 -0.2043  0.4276  0.1744
 4394SOL    HW124815   1.175   1.834   6.655  2.9018  2.4884  1.2645
 4394SOL    HW224816   1.254   1.723   6.586  2.0540  2.2149  0.3734
 4395SOL     OW24817   3.900   4.413   5.223 -0.0678  0.3476  0.1213
 4395SOL    HW124818   3.986   4.456   5.220 -0.2849  0.8511  0.9742
 4395SOL    HW224819   3.922   4.357   5.297 -2.5073 -0.1929  0.4467
 4396SOL     OW24820   1.651   0.596  11.666  0.4610 -0.3273 -0.1809
 4396SOL    HW124821   1.665   0.691  11.665  1.6915 -0.5143 -0.2589
 4396SOL    HW224822   1.643   0.593  11.570 -0.8301  1.8886 -0.1532
 4397SOL     OW24823   1.491   0.533   2.100 -0.1329  0.3026  0.0976
 4397SOL    HW124824   1.443   0.557   2.020  1.0187  0.6068 -0.5018
 4397SOL    HW224825   1.418   0.490   2.146 -0.7981  3.5350  2.0240
 4398SOL     OW24826   4.234   3.661   0.210  0.8360  0.0999 -0.2008
 4398SOL    HW124827   4.319   3.706   0.203  0.3089  0.8535 -1.5864
 4398SOL    HW224828   4.228   3.599   0.138  1.1849 -0.3673  0.1704
 4399SOL     OW24829   0.345   3.067   3.084 -1.0995  0.5714 -0.3633
 4399SOL    HW124830   0.325   3.147   3.037  0.3829  1.4142  0.4187
 4399SOL    HW224831   0.384   3.104   3.164 -0.4273  2.5167 -1.6034
 4400SOL     OW24832   4.251   1.829   6.700 -1.0219 -0.4085 -0.2275
 4400SOL    HW124833   4.183   1.764   6.717  0.1351 -1.0139  2.0430
 4400SOL    HW224834   4.320   1.777   6.660 -2.1384 -2.1871  0.1513
 4401SOL     OW24835   0.811   1.715   9.641  0.2020  0.5146 -0.4575
 4401SOL    HW124836   0.770   1.773   9.706  1.0405  1.2303 -0.5733
 4401SOL    HW224837   0.864   1.655   9.694  1.2739  0.5208 -1.5297
 4402SOL     OW24838   4.292   4.000   0.634 -0.1422  0.3549 -0.1976
 4402SOL    HW124839   4.283   4.095   0.625 -1.7888  0.1824 -0.2201
 4402SOL    HW224840   4.201   3.977   0.619 -0.0659 -1.2623  1.8788
 4403SOL     OW24841   1.722   1.640   2.384  0.2519  0.0888 -0.0375
 4403SOL    HW124842   1.810   1.677   2.385  1.5276 -2.9123 -1.2567
 4403SOL    HW224843   1.738   1.547   2.400  4.4728  1.0423  1.3174
 4404SOL     OW24844   3.890   1.155   9.620 -0.1229 -0.0609 -0.2387
 4404SOL    HW124845   3.955   1.222   9.639 -0.0419  0.2312 -1.5545
 4404SOL    HW224846   3.845   1.200   9.548 -0.1502 -0.7956 -0.6790
 4405SOL     OW24847   1.052   2.957   3.589 -0.5728  0.5645  0.2954
 4405SOL    HW124848   0.974   2.913   3.623 -0.2686  0.5636  1.0081
 4405SOL    HW224849   1.025   3.049   3.578  1.7049  1.4904  2.5092
 4406SOL     OW24850   4.466   0.628   7.561 -0.0446  0.0435 -0.5984
 4406SOL    HW124851   4.502   0.555   7.511  0.0449 -1.1901  1.3067
 4406SOL    HW224852   4.537   0.632   7.625  0.8822 -1.0679 -1.5632
 4407SOL     OW24853   2.291   2.691   5.384 -0.1180 -0.0625  0.2227
 4407SOL    HW124854   2.291   2.599   5.412 -2.2125  0.1617  0.9468
 4407SOL    HW224855   2.222   2.677   5.318 -0.8928 -1.3333  1.3005
 4408SOL     OW24856   2.896   1.354  15.728 -0.4481  0.3016  0.0805
 4408SOL    HW124857   2.829   1.405  15.683 -0.1552  0.6650  0.0572
 4408SOL    HW224858   2.877   1.385  15.816 -1.7242  0.9728 -0.4311
 4409SOL     OW24859   0.478   3.031  13.126  0.2932 -0.0262 -0.2874
 4409SOL    HW124860   0.459   3.085  13.050  0.6349 -1.1850 -1.1974
 4409SOL    HW224861   0.534   2.960  13.095 -0.4750 -0.8925  0.3164
 4410SOL     OW24862   3.324   3.262  12.287 -0.0680 -0.0521  0.7017
 4410SOL    HW124863   3.401   3.206  12.276  0.0213  0.1947  0.0292
 4410SOL    HW224864   3.313   3.280  12.380  0.4129  1.9869  0.3602
 4411SOL     OW24865   4.396   2.676   6.462 -0.0390 -0.1280 -0.0371
 4411SOL    HW124866   4.435   2.763   6.471 -0.3770  0.1081 -0.8790
 4411SOL    HW224867   4.426   2.651   6.375 -3.6696 -0.6166 -1.1466
 4412SOL     OW24868   0.838   1.220  14.757  0.7980  0.2837 -0.2248
 4412SOL    HW124869   0.780   1.194  14.829  1.0079  2.6837  0.7927
 4412SOL    HW224870   0.916   1.168  14.774 -0.3004 -1.5075 -0.6171
 4413SOL     OW24871   0.407   1.557   5.183 -0.0617 -0.4067  0.1944
 4413SOL    HW124872   0.313   1.561   5.171  0.0242  0.1671 -0.2564
 4413SOL    HW224873   0.455   1.516   5.111 -0.2573  0.5196 -0.4516
 4414SOL     OW24874   3.064   1.248   4.780  0.1032  0.1798  0.2165
 4414SOL    HW124875   3.099   1.179   4.724  2.7494 -0.0576  2.1342
 4414SOL    HW224876   3.081   1.330   4.734  1.7935  0.1386  0.7550
 4415SOL     OW24877   0.606   3.525  14.428 -0.0325  0.3066  0.0567
 4415SOL    HW124878   0.624   3.559  14.340 -0.8429  0.5024 -0.0372
 4415SOL    HW224879   0.550   3.449  14.412 -0.3541  0.3774  0.8339
 4416SOL     OW24880   3.769   2.548   4.392  0.4074 -0.0329 -0.3443
 4416SOL    HW124881   3.673   2.556   4.391  0.3532 -0.2624  3.4756
 4416SOL    HW224882   3.781   2.458   4.362 -4.8246 -1.4952  1.8279
 4417SOL     OW24883   0.472   1.169   6.842 -0.4468 -0.0733  0.6049
 4417SOL    HW124884   0.435   1.182   6.755 -2.1319  1.0376  1.5032
 4417SOL    HW224885   0.400   1.116   6.877 -0.3076 -0.6720 -0.0214
 4418SOL     OW24886   3.122   1.420   6.588  0.2332 -0.2468  0.9467
 4418SOL    HW124887   3.092   1.466   6.666  0.4075 -0.4328  1.1221
 4418SOL    HW224888   3.184   1.361   6.630  1.4035 -0.3546 -0.9301
 4419SOL     OW24889   2.472   3.078   1.877 -0.3292 -0.0087  0.2453
 4419SOL    HW124890   2.399   3.077   1.815 -1.4630  0.5174  1.5625
 4419SOL    HW224891   2.453   3.162   1.919 -2.3712 -0.0901 -0.5038
 4420SOL     OW24892   0.972   1.099   5.004  0.1583  0.3218  0.0343
 4420SOL    HW124893   0.951   1.123   4.914  1.0151  0.1210 -0.2202
 4420SOL    HW224894   1.011   1.179   5.041  2.1912 -0.6901  0.0958
 4421SOL     OW24895   3.836   0.584   3.209 -0.4678 -0.2408  0.2270
 4421SOL    HW124896   3.774   0.623   3.270 -2.1240 -0.7584 -1.1228
 4421SOL    HW224897   3.908   0.647   3.202 -0.7003 -0.1551 -1.4035
 4422SOL     OW24898   0.249   2.025  15.165 -0.2959 -0.2484  0.5822
 4422SOL    HW124899   0.191   1.980  15.227  2.1688 -3.3437  0.6243
 4422SOL    HW224900   0.289   1.949  15.123 -2.1639 -1.3215  0.7397
 4423SOL     OW24901   3.461   1.670   9.458 -0.3642 -0.7713 -0.2011
 4423SOL    HW124902   3.441   1.726   9.533 -0.7092 -0.0697 -0.8220
 4423SOL    HW224903   3.548   1.633   9.471 -0.8867 -0.4599  4.1741
 4424SOL     OW24904   0.167   4.469   9.672  0.4351  0.1046 -0.0417
 4424SOL    HW124905   0.161   4.413   9.749 -1.6305 -3.7069 -2.9693
 4424SOL    HW224906   0.082   4.513   9.674  0.2254 -0.1848 -2.2193
 4425SOL     OW24907   2.289   3.916   8.415  0.1250  0.4473  0.0664
 4425SOL    HW124908   2.331   3.941   8.332  1.2190  2.2275  1.1469
 4425SOL    HW224909   2.255   3.831   8.388  2.6950 -0.0096 -1.7564
 4426SOL     OW24910   2.854   4.385   6.701  0.3943  0.1808 -0.1256
 4426SOL    HW124911   2.885   4.330   6.629  1.7407 -1.6500  1.8546
 4426SOL    HW224912   2.786   4.328   6.737  1.1885 -0.3364  0.5734
 4427SOL     OW24913   4.019   0.811   3.289  0.2720 -0.0069 -0.2674
 4427SOL    HW124914   4.084   0.773   3.230  1.4299 -0.4658  1.3188
 4427SOL    HW224915   4.010   0.742   3.355 -1.1147 -0.1804 -0.6432
 4428SOL     OW24916   0.090   3.853   6.249  0.6756  0.6676 -0.8547
 4428SOL    HW124917   0.080   3.770   6.296  0.0058  0.5474 -1.2167
 4428SOL    HW224918   0.136   3.905   6.315 -0.3934 -0.7603  1.0198
 4429SOL     OW24919   2.236   3.654   2.688  0.1609  0.2864 -0.8983
 4429SOL    HW124920   2.171   3.702   2.637  0.5401 -1.0481 -2.6295
 4429SOL    HW224921   2.240   3.573   2.637  0.1460  0.2568 -0.8526
 4430SOL     OW24922   0.756   1.288   2.535 -0.1797  0.0564  0.1303
 4430SOL    HW124923   0.850   1.284   2.520 -0.6746 -3.6125 -1.7872
 4430SOL    HW224924   0.754   1.381   2.558  1.5787  0.1181  0.0103
 4431SOL     OW24925   2.823   0.957  14.731  0.6982  0.9134 -0.1694
 4431SOL    HW124926   2.823   0.982  14.639  2.3315  2.4493  0.2368
 4431SOL    HW224927   2.901   1.006  14.757  1.9264 -0.5022 -1.1222
 4432SOL     OW24928   0.526   2.861   2.776 -0.3994  0.4436 -0.4401
 4432SOL    HW124929   0.474   2.932   2.738  0.5515  0.4856 -1.6605
 4432SOL    HW224930   0.488   2.779   2.743  0.3065  0.5129 -1.4437
 4433SOL     OW24931   1.958   3.044   6.583  0.0904  0.4705  0.5577
 4433SOL    HW124932   1.915   3.090   6.511  2.2759  2.3152  0.4199
 4433SOL    HW224933   1.946   2.952   6.559  0.5338  1.0607 -1.9810
 4434SOL     OW24934   4.076   1.362  11.341  0.3923 -0.0339 -0.2048
 4434SOL    HW124935   4.026   1.301  11.397  0.6662 -1.5319 -1.5947
 4434SOL    HW224936   4.139   1.299  11.306  1.8797  2.0476 -1.2609
 4435SOL     OW24937   3.362   4.265   9.489  0.5172  0.3229  0.0597
 4435SOL    HW124938   3.413   4.241   9.566 -0.5341 -1.7916  0.0791
 4435SOL    HW224939   3.287   4.305   9.533  1.4950  1.7791  0.4095
 4436SOL     OW24940   0.842   1.313   1.785  0.5281 -0.1547  0.2215
 4436SOL    HW124941   0.772   1.302   1.720  1.3028 -0.2313 -0.5942
 4436SOL    HW224942   0.825   1.229   1.827 -1.2327 -1.0860 -2.3243
 4437SOL     OW24943   1.665   3.578   6.571  0.1813 -0.0717 -0.2766
 4437SOL    HW124944   1.587   3.590   6.517 -0.6623 -1.2628  0.7013
 4437SOL    HW224945   1.635   3.513   6.634 -0.6131  1.0963  0.5523
 4438SOL     OW24946   3.586   2.457  16.257 -0.3877  0.4415 -0.4704
 4438SOL    HW124947   3.501   2.429  16.293 -0.1202 -2.4255 -2.0359
 4438SOL    HW224948   3.640   2.450  16.336 -0.5176 -0.3221 -0.4450
 4439SOL     OW24949   1.967   3.009   4.849  0.0713 -0.3829 -0.1913
 4439SOL    HW124950   2.002   3.011   4.938 -1.0140  0.8467  0.2126
 4439SOL    HW224951   2.041   2.980   4.795 -0.0308 -0.5892 -0.2217
 4440SOL     OW24952   2.409   1.684  15.242 -0.1527 -0.1198  1.0555
 4440SOL    HW124953   2.351   1.743  15.193  0.6738  0.2613  0.5376
 4440SOL    HW224954   2.339   1.618  15.245  0.3397 -0.6337  1.1321
 4441SOL     OW24955   2.000   4.425   8.558  0.6494  0.5253  0.2276
 4441SOL    HW124956   2.071   4.460   8.503  1.5667 -3.7028 -1.2906
 4441SOL    HW224957   2.048   4.377   8.626  0.7055  3.1305  2.0252
 4442SOL     OW24958   4.295   2.974   3.891  0.2771  0.6456  0.7897
 4442SOL    HW124959   4.225   3.007   3.947 -0.5640  0.2041  0.0018
 4442SOL    HW224960   4.260   2.891   3.856  3.2648  0.0802 -0.8717
 4443SOL     OW24961   1.197   2.661   7.647 -0.0417  0.7277  0.1297
 4443SOL    HW124962   1.259   2.706   7.705 -0.2706 -0.4572  1.2853
 4443SOL    HW224963   1.116   2.678   7.696 -1.4590  1.6576 -2.5087
 4444SOL     OW24964   2.461   4.452   0.363 -0.0898 -0.1514 -0.5654
 4444SOL    HW124965   2.520   4.502   0.420  0.9487 -0.9276 -0.9455
 4444SOL    HW224966   2.396   4.428   0.429  1.2582 -2.0920  0.0833
 4445SOL     OW24967   4.220   4.678   6.545  0.4525  0.0363  0.6943
 4445SOL    HW124968   4.283   4.646   6.609 -0.1749 -0.4496  1.0652
 4445SOL    HW224969   4.251   4.624   6.472 -0.4101  1.0044 -0.3991
 4446SOL     OW24970   4.667   1.191  16.888 -0.1202  0.0900  0.3685
 4446SOL    HW124971   4.654   1.139  16.968  1.9260  1.0674  1.3466
 4446SOL    HW224972   4.728   1.133  16.842 -1.0772 -1.7041  1.3452
 4447SOL     OW24973   0.269   2.827   6.009  0.5680  0.1011 -0.3594
 4447SOL    HW124974   0.339   2.761   6.006  2.4172  1.9906  0.9073
 4447SOL    HW224975   0.234   2.796   6.092  2.7780  0.8881  0.8799
 4448SOL     OW24976   3.050   1.141   7.722 -0.0389  0.1287 -0.1415
 4448SOL    HW124977   3.098   1.219   7.748 -0.4624  0.4787 -0.4112
 4448SOL    HW224978   3.033   1.111   7.812  1.1533  1.5032  0.5317
 4449SOL     OW24979   0.474   2.986   0.757 -0.1263  0.0368  0.3390
 4449SOL    HW124980   0.402   2.925   0.740  0.4999  0.2680 -3.2709
 4449SOL    HW224981   0.470   3.021   0.845 -1.6276 -1.3161  0.7974
 4450SOL     OW24982   1.158   0.831   1.619  0.0334 -0.3886 -0.2686
 4450SOL    HW124983   1.185   0.850   1.708 -0.0400 -1.5618  0.0086
 4450SOL    HW224984   1.244   0.827   1.577 -1.0679  0.4593 -2.6474
 4451SOL     OW24985   0.422   3.241   1.357  0.0042 -0.0617 -0.3797
 4451SOL    HW124986   0.359   3.266   1.289  1.5598 -0.5954 -2.0064
 4451SOL    HW224987   0.471   3.167   1.320 -1.9051 -1.8215  0.6127
 4452SOL     OW24988   0.886   3.855   3.968  0.3516  0.1303  0.5516
 4452SOL    HW124989   0.797   3.831   3.943 -0.0719  1.2706  0.9567
 4452SOL    HW224990   0.909   3.796   4.040 -0.3082 -3.0172 -1.8054
 4453SOL     OW24991   0.461   2.394   3.647 -0.6293  0.1786  0.2748
 4453SOL    HW124992   0.369   2.395   3.670 -0.7583 -0.4987 -0.1824
 4453SOL    HW224993   0.468   2.356   3.559  0.3496  0.7665  0.0967
 4454SOL     OW24994   1.612   3.492   7.855 -0.4187 -0.3214 -0.6788
 4454SOL    HW124995   1.592   3.400   7.871  0.4636 -0.1685  1.2688
 4454SOL    HW224996   1.701   3.469   7.829 -0.0626 -0.2181  0.4189
 4455SOL     OW24997   0.292   2.589   3.012  0.0107 -0.1985  0.2487
 4455SOL    HW124998   0.309   2.683   3.019  2.4903 -0.4729 -1.7376
 4455SOL    HW224999   0.255   2.586   2.924 -0.6909 -0.2326  0.5481
 4456SOL     OW25000   2.139   3.512   7.562  0.0750 -0.7779 -0.2529
 4456SOL    HW125001   2.223   3.497   7.605  0.3327  0.3472 -0.3620
 4456SOL    HW225002   2.168   3.577   7.498  0.4980  0.3225  1.0643
 4457SOL     OW25003   0.214   2.502   2.764 -0.3173  0.2968 -0.4846
 4457SOL    HW125004   0.143   2.458   2.810  0.0681  0.5613  0.3536
 4457SOL    HW225005   0.166   2.528   2.685 -0.7331 -1.1771 -0.7341
 4458SOL     OW25006   1.416   1.337  13.846  0.6809  0.2629 -0.4866
 4458SOL    HW125007   1.399   1.262  13.789 -0.2687 -0.1458  0.3510
 4458SOL    HW225008   1.476   1.383  13.787  0.3104  1.5888  0.1696
 4459SOL     OW25009   2.462   2.479   0.230  0.7139  0.3530  0.2468
 4459SOL    HW125010   2.512   2.434   0.299 -1.9440 -1.6424  0.8790
 4459SOL    HW225011   2.400   2.526   0.286 -1.4722 -0.8477 -1.1744
 4460SOL     OW25012   2.361   1.007   4.599  0.1349 -0.1898 -0.1067
 4460SOL    HW125013   2.389   1.076   4.659  0.1135 -0.8435  0.6648
 4460SOL    HW225014   2.361   0.931   4.657  4.9249  1.1419  1.6366
 4461SOL     OW25015   1.065   3.781   2.995  0.5954 -0.4967  0.6210
 4461SOL    HW125016   1.143   3.831   2.973 -0.3631  1.0482  0.7393
 4461SOL    HW225017   1.056   3.798   3.089 -0.8224 -0.1155  0.4173
 4462SOL     OW25018   4.630   1.465   3.660  0.1518 -0.2903 -1.0342
 4462SOL    HW125019   4.671   1.523   3.724 -1.0349  0.4809 -0.9792
 4462SOL    HW225020   4.684   1.386   3.665 -1.9549 -1.7746 -1.6866
 4463SOL     OW25021   1.009   2.551   1.261 -0.3263  1.0851 -0.0195
 4463SOL    HW125022   1.070   2.540   1.187 -1.3172  1.2065 -0.8577
 4463SOL    HW225023   0.922   2.551   1.221 -0.4428 -0.5247  0.2302
 4464SOL     OW25024   0.919   4.304   2.690  0.7839  0.5837 -0.0178
 4464SOL    HW125025   0.959   4.235   2.743  0.1119  0.3395  0.1666
 4464SOL    HW225026   0.943   4.375   2.749  2.6255 -2.1889  2.5575
 4465SOL     OW25027   4.670   4.163   1.380  0.1304  0.0631  0.5738
 4465SOL    HW125028   4.605   4.100   1.411  0.2740 -0.4068 -0.0657
 4465SOL    HW225029   4.641   4.239   1.431 -1.1806 -0.4560  0.5906
 4466SOL     OW25030   3.740   4.258   8.582  0.1752  0.2382  0.2215
 4466SOL    HW125031   3.818   4.214   8.617  0.5657 -0.0648 -1.0290
 4466SOL    HW225032   3.672   4.203   8.619 -1.1448  0.3336 -2.1065
 4467SOL     OW25033   0.092   4.459   4.113 -0.1696  0.8638 -0.2507
 4467SOL    HW125034   0.076   4.380   4.061 -0.5952 -0.7651  2.3497
 4467SOL    HW225035   0.108   4.408   4.192  0.0628  0.3331 -0.6473
 4468SOL     OW25036   3.042   2.995  10.341 -0.2585  0.1953 -0.1102
 4468SOL    HW125037   3.107   3.016  10.274  2.0169 -1.7699  1.5139
 4468SOL    HW225038   2.963   3.025  10.296  0.4157 -0.5985 -1.8269
 4469SOL     OW25039   2.779   2.206  15.971  0.0750  0.1356 -0.3757
 4469SOL    HW125040   2.871   2.189  15.951  0.5476  0.0484  1.8631
 4469SOL    HW225041   2.758   2.137  16.034  2.9178 -1.1079 -0.7838
 4470SOL     OW25042   3.155   2.369   8.148 -0.6356  0.0661 -0.1258
 4470SOL    HW125043   3.211   2.431   8.194  0.4143  0.5259 -2.0318
 4470SOL    HW225044   3.182   2.382   8.057 -1.9671  0.5029 -0.4651
 4471SOL     OW25045   1.896   2.610   3.072  0.3805  0.1492 -0.0290
 4471SOL    HW125046   1.888   2.540   3.137 -2.3153 -0.4729 -1.0233
 4471SOL    HW225047   1.806   2.641   3.069  0.2143 -0.2578  1.0011
 4472SOL     OW25048   1.571   1.538   2.710 -0.4051  0.1177 -0.2000
 4472SOL    HW125049   1.502   1.564   2.649 -1.6970 -2.3680  0.2187
 4472SOL    HW225050   1.647   1.586   2.677 -0.0656 -1.3970 -1.5900
 4473SOL     OW25051   1.143   0.015  12.954 -0.0251  0.7436  0.1484
 4473SOL    HW125052   1.084   4.715  13.018  0.8556 -1.0041 -0.1126
 4473SOL    HW225053   1.083   0.043  12.886  2.8580  1.7880 -1.9495
 4474SOL     OW25054   1.002   2.205   2.472 -0.8658 -0.3753  0.0278
 4474SOL    HW125055   1.070   2.246   2.417  0.0234 -0.0723  1.3644
 4474SOL    HW225056   0.961   2.157   2.400  1.9081 -1.5016 -0.8136
 4475SOL     OW25057   4.537   0.938   5.310 -0.1306 -0.2360 -0.3143
 4475SOL    HW125058   4.518   0.883   5.234 -0.0349 -1.0217  0.2329
 4475SOL    HW225059   4.598   0.886   5.362  1.0534  0.7434 -0.7118
 4476SOL     OW25060   4.688   3.761   8.591 -0.7201  0.5788  0.6192
 4476SOL    HW125061   4.625   3.822   8.628 -0.4300  0.6689  0.9560
 4476SOL    HW225062   4.629   3.691   8.563  2.0924 -0.6006 -2.4600
 4477SOL     OW25063   2.667   2.619  17.132 -0.4574  0.5681  0.3875
 4477SOL    HW125064   2.746   2.670  17.114  1.4116 -3.3722 -2.4695
 4477SOL    HW225065   2.651   2.569  17.052 -2.0774  1.6959  0.0030
 4478SOL     OW25066   3.188   3.375   4.282 -0.6867  0.1472 -0.1084
 4478SOL    HW125067   3.206   3.345   4.192 -2.0949  1.7672 -0.9280
 4478SOL    HW225068   3.101   3.413   4.268 -0.4037 -0.6236 -4.2623
 4479SOL     OW25069   4.467   2.052   0.658 -0.2270  0.2781 -0.0626
 4479SOL    HW125070   4.467   2.144   0.633 -2.7424  0.7088  1.4544
 4479SOL    HW225071   4.451   2.014   0.572 -1.3380  0.1495  0.2045
 4480SOL     OW25072   3.248   4.723   1.635  0.1062 -0.5777  0.1761
 4480SOL    HW125073   3.200   0.008   1.713  0.2452  0.3159 -0.0199
 4480SOL    HW225074   3.340   4.725   1.663  0.3208 -3.1193 -0.3122
 4481SOL     OW25075   0.270   2.517  12.958  0.5412  0.8420 -0.3015
 4481SOL    HW125076   0.223   2.475  12.885  3.5547 -0.7468 -1.3158
 4481SOL    HW225077   0.272   2.607  12.923  1.5347  1.6389  1.8161
 4482SOL     OW25078   2.389   0.889  15.914 -0.5705 -0.4175 -0.3028
 4482SOL    HW125079   2.453   0.867  15.981 -1.4575  0.7682  0.9356
 4482SOL    HW225080   2.395   0.814  15.854  2.4909 -1.3432  1.1564
 4483SOL     OW25081   3.701   1.993   9.433 -0.1480  0.2319 -0.0867
 4483SOL    HW125082   3.624   2.015   9.380 -1.1213 -0.5309  1.0094
 4483SOL    HW225083   3.670   1.968   9.520 -0.0344  0.2141 -0.0520
 4484SOL     OW25084   3.271   4.523   6.649 -0.5608 -0.0990 -0.0805
 4484SOL    HW125085   3.269   4.457   6.718 -1.6500 -1.8903 -1.8514
 4484SOL    HW225086   3.225   4.473   6.581  1.6397  2.0844 -3.1876
 4485SOL     OW25087   1.098   3.558  10.135 -0.2309 -0.3971 -0.2342
 4485SOL    HW125088   1.010   3.589  10.156 -0.0420  1.0502 -1.5766
 4485SOL    HW225089   1.099   3.534  10.042 -2.7310 -0.8477 -0.1318
 4486SOL     OW25090   1.186   0.817   2.994  0.3333  0.1729 -0.1012
 4486SOL    HW125091   1.244   0.784   2.926 -0.6345  0.1323 -0.9132
 4486SOL    HW225092   1.102   0.775   2.975  0.1341  0.0910  0.9735
 4487SOL     OW25093   2.204   1.475   1.919  1.0404 -0.5182 -0.0165
 4487SOL    HW125094   2.152   1.411   1.968 -1.7497  0.9318 -1.0898
 4487SOL    HW225095   2.264   1.505   1.988  1.1180 -0.3363 -0.1621
 4488SOL     OW25096   4.508   1.184  15.871  0.0472  0.3456 -0.1845
 4488SOL    HW125097   4.545   1.269  15.895  0.0245  0.6301 -1.1781
 4488SOL    HW225098   4.443   1.207  15.804 -2.3017  1.5027  2.4566
 4489SOL     OW25099   4.176   2.237  14.827  0.3249 -0.5130 -0.4018
 4489SOL    HW125100   4.233   2.281  14.890  0.6559  1.7638 -2.2910
 4489SOL    HW225101   4.121   2.312  14.805  0.2968 -0.6219 -0.7025
 4490SOL     OW25102   1.593   2.693   3.014 -0.3722 -0.5959 -0.1613
 4490SOL    HW125103   1.547   2.644   3.083 -1.0895  3.9252  2.5760
 4490SOL    HW225104   1.530   2.680   2.943 -2.4675 -1.7047  1.8894
 4491SOL     OW25105   2.104   3.181  12.145  0.1200 -0.1865 -0.1277
 4491SOL    HW125106   2.114   3.179  12.241 -0.7099 -0.0779 -0.0371
 4491SOL    HW225107   2.117   3.275  12.128  0.0834  0.4409  3.2328
 4492SOL     OW25108   4.464   4.677   7.523 -0.4165 -0.5049 -0.4616
 4492SOL    HW125109   4.379   4.682   7.567  0.3584  0.5396  0.9060
 4492SOL    HW225110   4.453   4.594   7.477 -0.1616 -0.6970 -0.1773
 4493SOL     OW25111   2.232   2.375  17.393 -0.0145 -0.3469  0.3395
 4493SOL    HW125112   2.279   2.344  17.316  1.6936 -0.3454  1.3815
 4493SOL    HW225113   2.280   2.457  17.406 -0.8690  0.0889  0.8043
 4494SOL     OW25114   3.880   3.839  15.863 -0.4516 -0.5272  0.1766
 4494SOL    HW125115   3.849   3.929  15.877  2.7765  0.5417  0.6166
 4494SOL    HW225116   3.871   3.836  15.768 -1.6263 -2.4013  0.3617
 4495SOL     OW25117   2.910   2.440   2.906  0.1239  0.4356  0.1685
 4495SOL    HW125118   2.881   2.441   2.997 -0.2310 -1.1400  0.0625
 4495SOL    HW225119   2.834   2.416   2.852  0.5277 -1.3384  0.3976
 4496SOL     OW25120   0.079   1.738   8.182 -0.1874  0.4816 -0.1397
 4496SOL    HW125121   4.737   1.725   8.232 -0.2588 -2.0135 -0.9459
 4496SOL    HW225122   0.124   1.786   8.252 -1.3461 -1.6954  2.0908
 4497SOL     OW25123   1.352   3.898   6.491 -0.4129 -0.0402  0.7290
 4497SOL    HW125124   1.287   3.947   6.542 -2.4058 -1.0127 -0.8555
 4497SOL    HW225125   1.357   3.948   6.409 -2.6533  0.8534  1.1277
 4498SOL     OW25126   1.177   3.778  12.511  0.5212  0.1071 -0.7600
 4498SOL    HW125127   1.096   3.828  12.522  0.0166 -1.1485  1.5018
 4498SOL    HW225128   1.166   3.750  12.420  1.1661  2.8493 -1.6743
 4499SOL     OW25129   3.690   1.821   4.983  0.4505  0.6564 -0.1849
 4499SOL    HW125130   3.597   1.839   4.995  0.1241  0.9869 -3.3767
 4499SOL    HW225131   3.685   1.730   4.952 -0.1284  0.9337 -0.8972
 4500SOL     OW25132   4.476   1.370   2.415  0.5936 -0.1301  0.0842
 4500SOL    HW125133   4.452   1.445   2.470  0.5551  0.3297 -0.5510
 4500SOL    HW225134   4.510   1.403   2.332  1.5543 -1.1451  0.0823
 4501SOL     OW25135   0.704   3.790  12.578 -0.0120 -0.5050 -0.1419
 4501SOL    HW125136   0.635   3.733  12.545  0.2992 -0.7359 -0.3884
 4501SOL    HW225137   0.657   3.862  12.622 -1.4106 -1.2079 -0.4688
 4502SOL     OW25138   2.880   2.559  16.144  0.2765 -0.1569 -0.0357
 4502SOL    HW125139   2.976   2.555  16.137  0.3540 -0.4063  1.2218
 4502SOL    HW225140   2.853   2.528  16.058  0.4887 -0.6886  0.0920
 4503SOL     OW25141   3.694   1.042   8.706  0.7687 -0.0953  0.3926
 4503SOL    HW125142   3.664   0.959   8.745 -1.3904  1.3400  1.8125
 4503SOL    HW225143   3.654   1.104   8.767 -1.8697 -0.5560 -0.8628
 4504SOL     OW25144   0.154   4.099   2.958  0.1922  0.2533 -0.2501
 4504SOL    HW125145   0.201   4.183   2.957 -0.1940  0.4723 -0.0125
 4504SOL    HW225146   0.065   4.126   2.933  1.0715 -0.7651 -4.5321
 4505SOL     OW25147   1.092   3.701  12.144  0.4261  0.1234  0.1081
 4505SOL    HW125148   1.187   3.693  12.134  0.5641  0.9741  0.6739
 4505SOL    HW225149   1.080   3.767  12.076  0.8273 -1.0093 -1.0590
 4506SOL     OW25150   4.716   3.913   3.863  0.1749 -0.7468 -0.2822
 4506SOL    HW125151   0.070   3.913   3.840  0.6965  0.4677  1.8196
 4506SOL    HW225152   4.710   3.992   3.917 -0.2625 -1.9561  1.4315
 4507SOL     OW25153   1.110   4.531   9.484 -0.1174  0.1022 -0.0857
 4507SOL    HW125154   1.094   4.625   9.490 -0.1258  0.1452 -0.7544
 4507SOL    HW225155   1.038   4.481   9.522 -0.4558  1.2726  0.8222
 4508SOL     OW25156   4.138   3.696   6.842  0.1039  0.0531 -0.1906
 4508SOL    HW125157   4.188   3.711   6.923 -2.1240 -3.2207  1.7878
 4508SOL    HW225158   4.108   3.787   6.840  3.6611  1.3378  3.9233
 4509SOL     OW25159   2.463   0.138   6.924  0.0569 -0.0703 -0.2875
 4509SOL    HW125160   2.502   0.155   6.838  0.7470 -2.3909 -0.4472
 4509SOL    HW225161   2.441   0.047   6.902  1.6016 -0.6184  0.5146
 4510SOL     OW25162   4.172   2.514   1.327  0.1757 -0.2155 -0.1610
 4510SOL    HW125163   4.144   2.590   1.377 -0.3921  0.2545 -1.1847
 4510SOL    HW225164   4.181   2.550   1.239 -0.3237 -1.1753 -0.6067
 4511SOL     OW25165   3.990   3.952   7.855  0.1895  0.0819 -0.4330
 4511SOL    HW125166   3.910   3.958   7.907  0.6496  1.3524  0.1170
 4511SOL    HW225167   3.999   3.857   7.868 -1.5579 -0.0106  0.1259
 4512SOL     OW25168   3.150   0.690  11.211 -0.4212 -0.1760  0.1408
 4512SOL    HW125169   3.195   0.770  11.238 -1.9120  1.1773 -1.4352
 4512SOL    HW225170   3.173   0.684  11.119 -0.1878  0.9181  0.1236
 4513SOL     OW25171   4.082   1.110   9.217 -0.1458  0.0784 -0.6224
 4513SOL    HW125172   4.130   1.078   9.293 -2.9170  1.1046  1.5836
 4513SOL    HW225173   4.115   1.199   9.224 -0.8495  0.1331  1.9343
 4514SOL     OW25174   2.317   3.471  12.821 -0.2606  0.2755 -0.2640
 4514SOL    HW125175   2.336   3.550  12.873  0.7490 -0.6755  0.8042
 4514SOL    HW225176   2.223   3.473  12.800  0.1130 -0.3947 -1.9544
 4515SOL     OW25177   1.010   4.244   3.297 -0.6193 -0.2233 -0.4084
 4515SOL    HW125178   0.962   4.165   3.273 -0.3920 -0.0719 -1.3752
 4515SOL    HW225179   0.972   4.261   3.383  0.6255 -1.4372  0.3857
 4516SOL     OW25180   4.150   4.514   5.219  0.0929  0.1158 -0.8142
 4516SOL    HW125181   4.203   4.587   5.253  3.1666 -1.7208 -1.6200
 4516SOL    HW225182   4.220   4.463   5.178  2.1409  1.5937  0.8567
 4517SOL     OW25183   0.382   2.078   5.717 -0.2561 -0.1080 -0.5509
 4517SOL    HW125184   0.444   2.007   5.698 -1.7171 -1.7858  0.9206
 4517SOL    HW225185   0.450   2.131   5.757 -1.2637  0.0717  0.9192
 4518SOL     OW25186   0.417   3.278   6.541 -0.1461 -0.6771  0.1298
 4518SOL    HW125187   0.393   3.332   6.617 -1.4843 -1.2065  0.0851
 4518SOL    HW225188   0.504   3.254   6.571 -0.2082 -0.0849  0.8010
 4519SOL     OW25189   2.604   1.894   3.181  0.0525 -0.0439 -0.5162
 4519SOL    HW125190   2.596   1.987   3.202 -1.9265 -0.5962  1.2506
 4519SOL    HW225191   2.619   1.849   3.265  0.0724  1.6965  0.4056
 4520SOL     OW25192   1.348   2.417  11.248  0.0036 -0.3583 -0.1471
 4520SOL    HW125193   1.384   2.328  11.247 -0.2752 -0.4705 -0.1069
 4520SOL    HW225194   1.411   2.456  11.187 -0.3697 -1.8261 -1.4588
 4521SOL     OW25195   1.848   0.483  10.533  0.1511 -0.2490  0.1424
 4521SOL    HW125196   1.906   0.507  10.606  0.4480  0.4163 -0.3081
 4521SOL    HW225197   1.763   0.472  10.576  0.3673 -2.1569  0.0558
 4522SOL     OW25198   3.929   1.294  13.821  0.2619 -0.0243 -0.3043
 4522SOL    HW125199   3.959   1.324  13.735 -1.4939  3.1136  0.1601
 4522SOL    HW225200   3.947   1.200  13.812 -1.1583 -0.4580  1.3278
 4523SOL     OW25201   4.042   2.285  15.120 -0.0504  0.4755  0.1154
 4523SOL    HW125202   4.129   2.323  15.113 -0.2704  0.7901 -0.9969
 4523SOL    HW225203   3.988   2.365  15.123 -0.1376  0.3889  0.8456
 4524SOL     OW25204   2.279   1.553   3.870  0.0852 -0.1538 -0.2416
 4524SOL    HW125205   2.266   1.461   3.894  1.2207 -0.1490  0.3666
 4524SOL    HW225206   2.203   1.603   3.898 -0.4384 -0.8898 -0.3339
 4525SOL     OW25207   2.342   2.757   8.343 -0.1163  0.2983 -0.4676
 4525SOL    HW125208   2.357   2.667   8.313  0.4626  0.3136 -0.2198
 4525SOL    HW225209   2.418   2.761   8.400 -1.1763 -0.6861  1.0040
 4526SOL     OW25210   3.106   3.485   0.603 -0.0646  0.0201 -0.0747
 4526SOL    HW125211   3.162   3.562   0.608  0.9939 -0.6809 -1.0998
 4526SOL    HW225212   3.100   3.457   0.694  1.0428  0.7308  0.2203
 4527SOL     OW25213   2.911   0.408   6.748  0.2992  0.0283  0.1279
 4527SOL    HW125214   2.963   0.408   6.829 -2.2082  2.5932  1.7224
 4527SOL    HW225215   2.915   0.317   6.720 -1.6746 -0.6198  1.9064
 4528SOL     OW25216   1.591   1.860   9.976 -0.0560 -0.7671  0.6544
 4528SOL    HW125217   1.523   1.797   9.999 -0.6807 -0.6434 -0.8644
 4528SOL    HW225218   1.672   1.809   9.984  0.8041  0.6717  1.1958
 4529SOL     OW25219   2.697   0.867   2.601 -0.0430  0.0416  0.0339
 4529SOL    HW125220   2.629   0.826   2.653 -2.1380  0.5310 -2.3444
 4529SOL    HW225221   2.761   0.863   2.673  0.1930 -0.3191 -0.1918
 4530SOL     OW25222   2.886   0.625   7.929  0.5356  0.0168 -0.4488
 4530SOL    HW125223   2.899   0.615   8.023 -0.8951 -0.8587 -0.3385
 4530SOL    HW225224   2.865   0.535   7.904  1.6348 -0.8999  1.8923
 4531SOL     OW25225   4.011   2.448   5.260 -0.2634 -0.0797 -0.1816
 4531SOL    HW125226   4.051   2.367   5.292  1.5927  1.7791  2.2448
 4531SOL    HW225227   3.931   2.440   5.313  0.8730 -0.7614  1.4453
 4532SOL     OW25228   4.653   3.135   7.289 -0.2588  0.7007 -0.2214
 4532SOL    HW125229   4.559   3.141   7.269 -0.7661  1.0518  2.2273
 4532SOL    HW225230   4.675   3.210   7.344  1.2450 -0.8111  1.2083
 4533SOL     OW25231   3.730   1.287   5.089  0.2967 -0.3621 -0.1675
 4533SOL    HW125232   3.683   1.210   5.058 -0.8358  0.4284 -0.4411
 4533SOL    HW225233   3.696   1.294   5.178 -0.7643 -0.5381 -0.5629
 4534SOL     OW25234   1.482   0.843  15.587  0.0232  0.1745 -0.2905
 4534SOL    HW125235   1.530   0.784  15.644 -0.5004  0.9966  1.0014
 4534SOL    HW225236   1.528   0.926  15.598  1.5861 -0.5402 -1.4207
 4535SOL     OW25237   2.821   1.599   1.039  0.3120  0.3983  0.3027
 4535SOL    HW125238   2.850   1.617   0.949  0.5960  2.7975  0.8817
 4535SOL    HW225239   2.740   1.649   1.054 -0.1566 -1.4748  3.9326
 4536SOL     OW25240   1.883   2.621   8.469 -0.1804  0.5945 -0.3040
 4536SOL    HW125241   1.790   2.611   8.450 -0.3481 -0.3091  0.9893
 4536SOL    HW225242   1.883   2.716   8.473 -0.0829  0.4309  3.5733
 4537SOL     OW25243   0.695   1.644   8.283 -0.2177 -0.4420  0.4078
 4537SOL    HW125244   0.615   1.681   8.245  0.5515  0.1051 -0.6820
 4537SOL    HW225245   0.710   1.572   8.222  0.5231  0.1103 -0.0599
 4538SOL     OW25246   4.672   3.932   0.286  0.1922  0.0762 -0.1172
 4538SOL    HW125247   0.009   3.884   0.256 -0.0331 -1.9808  2.5959
 4538SOL    HW225248   4.653   3.974   0.202  0.4418 -0.2876 -0.3502
 4539SOL     OW25249   3.282   0.078  12.470 -0.2149 -0.6270 -0.4258
 4539SOL    HW125250   3.205   0.039  12.512 -0.7097 -1.3131 -1.9739
 4539SOL    HW225251   3.333   0.042  12.543  0.3327  1.3552  0.1443
 4540SOL     OW25252   0.149   2.095   7.712  0.1668  0.4935  0.1608
 4540SOL    HW125253   0.166   2.019   7.656 -2.6195 -1.1615  1.5878
 4540SOL    HW225254   0.184   2.061   7.793 -3.6021 -3.1972  0.2286
 4541SOL     OW25255   1.568   2.968   0.595  0.5185 -0.1532 -0.1529
 4541SOL    HW125256   1.661   2.965   0.571 -0.3282 -2.6088 -3.2250
 4541SOL    HW225257   1.570   3.008   0.681 -0.4848 -1.0598  0.2888
 4542SOL     OW25258   3.635   3.317   6.465  0.3587  0.0635 -0.4092
 4542SOL    HW125259   3.650   3.342   6.557  1.5359 -0.9574 -0.3220
 4542SOL    HW225260   3.545   3.285   6.466  0.4273 -0.0900  1.8343
 4543SOL     OW25261   0.057   3.018  11.791 -0.2930 -0.4232 -0.1280
 4543SOL    HW125262   0.076   2.938  11.741 -1.6342 -0.7549 -0.0971
 4543SOL    HW225263   0.135   3.068  11.768 -0.2721 -0.4155 -0.0428
 4544SOL     OW25264   4.059   2.176   0.612  0.4622 -0.4317  0.1368
 4544SOL    HW125265   4.021   2.095   0.577 -0.8694 -1.0325  3.0166
 4544SOL    HW225266   4.151   2.155   0.598  0.8900  1.8495 -0.5741
 4545SOL     OW25267   4.039   1.693  12.423 -0.3598  0.1082  0.1135
 4545SOL    HW125268   4.000   1.648  12.348  1.6901 -3.1954  1.0191
 4545SOL    HW225269   3.967   1.747  12.454 -0.3003  1.0086 -1.3106
 4546SOL     OW25270   3.742   3.732   5.080 -0.5410 -0.4823 -0.1831
 4546SOL    HW125271   3.679   3.774   5.022  0.1798 -0.3109 -0.8394
 4546SOL    HW225272   3.754   3.650   5.031 -1.8039  0.0018 -1.3004
 4547SOL     OW25273   1.696   0.692   6.244 -0.0269  0.3496 -0.2404
 4547SOL    HW125274   1.721   0.779   6.276  0.3983 -0.4469  1.5495
 4547SOL    HW225275   1.776   0.642   6.260 -0.6122  0.1769  2.0926
 4548SOL     OW25276   1.662   2.213   6.415  0.0104 -0.5762  0.1210
 4548SOL    HW125277   1.674   2.284   6.352 -0.6226 -0.0322  0.6045
 4548SOL    HW225278   1.567   2.200   6.413 -0.3025  1.6751  0.4876
 4549SOL     OW25279   0.654   4.522   5.751  0.5927  0.7908 -0.6181
 4549SOL    HW125280   0.661   4.607   5.794 -0.6574 -0.6074  2.3772
 4549SOL    HW225281   0.584   4.550   5.692 -0.4461  0.7267  0.5848
 4550SOL     OW25282   0.108   3.989   2.715  0.2737 -0.2632  0.1913
 4550SOL    HW125283   0.063   3.905   2.727 -0.6681  0.0323 -1.2533
 4550SOL    HW225284   0.138   4.011   2.803  0.3086  1.1462 -0.1708
 4551SOL     OW25285   3.488   4.459   4.830 -0.4401  0.6029 -0.2220
 4551SOL    HW125286   3.483   4.453   4.925  1.5773  2.6751  0.0173
 4551SOL    HW225287   3.500   4.552   4.812  0.6420  0.9757  2.4532
 4552SOL     OW25288   0.900   0.187   6.360 -0.7610 -0.2061 -0.0057
 4552SOL    HW125289   0.839   0.224   6.424 -0.8695  0.0342 -0.2466
 4552SOL    HW225290   0.967   0.174   6.426 -1.1469  0.4270  0.5158
 4553SOL     OW25291   0.873   3.510   0.633  0.3346  0.0168  0.0630
 4553SOL    HW125292   0.853   3.418   0.647 -1.1370  0.4338  0.7091
 4553SOL    HW225293   0.810   3.558   0.686 -0.9275 -1.2264 -0.3150
 4554SOL     OW25294   3.457   4.066   6.575 -0.0282  0.1307  0.1787
 4554SOL    HW125295   3.509   4.002   6.527 -1.1177  0.0852 -0.9539
 4554SOL    HW225296   3.464   4.153   6.535 -1.6823 -0.8104 -2.1562
 4555SOL     OW25297   1.692   2.894   9.369 -0.1669  0.3669  0.5446
 4555SOL    HW125298   1.747   2.824   9.402  0.3072 -1.1204 -3.3905
 4555SOL    HW225299   1.740   2.923   9.291 -1.6520  0.0059 -0.5158
 4556SOL     OW25300   4.209   1.638   9.663 -0.5604 -0.5600  0.0803
 4556SOL    HW125301   4.276   1.663   9.726  1.5201 -1.0732 -1.9666
 4556SOL    HW225302   4.261   1.634   9.583  1.5936 -0.1718  1.4703
 4557SOL     OW25303   1.470   2.533   0.553 -0.8117  0.2813 -0.0442
 4557SOL    HW125304   1.467   2.540   0.457  1.6057  3.0754  0.0744
 4557SOL    HW225305   1.562   2.548   0.574 -0.5770 -0.8809 -0.2326
 4558SOL     OW25306   0.544   4.357  11.853  0.3957 -0.1189  0.2669
 4558SOL    HW125307   0.552   4.324  11.942 -0.9087 -2.6594 -0.5378
 4558SOL    HW225308   0.587   4.442  11.849 -1.5265  0.8570 -0.0355
 4559SOL     OW25309   3.258   0.019   4.004  0.5826  0.2002  0.5898
 4559SOL    HW125310   3.236   4.675   3.962  0.5295  0.2212  0.5767
 4559SOL    HW225311   3.245   4.729   4.094 -1.7875 -2.5756 -0.6565
 4560SOL     OW25312   2.013   1.769   4.196  0.0566  0.2664  0.0356
 4560SOL    HW125313   1.922   1.753   4.221 -0.4143  0.6955 -1.4330
 4560SOL    HW225314   2.041   1.837   4.257  2.5018 -1.4050  0.7752
 4561SOL     OW25315   3.930   3.930   4.288 -0.3132 -0.1791  0.2309
 4561SOL    HW125316   3.973   3.905   4.370  0.1794 -0.5139 -0.1361
 4561SOL    HW225317   3.973   4.014   4.275  2.0753 -1.7016 -1.4576
 4562SOL     OW25318   4.564   4.065   4.545  0.3387 -0.0783 -0.0773
 4562SOL    HW125319   4.646   4.108   4.521  1.4363 -0.4425  2.9655
 4562SOL    HW225320   4.548   4.068   4.640 -2.0283  0.5587 -0.4888
 4563SOL     OW25321   0.922   3.985  10.015  0.1234 -0.3120 -0.1511
 4563SOL    HW125322   0.855   4.050   9.993  1.0653  0.6789 -0.0306
 4563SOL    HW225323   0.870   3.907  10.036 -0.0732  0.2794  1.5722
 4564SOL     OW25324   3.029   3.897   6.791 -0.0295 -0.3006  0.4196
 4564SOL    HW125325   3.091   3.826   6.773 -1.8740 -1.8900  0.4016
 4564SOL    HW225326   3.055   3.964   6.728 -0.1167 -1.9780 -1.3961
 4565SOL     OW25327   3.275   0.526   7.283 -0.1071  0.2502 -0.0453
 4565SOL    HW125328   3.243   0.591   7.345  0.4902 -0.2191  0.7528
 4565SOL    HW225329   3.200   0.517   7.224  0.4248 -2.1255 -0.3614
 4566SOL     OW25330   1.666   0.306   4.603 -0.5614  0.1368 -0.2397
 4566SOL    HW125331   1.660   0.228   4.548 -2.3433 -0.9553  1.4702
 4566SOL    HW225332   1.603   0.359   4.554  0.8249  2.6441  0.6883
 4567SOL     OW25333   2.910   0.866  10.906  0.3982 -0.0386  0.2501
 4567SOL    HW125334   2.908   0.914  10.824 -1.0474 -0.2063  0.1761
 4567SOL    HW225335   2.994   0.898  10.939  2.2270 -1.5669 -2.9634
 4568SOL     OW25336   1.466   3.921   3.155  0.2274  0.0763  0.0334
 4568SOL    HW125337   1.457   3.836   3.200  0.8224  0.7362  1.3852
 4568SOL    HW225338   1.528   3.965   3.212 -0.2177 -0.9456  1.3153
 4569SOL     OW25339   0.417   0.828   4.996 -0.1429  0.3694  0.4630
 4569SOL    HW125340   0.402   0.784   5.080  1.3409 -0.7835  0.1238
 4569SOL    HW225341   0.371   0.911   5.009  1.7499  1.5949 -0.8104
 4570SOL     OW25342   2.557   4.053   5.529 -0.0753 -0.1156 -0.2719
 4570SOL    HW125343   2.563   4.148   5.542  0.5179 -0.1706 -0.1505
 4570SOL    HW225344   2.647   4.029   5.508  1.0338  1.7357  2.3461
 4571SOL     OW25345   1.026   1.551   0.840  0.4405 -0.0195  0.8596
 4571SOL    HW125346   0.991   1.482   0.784 -0.6564  1.4787 -0.2919
 4571SOL    HW225347   0.951   1.610   0.841  0.6018  0.1949  0.4792
 4572SOL     OW25348   0.680   1.495   3.234  0.0631 -0.6054  0.5208
 4572SOL    HW125349   0.700   1.585   3.208  0.4522 -1.1243 -0.9640
 4572SOL    HW225350   0.725   1.441   3.169  2.0927 -0.6658  1.9422
 4573SOL     OW25351   4.051   1.575   8.603  0.0673 -0.5409 -0.4543
 4573SOL    HW125352   3.984   1.643   8.593  0.8133  0.8606  4.2708
 4573SOL    HW225353   4.006   1.503   8.645  2.3357 -1.0191  1.1335
 4574SOL     OW25354   4.095   1.330   3.620  0.1272 -0.4213  0.0827
 4574SOL    HW125355   4.085   1.306   3.712 -1.5740 -2.1718 -0.5585
 4574SOL    HW225356   4.006   1.321   3.586 -0.2915  0.9816  0.7985
 4575SOL     OW25357   3.304   1.061   6.374  0.4298  0.3377  0.4364
 4575SOL    HW125358   3.221   1.031   6.411  1.3547 -1.3771  1.0990
 4575SOL    HW225359   3.336   1.115   6.447  1.6145 -2.2205  1.8360
 4576SOL     OW25360   4.129   0.082   5.042  0.7538  0.2114  0.0119
 4576SOL    HW125361   4.222   0.061   5.047  0.6885 -0.2444 -0.8312
 4576SOL    HW225362   4.140   0.167   5.085 -0.5286  0.0212  0.7088
 4577SOL     OW25363   1.433   2.497   1.269  0.4007 -0.1850 -0.1197
 4577SOL    HW125364   1.448   2.444   1.347  1.4782  1.1743  0.6177
 4577SOL    HW225365   1.517   2.489   1.223 -0.2756  0.1388 -1.4054
 4578SOL     OW25366   1.773   1.648  17.698 -0.4653  0.1029  0.4880
 4578SOL    HW125367   1.737   1.562  17.676 -1.7484  0.4779  1.1036
 4578SOL    HW225368   1.706   1.684   0.002 -0.4333  2.4981 -0.9599
 4579SOL     OW25369   1.879   2.274   9.941  0.0684 -0.3614  0.2997
 4579SOL    HW125370   1.946   2.309   9.883 -1.1705  0.9749 -0.3018
 4579SOL    HW225371   1.816   2.343   9.919 -1.5850 -1.9255  0.0703
 4580SOL     OW25372   3.458   1.505   4.226 -0.1527 -0.5899  0.2110
 4580SOL    HW125373   3.383   1.562   4.248  1.0966  0.7232  1.0721
 4580SOL    HW225374   3.482   1.477   4.315  5.5451  2.0236 -0.4990
 4581SOL     OW25375   0.225   3.041   5.293  0.1884 -0.2497 -0.3332
 4581SOL    HW125376   0.162   3.066   5.360  1.5112 -0.0787  0.8540
 4581SOL    HW225377   0.233   3.106   5.223 -2.4296 -2.1424 -2.3774
 4582SOL     OW25378   2.840   2.607   5.312 -0.5529  0.0098 -0.4997
 4582SOL    HW125379   2.901   2.668   5.354 -0.5279 -1.0828  1.0410
 4582SOL    HW225380   2.788   2.672   5.264 -3.4889 -2.9732 -1.3458
 4583SOL     OW25381   4.277   2.971   2.342  0.2415 -0.0696  0.2690
 4583SOL    HW125382   4.326   3.041   2.298 -0.1795 -1.1085 -1.8634
 4583SOL    HW225383   4.215   2.932   2.280  2.6030 -1.6274 -1.1297
 4584SOL     OW25384   1.271   2.398   7.641 -0.4694  0.1858  0.0813
 4584SOL    HW125385   1.236   2.390   7.553 -1.1695 -1.8053  0.5341
 4584SOL    HW225386   1.249   2.490   7.653  3.8366  1.4708 -1.8139
 4585SOL     OW25387   0.434   4.372   9.754  0.0444 -0.6212 -0.2994
 4585SOL    HW125388   0.354   4.408   9.715 -0.1551 -0.9808 -0.2209
 4585SOL    HW225389   0.501   4.382   9.686  1.5781  0.0441  1.3378
 4586SOL     OW25390   3.379   1.277   6.175 -0.7505 -0.2726 -0.3651
 4586SOL    HW125391   3.405   1.238   6.092  0.9595  1.5210 -0.6788
 4586SOL    HW225392   3.330   1.208   6.219 -0.7937 -0.2438 -0.3678
 4587SOL     OW25393   4.235   3.267   3.003  0.2889  0.4602  0.5421
 4587SOL    HW125394   4.162   3.298   3.057 -1.6320 -0.9601 -1.2656
 4587SOL    HW225395   4.305   3.267   3.069  1.1796 -0.1761 -0.3944
 4588SOL     OW25396   0.169   4.136   5.351  0.2320  0.2805 -0.2743
 4588SOL    HW125397   0.136   4.129   5.261  1.5139 -1.5586 -0.5996
 4588SOL    HW225398   0.092   4.140   5.407  0.3924  0.9395 -0.1018
 4589SOL     OW25399   2.673   2.576   4.072 -0.0598  0.2749  0.1720
 4589SOL    HW125400   2.727   2.527   4.134  0.4581  1.1683  0.4176
 4589SOL    HW225401   2.733   2.650   4.060  2.3138 -1.1640  3.1276
 4590SOL     OW25402   0.973   2.518   4.308 -0.4523  0.4167 -0.0859
 4590SOL    HW125403   0.991   2.511   4.214 -2.4604  0.3256 -0.4624
 4590SOL    HW225404   0.930   2.439   4.341 -1.6443  1.2853  0.4155
 4591SOL     OW25405   3.589   3.043   7.423 -0.1593 -0.1976 -0.1834
 4591SOL    HW125406   3.590   2.977   7.492 -1.0861 -1.3022 -1.2406
 4591SOL    HW225407   3.495   3.061   7.422 -0.3171 -0.9769  1.1704
 4592SOL     OW25408   1.791   4.649   5.591 -0.3104  0.4063 -0.3480
 4592SOL    HW125409   1.873   4.603   5.575 -1.2808 -0.9159 -1.6068
 4592SOL    HW225410   1.819   4.735   5.621 -0.2073 -0.1694  1.1746
 4593SOL     OW25411   3.911   2.726   3.115 -0.5643 -0.2831  0.2302
 4593SOL    HW125412   3.839   2.736   3.052 -1.7032 -2.1264  1.2326
 4593SOL    HW225413   3.925   2.633   3.102  0.7467 -0.8722  5.6752
 4594SOL     OW25414   0.940   1.491  17.045 -0.4200  0.0328 -0.0537
 4594SOL    HW125415   1.018   1.498  17.099 -0.6043 -0.1290  0.2323
 4594SOL    HW225416   0.930   1.396  17.031 -4.5061  0.4361  0.0865
 4595SOL     OW25417   1.846   2.662   2.277 -0.6685  0.4046  0.8915
 4595SOL    HW125418   1.890   2.596   2.329  0.0206 -0.5930 -0.9409
 4595SOL    HW225419   1.752   2.645   2.282 -0.5023 -0.6920  0.2428
 4596SOL     OW25420   0.872   4.519   3.487 -0.1246  0.4119 -0.4592
 4596SOL    HW125421   0.817   4.520   3.409 -3.8776  1.0799  2.2337
 4596SOL    HW225422   0.815   4.504   3.562  0.7998 -0.6298  0.0296
 4597SOL     OW25423   0.612   0.734   5.337  0.6188 -0.6700 -0.1365
 4597SOL    HW125424   0.578   0.812   5.381  0.4095  0.5914 -2.4751
 4597SOL    HW225425   0.530   0.696   5.305 -0.1665  1.2738 -0.4692
 4598SOL     OW25426   4.164   4.053   7.621 -0.0711  0.0090 -0.3303
 4598SOL    HW125427   4.111   4.132   7.623 -2.3750 -1.5276 -0.5556
 4598SOL    HW225428   4.125   4.017   7.700 -0.8510 -1.8617 -1.5774
 4599SOL     OW25429   0.525   3.668   4.439  0.5809  0.4420 -0.1093
 4599SOL    HW125430   0.605   3.650   4.390  0.2694 -1.3503  0.0429
 4599SOL    HW225431   0.501   3.755   4.406 -0.1411  0.5407  0.6741
 4600SOL     OW25432   4.475   1.981  13.057 -0.3864 -0.1158  0.1373
 4600SOL    HW125433   4.444   1.903  13.104 -2.7139  0.0166 -1.2235
 4600SOL    HW225434   4.400   2.033  13.084  1.6427  1.9240  1.8635
 4601SOL     OW25435   3.424   1.149   4.422  0.3778  0.1346  0.2938
 4601SOL    HW125436   3.362   1.111   4.485 -1.1376 -0.7759 -1.7518
 4601SOL    HW225437   3.373   1.192   4.353  0.6316  0.8163  0.5283
 4602SOL     OW25438   0.346   2.963   2.577 -0.3346  0.5639 -0.4510
 4602SOL    HW125439   0.371   2.897   2.512  1.6401 -0.3107  1.1954
 4602SOL    HW225440   0.256   2.936   2.593 -0.4268  0.0853 -1.7510
 4603SOL     OW25441   0.333   1.407   7.658 -0.3109  0.3358 -0.7972
 4603SOL    HW125442   0.429   1.405   7.660 -0.2950 -1.9509 -3.1566
 4603SOL    HW225443   0.312   1.346   7.588  0.0169  0.0813 -0.6757
 4604SOL     OW25444   1.056   3.062  12.402  0.5757 -0.1408 -0.0231
 4604SOL    HW125445   1.053   2.979  12.355  1.1934 -1.3841  2.1673
 4604SOL    HW225446   1.097   3.022  12.479 -0.4964 -0.6127  0.3028
 4605SOL     OW25447   2.100   2.998   2.417 -0.0832 -0.6876 -0.0124
 4605SOL    HW125448   2.151   3.038   2.346  0.9253 -1.6869  0.1460
 4605SOL    HW225449   2.152   3.005   2.497 -1.1165 -0.3678  0.6267
 4606SOL     OW25450   2.199   1.130   0.758  0.0611  0.0448 -0.2759
 4606SOL    HW125451   2.227   1.218   0.782 -0.4726  0.3914 -0.9512
 4606SOL    HW225452   2.110   1.162   0.745  1.1758  3.8367  1.5142
 4607SOL     OW25453   1.643   2.363   1.664  0.2192  0.1162  0.2262
 4607SOL    HW125454   1.582   2.313   1.718 -0.5514  0.5163 -0.2893
 4607SOL    HW225455   1.653   2.429   1.733 -0.8346  0.6668 -0.1538
 4608SOL     OW25456   0.268   4.018   8.358 -0.2561 -0.3078 -0.5304
 4608SOL    HW125457   0.245   3.980   8.273 -1.4860  0.4168 -0.5224
 4608SOL    HW225458   0.236   3.952   8.420 -0.8990 -1.3405 -1.9448
 4609SOL     OW25459   0.982   2.792   4.318  0.2421  0.4150  0.1989
 4609SOL    HW125460   0.969   2.702   4.287  0.1673 -0.0995  1.7064
 4609SOL    HW225461   1.060   2.824   4.273  0.6229 -2.2211 -1.0539
 4610SOL     OW25462   2.801   0.851   8.527 -0.3105  0.1949 -0.3619
 4610SOL    HW125463   2.881   0.799   8.525 -0.2612  0.2470  0.5228
 4610SOL    HW225464   2.834   0.937   8.502  0.8794  0.2314  1.3927
 4611SOL     OW25465   1.631   0.348   6.418  0.8347  0.2306  0.4675
 4611SOL    HW125466   1.701   0.379   6.359  1.2369 -0.8732  0.3687
 4611SOL    HW225467   1.563   0.314   6.360  0.2517 -0.5744  1.6376
 4612SOL     OW25468   3.680   2.451   0.585 -0.2470  0.3154 -0.4391
 4612SOL    HW125469   3.618   2.400   0.532 -0.3747  0.0124  0.0047
 4612SOL    HW225470   3.712   2.383   0.643  0.8588  0.4456 -0.9044
 4613SOL     OW25471   4.438   3.455   9.460 -0.3167 -0.5760 -0.2236
 4613SOL    HW125472   4.425   3.549   9.445  1.0499 -0.5932 -1.4478
 4613SOL    HW225473   4.345   3.435   9.450 -0.3977 -0.5647  0.4743
 4614SOL     OW25474   4.439   0.170   8.259  0.0250  0.4043  0.2464
 4614SOL    HW125475   4.425   0.099   8.321 -1.0894 -0.8904 -1.4755
 4614SOL    HW225476   4.369   0.234   8.274 -1.0126 -0.7534  0.3538
 4615SOL     OW25477   2.345   3.566   2.987  0.5716  0.7861 -1.2738
 4615SOL    HW125478   2.326   3.611   2.904 -1.8150 -1.1907 -1.7949
 4615SOL    HW225479   2.434   3.543   2.962  0.4067  0.5772 -1.6627
 4616SOL     OW25480   0.384   4.588   8.374 -0.6074  0.0880  0.0829
 4616SOL    HW125481   0.364   4.501   8.339 -0.9549  0.6254 -1.0564
 4616SOL    HW225482   0.314   4.591   8.439  0.0280 -1.3441  0.8374
 4617SOL     OW25483   0.903   2.595   8.845  0.0276  0.7752 -0.0080
 4617SOL    HW125484   0.973   2.651   8.813 -0.2845  1.9350  1.3226
 4617SOL    HW225485   0.830   2.657   8.852 -1.7154 -1.3854  0.8595
 4618SOL     OW25486   0.977   0.571   0.495  0.0583  0.4138  0.5012
 4618SOL    HW125487   0.924   0.646   0.522 -0.8896 -0.4953  1.1867
 4618SOL    HW225488   1.039   0.582   0.567  0.1939  0.0984  0.4335
 4619SOL     OW25489   4.158   3.213   0.264 -0.0371  0.3005 -0.0424
 4619SOL    HW125490   4.243   3.175   0.241  0.3962  1.5978 -0.5921
 4619SOL    HW225491   4.090   3.155   0.229 -1.5194  1.4956  0.8376
 4620SOL     OW25492   1.661   1.601   6.814  0.0770  0.2632 -0.2461
 4620SOL    HW125493   1.591   1.576   6.874 -1.0810 -1.2017 -2.2254
 4620SOL    HW225494   1.696   1.683   6.849 -2.6995  1.6471 -0.8047
 4621SOL     OW25495   1.370   3.362   5.735 -0.8856  0.3355  0.5521
 4621SOL    HW125496   1.391   3.276   5.773  2.3204 -0.4270 -2.8771
 4621SOL    HW225497   1.454   3.398   5.707 -0.3754 -1.1356  0.1821
 4622SOL     OW25498   2.801   1.339   8.231 -0.4868 -0.0493  0.1685
 4622SOL    HW125499   2.860   1.414   8.224  0.3716 -0.5976  1.4536
 4622SOL    HW225500   2.765   1.358   8.318 -0.0470  0.4655  0.2390
 4623SOL     OW25501   4.582   2.695   5.477  0.7028  0.1275  0.3312
 4623SOL    HW125502   4.666   2.656   5.502  2.0285  3.2367  0.7215
 4623SOL    HW225503   4.541   2.626   5.425 -4.5909  1.3562  2.9204
 4624SOL     OW25504   0.499   4.564   9.268  0.3336  0.1336  0.3064
 4624SOL    HW125505   0.415   4.536   9.305 -0.1617  0.0467 -0.9174
 4624SOL    HW225506   0.514   4.488   9.212 -0.1828 -0.2676  0.7146
 4625SOL     OW25507   0.781   2.780   6.532  0.3097 -0.1004  0.6146
 4625SOL    HW125508   0.732   2.720   6.588  1.3970 -0.9953  0.5892
 4625SOL    HW225509   0.839   2.821   6.596  0.0256  2.8970 -1.0523
 4626SOL     OW25510   3.691   2.699  13.571  0.9215  0.1387 -0.4046
 4626SOL    HW125511   3.621   2.736  13.517 -0.0928  0.8292  1.3617
 4626SOL    HW225512   3.645   2.629  13.617  0.4679 -0.0370 -1.1237
 4627SOL     OW25513   0.924   3.643  15.136  0.0870  0.0853  0.1882
 4627SOL    HW125514   0.849   3.584  15.137  0.0964  0.0692 -0.0120
 4627SOL    HW225515   0.886   3.704  15.072  1.7656  1.5629  0.6000
 4628SOL     OW25516   0.998   2.322   3.773  0.3863  0.2929 -0.3968
 4628SOL    HW125517   0.953   2.369   3.703  0.4939 -1.2858 -1.5216
 4628SOL    HW225518   1.029   2.239   3.737  0.5618  0.4451 -0.5989
 4629SOL     OW25519   1.663   3.889  15.092  0.1417 -0.1857 -0.6293
 4629SOL    HW125520   1.650   3.834  15.169  1.0129 -1.3655 -1.3223
 4629SOL    HW225521   1.748   3.850  15.072  0.5788 -0.6971  2.2081
 4630SOL     OW25522   1.415   3.924   5.487 -0.1661 -0.3104  0.3202
 4630SOL    HW125523   1.466   3.886   5.558  0.7528  1.6145  0.6908
 4630SOL    HW225524   1.409   4.018   5.503 -0.0277  0.0070 -1.4968
 4631SOL     OW25525   2.158   1.743   8.825  0.3148  0.4280  0.4443
 4631SOL    HW125526   2.195   1.817   8.777 -1.7595 -1.3879 -3.9419
 4631SOL    HW225527   2.236   1.690   8.836 -0.8887 -1.1488  1.3599
 4632SOL     OW25528   3.575   1.490   2.864 -0.1199 -0.3331 -0.3637
 4632SOL    HW125529   3.505   1.428   2.883 -1.6091  1.7599  0.9282
 4632SOL    HW225530   3.599   1.455   2.777 -2.5484  2.8497 -2.3041
 4633SOL     OW25531   2.051   2.922   7.507  0.2402 -0.1158  0.1390
 4633SOL    HW125532   2.104   2.873   7.444  0.2662 -0.6560  0.5784
 4633SOL    HW225533   1.970   2.934   7.458  0.5655  2.6535  0.2571
 4634SOL     OW25534   3.743   2.998   6.250 -0.0672 -0.5367 -0.3910
 4634SOL    HW125535   3.712   3.089   6.246  1.3892  0.0333  1.1021
 4634SOL    HW225536   3.725   2.965   6.162  0.5426  1.5984 -1.3323
 4635SOL     OW25537   3.726   3.560   7.991  0.2396 -0.5629 -0.0303
 4635SOL    HW125538   3.797   3.537   7.931 -0.9132 -1.4913 -1.0430
 4635SOL    HW225539   3.740   3.512   8.073 -1.8573 -2.4655 -0.7858
 4636SOL     OW25540   1.732   3.611   3.737  0.2420  0.5767 -0.2803
 4636SOL    HW125541   1.812   3.663   3.743  1.5316 -1.3366 -0.6287
 4636SOL    HW225542   1.740   3.568   3.823 -0.0159 -0.4776 -0.7837
 4637SOL     OW25543   0.793   0.711   5.526  0.4011 -0.0213 -0.1148
 4637SOL    HW125544   0.749   0.706   5.441  0.3828  0.6049 -0.1451
 4637SOL    HW225545   0.750   0.786   5.567  0.9954  0.0704  0.3329
 4638SOL     OW25546   3.687   1.360   2.649 -0.5086  0.2573 -0.3774
 4638SOL    HW125547   3.778   1.390   2.647 -1.9943  4.6944 -1.9016
 4638SOL    HW225548   3.698   1.281   2.597  0.2263  0.3265 -0.3203
 4639SOL     OW25549   2.013   2.000   1.864  0.0825 -0.1610 -0.2085
 4639SOL    HW125550   2.006   1.906   1.881 -0.4846 -0.4845 -2.2164
 4639SOL    HW225551   2.023   1.999   1.769  0.0534 -1.0296 -0.2018
 4640SOL     OW25552   3.409   1.251  14.848 -0.0678 -0.2264  0.4300
 4640SOL    HW125553   3.347   1.289  14.909 -0.2537  0.4784 -0.1887
 4640SOL    HW225554   3.462   1.331  14.846 -0.6126  0.1414  0.9930
 4641SOL     OW25555   3.644   2.617  17.530 -0.2982 -0.1515  0.0579
 4641SOL    HW125556   3.582   2.622  17.457  0.9997  1.1109 -0.9652
 4641SOL    HW225557   3.600   2.567  17.599  0.3826 -0.0727  0.5480
 4642SOL     OW25558   2.975   2.285   0.879 -0.0355 -0.1457  0.5942
 4642SOL    HW125559   2.909   2.278   0.810  0.8825  0.4410 -0.3409
 4642SOL    HW225560   2.959   2.378   0.895 -3.5958 -0.4045 -1.5366
 4643SOL     OW25561   2.867   2.589   7.652  0.1953  0.1360  0.6927
 4643SOL    HW125562   2.779   2.627   7.645  0.3187  0.2975 -0.0264
 4643SOL    HW225563   2.904   2.627   7.732 -1.7724 -0.5324  1.9274
 4644SOL     OW25564   3.537   3.737   7.042 -0.1772  0.1697  0.3906
 4644SOL    HW125565   3.545   3.739   6.947  2.7742 -1.0250  0.6178
 4644SOL    HW225566   3.537   3.641   7.046  1.8332  0.1847  0.7793
 4645SOL     OW25567   0.106   3.271   9.853  0.1992  0.0676 -0.1391
 4645SOL    HW125568   0.064   3.323   9.921  0.4926  0.0314  0.0701
 4645SOL    HW225569   0.168   3.338   9.825  0.7493 -0.5681 -0.4427
 4646SOL     OW25570   3.430   1.028  11.001 -0.7778  0.5743 -0.3168
 4646SOL    HW125571   3.483   0.950  10.987  0.2352  1.1174  0.4810
 4646SOL    HW225572   3.389   1.014  11.087 -0.5481  1.3911 -0.0797
 4647SOL     OW25573   2.239   0.606  10.442  0.2913  0.7265 -0.7745
 4647SOL    HW125574   2.151   0.613  10.406  0.4100 -1.5713 -1.4813
 4647SOL    HW225575   2.295   0.639  10.372 -0.2284 -1.3723 -2.1676
 4648SOL     OW25576   2.722   1.705   7.965 -0.3288 -0.3372 -0.0596
 4648SOL    HW125577   2.670   1.773   7.924 -1.8100 -0.4072  1.7004
 4648SOL    HW225578   2.789   1.692   7.898 -0.4944 -0.7046 -0.1509
 4649SOL     OW25579   3.592   3.225   8.271 -0.2239  0.7737  0.5851
 4649SOL    HW125580   3.673   3.191   8.311 -0.3983  1.7230  1.7322
 4649SOL    HW225581   3.532   3.164   8.315 -1.3696  0.1163 -1.8824
 4650SOL     OW25582   2.317   2.787   0.292  0.0663 -0.5748  0.2247
 4650SOL    HW125583   2.297   2.719   0.357 -1.2455  0.8082  1.2868
 4650SOL    HW225584   2.395   2.829   0.329 -2.8038  1.6426  3.7931
 4651SOL     OW25585   0.495   1.761   4.072 -0.1915 -0.0596 -0.0184
 4651SOL    HW125586   0.566   1.710   4.032  2.1539  2.5005  0.8813
 4651SOL    HW225587   0.422   1.704   4.047  0.8743 -1.0811 -0.8212
 4652SOL     OW25588   1.657   1.368   2.882 -0.3879 -0.3128  0.1824
 4652SOL    HW125589   1.747   1.364   2.852 -0.8339  0.5205 -1.2838
 4652SOL    HW225590   1.622   1.426   2.814 -0.7995 -0.8155 -0.0337
 4653SOL     OW25591   0.899   3.775   0.546 -0.4059 -0.4498 -0.5599
 4653SOL    HW125592   0.969   3.811   0.600 -2.0300  0.7476  0.7641
 4653SOL    HW225593   0.905   3.682   0.565  1.0335  0.4345  3.3277
 4654SOL     OW25594   3.912   0.020   1.311  0.0662 -0.5020 -0.1160
 4654SOL    HW125595   3.951   0.035   1.397  0.3385  1.1648 -0.5243
 4654SOL    HW225596   3.970   4.693   1.274  0.0285 -1.4247  1.5012
 4655SOL     OW25597   4.290   3.506   2.357  0.6357  0.5417  0.0532
 4655SOL    HW125598   4.337   3.526   2.438  1.6984  2.3541 -1.0031
 4655SOL    HW225599   4.259   3.591   2.325  0.1817  0.9233  1.5090
 4656SOL     OW25600   2.381   2.959   7.704 -0.3030 -0.7100  0.4239
 4656SOL    HW125601   2.316   2.921   7.763 -0.9452 -0.5693 -0.1939
 4656SOL    HW225602   2.378   2.892   7.635  1.6602  0.5225 -0.8742
 4657SOL     OW25603   4.340   4.642   3.529  0.0078  0.0766  0.1560
 4657SOL    HW125604   4.373   4.648   3.619 -1.3742 -0.5460  0.7032
 4657SOL    HW225605   4.357   4.551   3.504  1.4332  1.2098 -2.9717
 4658SOL     OW25606   2.527   4.324   8.254 -0.4834  0.2345 -0.3754
 4658SOL    HW125607   2.555   4.415   8.245 -2.0441  0.4433 -3.0327
 4658SOL    HW225608   2.514   4.320   8.349  1.0603  0.0087 -0.1785
 4659SOL     OW25609   2.572   3.100   8.374  0.3006  0.5146  0.3933
 4659SOL    HW125610   2.590   3.086   8.281  1.0410 -0.3181  0.6599
 4659SOL    HW225611   2.582   3.012   8.411 -0.1953 -0.0337 -0.7383
 4660SOL     OW25612   3.788   3.684  17.611  0.3210  0.1218  0.3013
 4660SOL    HW125613   3.741   3.713  17.689  0.7903 -0.6115  0.8587
 4660SOL    HW225614   3.870   3.693  17.660  0.3489 -2.7201  0.7746
 4661SOL     OW25615   1.824   1.642  12.158  0.0493 -0.1848  0.5655
 4661SOL    HW125616   1.913   1.615  12.135 -0.9956 -0.0632 -3.7272
 4661SOL    HW225617   1.799   1.571  12.217  1.0095 -0.4093  0.7084
 4662SOL     OW25618   4.515   2.807   0.314 -0.4361  0.3850 -0.0667
 4662SOL    HW125619   4.583   2.780   0.251 -0.2258 -0.2100  0.4101
 4662SOL    HW225620   4.502   2.898   0.291 -3.4788 -0.3330 -1.0902
 4663SOL     OW25621   4.516   1.676   8.039 -0.1618  0.9521 -0.0167
 4663SOL    HW125622   4.560   1.747   8.084 -0.9134  0.2349  1.8266
 4663SOL    HW225623   4.463   1.722   7.975  0.4944  0.1539 -1.1456
 4664SOL     OW25624   1.128   4.249   4.604  0.4635  0.3245  0.4760
 4664SOL    HW125625   1.078   4.324   4.573 -1.6270 -0.8786  0.9167
 4664SOL    HW225626   1.174   4.291   4.677  1.8956  2.0249 -1.3956
 4665SOL     OW25627   1.816   4.153   2.606 -0.5080  0.1352  0.0892
 4665SOL    HW125628   1.845   4.202   2.683  0.9083 -1.2973  0.4620
 4665SOL    HW225629   1.846   4.208   2.533 -0.1014  1.1104  0.9875
 4666SOL     OW25630   3.111   2.686   1.015 -0.4314 -0.4152  0.4545
 4666SOL    HW125631   3.127   2.778   0.996 -0.6474 -0.3479  0.6046
 4666SOL    HW225632   3.204   2.667   1.027 -0.3922  0.3983  1.4203
 4667SOL     OW25633   2.399   0.620  11.451  0.4565 -0.1827  0.0063
 4667SOL    HW125634   2.493   0.604  11.446  0.8708  2.0827  0.7472
 4667SOL    HW225635   2.384   0.612  11.545  0.3979 -0.8948 -0.0583
 4668SOL     OW25636   1.173   2.258   2.229 -0.0094 -0.1587 -0.2170
 4668SOL    HW125637   1.098   2.278   2.173 -0.8321 -1.6788  0.3310
 4668SOL    HW225638   1.240   2.290   2.168 -0.0667  0.4150  0.0202
 4669SOL     OW25639   1.271   2.396   6.039 -0.1568 -0.9035  0.2266
 4669SOL    HW125640   1.219   2.440   6.106 -0.4572 -0.4832 -0.2847
 4669SOL    HW225641   1.263   2.305   6.068 -1.2428 -0.5525  1.0269
 4670SOL     OW25642   0.130   3.186   9.172 -0.0753  0.1931  0.3495
 4670SOL    HW125643   0.161   3.103   9.209 -0.8959  0.4910  1.6923
 4670SOL    HW225644   0.038   3.159   9.175 -0.0718  0.3165  1.5172
 4671SOL     OW25645   2.792   4.637  12.758 -0.4289 -0.1811 -0.0272
 4671SOL    HW125646   2.871   4.583  12.751 -0.6856 -0.5172 -0.3257
 4671SOL    HW225647   2.773   4.646  12.851 -1.0382  1.6699 -0.3185
 4672SOL     OW25648   3.225   1.639  13.750  0.3361 -0.5499 -0.1295
 4672SOL    HW125649   3.203   1.729  13.771 -1.0394 -1.3478  1.8414
 4672SOL    HW225650   3.320   1.651  13.745  0.2182  1.0388  1.4389
 4673SOL     OW25651   0.939   0.249   2.423 -0.1794  0.3944 -0.6455
 4673SOL    HW125652   0.913   0.220   2.336 -0.3957 -3.6226  0.7583
 4673SOL    HW225653   0.967   0.165   2.458 -1.2928  0.1734 -0.2976
 4674SOL     OW25654   3.541   2.629   6.171  0.3073 -0.1252  0.1385
 4674SOL    HW125655   3.480   2.599   6.239  2.0092  1.1254  2.2557
 4674SOL    HW225656   3.480   2.637   6.098 -0.8110 -1.0221  0.9649
 4675SOL     OW25657   1.657   1.019   2.015 -0.1345 -0.1414  0.3788
 4675SOL    HW125658   1.576   1.067   2.000  0.2075 -0.0785 -1.2524
 4675SOL    HW225659   1.623   0.937   2.051 -1.5364  1.1847  2.0634
 4676SOL     OW25660   3.342   0.373   8.201 -0.2143  0.3043 -0.2450
 4676SOL    HW125661   3.266   0.320   8.226 -0.1346  0.1834 -0.2601
 4676SOL    HW225662   3.389   0.311   8.146 -0.8232  1.3250 -1.9257
 4677SOL     OW25663   0.787   1.130   8.321  0.8684 -0.0734 -0.1810
 4677SOL    HW125664   0.756   1.111   8.410 -0.0511  0.6228 -0.3498
 4677SOL    HW225665   0.881   1.143   8.331  0.8953 -0.4350  0.0322
 4678SOL     OW25666   0.510   4.189   4.823  0.2873 -0.0857  0.0342
 4678SOL    HW125667   0.421   4.154   4.813  0.2797 -0.3441  1.0106
 4678SOL    HW225668   0.552   4.119   4.873  1.5954  0.7240  0.0751
 4679SOL     OW25669   2.168   1.064   9.388  0.1636  0.1234 -0.4799
 4679SOL    HW125670   2.251   1.100   9.420  0.8682 -2.0210  0.0998
 4679SOL    HW225671   2.192   0.976   9.362 -0.9774 -0.1400 -0.6301
 4680SOL     OW25672   3.873   4.117   6.394 -0.6778  0.2550 -0.1684
 4680SOL    HW125673   3.959   4.156   6.411  0.0776 -1.5138  0.0157
 4680SOL    HW225674   3.827   4.137   6.475  0.7480 -2.8725  1.3961
 4681SOL     OW25675   1.506   2.572  17.356 -0.2954 -0.1452 -0.1913
 4681SOL    HW125676   1.529   2.479  17.345 -1.2458 -0.5094  0.9003
 4681SOL    HW225677   1.582   2.606  17.404 -2.9363  2.4702  2.1365
 4682SOL     OW25678   0.045   0.722   1.785  0.1255 -0.0448 -0.0533
 4682SOL    HW125679   0.035   0.817   1.782  0.3799 -0.0910 -2.4127
 4682SOL    HW225680   0.014   0.712   1.875 -0.3021 -0.7940 -0.2828
 4683SOL     OW25681   3.144   4.047   4.235  0.6942  0.0023  0.3561
 4683SOL    HW125682   3.223   4.100   4.225  0.8088 -0.2162  0.0930
 4683SOL    HW225683   3.078   4.112   4.213 -0.0896 -0.8847  0.0615
 4684SOL     OW25684   0.106   1.502   6.190 -0.3877  0.2175 -0.0889
 4684SOL    HW125685   0.049   1.485   6.115 -0.5440  0.1806  0.0365
 4684SOL    HW225686   0.055   1.473   6.266 -2.2715  0.7716 -1.1275
 4685SOL     OW25687   1.732   1.835   4.087 -0.0939 -0.3503  0.1273
 4685SOL    HW125688   1.689   1.860   4.169  2.8942  1.3503  1.1646
 4685SOL    HW225689   1.770   1.913   4.047 -0.0786  0.5965  1.9939
 4686SOL     OW25690   4.072   2.030   8.700  0.7934 -0.6650 -0.0643
 4686SOL    HW125691   4.132   2.010   8.628 -0.2832  1.7325 -1.6384
 4686SOL    HW225692   4.058   1.943   8.738  0.0820 -1.0332 -1.1806
 4687SOL     OW25693   1.610   0.696  15.807  0.3617 -0.2434  0.1667
 4687SOL    HW125694   1.675   0.658  15.748 -1.6836 -2.1915 -0.8186
 4687SOL    HW225695   1.586   0.614  15.850 -1.0648  0.0373 -0.0967
 4688SOL     OW25696   4.201   3.059   3.287 -0.1809 -0.0254 -0.0451
 4688SOL    HW125697   4.246   3.141   3.271 -0.1546  0.1591  0.9456
 4688SOL    HW225698   4.175   3.042   3.197 -2.6419 -0.0166  0.6577
 4689SOL     OW25699   3.887   2.789   1.075  0.0263  0.2689 -0.2995
 4689SOL    HW125700   3.962   2.824   1.026  1.4489 -0.6897  1.2150
 4689SOL    HW225701   3.883   2.836   1.158  0.6196 -0.2432  0.0134
 4690SOL     OW25702   0.105   0.852   4.654 -0.3349 -0.2172  0.0099
 4690SOL    HW125703   0.020   0.893   4.636 -1.4735 -1.9846  1.2341
 4690SOL    HW225704   0.082   0.764   4.686 -0.0794 -0.2028  0.2324
 4691SOL     OW25705   4.128   2.510   0.491  0.4117  0.2905  0.2372
 4691SOL    HW125706   4.043   2.547   0.514  0.6513  0.7429  0.4188
 4691SOL    HW225707   4.105   2.430   0.445 -1.9604  1.6486 -0.9374
 4692SOL     OW25708   1.455   1.745   4.577 -0.2276  0.1152 -0.3339
 4692SOL    HW125709   1.381   1.805   4.585 -0.4515  0.2292 -3.2201
 4692SOL    HW225710   1.519   1.769   4.645 -1.2335 -1.5613  1.2043
 4693SOL     OW25711   0.910   4.136   7.798 -0.8551  0.5801  0.1982
 4693SOL    HW125712   0.916   4.091   7.882  1.7379  1.1836  0.3532
 4693SOL    HW225713   0.993   4.119   7.752 -0.8148  0.3631  0.3531
 4694SOL     OW25714   2.770   0.256  10.025 -0.7845  0.1747  1.1960
 4694SOL    HW125715   2.744   0.341   9.990  1.4528 -1.0308 -3.4183
 4694SOL    HW225716   2.866   0.263  10.029 -0.8948  1.4913  1.5115
 4695SOL     OW25717   1.712   2.940   4.127  0.2009 -1.1251  0.5512
 4695SOL    HW125718   1.655   2.987   4.188  1.8313 -0.3871  1.5144
 4695SOL    HW225719   1.638   2.926   4.069 -0.2150  0.7591  0.6104
 4696SOL     OW25720   0.741   3.061   1.387 -0.2277  0.0196 -0.1047
 4696SOL    HW125721   0.699   3.115   1.454  1.4489  0.9923  0.1711
 4696SOL    HW225722   0.761   2.987   1.445  1.0376 -0.3533 -1.0019
 4697SOL     OW25723   3.085   3.076   5.509 -0.2355 -0.0662  0.3138
 4697SOL    HW125724   3.023   3.126   5.562 -1.6097 -2.8758  1.3402
 4697SOL    HW225725   3.080   3.126   5.428 -0.0464  1.1222  1.0257
 4698SOL     OW25726   1.168   3.165   6.989 -0.1259 -0.4011 -0.4730
 4698SOL    HW125727   1.109   3.092   7.007  0.6124 -0.5299  1.3868
 4698SOL    HW225728   1.244   3.137   7.040  0.5596  0.7710 -0.8287
 4699SOL     OW25729   4.172   0.713   0.389  0.2054  0.0928 -0.6168
 4699SOL    HW125730   4.149   0.623   0.415 -1.2132  0.6078 -0.1036
 4699SOL    HW225731   4.092   0.742   0.345 -1.6491 -3.7115  0.1977
 4700SOL     OW25732   3.901   2.132   1.392 -0.2757  0.2061 -0.0923
 4700SOL    HW125733   3.972   2.189   1.362 -0.5271  0.9035  0.6587
 4700SOL    HW225734   3.879   2.079   1.315 -0.8806 -1.1450  1.0030
 4701SOL     OW25735   0.227   0.458   5.482 -0.1324  0.0276  0.0822
 4701SOL    HW125736   0.157   0.401   5.512  1.4010 -0.9430  1.8131
 4701SOL    HW225737   0.308   0.412   5.503 -0.4232 -0.8692 -0.7761
 4702SOL     OW25738   2.203   1.150   3.271  0.1272 -0.2704  0.0143
 4702SOL    HW125739   2.213   1.133   3.365  0.4710 -0.1926 -0.0082
 4702SOL    HW225740   2.284   1.114   3.235  1.2109  0.9795  1.2112
 4703SOL     OW25741   1.428   0.227   7.349 -0.3020 -0.5637  0.5401
 4703SOL    HW125742   1.369   0.165   7.393  0.4974  0.2301  2.6998
 4703SOL    HW225743   1.362   0.290   7.320  3.3176  2.0936 -2.0486
 4704SOL     OW25744   3.845   2.496  11.572  0.1288 -0.1978 -0.1152
 4704SOL    HW125745   3.787   2.467  11.501  0.8107  0.9529 -1.1441
 4704SOL    HW225746   3.832   2.590  11.565  1.4519 -0.1040 -1.5340
 4705SOL     OW25747   1.964   0.348   6.892  0.7046  0.3744 -0.2474
 4705SOL    HW125748   1.973   0.442   6.909 -0.9880  0.7503 -1.4056
 4705SOL    HW225749   1.880   0.333   6.935  0.2881  0.0014 -1.1789
 4706SOL     OW25750   2.105   2.748   9.880 -0.0111  0.0968 -0.2853
 4706SOL    HW125751   2.036   2.732   9.944  0.5346 -0.5353  0.1404
 4706SOL    HW225752   2.177   2.785   9.931 -0.6073 -0.6801  1.1483
 4707SOL     OW25753   3.885   3.744   9.553 -0.1155 -0.0788  0.5690
 4707SOL    HW125754   3.790   3.755   9.562 -0.1874 -1.2160  1.1374
 4707SOL    HW225755   3.897   3.702   9.638  0.9484 -2.4914 -0.7948
 4708SOL     OW25756   2.327   3.533   3.289 -0.0931 -0.3099 -0.2197
 4708SOL    HW125757   2.329   3.539   3.193  0.7594  1.2006 -0.1095
 4708SOL    HW225758   2.339   3.625   3.314  1.7362 -1.0097  1.4360
 4709SOL     OW25759   3.930   0.584   6.134 -0.1677  0.3025 -0.5606
 4709SOL    HW125760   3.868   0.571   6.062 -0.3146 -0.4946 -0.2930
 4709SOL    HW225761   3.994   0.639   6.090  0.3346 -0.2496 -0.5176
 4710SOL     OW25762   3.854   1.007   0.101 -0.3280 -0.0785 -0.7403
 4710SOL    HW125763   3.946   1.022   0.082  0.0381  0.8487  1.7033
 4710SOL    HW225764   3.809   1.077   0.055  0.9959  0.6218 -0.9651
 4711SOL     OW25765   1.942   3.372  10.469  0.3615 -0.6288 -0.1389
 4711SOL    HW125766   1.996   3.387  10.392  1.1782  0.7907  0.7008
 4711SOL    HW225767   1.859   3.386  10.424 -0.6752  0.2328  1.9960
 4712SOL     OW25768   0.592   4.019   7.580 -0.0578  0.2116 -0.7707
 4712SOL    HW125769   0.624   3.929   7.589 -0.9176  0.0260  0.4122
 4712SOL    HW225770   0.544   4.033   7.661  1.4009 -0.8241  0.2765
 4713SOL     OW25771   0.258   0.439   5.135 -0.5648  0.6203 -0.2820
 4713SOL    HW125772   0.297   0.510   5.185  1.2945  2.2036 -3.9315
 4713SOL    HW225773   0.284   0.364   5.187 -2.1874  0.7964  0.7839
 4714SOL     OW25774   3.279   3.373   4.940 -0.1175 -1.0176  0.8563
 4714SOL    HW125775   3.192   3.413   4.943 -0.3274 -1.5145  1.4332
 4714SOL    HW225776   3.304   3.383   4.848  0.9203 -1.2925  1.1134
 4715SOL     OW25777   3.294   4.319   7.523 -0.2899  0.3172 -0.7141
 4715SOL    HW125778   3.345   4.272   7.456 -0.4883 -0.8904 -0.0176
 4715SOL    HW225779   3.210   4.274   7.513  0.8700 -1.4476 -2.5866
 4716SOL     OW25780   0.422   0.623   4.778  0.5708  0.0625 -0.4382
 4716SOL    HW125781   0.483   0.628   4.852  0.6034  0.8331 -0.5126
 4716SOL    HW225782   0.363   0.694   4.803 -0.7359 -1.1441 -0.0625
 4717SOL     OW25783   1.006   2.885  13.772 -0.4869 -0.0099 -0.1283
 4717SOL    HW125784   1.061   2.820  13.728  0.1497  1.5784 -1.6768
 4717SOL    HW225785   1.019   2.854  13.861 -3.0136 -0.3148  0.1228
 4718SOL     OW25786   1.817   1.442  11.417  0.5247 -0.0463  0.1368
 4718SOL    HW125787   1.831   1.399  11.333 -3.4481  0.6275 -0.8647
 4718SOL    HW225788   1.737   1.491  11.403 -1.3681 -2.5847  1.9539
 4719SOL     OW25789   1.734   4.298  10.527  0.0145  0.2539 -0.2404
 4719SOL    HW125790   1.746   4.309  10.621  0.8299 -0.7563 -0.2296
 4719SOL    HW225791   1.705   4.207  10.528  0.2134  0.1777 -1.1564
 4720SOL     OW25792   0.701   2.094   3.688  0.4297 -0.2971  0.2389
 4720SOL    HW125793   0.722   2.031   3.758  1.3773  1.4235  1.4959
 4720SOL    HW225794   0.752   2.052   3.618  0.5893 -0.9207  0.7297
 4721SOL     OW25795   2.465   3.918   5.989 -0.0368 -0.1046 -0.2632
 4721SOL    HW125796   2.476   4.013   5.987 -1.7254  0.1649  2.7723
 4721SOL    HW225797   2.446   3.892   5.899 -1.4430 -1.5361  0.4474
 4722SOL     OW25798   0.384   1.229   6.161 -0.1786  0.6619  0.1722
 4722SOL    HW125799   0.411   1.262   6.075  2.1166 -1.8226 -0.0440
 4722SOL    HW225800   0.348   1.307   6.203 -3.2924  0.0049 -1.2912
 4723SOL     OW25801   1.414   4.428   8.713 -0.4130  0.3974 -0.1969
 4723SOL    HW125802   1.382   4.447   8.801  0.5937 -0.0869  0.2714
 4723SOL    HW225803   1.439   4.517   8.685  1.3299 -0.0448 -0.0731
 4724SOL     OW25804   4.149   2.399   9.208 -0.5876 -0.6379  0.6612
 4724SOL    HW125805   4.206   2.422   9.135 -0.0069 -3.1231  0.3310
 4724SOL    HW225806   4.153   2.305   9.188 -0.3310 -0.3878 -0.4538
 4725SOL     OW25807   0.463   2.260   8.461 -0.8743  0.3422 -0.3719
 4725SOL    HW125808   0.505   2.194   8.516 -1.9919 -0.1880 -0.1801
 4725SOL    HW225809   0.415   2.296   8.536  0.9295 -0.2692  1.0859
 4726SOL     OW25810   3.781   4.281   6.887 -0.5657 -0.6559  0.3012
 4726SOL    HW125811   3.694   4.268   6.926 -0.4717 -1.6617  0.1538
 4726SOL    HW225812   3.774   4.375   6.867 -0.3912 -0.3215  1.7513
 4727SOL     OW25813   0.792   1.066   1.912 -0.1775 -0.2549  0.0792
 4727SOL    HW125814   0.822   1.077   2.002 -1.9763  2.3698  0.3440
 4727SOL    HW225815   0.819   0.976   1.890 -1.2710 -0.4320 -0.5871
 4728SOL     OW25816   1.824   3.876  16.600  0.5502  0.6267  0.2202
 4728SOL    HW125817   1.742   3.920  16.626  1.0355  1.3066  0.5980
 4728SOL    HW225818   1.836   3.804  16.661  2.5854  1.1351  0.3907
 4729SOL     OW25819   4.536   1.129   7.791  0.2647  0.3074  0.2711
 4729SOL    HW125820   4.559   1.126   7.884  0.4650 -1.0851  0.1741
 4729SOL    HW225821   4.464   1.066   7.789  0.8594 -0.3447 -0.9798
 4730SOL     OW25822   3.168   3.231   8.304  0.5680  0.0562  0.0456
 4730SOL    HW125823   3.094   3.171   8.317  1.2448 -0.7736  0.0436
 4730SOL    HW225824   3.144   3.285   8.228  1.2271 -1.5871 -1.3130
 4731SOL     OW25825   0.322   1.946  10.593 -0.7868 -0.3000  0.4023
 4731SOL    HW125826   0.335   1.891  10.671 -0.8633 -2.1429 -0.8703
 4731SOL    HW225827   0.363   2.025  10.627 -2.2403 -0.1812  1.8957
 4732SOL     OW25828   4.687   2.902   7.443 -0.0601  0.1375 -0.4234
 4732SOL    HW125829   4.691   2.983   7.391  0.1873  2.5621  3.3307
 4732SOL    HW225830   4.732   2.849   7.378 -1.3615 -1.7959  0.2442
 4733SOL     OW25831   4.618   4.560   6.418  0.5385 -0.0191  0.6082
 4733SOL    HW125832   4.628   4.648   6.382  2.7415 -0.7974 -0.6955
 4733SOL    HW225833   4.708   4.537   6.441  1.0216  0.5325 -0.7498
 4734SOL     OW25834   0.118   2.828   4.790 -0.1890  0.0954 -0.1063
 4734SOL    HW125835   0.036   2.811   4.836 -0.3148 -0.4725 -0.5341
 4734SOL    HW225836   0.163   2.883   4.853  0.2678 -1.0676  0.5721
 4735SOL     OW25837   4.175   4.289   5.719 -0.0857  0.1667  0.4065
 4735SOL    HW125838   4.120   4.367   5.730  0.6209  0.9942 -2.0587
 4735SOL    HW225839   4.116   4.230   5.671  1.9607 -1.2554 -0.3407
 4736SOL     OW25840   2.850   3.245   6.012  0.3019  0.3696  0.3558
 4736SOL    HW125841   2.850   3.337   5.986  0.7239  0.5378  0.9586
 4736SOL    HW225842   2.931   3.221   5.967  1.3432 -1.7087  3.3489
 4737SOL     OW25843   0.437   0.576   0.790 -0.5804  0.1031  0.3771
 4737SOL    HW125844   0.505   0.568   0.857  1.4586  3.2656 -1.3277
 4737SOL    HW225845   0.355   0.551   0.833 -0.4676  3.0850  2.3512
 4738SOL     OW25846   1.121   1.602   8.501 -0.3064  0.0673 -0.4342
 4738SOL    HW125847   1.063   1.678   8.487  0.4445  0.4358 -1.5667
 4738SOL    HW225848   1.213   1.624   8.487 -0.3775  0.7468  0.1626
 4739SOL     OW25849   1.658   2.876   1.534 -0.0398  0.3123 -0.4528
 4739SOL    HW125850   1.622   2.873   1.446  2.4563  2.1552 -1.5460
 4739SOL    HW225851   1.727   2.942   1.526 -1.3394  1.5199 -1.5490
 4740SOL     OW25852   4.511   0.381   0.159  0.3369 -0.4903 -1.0805
 4740SOL    HW125853   4.583   0.354   0.216 -0.3211 -0.8175 -0.4028
 4740SOL    HW225854   4.510   0.324   0.082 -1.3353 -1.8907 -0.0196
 4741SOL     OW25855   2.461   1.868   6.867  0.3916  0.3782 -0.0147
 4741SOL    HW125856   2.512   1.788   6.877  0.9965  0.5560 -1.6384
 4741SOL    HW225857   2.373   1.838   6.889  0.1271  0.7265 -0.5872
 4742SOL     OW25858   4.574   0.431   9.192 -0.4069  0.2375 -0.2117
 4742SOL    HW125859   4.662   0.450   9.162 -0.1382  2.2581  1.7815
 4742SOL    HW225860   4.557   0.498   9.259 -0.1404  0.4496 -0.3599
 4743SOL     OW25861   0.619   3.403  11.252  0.2256  0.2986  0.2105
 4743SOL    HW125862   0.603   3.445  11.336 -0.4135 -0.6150  0.5526
 4743SOL    HW225863   0.671   3.465  11.202  0.5296 -1.3897 -1.5843
 4744SOL     OW25864   3.410   4.251  16.298  0.2346 -0.3058  0.5682
 4744SOL    HW125865   3.488   4.283  16.344 -0.6147  1.9090  0.4667
 4744SOL    HW225866   3.440   4.177  16.244  0.5881  1.2669 -1.4134
 4745SOL     OW25867   1.517   2.280   4.898  0.2530 -0.2548  0.4737
 4745SOL    HW125868   1.510   2.202   4.843  2.2224  1.1326 -1.7827
 4745SOL    HW225869   1.612   2.293   4.910  0.1466  0.6016  0.3643
 4746SOL     OW25870   4.000   0.395   0.971  0.0061 -0.4458 -0.0246
 4746SOL    HW125871   4.046   0.323   1.014 -0.7671 -0.9666 -0.0620
 4746SOL    HW225872   3.909   0.371   0.990  0.2208 -1.2677 -0.0341
 4747SOL     OW25873   4.012   1.833   7.953 -0.2581  0.4232 -0.4524
 4747SOL    HW125874   3.947   1.888   7.996 -3.8366 -2.8733 -1.6540
 4747SOL    HW225875   4.090   1.888   7.959  0.4715 -0.6730  0.0245
 4748SOL     OW25876   0.764   1.664  10.068 -0.7218 -1.0407  0.1233
 4748SOL    HW125877   0.791   1.707  10.149 -0.2138  0.1702 -0.7031
 4748SOL    HW225878   0.673   1.686  10.049 -1.4557 -3.1902  1.0881
 4749SOL     OW25879   0.450   2.611   2.680 -0.1409 -0.4532 -0.3546
 4749SOL    HW125880   0.446   2.577   2.591 -0.3148 -0.5294 -0.3175
 4749SOL    HW225881   0.368   2.575   2.714 -1.3887  2.6631 -0.0714
 4750SOL     OW25882   4.119   4.482   7.900 -0.1883  0.5092 -0.0991
 4750SOL    HW125883   4.061   4.546   7.940  1.1990  1.6579  0.1028
 4750SOL    HW225884   4.083   4.463   7.814 -2.2446  0.0917  0.8619
 4751SOL     OW25885   2.921   1.918  16.823  0.2401  0.2744  0.0404
 4751SOL    HW125886   2.999   1.864  16.831 -0.1533 -0.6114 -2.1879
 4751SOL    HW225887   2.946   2.000  16.867  0.1557  0.6340 -0.5867
 4752SOL     OW25888   2.986   0.033   7.472  0.0275 -0.0041 -0.3160
 4752SOL    HW125889   2.926   0.027   7.546 -1.1300  0.9640 -1.1946
 4752SOL    HW225890   2.929   0.063   7.401 -0.5944  0.6356  0.4721
 4753SOL     OW25891   1.830   4.534   6.135 -0.0343  0.3597  0.7215
 4753SOL    HW125892   1.780   4.536   6.054  0.2445 -1.4800  0.5038
 4753SOL    HW225893   1.758   4.512   6.194 -0.1656  1.8144  1.1191
 4754SOL     OW25894   0.346   1.724   8.531  0.1439  0.4970  0.2383
 4754SOL    HW125895   0.312   1.637   8.511  0.7491  0.2408  0.3277
 4754SOL    HW225896   0.304   1.765   8.456  1.3582 -0.1674 -0.8107
 4755SOL     OW25897   1.149   1.682  10.573  0.0663  0.2302 -0.2018
 4755SOL    HW125898   1.093   1.612  10.540 -0.1134 -0.2492  1.1239
 4755SOL    HW225899   1.095   1.699  10.651  2.2049 -0.1781  1.3814
 4756SOL     OW25900   3.738   1.793  10.858  0.5527 -0.2953 -0.2176
 4756SOL    HW125901   3.827   1.758  10.851  1.6477  3.0631 -3.0068
 4756SOL    HW225902   3.708   1.799  10.768 -0.1188 -2.0644 -0.1046
 4757SOL     OW25903   2.489   2.092   8.493 -0.1490 -0.4670 -0.4950
 4757SOL    HW125904   2.517   2.001   8.503  0.5233 -0.0555  1.2604
 4757SOL    HW225905   2.551   2.123   8.558 -0.3769 -3.4506  1.1501
 4758SOL     OW25906   0.884   1.973   5.934  0.3378 -0.4058 -0.4187
 4758SOL    HW125907   0.960   1.950   5.987  1.7083  0.4497 -1.9741
 4758SOL    HW225908   0.872   1.899   5.875  1.7823 -0.3140 -0.8481
 4759SOL     OW25909   3.436   4.554  12.920  0.1160 -0.1687  0.2640
 4759SOL    HW125910   3.517   4.594  12.888 -0.9083  0.4490 -1.5388
 4759SOL    HW225911   3.383   4.533  12.843 -1.0428 -1.4096  1.3927
 4760SOL     OW25912   3.770   0.959   4.963  0.1420  0.0000  0.0858
 4760SOL    HW125913   3.739   0.870   4.946  2.1508 -0.3343 -1.8403
 4760SOL    HW225914   3.743   1.003   4.882  1.9078  0.2357 -0.3761
 4761SOL     OW25915   3.044   4.455   2.286  0.4283  0.7468  0.7021
 4761SOL    HW125916   2.967   4.406   2.316  1.1348 -1.9471 -1.9324
 4761SOL    HW225917   3.103   4.383   2.265  1.1852  1.8875 -1.0885
 4762SOL     OW25918   2.153   1.993   3.938  0.1782  0.0260 -0.1896
 4762SOL    HW125919   2.066   1.973   3.904 -1.1625  2.1217  1.9067
 4762SOL    HW225920   2.141   2.050   4.015 -1.1486 -0.9264  0.3115
 4763SOL     OW25921   4.150   0.805   2.133 -0.2298  0.5639 -0.4208
 4763SOL    HW125922   4.140   0.822   2.227 -0.6370  1.2758 -0.5932
 4763SOL    HW225923   4.093   0.728   2.131 -0.1058  0.3638  3.4211
 4764SOL     OW25924   3.333   0.603   1.775  0.0327 -0.1410  0.6915
 4764SOL    HW125925   3.335   0.547   1.853 -1.1787 -0.3374  0.5871
 4764SOL    HW225926   3.416   0.580   1.733 -1.2091  0.2138 -1.9731
 4765SOL     OW25927   1.892   0.860   6.693  0.2826  0.2463  0.0420
 4765SOL    HW125928   1.974   0.840   6.646 -0.1306  0.9402 -0.9677
 4765SOL    HW225929   1.845   0.777   6.683  0.6322 -0.2006  2.2407
 4766SOL     OW25930   1.743   2.486   7.854  0.2214  0.2940 -0.0029
 4766SOL    HW125931   1.768   2.528   7.936 -0.4887 -1.3805  1.0522
 4766SOL    HW225932   1.808   2.416   7.849 -0.2134 -0.0875 -0.2867
 4767SOL     OW25933   2.940   3.825   3.270 -0.1706  0.4935  0.0175
 4767SOL    HW125934   2.977   3.742   3.300  0.2891  0.5333 -0.4375
 4767SOL    HW225935   2.853   3.836   3.308 -1.2953 -0.7444 -2.2257
 4768SOL     OW25936   1.451   2.334   6.263  0.4027  0.4043 -0.2914
 4768SOL    HW125937   1.424   2.365   6.176  0.6929 -1.7960 -1.1882
 4768SOL    HW225938   1.416   2.391   6.331  0.5908 -1.3316  1.2843
 4769SOL     OW25939   0.017   3.576   5.636 -0.2740  0.8674 -0.4752
 4769SOL    HW125940   4.697   3.571   5.562  1.7880 -0.5715 -2.0191
 4769SOL    HW225941   0.097   3.553   5.589  0.3523  0.8669  0.5864
 4770SOL     OW25942   1.620   1.126   5.069 -0.4142  0.2555  0.0752
 4770SOL    HW125943   1.624   1.041   5.113  0.6027 -0.1157 -0.7361
 4770SOL    HW225944   1.676   1.114   4.992 -0.0764  1.4377  0.1464
 4771SOL     OW25945   3.227   4.653   9.385  0.1994  0.3359  0.3843
 4771SOL    HW125946   3.295   4.713   9.354 -0.3183  0.5460 -0.3317
 4771SOL    HW225947   3.149   4.691   9.345 -0.2497 -2.0210 -0.9702
 4772SOL     OW25948   3.501   3.263   3.906  0.1666 -0.4261 -0.0051
 4772SOL    HW125949   3.507   3.254   4.001  0.8971 -0.1075 -0.0253
 4772SOL    HW225950   3.554   3.187   3.884 -2.0234 -2.3657  1.4171
 4773SOL     OW25951   1.489   2.839   8.999  0.2247 -0.1914 -0.3132
 4773SOL    HW125952   1.507   2.798   9.084  0.7632  0.5940 -0.0419
 4773SOL    HW225953   1.475   2.761   8.946  2.0075  0.1760 -1.3340
 4774SOL     OW25954   2.789   3.171   6.713 -0.0212 -0.0960 -0.2474
 4774SOL    HW125955   2.707   3.218   6.698  0.2426  0.5499  0.3315
 4774SOL    HW225956   2.756   3.091   6.754 -0.2123 -0.3722 -0.9456
 4775SOL     OW25957   2.363   0.390   4.172  0.0763  0.1957  0.7305
 4775SOL    HW125958   2.311   0.443   4.233 -1.0122 -0.5561  0.4695
 4775SOL    HW225959   2.337   0.300   4.194 -0.5853  0.2873  0.3178
 4776SOL     OW25960   2.596   2.091   6.913  0.3257  0.2704  0.1999
 4776SOL    HW125961   2.606   2.075   7.007  1.9391 -3.5734 -0.6159
 4776SOL    HW225962   2.537   2.019   6.890  1.2022  0.2196 -1.9003
 4777SOL     OW25963   3.848   2.626   7.197 -0.0940 -0.1405  0.6412
 4777SOL    HW125964   3.856   2.649   7.290  1.4695 -0.5256  0.6068
 4777SOL    HW225965   3.758   2.656   7.184  0.2586  0.5745 -0.0904
 4778SOL     OW25966   2.216   3.174   6.268  0.1627  0.0026  0.0894
 4778SOL    HW125967   2.172   3.203   6.347 -0.5388  1.5973 -0.8783
 4778SOL    HW225968   2.169   3.219   6.198  0.5018 -1.8185 -1.3290
 4779SOL     OW25969   3.434   0.413  11.080 -0.5258  0.5426 -0.6824
 4779SOL    HW125970   3.399   0.331  11.116 -0.0694  0.6437 -0.0068
 4779SOL    HW225971   3.508   0.432  11.138 -1.5206  1.3282  0.3531
 4780SOL     OW25972   1.914   2.141  14.700 -0.6397 -0.4391  0.3329
 4780SOL    HW125973   1.979   2.142  14.629  0.2030 -0.0470  1.1129
 4780SOL    HW225974   1.935   2.060  14.747  1.1715  0.3648  0.9147
 4781SOL     OW25975   2.151   2.071   5.898  1.1520 -0.3124  0.2045
 4781SOL    HW125976   2.228   2.038   5.853  1.7077  0.8981  0.2691
 4781SOL    HW225977   2.095   2.028   5.833 -1.5900  2.4189  0.7040
 4782SOL     OW25978   0.500   3.221   0.262  0.1728  0.2860 -0.0990
 4782SOL    HW125979   0.500   3.194   0.353  3.2962 -0.6280 -0.4040
 4782SOL    HW225980   0.534   3.310   0.270  2.2860 -0.3402 -2.2080
 4783SOL     OW25981   3.233   4.548  12.735  1.0193  0.2627 -0.1621
 4783SOL    HW125982   3.185   4.473  12.699  0.2703 -0.4680  2.3569
 4783SOL    HW225983   3.188   4.627  12.704 -0.0881 -0.7479 -1.1024
 4784SOL     OW25984   0.359   1.402   5.635 -0.5480 -0.2000  0.7152
 4784SOL    HW125985   0.317   1.337   5.578  0.1675  0.6835 -0.8114
 4784SOL    HW225986   0.344   1.478   5.580  0.4962  1.6857  3.0241
 4785SOL     OW25987   3.094   3.586   0.194 -0.6884  0.4170 -0.0845
 4785SOL    HW125988   3.108   3.643   0.118 -0.5884  3.4490  2.1841
 4785SOL    HW225989   3.175   3.537   0.199 -0.6116  0.5417 -0.1044
 4786SOL     OW25990   4.389   0.997  12.648  0.2888 -0.1556  0.1233
 4786SOL    HW125991   4.409   1.086  12.619  0.4633 -1.0307 -2.4980
 4786SOL    HW225992   4.477   0.961  12.638 -0.1367 -0.4005 -2.7324
 4787SOL     OW25993   3.380   3.106   8.456  0.1386 -0.0002 -0.2480
 4787SOL    HW125994   3.381   3.141   8.545  0.3526 -3.4420  1.0673
 4787SOL    HW225995   3.300   3.137   8.413  1.0732  1.7846 -0.7139
 4788SOL     OW25996   2.404   3.902   4.162 -0.0236  0.1998  0.0359
 4788SOL    HW125997   2.402   3.842   4.087  0.8040 -0.2439  0.3688
 4788SOL    HW225998   2.321   3.884   4.207  0.4253 -0.2020  0.7130
 4789SOL     OW25999   0.069   1.824   3.264  0.5561  0.5456  0.1849
 4789SOL    HW126000   0.140   1.845   3.204  1.3042 -0.9633  0.5520
 4789SOL    HW226001   0.025   1.750   3.223 -1.8044  1.2844  1.3320
 4790SOL     OW26002   0.725   0.579   4.395  0.3213 -0.1138  0.4812
 4790SOL    HW126003   0.752   0.492   4.367  0.9183  0.5279 -0.9340
 4790SOL    HW226004   0.766   0.631   4.327 -0.6464 -0.1274 -0.1128
 4791SOL     OW26005   2.493   2.040   3.757 -0.3010 -0.3382 -0.0684
 4791SOL    HW126006   2.441   2.119   3.771  1.1511  0.2970  1.8478
 4791SOL    HW226007   2.583   2.073   3.764  0.0936 -1.4266  0.1294
 4792SOL     OW26008   2.855   0.890   5.282 -0.0764 -0.6062 -0.5074
 4792SOL    HW126009   2.877   0.938   5.362 -0.2751 -0.8965 -0.2734
 4792SOL    HW226010   2.898   0.806   5.299  0.8798  0.0731  0.4758
 4793SOL     OW26011   3.857   4.029   0.257  0.5104  0.3064  0.8101
 4793SOL    HW126012   3.891   4.093   0.320 -0.2443  1.1464  0.3729
 4793SOL    HW226013   3.927   3.964   0.254  0.6090  0.5080 -1.2966
 4794SOL     OW26014   3.029   2.296   8.410 -0.1831  0.1806 -0.0522
 4794SOL    HW126015   3.062   2.328   8.326  2.9155 -0.4336  0.9163
 4794SOL    HW226016   3.068   2.209   8.403 -0.8773 -0.0516 -1.0065
 4795SOL     OW26017   2.964   4.014   6.200 -0.4218 -0.8790 -0.4383
 4795SOL    HW126018   2.900   4.069   6.155  0.2781 -1.1341 -1.7270
 4795SOL    HW226019   3.039   4.071   6.212 -2.0829  1.0015  0.9929
 4796SOL     OW26020   3.563   0.848   5.593 -0.2344 -0.7161  0.2540
 4796SOL    HW126021   3.569   0.933   5.636  0.4629 -0.7931  0.3157
 4796SOL    HW226022   3.545   0.889   5.508  0.7324  3.6118  2.1514
 4797SOL     OW26023   4.298   4.550  13.354 -0.2665 -0.1965  0.2001
 4797SOL    HW126024   4.234   4.608  13.314  0.3068 -0.6938 -1.4402
 4797SOL    HW226025   4.366   4.534  13.289 -0.2375 -2.7640  0.8496
 4798SOL     OW26026   0.935   2.563   8.294 -0.4282 -0.3735  0.2337
 4798SOL    HW126027   0.912   2.627   8.227 -0.7174  0.6776  1.3275
 4798SOL    HW226028   0.859   2.563   8.352 -1.4432  0.3881 -1.0838
 4799SOL     OW26029   3.097   3.782   6.146  0.1021 -0.3482  0.0551
 4799SOL    HW126030   3.110   3.824   6.060  3.3372  0.1966  0.8186
 4799SOL    HW226031   3.045   3.851   6.188  0.0609 -1.0703  1.1743
 4800SOL     OW26032   0.988   0.804   4.863 -0.2977  0.2999 -0.4228
 4800SOL    HW126033   0.893   0.807   4.871 -0.4014  0.5688 -1.8401
 4800SOL    HW226034   1.025   0.791   4.951  0.9817  0.9982 -0.8720
 4801SOL     OW26035   3.671   2.115   8.764 -0.0040  0.2037 -0.5758
 4801SOL    HW126036   3.708   2.105   8.852  1.5140  0.5961 -1.1712
 4801SOL    HW226037   3.717   2.060   8.700  4.0565  3.1119 -0.1139
 4802SOL     OW26038   4.476   3.026  10.508 -0.4800 -0.4618  0.1786
 4802SOL    HW126039   4.407   2.968  10.538 -0.6455 -0.1943  0.3070
 4802SOL    HW226040   4.438   3.071  10.433 -1.6055 -0.6423  0.6481
 4803SOL     OW26041   3.756   2.223  11.314 -0.8592 -0.2806 -0.1380
 4803SOL    HW126042   3.708   2.305  11.324 -0.4359 -0.0219 -0.2341
 4803SOL    HW226043   3.846   2.236  11.344 -0.7724 -0.4886 -0.3086
 4804SOL     OW26044   3.372   3.466   6.670  0.3101 -0.0324 -0.1624
 4804SOL    HW126045   3.357   3.399   6.604  0.3449 -0.1541 -0.0460
 4804SOL    HW226046   3.458   3.438   6.699 -0.8920 -1.2657  2.1733
 4805SOL     OW26047   1.348   3.887   9.277  0.4586  0.1455  0.7860
 4805SOL    HW126048   1.276   3.824   9.286 -1.0029  2.1274  2.8322
 4805SOL    HW226049   1.300   3.958   9.237  1.5231  0.1027 -0.5604
 4806SOL     OW26050   1.446   3.682   1.135  0.5388  0.0498  0.7484
 4806SOL    HW126051   1.389   3.728   1.197 -2.5315  0.1512 -2.1252
 4806SOL    HW226052   1.435   3.590   1.160 -0.8196  0.2421  0.8743
 4807SOL     OW26053   3.618   0.666   7.781 -0.7756 -0.4412 -0.2804
 4807SOL    HW126054   3.551   0.672   7.713 -0.4942 -0.2635 -0.5344
 4807SOL    HW226055   3.671   0.743   7.764 -0.1046 -0.8292  0.0514
 4808SOL     OW26056   3.981   0.665  16.075  0.0386  0.2748  0.0158
 4808SOL    HW126057   4.048   0.732  16.065 -1.5615  2.1168  1.4294
 4808SOL    HW226058   3.940   0.710  16.149 -1.9128  1.4641 -1.7710
 4809SOL     OW26059   2.810   1.850   6.899  0.1560 -0.4511 -0.0804
 4809SOL    HW126060   2.760   1.790   6.953  0.9284 -0.0361  1.1008
 4809SOL    HW226061   2.887   1.873   6.951 -0.4120 -1.6147  1.2665
 4810SOL     OW26062   3.412   0.942   7.925  0.2245  0.3369 -0.2567
 4810SOL    HW126063   3.344   0.875   7.917 -0.3856  1.0578 -1.1968
 4810SOL    HW226064   3.435   0.941   8.018 -2.7821  1.8859  0.5134
 4811SOL     OW26065   0.766   4.057   5.535 -0.2692 -0.4748 -0.4059
 4811SOL    HW126066   0.680   4.092   5.556 -0.5985 -1.1489 -0.6501
 4811SOL    HW226067   0.758   3.970   5.498  2.0226 -1.3508  1.1313
 4812SOL     OW26068   2.102   4.015   2.856 -0.1521  0.3045 -0.1333
 4812SOL    HW126069   2.146   3.940   2.897  0.1415  0.7799  0.4142
 4812SOL    HW226070   2.017   4.014   2.900  0.4978 -0.0639  1.1155
 4813SOL     OW26071   4.090   1.744   5.967 -0.3820 -0.3449 -0.3071
 4813SOL    HW126072   4.043   1.815   5.923 -0.1345  0.4695  0.7381
 4813SOL    HW226073   4.023   1.710   6.027 -1.3858  2.4857  0.2116
 4814SOL     OW26074   1.925   3.811  12.068 -0.8089  0.3688 -0.0253
 4814SOL    HW126075   1.939   3.728  12.024 -0.7558  0.3295  0.0665
 4814SOL    HW226076   1.987   3.805  12.141 -2.6768  0.8079  1.6028
 4815SOL     OW26077   3.874   0.877   1.600 -0.9979 -0.1485 -0.0312
 4815SOL    HW126078   3.827   0.907   1.522 -1.1157 -1.4745 -0.4670
 4815SOL    HW226079   3.898   0.786   1.580  0.5129 -0.2412  2.1896
 4816SOL     OW26080   0.699   3.451   7.407 -0.0213 -0.3202  0.1437
 4816SOL    HW126081   0.791   3.478   7.418  0.0298  0.2531 -1.8141
 4816SOL    HW226082   0.703   3.356   7.407 -1.3780 -0.3718  0.1458
 4817SOL     OW26083   4.533   3.165  10.056 -0.4346 -0.1571 -0.1307
 4817SOL    HW126084   4.563   3.248  10.017 -0.7912  0.5988  1.2052
 4817SOL    HW226085   4.535   3.104   9.982  1.4341  1.0154 -1.0467
 4818SOL     OW26086   1.918   3.409   6.661 -0.7036 -0.3723  1.2703
 4818SOL    HW126087   1.933   3.417   6.567  1.6853 -2.2761  1.5007
 4818SOL    HW226088   1.836   3.361   6.660  0.3308 -2.0248 -3.3475
 4819SOL     OW26089   4.437   0.775   2.091  0.4430  0.1434 -0.1650
 4819SOL    HW126090   4.344   0.776   2.115  0.2998 -2.2646 -0.6655
 4819SOL    HW226091   4.459   0.687   2.120 -1.0663 -0.0432  0.4002
 4820SOL     OW26092   2.114   1.436  14.525  0.7781 -0.0927 -0.2602
 4820SOL    HW126093   2.067   1.516  14.548  0.2723 -0.4309 -0.1224
 4820SOL    HW226094   2.188   1.447  14.586  1.3732  0.5896 -1.1057
 4821SOL     OW26095   2.275   1.625  11.521  0.2146 -0.1511 -0.2510
 4821SOL    HW126096   2.204   1.569  11.490  1.8611 -2.2672 -0.1904
 4821SOL    HW226097   2.324   1.631  11.439 -2.4777 -0.7184 -1.8735
 4822SOL     OW26098   2.324   0.150  12.017 -0.4297 -0.0392  0.0642
 4822SOL    HW126099   2.371   0.227  11.987 -0.6055  1.0293  2.4858
 4822SOL    HW226100   2.242   0.198  12.031 -0.2771  0.4943 -0.9425
 4823SOL     OW26101   0.977   4.670   4.244  0.3802 -0.4253  0.7972
 4823SOL    HW126102   0.984   4.575   4.249  0.2023 -0.4956 -0.2305
 4823SOL    HW226103   0.956   4.687   4.336  0.6061 -0.2466  0.8151
 4824SOL     OW26104   2.823   0.662   2.874 -0.1770 -0.9331 -0.0663
 4824SOL    HW126105   2.812   0.567   2.879 -0.2417 -0.9206  0.0207
 4824SOL    HW226106   2.861   0.664   2.786  0.3993 -0.9104  0.1851
 4825SOL     OW26107   2.665   1.810   6.223 -0.5839 -0.6808 -0.4574
 4825SOL    HW126108   2.693   1.812   6.131 -1.4807 -3.5027 -0.8058
 4825SOL    HW226109   2.577   1.772   6.213  0.1280 -1.9943 -1.8878
 4826SOL     OW26110   2.933   1.598   0.781 -0.2071  0.4718 -0.6407
 4826SOL    HW126111   2.993   1.673   0.778 -0.3984  0.5737 -2.1244
 4826SOL    HW226112   2.995   1.527   0.764  1.7222  1.6745  1.3181
 4827SOL     OW26113   0.718   0.300   4.058 -0.3704 -0.3145  0.2094
 4827SOL    HW126114   0.725   0.302   3.963 -0.6280  0.8759  0.2163
 4827SOL    HW226115   0.670   0.217   4.063 -0.4970 -0.1688  1.5633
 4828SOL     OW26116   2.752   0.342  10.350 -0.4352 -0.7882  0.4623
 4828SOL    HW126117   2.734   0.358  10.257 -0.7077  0.3733  0.7164
 4828SOL    HW226118   2.830   0.287  10.353 -0.0251 -0.2760 -0.8984
 4829SOL     OW26119   3.589   3.865   5.974  0.3128 -0.1265  0.3772
 4829SOL    HW126120   3.597   3.950   5.929  2.6877 -0.0843  0.8902
 4829SOL    HW226121   3.642   3.891   6.049  0.5596  2.3281 -0.6246
 4830SOL     OW26122   4.066   3.063   5.921 -0.0958  0.3655 -0.0821
 4830SOL    HW126123   4.135   2.996   5.916 -0.4951  0.0562 -1.3256
 4830SOL    HW226124   4.062   3.077   6.016 -2.2032 -1.6489  0.1512
 4831SOL     OW26125   2.335   1.545   2.168  0.5795 -0.2373  0.3252
 4831SOL    HW126126   2.241   1.550   2.186  0.3315 -1.0207 -0.7034
 4831SOL    HW226127   2.379   1.537   2.252  0.6959 -0.4909  0.2396
 4832SOL     OW26128   2.762   1.289   7.300  0.2218 -0.1134 -0.2167
 4832SOL    HW126129   2.769   1.316   7.392 -1.1275  1.5022 -0.6007
 4832SOL    HW226130   2.834   1.340   7.263  0.2485  0.2046  0.2748
 4833SOL     OW26131   3.459   3.480   2.085 -0.3372  0.0385  0.1462
 4833SOL    HW126132   3.450   3.413   2.017 -1.3571 -0.3934  0.6973
 4833SOL    HW226133   3.553   3.479   2.099 -0.0952 -1.0017 -1.6701
 4834SOL     OW26134   0.761   3.604   5.785 -0.7218  0.3306 -0.1910
 4834SOL    HW126135   0.773   3.698   5.774 -0.9826  0.1591 -2.0582
 4834SOL    HW226136   0.697   3.598   5.714  0.4826 -0.8529 -1.1821
 4835SOL     OW26137   0.798   0.534   7.539 -0.0250 -0.5113  0.1613
 4835SOL    HW126138   0.877   0.484   7.516  0.1527 -0.7054  1.2173
 4835SOL    HW226139   0.789   0.537   7.634  1.6087 -2.6838  0.3872
 4836SOL     OW26140   1.801   0.187   8.655 -0.3738 -0.2056 -0.0707
 4836SOL    HW126141   1.835   0.165   8.568  0.5845  0.6480  0.0836
 4836SOL    HW226142   1.857   0.261   8.681 -0.3034 -0.3890  0.2860
 4837SOL     OW26143   4.206   4.564   6.276  0.1823  0.3342  0.1541
 4837SOL    HW126144   4.223   4.625   6.204  1.8808 -1.2676 -0.8151
 4837SOL    HW226145   4.111   4.564   6.281  0.2408 -2.4379  1.5827
 4838SOL     OW26146   1.458   0.591   6.534  0.2983  0.2362 -0.3991
 4838SOL    HW126147   1.370   0.558   6.553  0.0967  1.0324  0.0189
 4838SOL    HW226148   1.448   0.586   6.438 -1.8356  0.5752 -0.2037
 4839SOL     OW26149   1.805   4.038   7.517  0.3259  0.4253  0.1366
 4839SOL    HW126150   1.787   4.103   7.450  0.3103  1.3062  0.9981
 4839SOL    HW226151   1.885   3.999   7.481 -0.1944 -1.3174  0.8642
 4840SOL     OW26152   3.032   3.322   2.691  0.3205  0.2612  0.5995
 4840SOL    HW126153   2.977   3.247   2.712 -0.3151  0.5274 -0.0867
 4840SOL    HW226154   3.013   3.399   2.744  0.2013 -1.0842  2.4973
 4841SOL     OW26155   2.554   2.427   1.928  0.1247  0.9073 -0.1798
 4841SOL    HW126156   2.546   2.334   1.951  0.1470  0.7576 -0.7793
 4841SOL    HW226157   2.528   2.468   2.011  1.3036  0.9678  0.1515
 4842SOL     OW26158   1.095   2.329   4.882 -0.4521 -0.0239 -0.0297
 4842SOL    HW126159   1.005   2.330   4.913 -0.6704  1.8381 -0.7279
 4842SOL    HW226160   1.119   2.239   4.904  1.7995  0.2493 -1.3286
 4843SOL     OW26161   1.272   3.953   5.946  0.4223  0.0069  0.4063
 4843SOL    HW126162   1.204   3.903   5.900 -0.4874  2.1991 -0.6608
 4843SOL    HW226163   1.285   3.886   6.013  0.1434 -1.6881 -1.2273
 4844SOL     OW26164   1.930   0.162   9.634 -0.1154  0.2318 -0.5358
 4844SOL    HW126165   1.836   0.166   9.654  0.1428 -1.8102  1.1148
 4844SOL    HW226166   1.966   0.245   9.665 -0.3111  0.4991 -1.0324
 4845SOL     OW26167   0.706   2.089   7.466 -0.1600  0.0652 -0.6272
 4845SOL    HW126168   0.770   2.017   7.465  0.3728  0.5143  0.2450
 4845SOL    HW226169   0.640   2.055   7.406 -0.6195  0.4437 -0.3354
 4846SOL     OW26170   2.589   1.779   3.810  0.2619  0.4367 -0.1372
 4846SOL    HW126171   2.562   1.824   3.891  0.5311  0.6469 -0.1640
 4846SOL    HW226172   2.538   1.812   3.736 -1.3255  0.3316  0.9082
 4847SOL     OW26173   2.513   1.065   2.174 -0.7292 -0.1409  0.3173
 4847SOL    HW126174   2.474   1.129   2.115  1.0483  0.8985  0.2924
 4847SOL    HW226175   2.478   1.092   2.259  1.0126  0.2199  0.9070
 4848SOL     OW26176   2.120   2.115   9.349  0.2699 -0.5332 -0.0647
 4848SOL    HW126177   2.035   2.125   9.391  0.3464  0.1706 -0.0836
 4848SOL    HW226178   2.144   2.024   9.367  1.5126 -0.4871 -1.4295
 4849SOL     OW26179   3.664   1.675   6.354 -0.2519 -0.4034 -0.1624
 4849SOL    HW126180   3.608   1.752   6.343 -0.9737 -1.0987 -1.3171
 4849SOL    HW226181   3.636   1.611   6.288 -3.5454  0.3868  0.4504
 4850SOL     OW26182   1.782   1.375   2.409  0.0368 -0.2747 -0.6884
 4850SOL    HW126183   1.737   1.331   2.482  0.1276 -0.0674 -0.5065
 4850SOL    HW226184   1.770   1.294   2.359  0.8409  0.0254 -1.3546
 4851SOL     OW26185   2.944   0.811  16.306  0.6413  0.0410 -0.2123
 4851SOL    HW126186   3.026   0.855  16.327  0.9254 -0.7244  0.2918
 4851SOL    HW226187   2.947   0.731  16.359 -2.4120 -1.0020 -1.6545
 4852SOL     OW26188   2.568   2.371  15.687  0.1171  0.0664  0.0564
 4852SOL    HW126189   2.659   2.400  15.679 -0.0536  1.1249  2.0925
 4852SOL    HW226190   2.521   2.454  15.692  0.3950  0.1241  1.6506
 4853SOL     OW26191   2.671   4.065   2.943  0.4231 -0.1658 -0.3321
 4853SOL    HW126192   2.594   4.014   2.965  2.4308 -3.2346 -0.4993
 4853SOL    HW226193   2.710   4.017   2.871  2.3721  1.4461 -0.3660
 4854SOL     OW26194   2.900   4.245   1.784 -0.0591 -0.2375 -0.4059
 4854SOL    HW126195   2.850   4.310   1.735  1.8238  1.0221 -0.6366
 4854SOL    HW226196   2.985   4.270   1.749  0.5216  0.7867  1.7315
 4855SOL     OW26197   4.234   0.542   9.202 -0.2368 -0.3727  0.1522
 4855SOL    HW126198   4.216   0.522   9.110 -2.6598 -1.9692  0.9791
 4855SOL    HW226199   4.258   0.634   9.186  2.8454 -1.0022  1.2566
 4856SOL     OW26200   1.662   3.079   4.562 -0.4739 -0.1137  0.1561
 4856SOL    HW126201   1.696   2.993   4.587  0.0636 -0.1396 -0.6468
 4856SOL    HW226202   1.718   3.138   4.613 -1.7751  0.3753  1.0035
 4857SOL     OW26203   0.757   2.979   6.003  0.2079 -0.1016 -0.4723
 4857SOL    HW126204   0.686   3.042   6.002  2.1460  2.1036 -0.0754
 4857SOL    HW226205   0.819   3.025   6.060  0.4896  1.4665 -2.0448
 4858SOL     OW26206   3.938   4.672   3.299 -0.5615  0.3656  0.0015
 4858SOL    HW126207   3.998   4.640   3.231 -0.0240  1.2398  0.0623
 4858SOL    HW226208   4.005   4.707   3.358  0.2833  0.9970 -1.3177
 4859SOL     OW26209   2.244   4.244   4.808 -0.5198  0.0976 -0.1657
 4859SOL    HW126210   2.199   4.174   4.855 -2.6410 -0.0416 -2.3724
 4859SOL    HW226211   2.270   4.282   4.891  0.1467  1.0052 -0.7934
 4860SOL     OW26212   3.776   0.834   5.769  0.0194 -0.1666 -0.0965
 4860SOL    HW126213   3.712   0.850   5.700 -2.1312 -0.2401  1.8518
 4860SOL    HW226214   3.834   0.908   5.756 -1.1109  0.7331 -0.0337
 4861SOL     OW26215   1.103   3.798  15.270  0.3701 -0.1563  1.0460
 4861SOL    HW126216   1.046   3.733  15.229  0.7980  0.7056 -0.9347
 4861SOL    HW226217   1.059   3.879  15.243  3.5006  0.9865 -0.6216
 4862SOL     OW26218   3.906   1.250   4.439 -0.1760 -0.2748  0.4486
 4862SOL    HW126219   3.895   1.344   4.452  1.9872 -0.2170  1.7724
 4862SOL    HW226220   3.894   1.238   4.345 -0.5196  1.5771  0.2506
 4863SOL     OW26221   1.913   0.239   2.132 -0.0513 -0.2014 -0.1182
 4863SOL    HW126222   1.873   0.193   2.058  3.0469  0.3173 -2.1144
 4863SOL    HW226223   1.952   0.316   2.090  0.4027 -0.3187  0.0894
 4864SOL     OW26224   2.262   2.105   0.804  0.1728  0.3292 -0.0982
 4864SOL    HW126225   2.309   2.035   0.850  1.6677  0.8609 -0.8016
 4864SOL    HW226226   2.328   2.137   0.742  0.8247 -1.2859 -0.2228
 4865SOL     OW26227   0.118   0.296   3.103 -0.2309  0.0418  0.3940
 4865SOL    HW126228   0.121   0.279   3.197 -1.0164 -0.6203  0.3031
 4865SOL    HW226229   0.035   0.343   3.091 -1.0758 -1.8636 -1.3053
 4866SOL     OW26230   0.699   1.805   6.131  0.1440 -0.4756  0.2346
 4866SOL    HW126231   0.691   1.731   6.191  0.6888  0.0953  1.0023
 4866SOL    HW226232   0.774   1.848   6.173 -1.3123  0.2668  2.0499
 4867SOL     OW26233   4.221   1.315   2.763  0.2885 -0.2985 -0.6139
 4867SOL    HW126234   4.277   1.297   2.688  1.2213 -0.8430  0.2034
 4867SOL    HW226235   4.251   1.270   2.842  1.0671 -0.4511 -0.9987
 4868SOL     OW26236   3.362   0.525  11.337  0.5312  0.0926 -0.8762
 4868SOL    HW126237   3.416   0.604  11.348  0.7362 -0.1654 -0.0778
 4868SOL    HW226238   3.365   0.528  11.241 -0.1070  2.9071 -0.8179
 4869SOL     OW26239   1.713   0.748  17.545  0.0314  0.9919 -0.7049
 4869SOL    HW126240   1.630   0.719  17.583 -0.0079 -0.1273 -1.6475
 4869SOL    HW226241   1.692   0.829  17.498  0.7385  0.5507 -1.7672
 4870SOL     OW26242   1.658   1.523   3.600  0.2941  1.1667  0.0165
 4870SOL    HW126243   1.748   1.528   3.569  0.0380 -0.0496 -0.9260
 4870SOL    HW226244   1.676   1.545   3.692  3.0730  2.4487 -0.8292
 4871SOL     OW26245   0.618   4.598  10.076 -0.6039  0.3215  0.0750
 4871SOL    HW126246   0.662   4.617   9.993 -2.8363  0.6292 -1.0513
 4871SOL    HW226247   0.694   4.587  10.133 -1.6928 -1.0482  1.2671
 4872SOL     OW26248   2.191   1.878  11.619  0.1632  0.2214 -0.5746
 4872SOL    HW126249   2.224   1.923  11.541  0.8629  2.9699  1.3333
 4872SOL    HW226250   2.229   1.791  11.610  1.2151  0.6613 -0.3356
 4873SOL     OW26251   2.596   1.358   6.176  0.3586  0.3827 -0.1623
 4873SOL    HW126252   2.672   1.353   6.119 -0.2115  0.1403 -0.9050
 4873SOL    HW226253   2.627   1.415   6.246 -2.0559 -0.7253  1.8229
 4874SOL     OW26254   3.143   0.510   5.202 -0.5156 -0.1819  0.0509
 4874SOL    HW126255   3.213   0.556   5.248 -2.1566 -1.9630  4.3021
 4874SOL    HW226256   3.181   0.423   5.185  0.1687  0.0794  0.2461
 4875SOL     OW26257   4.441   0.077   6.086 -0.0544  0.2169 -0.4809
 4875SOL    HW126258   4.386   0.149   6.117  3.9813  2.3150  1.6974
 4875SOL    HW226259   4.514   0.089   6.147 -0.6187 -0.1789  0.2659
 4876SOL     OW26260   0.685   4.566   6.152  0.2629  0.2306  0.6074
 4876SOL    HW126261   0.615   4.618   6.111  0.1114 -0.8979 -0.5512
 4876SOL    HW226262   0.676   4.481   6.110  1.9201 -0.4334  1.5721
 4877SOL     OW26263   2.774   4.017   2.305  0.5664 -0.1334 -0.0821
 4877SOL    HW126264   2.763   3.947   2.369  0.2262 -0.5024 -0.5450
 4877SOL    HW226265   2.869   4.023   2.298  0.3311  0.3469 -2.9870
 4878SOL     OW26266   4.376   4.284   2.864  0.2765 -0.3635 -0.0080
 4878SOL    HW126267   4.322   4.329   2.799  0.0743  1.4228  1.3959
 4878SOL    HW226268   4.340   4.330   2.940  0.8926  0.0882  0.0061
 4879SOL     OW26269   3.881   0.859   7.620  0.2269 -0.0165 -0.0571
 4879SOL    HW126270   3.937   0.934   7.600  0.7680 -0.1506  0.9484
 4879SOL    HW226271   3.934   0.822   7.691 -1.3669 -0.4402  0.9364
 4880SOL     OW26272   4.147   0.932  12.895 -0.0378  0.4437  0.5400
 4880SOL    HW126273   4.207   0.970  12.831 -2.1533  1.0842 -1.0659
 4880SOL    HW226274   4.175   0.976  12.975 -2.0304 -0.3346  1.6828
 4881SOL     OW26275   3.592   0.831   0.552  0.4947 -0.0660 -0.1615
 4881SOL    HW126276   3.593   0.847   0.458 -2.5745  0.3542 -0.1258
 4881SOL    HW226277   3.676   0.789   0.565  0.0235 -0.5016  1.5142
 4882SOL     OW26278   4.560   4.160  15.765  0.1595  0.6241  0.0493
 4882SOL    HW126279   4.547   4.255  15.758 -1.3105  0.5141  1.1284
 4882SOL    HW226280   4.620   4.143  15.693  0.2387 -0.8027  0.4610
 4883SOL     OW26281   2.766   0.634  14.813  0.3833  0.4764  0.0357
 4883SOL    HW126282   2.703   0.695  14.777 -0.1208  0.7687  1.3902
 4883SOL    HW226283   2.845   0.688  14.810  0.5018  0.2443 -0.8806
 4884SOL     OW26284   3.055   0.281   5.700  0.1017 -0.3548  0.2423
 4884SOL    HW126285   3.109   0.212   5.738 -0.1544 -1.2915 -1.1242
 4884SOL    HW226286   2.978   0.284   5.757 -0.4881  1.1332 -0.6198
 4885SOL     OW26287   0.559   3.462   2.939  0.2352 -0.1958  0.3635
 4885SOL    HW126288   0.637   3.478   2.992  0.4422 -0.4231  0.1277
 4885SOL    HW226289   0.592   3.490   2.853 -0.1215  2.9671  1.2665
 4886SOL     OW26290   3.854   3.199   2.744 -0.2675  0.1107 -0.1080
 4886SOL    HW126291   3.852   3.103   2.745 -2.8540  0.1581  1.4147
 4886SOL    HW226292   3.806   3.205   2.827  0.7516 -0.6682  0.5328
 4887SOL     OW26293   0.153   3.420   3.850 -0.7144  0.2216 -0.1417
 4887SOL    HW126294   0.205   3.415   3.930 -0.4119  0.8627 -0.2976
 4887SOL    HW226295   0.092   3.491   3.870 -1.5633 -0.0513 -1.7624
 4888SOL     OW26296   0.837   4.277   3.757 -0.2881 -0.4031  0.3045
 4888SOL    HW126297   0.762   4.245   3.708  0.9260 -0.4033 -1.5618
 4888SOL    HW226298   0.904   4.211   3.737  0.6460 -0.2511  2.8264
 4889SOL     OW26299   4.474   4.093   9.270 -0.8465 -0.5823  0.3812
 4889SOL    HW126300   4.535   4.164   9.291  0.6264 -1.9831  0.8782
 4889SOL    HW226301   4.532   4.034   9.222 -2.4148 -1.5099 -0.3894
 4890SOL     OW26302   0.315   4.700   5.642 -0.6713  0.1957 -0.1163
 4890SOL    HW126303   0.377   4.654   5.584  0.5699 -1.2822  2.3931
 4890SOL    HW226304   0.250   4.630   5.652  0.5042 -0.6259  1.7875
 4891SOL     OW26305   0.482   0.726   4.512  0.0930  0.3909 -0.0486
 4891SOL    HW126306   0.459   0.680   4.593  0.0799  2.1166  0.9219
 4891SOL    HW226307   0.539   0.660   4.474 -2.1191 -1.7394  0.3139
 4892SOL     OW26308   0.006   2.756   8.313 -0.3506  0.5996  0.0104
 4892SOL    HW126309   4.656   2.738   8.284 -0.8011  0.1222  1.7157
 4892SOL    HW226310   0.031   2.675   8.358 -0.5896  0.4256 -0.1684
 4893SOL     OW26311   0.515   1.984   7.021 -0.6595  0.0193  0.0674
 4893SOL    HW126312   0.578   1.941   6.964  0.0767  0.0603  0.8516
 4893SOL    HW226313   0.570   1.996   7.098  0.3669  0.6265 -0.7587
 4894SOL     OW26314   0.946   4.671   5.611 -0.5565 -0.2248 -0.2240
 4894SOL    HW126315   0.959   4.720   5.530  0.1491  1.6880  1.0705
 4894SOL    HW226316   0.856   4.645   5.590 -0.8732  0.7335 -0.0418
 4895SOL     OW26317   3.847   2.294   7.200 -0.2937 -0.4373  0.1778
 4895SOL    HW126318   3.813   2.367   7.148 -2.8317 -0.9588  1.0736
 4895SOL    HW226319   3.873   2.231   7.133 -0.3097  0.1421 -0.3724
 4896SOL     OW26320   4.351   1.517   5.567  0.4079  0.1956 -0.6112
 4896SOL    HW126321   4.410   1.453   5.608  0.2850  1.6919  1.8903
 4896SOL    HW226322   4.281   1.455   5.547  0.4634  0.4901 -1.7021
 4897SOL     OW26323   0.508   4.575   5.495  0.3055 -0.9429 -0.2007
 4897SOL    HW126324   0.553   4.638   5.439  1.0101 -0.0938  1.3190
 4897SOL    HW226325   0.506   4.498   5.437 -1.7386 -0.6721 -0.4974
 4898SOL     OW26326   2.351   3.629   1.947 -0.0887 -0.0626  0.0982
 4898SOL    HW126327   2.260   3.655   1.935  0.0461  1.1995  1.7763
 4898SOL    HW226328   2.393   3.661   1.867 -0.8393 -2.4313 -1.2454
 4899SOL     OW26329   1.062   0.202  11.949  0.3384  0.2745 -0.1573
 4899SOL    HW126330   1.113   0.181  12.027 -1.9705 -5.6896 -0.3063
 4899SOL    HW226331   1.126   0.266  11.917  1.5267  1.0333  3.7348
 4900SOL     OW26332   0.046   3.873   6.847  0.2576  0.8571 -0.0677
 4900SOL    HW126333   0.035   3.968   6.845  0.3982  0.9173  1.7888
 4900SOL    HW226334   0.045   3.843   6.757  1.3398 -0.1899  0.2772
 4901SOL     OW26335   1.990   0.396   8.685  0.0111  0.1160  0.1062
 4901SOL    HW126336   2.057   0.330   8.669 -0.2270 -1.0209  3.6643
 4901SOL    HW226337   2.002   0.452   8.609  0.7372  1.7390  1.4344
 4902SOL     OW26338   4.442   0.883   6.132  0.3393 -0.2633 -0.7772
 4902SOL    HW126339   4.384   0.888   6.209 -0.4197 -0.2525 -1.3471
 4902SOL    HW226340   4.438   0.788   6.119 -0.5687 -0.1738 -1.1506
 4903SOL     OW26341   4.637   0.472   6.810 -0.7021  0.2000  0.6758
 4903SOL    HW126342   4.658   0.541   6.747  1.3888 -1.2045 -0.2006
 4903SOL    HW226343   4.724   0.451   6.844 -0.7886  0.1340  0.8555
 4904SOL     OW26344   2.475   0.285   8.345  0.1446 -0.0036 -0.1352
 4904SOL    HW126345   2.498   0.368   8.302 -2.7991  0.6859 -0.3704
 4904SOL    HW226346   2.562   0.265   8.378 -0.4354  0.5043  1.6892
 4905SOL     OW26347   4.295   1.186   2.526  0.0166 -0.2720  0.8382
 4905SOL    HW126348   4.220   1.193   2.467  0.6696 -0.7104 -0.0361
 4905SOL    HW226349   4.363   1.237   2.482  1.3934 -1.4990  1.5226
 4906SOL     OW26350   0.734   0.129   5.531  0.4494 -0.2204 -0.3561
 4906SOL    HW126351   0.809   0.149   5.475 -0.1739  0.2906 -1.0089
 4906SOL    HW226352   0.666   0.120   5.464  1.1886 -1.2389 -0.9671
 4907SOL     OW26353   3.536   2.139   1.549 -0.2671 -0.4621  0.3284
 4907SOL    HW126354   3.482   2.061   1.538 -1.7933  0.9265 -2.0928
 4907SOL    HW226355   3.497   2.198   1.484  0.3934 -1.5765 -1.0816
 4908SOL     OW26356   2.145   2.003   4.307 -0.0775 -0.2655 -0.6483
 4908SOL    HW126357   2.211   2.065   4.274 -1.5796  2.2635  1.0998
 4908SOL    HW226358   2.084   2.067   4.345 -1.3080 -0.8016 -1.7377
 4909SOL     OW26359   1.473   0.014   8.052 -0.1637 -0.7589 -0.2089
 4909SOL    HW126360   1.565   0.012   8.079  0.3509 -0.7657 -1.9916
 4909SOL    HW226361   1.427   0.056   8.125  0.6883 -0.5870  0.2335
 4910SOL     OW26362   1.008   2.782   0.536 -0.0374  0.2146 -0.2278
 4910SOL    HW126363   1.057   2.731   0.471 -1.0426 -1.0384  0.0064
 4910SOL    HW226364   0.974   2.714   0.595  1.0448  0.6779  0.9208
 4911SOL     OW26365   3.402   4.110  13.208 -0.1303 -0.4218  0.4817
 4911SOL    HW126366   3.494   4.109  13.234 -0.1983  3.1127  0.7557
 4911SOL    HW226367   3.402   4.194  13.163  0.5683 -0.5542  0.2370
 4912SOL     OW26368   0.516   0.985   5.385  0.1765  1.1145 -0.0398
 4912SOL    HW126369   0.555   0.994   5.298  1.5761  1.3024  0.6141
 4912SOL    HW226370   0.431   1.028   5.377  1.5063  3.2845 -2.2440
 4913SOL     OW26371   0.323   3.789   6.390 -0.1869  0.3218 -0.4997
 4913SOL    HW126372   0.416   3.795   6.408 -0.5828  0.0316  1.6863
 4913SOL    HW226373   0.314   3.795   6.295  0.0849  0.5520 -0.5103
 4914SOL     OW26374   1.017   0.990   4.270  0.4938 -0.8599 -0.4135
 4914SOL    HW126375   0.922   0.977   4.270  0.5340 -1.2113 -2.9461
 4914SOL    HW226376   1.033   1.025   4.182 -0.0103  2.0933  0.6935
 4915SOL     OW26377   1.623   0.839   1.286  0.5604  0.3494 -1.3962
 4915SOL    HW126378   1.604   0.929   1.258 -0.6441  1.1802  2.1319
 4915SOL    HW226379   1.716   0.853   1.307  0.1319  0.8133  0.1813
 4916SOL     OW26380   4.188   3.296   1.146 -0.0574  0.6896 -0.3771
 4916SOL    HW126381   4.135   3.332   1.217 -2.4821 -0.5435 -1.5642
 4916SOL    HW226382   4.226   3.215   1.180  0.1365  0.7329 -0.4900
 4917SOL     OW26383   1.181   3.381   3.511  0.5369 -0.2654  0.3339
 4917SOL    HW126384   1.136   3.424   3.584 -2.0663 -0.6977 -0.9884
 4917SOL    HW226385   1.268   3.420   3.510  0.6839 -0.6587 -2.0559
 4918SOL     OW26386   4.453   2.887   9.445  0.1119  0.2281 -0.2880
 4918SOL    HW126387   4.493   2.973   9.452  1.7492 -0.6054  0.5237
 4918SOL    HW226388   4.369   2.917   9.481  0.5288 -2.2158  2.6669
 4919SOL     OW26389   2.847   1.657   8.198  0.1010  0.7833 -0.1719
 4919SOL    HW126390   2.804   1.677   8.115  0.5739  0.4387 -0.4987
 4919SOL    HW226391   2.906   1.732   8.205 -0.8436  1.4371  0.9236
 4920SOL     OW26392   3.916   1.026   2.606 -0.2473 -0.2959  0.1114
 4920SOL    HW126393   3.852   0.962   2.575  0.8559 -0.2652 -2.2832
 4920SOL    HW226394   3.991   0.973   2.632  0.3964 -0.7242 -2.5405
 4921SOL     OW26395   4.443   3.739   9.448 -0.0128  0.1196 -0.0347
 4921SOL    HW126396   4.534   3.763   9.465 -0.1198  0.7495 -0.3453
 4921SOL    HW226397   4.413   3.819   9.492 -1.4232  0.0123 -0.8017
 4922SOL     OW26398   0.463   1.878   8.722  0.6355 -0.1116  0.0964
 4922SOL    HW126399   0.376   1.917   8.730 -0.4400 -2.6335  0.5582
 4922SOL    HW226400   0.444   1.815   8.652 -1.0520  0.4394  0.0488
 4923SOL     OW26401   2.685   0.101  14.780 -0.1304  0.1855 -0.3224
 4923SOL    HW126402   2.778   0.076  14.785  0.1730  1.3671 -0.0263
 4923SOL    HW226403   2.707   0.194  14.788 -1.6717  0.6745 -1.8710
 4924SOL     OW26404   3.228   1.921  13.725  0.3958  0.3130  0.4306
 4924SOL    HW126405   3.163   1.969  13.777  1.4466  0.2069  1.8410
 4924SOL    HW226406   3.273   1.982  13.667  1.8843  0.0428  1.2935
 4925SOL     OW26407   4.118   3.020   5.616 -0.3918  0.0735 -0.1741
 4925SOL    HW126408   4.172   2.940   5.618 -1.8806 -0.9479 -1.0693
 4925SOL    HW226409   4.097   3.039   5.707  0.9084  0.0846  0.1353
 4926SOL     OW26410   3.115   4.217  15.165  0.6949 -0.3669 -0.1806
 4926SOL    HW126411   3.131   4.271  15.243  1.0590 -0.0573 -0.4685
 4926SOL    HW226412   3.112   4.131  15.207 -0.5564  0.1766  0.8577
 4927SOL     OW26413   3.382   2.843   1.585  0.1795 -0.1831 -0.3172
 4927SOL    HW126414   3.333   2.784   1.527 -0.3295  0.6061 -0.6943
 4927SOL    HW226415   3.473   2.817   1.573  0.3881  0.7428 -0.7461
 4928SOL     OW26416   1.099   4.617  16.560  0.2293 -0.3336 -0.2180
 4928SOL    HW126417   1.101   4.658  16.647 -1.8253  2.4236 -1.4662
 4928SOL    HW226418   1.098   4.694  16.502  0.3773  1.5613  2.2706
 4929SOL     OW26419   2.504   4.444   6.113 -0.7339 -0.0063 -0.0263
 4929SOL    HW126420   2.423   4.490   6.135 -0.3777 -0.1917  1.6365
 4929SOL    HW226421   2.534   4.500   6.041  0.0819 -0.7857 -0.3027
 4930SOL     OW26422   2.276   0.075   2.599 -0.0696 -0.1566 -0.0570
 4930SOL    HW126423   2.267   4.720   2.613  0.9293 -0.7036 -3.0751
 4930SOL    HW226424   2.325   0.101   2.677  1.3719 -1.8169 -0.4069
 4931SOL     OW26425   3.004   2.090   3.857 -0.2748  0.2168 -0.2308
 4931SOL    HW126426   3.091   2.056   3.834 -1.0324 -2.6047  1.0021
 4931SOL    HW226427   2.981   2.030   3.928  1.6271 -0.2861 -0.0466
 4932SOL     OW26428   1.014   3.571   6.311  0.0220  0.4861 -0.0462
 4932SOL    HW126429   1.056   3.595   6.393  2.1680 -1.4590 -0.5650
 4932SOL    HW226430   1.076   3.502   6.286 -0.4124 -0.5709  1.7829
 4933SOL     OW26431   3.005   2.130  16.956 -0.1978 -0.4663  0.3906
 4933SOL    HW126432   3.076   2.111  17.017 -0.4458 -2.9985 -0.1020
 4933SOL    HW226433   3.014   2.223  16.934 -0.8679  0.0428  2.2693
 4934SOL     OW26434   0.687   0.280   1.670 -0.0649  0.7449  0.2439
 4934SOL    HW126435   0.695   0.303   1.763  0.1000  1.9781 -0.0736
 4934SOL    HW226436   0.592   0.287   1.655  0.0062 -1.3477 -1.1368
 4935SOL     OW26437   2.569   3.465   4.796 -0.2218  0.4060  0.4237
 4935SOL    HW126438   2.544   3.376   4.822  0.9286 -0.2169 -0.6053
 4935SOL    HW226439   2.495   3.515   4.830 -1.2494  0.4484 -1.8637
 4936SOL     OW26440   3.675   4.575   3.338  0.0463  0.2469  0.6038
 4936SOL    HW126441   3.637   4.653   3.379 -1.4374  0.1720 -0.6362
 4936SOL    HW226442   3.764   4.607   3.325  1.1303 -3.2395 -0.5648
 4937SOL     OW26443   0.784   3.574   3.038  0.0679 -0.1719 -0.0424
 4937SOL    HW126444   0.734   3.656   3.044  1.3607  0.4823  1.7890
 4937SOL    HW226445   0.823   3.562   3.124  1.0041  2.0053 -0.1447
 4938SOL     OW26446   2.302   0.106   9.417 -0.3034 -0.0416 -0.2735
 4938SOL    HW126447   2.215   0.074   9.394 -0.3512 -2.1303  2.7485
 4938SOL    HW226448   2.318   0.052   9.494  0.7200  0.2857 -0.2567
 4939SOL     OW26449   0.065   0.933   2.080  0.1828 -0.2174  0.0714
 4939SOL    HW126450   0.130   0.953   2.014 -1.4483 -0.9856 -1.7706
 4939SOL    HW226451   4.738   0.997   2.054  0.8202  0.0514 -0.8802
 4940SOL     OW26452   2.984   0.465   6.145 -0.3303 -0.0514 -0.2672
 4940SOL    HW126453   2.909   0.520   6.169 -1.3769 -1.5036 -0.2350
 4940SOL    HW226454   2.977   0.489   6.052  2.1715 -2.8616 -1.1611
 4941SOL     OW26455   0.347   3.742   7.621 -0.5095  0.2010 -0.2272
 4941SOL    HW126456   0.289   3.760   7.547  0.0026 -0.7094 -0.8467
 4941SOL    HW226457   0.403   3.694   7.561 -0.1516 -2.6716  2.4419
 4942SOL     OW26458   4.013   1.076   8.885  0.1190 -0.1522  0.7162
 4942SOL    HW126459   4.072   1.001   8.893 -0.5911 -0.5759  1.8872
 4942SOL    HW226460   3.951   1.069   8.957 -0.9546  0.7143 -0.1231
 4943SOL     OW26461   4.168   4.167   3.609  0.9504  0.1273 -0.3196
 4943SOL    HW126462   4.141   4.077   3.630  2.8533 -0.2740  0.4301
 4943SOL    HW226463   4.253   4.158   3.567  0.6259  2.7348 -1.5020
 4944SOL     OW26464   1.754   3.550   8.711 -0.3826  0.0109 -0.1734
 4944SOL    HW126465   1.804   3.474   8.682  0.2774 -1.0665  3.9241
 4944SOL    HW226466   1.790   3.579   8.794 -0.8307 -0.1496  0.0748
 4945SOL     OW26467   1.167   3.349   5.546 -0.1199  0.1747 -0.4909
 4945SOL    HW126468   1.256   3.375   5.567  0.0739 -0.7892 -0.1393
 4945SOL    HW226469   1.146   3.410   5.475  0.1177  0.3093 -0.4446
 4946SOL     OW26470   3.197   1.952   9.474 -0.3709 -0.6779 -0.1558
 4946SOL    HW126471   3.131   1.911   9.530 -0.5406  0.5244  0.5266
 4946SOL    HW226472   3.155   1.940   9.389  1.6541 -2.0075 -0.9451
 4947SOL     OW26473   3.282   0.651  10.983 -1.1254  0.1406 -0.2122
 4947SOL    HW126474   3.376   0.666  10.994 -0.9317 -1.6656  0.5106
 4947SOL    HW226475   3.280   0.556  10.987 -1.0822  0.1795  0.7746
 4948SOL     OW26476   4.020   4.174  16.512  0.1956 -0.2343  0.2699
 4948SOL    HW126477   3.925   4.178  16.499  0.5115  1.7055 -1.3934
 4948SOL    HW226478   4.031   4.236  16.583 -1.5651  1.7618 -1.2103
 4949SOL     OW26479   4.429   1.107  11.571 -0.6143  0.2981 -0.0085
 4949SOL    HW126480   4.366   1.077  11.637  0.4267  1.0238  1.3173
 4949SOL    HW226481   4.505   1.053  11.591 -0.7250  0.2593  0.3135
 4950SOL     OW26482   0.819   0.068   3.237 -0.1256 -0.1787 -0.0134
 4950SOL    HW126483   0.758   0.076   3.310  1.1291  2.4491  0.7572
 4950SOL    HW226484   0.817   4.712   3.223  0.7694 -0.0311 -1.1303
 4951SOL     OW26485   2.779   2.471  15.892 -0.3281  0.9505  0.2570
 4951SOL    HW126486   2.756   2.383  15.922  0.7873  0.0649 -1.5233
 4951SOL    HW226487   2.836   2.438  15.823  1.2002 -0.0356  1.9859
 4952SOL     OW26488   2.190   2.805   5.646  0.2725 -0.3379 -0.4170
 4952SOL    HW126489   2.247   2.789   5.721 -2.9388  1.0531  2.2689
 4952SOL    HW226490   2.232   2.767   5.569  1.7821 -0.2005  0.3454
 4953SOL     OW26491   1.262   3.493  11.231  0.4370  0.0353 -0.4940
 4953SOL    HW126492   1.269   3.404  11.198  1.9006  0.5003 -1.4427
 4953SOL    HW226493   1.336   3.533  11.185 -0.6520 -0.3402 -2.5669
 4954SOL     OW26494   1.821   2.941   7.386 -0.8717 -0.3481  0.5147
 4954SOL    HW126495   1.825   3.021   7.334 -0.7653 -1.2024 -0.7929
 4954SOL    HW226496   1.736   2.948   7.431 -1.6672 -2.8361 -0.6147
 4955SOL     OW26497   3.741   3.493   8.476  0.4340  0.9038 -0.4501
 4955SOL    HW126498   3.816   3.553   8.474  0.8475  0.5194  3.7011
 4955SOL    HW226499   3.675   3.547   8.433  0.2730 -0.0473 -1.3926
 4956SOL     OW26500   1.594   4.502   6.367 -0.1773 -0.1203  0.6529
 4956SOL    HW126501   1.592   4.443   6.443  3.4019 -0.4139  0.5079
 4956SOL    HW226502   1.658   4.570   6.389 -2.5219  1.6926  1.8885
 4957SOL     OW26503   2.094   2.950   5.427 -0.0687 -0.3072  0.5035
 4957SOL    HW126504   2.114   2.936   5.520  0.0599 -1.3944  0.3030
 4957SOL    HW226505   2.052   2.867   5.408  3.9027 -2.2498  0.2137
 4958SOL     OW26506   1.866   1.081   5.543  0.0089  0.2923  0.3426
 4958SOL    HW126507   1.821   1.049   5.621  0.9067 -0.2876  0.6264
 4958SOL    HW226508   1.921   1.146   5.588 -1.0595  1.5140 -0.1181
 4959SOL     OW26509   3.556   4.521   4.415 -0.4501  0.1135  0.1296
 4959SOL    HW126510   3.615   4.521   4.490  1.1662 -1.7703 -1.1504
 4959SOL    HW226511   3.487   4.462   4.447  0.3495  0.7262  3.0043
 4960SOL     OW26512   2.381   3.129   2.785  0.1866 -0.3738  0.0129
 4960SOL    HW126513   2.332   3.181   2.848  1.1846 -0.3637  0.7749
 4960SOL    HW226514   2.307   3.072   2.763  0.6278 -1.3155  0.9451
 4961SOL     OW26515   3.951   0.496   2.486 -0.0617 -0.5976 -0.3738
 4961SOL    HW126516   3.861   0.469   2.501 -0.4328  0.8775  0.0446
 4961SOL    HW226517   3.962   0.559   2.557 -1.2566 -1.3191  0.4477
 4962SOL     OW26518   1.609   3.387   4.187  0.2893 -0.0441 -0.4590
 4962SOL    HW126519   1.597   3.294   4.209  1.3272  0.0270  0.4220
 4962SOL    HW226520   1.584   3.419   4.274 -0.8874 -0.0686 -0.7982
 4963SOL     OW26521   0.665   0.197  17.126 -0.0258  0.1202  0.4636
 4963SOL    HW126522   0.570   0.194  17.132 -0.2785  2.7002 -2.2707
 4963SOL    HW226523   0.676   0.257  17.200  0.4079  0.4575  0.1263
 4964SOL     OW26524   3.022   3.776   3.591  0.2289  0.1623 -0.0699
 4964SOL    HW126525   3.048   3.754   3.502  0.9535  1.2955 -0.1371
 4964SOL    HW226526   3.107   3.789   3.633 -0.0712 -0.0575  0.6195
 4965SOL     OW26527   1.906   4.374   6.381  0.0519 -0.7086  0.1408
 4965SOL    HW126528   1.938   4.419   6.303 -2.6045  0.5202 -0.2427
 4965SOL    HW226529   1.950   4.426   6.447  1.0777  0.0915 -1.1740
 4966SOL     OW26530   3.110   4.123   6.622 -0.2232  0.1857  0.7300
 4966SOL    HW126531   3.147   4.190   6.680 -1.5105  2.4959 -1.1177
 4966SOL    HW226532   3.097   4.176   6.543 -0.1205 -1.6823 -0.5379
 4967SOL     OW26533   1.441   3.821   8.933 -0.3847 -0.6764 -0.4097
 4967SOL    HW126534   1.481   3.802   9.018  0.6944  2.4260 -0.2361
 4967SOL    HW226535   1.517   3.864   8.892 -1.3919  0.4879 -1.0648
 4968SOL     OW26536   2.111   0.652   9.469  0.1415 -0.1352 -0.2091
 4968SOL    HW126537   2.133   0.718   9.536 -2.3592 -1.4688  1.9017
 4968SOL    HW226538   2.134   0.704   9.392  0.4566 -2.5787 -1.7532
 4969SOL     OW26539   2.346   2.144   3.334  0.0313  0.2334 -0.7261
 4969SOL    HW126540   2.280   2.191   3.283  0.3632  4.4512  2.7811
 4969SOL    HW226541   2.306   2.149   3.420 -0.5218 -2.6607 -0.8109
 4970SOL     OW26542   2.476   0.808   2.073  0.6756 -0.1979  0.3710
 4970SOL    HW126543   2.393   0.855   2.072  0.4240 -0.6424 -0.2200
 4970SOL    HW226544   2.532   0.874   2.113 -0.0272  1.7437 -1.8043
 4971SOL     OW26545   4.275   0.183   6.404 -0.2223 -0.2064  0.0203
 4971SOL    HW126546   4.259   0.136   6.486 -0.4165  0.3428  0.2948
 4971SOL    HW226547   4.370   0.193   6.412 -0.0814 -1.4229 -0.1137
 4972SOL     OW26548   4.605   3.974   9.486  0.0625 -0.5618  0.3053
 4972SOL    HW126549   4.527   4.006   9.440  0.1694  0.2425  0.6947
 4972SOL    HW226550   4.633   4.050   9.537 -0.3343  1.1898 -2.1392
 4973SOL     OW26551   1.815   2.933   2.497  0.0555 -0.6506  0.0785
 4973SOL    HW126552   1.806   2.867   2.566  1.8890 -0.9224  0.0599
 4973SOL    HW226553   1.909   2.944   2.491 -0.1793  1.5821  0.7165
 4974SOL     OW26554   2.793   2.490   7.165  0.8435  0.2883 -0.1579
 4974SOL    HW126555   2.819   2.476   7.074  0.7151  4.0041 -0.7855
 4974SOL    HW226556   2.709   2.448   7.182  0.7655  0.5038 -0.0107
 4975SOL     OW26557   2.486   1.454   8.604 -0.1339 -0.0058  0.0615
 4975SOL    HW126558   2.540   1.376   8.589 -1.3999 -0.0383 -4.4428
 4975SOL    HW226559   2.428   1.463   8.528 -0.6965  0.1227  0.5108
 4976SOL     OW26560   1.457   4.498   6.756  0.3378 -0.2714 -0.0209
 4976SOL    HW126561   1.375   4.465   6.792 -0.4944  2.4411  0.5646
 4976SOL    HW226562   1.474   4.435   6.687 -1.6573 -3.3416  2.2897
 4977SOL     OW26563   3.201   3.893  11.214 -0.2184 -0.1796  0.2835
 4977SOL    HW126564   3.214   3.804  11.181  1.9722 -0.3030  1.5004
 4977SOL    HW226565   3.253   3.885  11.293 -0.3953 -2.2962  0.1852
 4978SOL     OW26566   2.556   0.925   6.195 -0.0211  0.2839  0.2161
 4978SOL    HW126567   2.524   1.009   6.162 -0.5762 -0.6729 -1.6667
 4978SOL    HW226568   2.492   0.869   6.150 -1.0352  1.5270  0.1113
 4979SOL     OW26569   3.698   1.816   2.220  0.1521 -0.3669  0.1820
 4979SOL    HW126570   3.629   1.850   2.163  1.8002  0.1207 -1.5134
 4979SOL    HW226571   3.767   1.804   2.154 -1.2126 -0.1860 -1.2658
 4980SOL     OW26572   2.505   3.926   5.209  0.4395 -0.4521  0.0091
 4980SOL    HW126573   2.534   4.000   5.263 -0.7440  0.3532 -0.4438
 4980SOL    HW226574   2.575   3.864   5.223 -1.1958 -1.4065  4.0871
 4981SOL     OW26575   3.147   1.053   7.456 -0.4156  0.5288 -0.6051
 4981SOL    HW126576   3.131   1.088   7.543  0.8713 -2.2433  0.7513
 4981SOL    HW226577   3.194   0.977   7.490  0.8917  0.9154 -1.5400
 4982SOL     OW26578   0.438   3.313   3.882  0.7105  0.4258  0.4843
 4982SOL    HW126579   0.372   3.280   3.821 -0.2302  2.2956  0.4930
 4982SOL    HW226580   0.384   3.355   3.948 -0.8550  0.3461 -0.7535
 4983SOL     OW26581   2.445   2.415   2.669  0.3513 -0.3057 -0.2735
 4983SOL    HW126582   2.356   2.413   2.706  0.9511  0.1538  1.1868
 4983SOL    HW226583   2.429   2.451   2.582  2.3004 -0.2502 -0.6092
 4984SOL     OW26584   4.292   1.177  12.941 -0.0960  0.2958 -0.2536
 4984SOL    HW126585   4.381   1.187  12.973 -0.7574  3.6672  0.5040
 4984SOL    HW226586   4.239   1.202  13.018 -2.9408  0.6372 -2.3039
 4985SOL     OW26587   2.894   1.657   7.757 -0.0436  0.1581  0.2267
 4985SOL    HW126588   2.990   1.659   7.750 -0.0058  1.5502  1.1608
 4985SOL    HW226589   2.863   1.688   7.672  2.5436  1.8988 -0.0798
 4986SOL     OW26590   2.250   0.390   8.497  0.1868  0.1013  0.5425
 4986SOL    HW126591   2.333   0.363   8.457  0.0986 -1.2582  1.2702
 4986SOL    HW226592   2.233   0.319   8.559  0.2502  0.0308  0.4805
 4987SOL     OW26593   0.571   3.366   0.878  0.0132 -0.0645  0.7374
 4987SOL    HW126594   0.660   3.381   0.910  0.5982 -3.8702  0.8809
 4987SOL    HW226595   0.522   3.445   0.898  0.3103  0.2741  0.1407
 4988SOL     OW26596   4.616   3.493   8.615  0.0496 -0.0153  0.1709
 4988SOL    HW126597   4.544   3.543   8.577  0.6428 -0.3035 -1.3445
 4988SOL    HW226598   4.616   3.414   8.560  0.8839 -0.0155  0.1687
 4989SOL     OW26599   2.828   1.844   2.025  0.0349  0.3666  0.5564
 4989SOL    HW126600   2.911   1.890   2.030  1.4923 -2.0550 -1.5328
 4989SOL    HW226601   2.846   1.770   2.083  0.4719  1.3485  1.6588
 4990SOL     OW26602   2.145   1.886   9.512  0.3758  0.1327  0.9082
 4990SOL    HW126603   2.091   1.905   9.588 -0.2845 -1.7308  0.9057
 4990SOL    HW226604   2.180   1.797   9.524 -0.0059 -0.1698 -0.2268
 4991SOL     OW26605   1.114   3.977  10.814 -0.4442 -0.1484 -0.5721
 4991SOL    HW126606   1.051   4.046  10.833 -1.0534 -0.5171 -1.2470
 4991SOL    HW226607   1.172   3.995  10.888  0.6455 -1.1290 -1.1908
 4992SOL     OW26608   1.184   3.203  17.680 -0.4022  0.3262 -0.0981
 4992SOL    HW126609   1.266   3.227  17.637 -0.2397  1.6907  0.9448
 4992SOL    HW226610   1.196   3.219   0.020  1.5475  0.7997 -0.4384
 4993SOL     OW26611   0.146   0.654   5.742  0.4446  0.2462 -0.2651
 4993SOL    HW126612   0.228   0.621   5.704  0.3805 -2.1997  1.6798
 4993SOL    HW226613   0.095   0.573   5.751  2.7764 -1.3763 -1.4806
 4994SOL     OW26614   1.156   0.649   4.657 -0.0868  0.6293  0.0787
 4994SOL    HW126615   1.171   0.690   4.572  0.8140  2.2886  1.0394
 4994SOL    HW226616   1.137   0.720   4.718  3.0090  0.1413  1.5802
 4995SOL     OW26617   4.407   1.325   3.717 -0.0689  1.0800  0.7117
 4995SOL    HW126618   4.393   1.322   3.811 -2.5126 -3.0578  0.2189
 4995SOL    HW226619   4.481   1.385   3.708 -0.4351  1.0032 -2.8001
 4996SOL     OW26620   0.220   2.603   3.541 -0.0680 -0.2579  0.3954
 4996SOL    HW126621   0.312   2.628   3.552 -0.7181  1.3230  2.0618
 4996SOL    HW226622   0.185   2.691   3.529  0.1516  0.1578  2.7724
 4997SOL     OW26623   2.822   3.948   5.561 -0.3213 -0.4787 -0.4473
 4997SOL    HW126624   2.834   3.965   5.654 -1.2035  0.0836 -0.4397
 4997SOL    HW226625   2.884   4.006   5.516  0.1979  0.4522  1.4684
 4998SOL     OW26626   2.215   0.571   5.777  0.5584  0.2988  0.3316
 4998SOL    HW126627   2.132   0.583   5.730  1.1432 -0.7006 -0.9713
 4998SOL    HW226628   2.280   0.569   5.706  0.3921  1.9664  0.1259
 4999SOL     OW26629   2.745   0.394  14.494 -0.3121 -0.1006  0.1680
 4999SOL    HW126630   2.741   0.364  14.585  1.6871  0.3719  0.4061
 4999SOL    HW226631   2.739   0.308  14.452  1.3822 -0.7516  1.2477
 5000SOL     OW26632   2.692   3.323   2.029  0.0760  0.1996 -0.4442
 5000SOL    HW126633   2.764   3.260   2.037 -0.5907 -0.5523 -0.3935
 5000SOL    HW226634   2.684   3.321   1.934  1.4286  3.1546 -0.6310
 5001SOL     OW26635   2.585   1.934  10.486  0.4395  0.2239  0.0414
 5001SOL    HW126636   2.503   1.928  10.536 -0.3984  1.4260 -1.2103
 5001SOL    HW226637   2.577   2.011  10.430  0.1005  0.5868  0.5853
 5002SOL     OW26638   2.994   0.161   0.926 -0.3953 -0.4682 -0.2334
 5002SOL    HW126639   2.951   0.187   0.845  1.4612  1.9845 -0.4292
 5002SOL    HW226640   3.000   0.066   0.911 -1.1852 -0.3323 -1.3715
 5003SOL     OW26641   4.677   4.285   1.003  0.1686  0.3291 -0.3514
 5003SOL    HW126642   4.635   4.295   0.918  2.0112  0.3895 -1.2548
 5003SOL    HW226643   0.013   4.231   0.979 -0.5120 -1.0422  0.6053
 5004SOL     OW26644   2.521   1.998   9.341 -0.7527 -0.2852  0.2488
 5004SOL    HW126645   2.599   2.048   9.317 -1.3460  0.6673  0.3249
 5004SOL    HW226646   2.506   2.032   9.428 -0.3260 -1.3648  0.7477
 5005SOL     OW26647   4.196   2.930  13.360 -0.1224 -0.3391  0.0673
 5005SOL    HW126648   4.248   3.004  13.326 -0.1901 -1.0920 -1.6948
 5005SOL    HW226649   4.126   2.948  13.298  0.0912 -1.7736 -0.5831
 5006SOL     OW26650   4.561   4.033   4.270 -0.4944 -0.3861 -0.0484
 5006SOL    HW126651   4.545   4.068   4.357  1.1319  2.1242 -0.7423
 5006SOL    HW226652   4.640   3.980   4.280 -2.4076 -3.3297 -0.6538
 5007SOL     OW26653   2.300   0.489   3.917 -0.1265  0.1195  0.0033
 5007SOL    HW126654   2.284   0.417   3.855 -2.5856 -0.2038  1.0172
 5007SOL    HW226655   2.329   0.436   3.991 -0.0897  2.4002  1.5952
 5008SOL     OW26656   1.594   4.456   5.080  0.4777 -0.2757  0.1045
 5008SOL    HW126657   1.562   4.388   5.021 -1.7569  1.1676 -0.3696
 5008SOL    HW226658   1.686   4.437   5.095  0.7641  0.8545 -0.1637
 5009SOL     OW26659   0.996   3.652   5.945  0.4966 -0.0019  0.2005
 5009SOL    HW126660   1.006   3.690   5.857  0.8259  0.4315  0.4272
 5009SOL    HW226661   0.947   3.573   5.925 -0.8549  1.4376 -2.3012
 5010SOL     OW26662   1.459   3.773   5.261  0.0613  0.4377 -0.4388
 5010SOL    HW126663   1.485   3.841   5.199  0.3565  1.1531  0.4674
 5010SOL    HW226664   1.430   3.825   5.335  1.0848  1.7250 -0.9265
 5011SOL     OW26665   3.906   3.382   5.524 -0.3281 -0.2600 -0.6003
 5011SOL    HW126666   3.908   3.363   5.617 -1.2903 -1.0701 -0.7429
 5011SOL    HW226667   3.987   3.335   5.503  0.1400  0.2466  0.0893
 5012SOL     OW26668   1.231   1.686   6.930 -0.7152 -0.0005 -0.2487
 5012SOL    HW126669   1.173   1.614   6.906 -0.8819  0.0102  0.1210
 5012SOL    HW226670   1.244   1.703   6.836 -1.1720  0.6187 -0.2002
 5013SOL     OW26671   0.857   2.134   2.225  0.4853 -0.1099 -0.5907
 5013SOL    HW126672   0.904   2.183   2.158 -0.0423  0.4596 -0.5401
 5013SOL    HW226673   0.763   2.141   2.211  0.2500  0.7184  1.4561
 5014SOL     OW26674   1.579   2.010  17.139 -0.0662  0.1378  0.2994
 5014SOL    HW126675   1.486   2.002  17.160 -0.1034 -2.0961 -0.7171
 5014SOL    HW226676   1.621   2.061  17.209  1.6436  1.0171 -1.3840
 5015SOL     OW26677   2.845   2.880   2.908 -0.0379 -0.8810 -0.1609
 5015SOL    HW126678   2.817   2.837   2.827  2.7211 -0.1549 -1.5272
 5015SOL    HW226679   2.779   2.841   2.966  0.4020  0.4108  1.1987
 5016SOL     OW26680   1.032   4.181  12.664 -0.2393  0.0379  0.1937
 5016SOL    HW126681   0.940   4.168  12.686 -0.9260  2.7727 -1.1505
 5016SOL    HW226682   1.047   4.275  12.675  1.0315 -0.2001  0.4712
 5017SOL     OW26683   1.576   4.637   4.646 -0.1964 -0.0919  0.0982
 5017SOL    HW126684   1.490   4.630   4.605 -0.2277  0.2956  0.0953
 5017SOL    HW226685   1.594   4.545   4.665 -2.5514 -0.3914  0.8608
 5018SOL     OW26686   3.203   2.654   5.254 -0.0046 -0.0736  0.1070
 5018SOL    HW126687   3.140   2.692   5.315 -0.2206 -0.9712  0.4497
 5018SOL    HW226688   3.178   2.699   5.174 -0.5131 -0.4208  0.0737
 5019SOL     OW26689   2.504   0.816   7.482  0.5848 -0.2867 -0.6535
 5019SOL    HW126690   2.410   0.818   7.466  0.5066  0.8660 -0.0854
 5019SOL    HW226691   2.517   0.906   7.454  0.5260  0.6151  2.1772
 5020SOL     OW26692   0.927   0.266   5.118  0.0465 -0.1732  0.1023
 5020SOL    HW126693   0.861   0.333   5.102 -1.1913 -1.3273  0.3414
 5020SOL    HW226694   0.900   0.198   5.056  0.3278  1.3361 -1.6653
 5021SOL     OW26695   0.503   1.105   6.357  0.3351  0.1808  0.3809
 5021SOL    HW126696   0.450   1.132   6.282 -1.7331 -2.7333  0.8263
 5021SOL    HW226697   0.530   1.019   6.324 -1.8831  0.2938 -1.6692
 5022SOL     OW26698   0.029   2.579   9.146  0.6092  0.3754  0.6338
 5022SOL    HW126699   0.015   2.638   9.073  0.6273 -1.9659 -1.2543
 5022SOL    HW226700   0.121   2.553   9.141 -0.4633 -3.1649 -0.1931
 5023SOL     OW26701   1.046   0.356   5.377  0.1748 -0.4795  0.5820
 5023SOL    HW126702   1.014   0.340   5.288  1.1148  0.5451  0.0551
 5023SOL    HW226703   0.964   0.370   5.423  0.5860 -0.9046  1.4291
 5024SOL     OW26704   3.132   4.129   1.019 -0.2981  0.1089 -0.2547
 5024SOL    HW126705   3.080   4.057   1.055  2.6646 -1.6674  0.4601
 5024SOL    HW226706   3.061   4.166   0.967 -1.1102 -2.2058 -0.7726
 5025SOL     OW26707   4.725   3.119   8.914  0.4394 -0.0707  0.4342
 5025SOL    HW126708   0.080   3.113   8.895  0.5358 -1.3863  1.3393
 5025SOL    HW226709   4.696   3.128   8.823 -0.5862  0.0241  0.7749
 5026SOL     OW26710   2.806   4.481   1.607 -0.6342  0.6433  0.0927
 5026SOL    HW126711   2.788   4.435   1.525 -2.4807 -0.1824  0.9572
 5026SOL    HW226712   2.730   4.459   1.661  0.2212  2.6925  2.1410
 5027SOL     OW26713   3.310   3.382   7.209  0.0094 -0.4945 -0.2605
 5027SOL    HW126714   3.335   3.317   7.144  2.6774  0.5935 -0.3414
 5027SOL    HW226715   3.395   3.379   7.252 -0.0521  0.0366 -0.1050
 5028SOL     OW26716   3.670   4.282   5.413 -0.2179 -0.2510  0.0644
 5028SOL    HW126717   3.663   4.192   5.381  1.5629 -0.2470 -0.3579
 5028SOL    HW226718   3.764   4.286   5.432 -0.0225 -1.3937 -0.6732
 5029SOL     OW26719   4.306   0.976   7.959 -0.0888  0.4820 -0.3384
 5029SOL    HW126720   4.330   0.885   7.941 -1.4690 -0.3254  1.9033
 5029SOL    HW226721   4.385   0.997   8.009 -0.8371  0.0601  0.9982
 5030SOL     OW26722   3.490   1.683   5.230 -0.3937 -0.1570  0.8096
 5030SOL    HW126723   3.427   1.622   5.268 -0.7085 -0.8472 -0.7995
 5030SOL    HW226724   3.571   1.639   5.257 -1.0605 -1.6129  0.4684
 5031SOL     OW26725   3.356   1.942   8.902 -0.6482  0.0178 -0.2445
 5031SOL    HW126726   3.371   2.036   8.911 -1.1971 -0.0926  1.8544
 5031SOL    HW226727   3.412   1.906   8.971 -1.2960  0.4463  0.5111
 5032SOL     OW26728   1.499   2.150   3.371 -0.4695 -0.1241 -0.1360
 5032SOL    HW126729   1.471   2.112   3.288 -1.2350  0.7991 -0.3032
 5032SOL    HW226730   1.554   2.219   3.332 -0.7877 -0.6695 -1.5344
 5033SOL     OW26731   2.441   0.108   2.356  0.3555  0.4228  0.3847
 5033SOL    HW126732   2.413   0.121   2.447 -2.1345  0.4506 -0.3808
 5033SOL    HW226733   2.375   0.046   2.326  1.5279 -0.5524 -0.1812
 5034SOL     OW26734   3.674   1.896   5.990 -0.1977  0.0478 -0.1115
 5034SOL    HW126735   3.630   1.867   6.070 -0.3953  1.1262  0.1745
 5034SOL    HW226736   3.596   1.900   5.935 -0.1551  1.4901 -0.0672
 5035SOL     OW26737   3.704   4.428   4.655 -0.5296  0.0722 -0.0218
 5035SOL    HW126738   3.637   4.412   4.721  1.7136 -1.4858  1.8817
 5035SOL    HW226739   3.760   4.495   4.693 -0.0995 -1.2580  1.6759
 5036SOL     OW26740   4.579   2.440   7.127  0.2213 -0.3269  0.1477
 5036SOL    HW126741   4.495   2.468   7.091  1.4525  2.1230 -0.8856
 5036SOL    HW226742   4.556   2.350   7.148 -1.8175 -0.0287 -0.7998
 5037SOL     OW26743   0.972   1.360   7.380  0.0398 -0.3016  0.4611
 5037SOL    HW126744   1.028   1.373   7.304  0.3061  1.2120  0.9256
 5037SOL    HW226745   0.887   1.401   7.359  0.8226  0.6535 -0.8272
 5038SOL     OW26746   2.268   2.506  12.732  0.2122  0.5131 -0.5981
 5038SOL    HW126747   2.293   2.535  12.820  3.8122  0.6506 -1.6532
 5038SOL    HW226748   2.199   2.573  12.728  0.4337  0.6805 -1.5527
 5039SOL     OW26749   4.151   2.548   8.511  0.3980  0.0354  0.1744
 5039SOL    HW126750   4.143   2.482   8.442  3.2516 -0.2765  0.1570
 5039SOL    HW226751   4.222   2.601   8.477 -0.9553  1.4633 -0.4457
 5040SOL     OW26752   0.701   3.437   9.313  0.0491 -0.5513 -0.4059
 5040SOL    HW126753   0.791   3.457   9.338  0.4879 -2.2571 -0.6664
 5040SOL    HW226754   0.652   3.514   9.344  1.5433 -1.1870  3.4922
 5041SOL     OW26755   4.000   4.417   4.072 -0.3292 -0.1854  0.2872
 5041SOL    HW126756   4.076   4.474   4.079 -1.1590  1.2079 -1.9436
 5041SOL    HW226757   4.011   4.353   4.142  0.7070  2.0288  2.1643
 5042SOL     OW26758   0.173   2.857   4.520 -0.3600  0.1820 -0.7200
 5042SOL    HW126759   0.186   2.840   4.613  2.4755  0.4762 -1.0638
 5042SOL    HW226760   0.263   2.848   4.489 -0.1244  2.4189 -0.7033
 5043SOL     OW26761   1.318   2.473   6.461  0.4190  0.1469 -0.5032
 5043SOL    HW126762   1.242   2.480   6.403 -0.8345  0.4365  1.1749
 5043SOL    HW226763   1.306   2.560   6.499 -1.2795  0.0690 -0.8587
 5044SOL     OW26764   1.049   1.989   4.393  0.2230 -0.1036 -0.0039
 5044SOL    HW126765   1.001   1.993   4.310 -1.2011 -2.0251  0.7148
 5044SOL    HW226766   1.008   2.061   4.440  2.0940  1.3471 -0.6125
 5045SOL     OW26767   1.533   1.377   3.930 -0.2325 -0.5114 -0.2188
 5045SOL    HW126768   1.610   1.321   3.920 -0.5489 -0.8163 -1.0137
 5045SOL    HW226769   1.528   1.367   4.025  0.3379  0.1477 -0.1190
 5046SOL     OW26770   0.780   2.570   3.872  0.4184  0.0151  0.1517
 5046SOL    HW126771   0.714   2.633   3.843  0.1271 -0.3223  0.0854
 5046SOL    HW226772   0.758   2.480   3.850 -0.4203 -0.2240  2.0045
 5047SOL     OW26773   4.201   3.795  15.906  0.1689 -0.3367  0.1177
 5047SOL    HW126774   4.171   3.859  15.970  2.4299  1.8924 -1.0791
 5047SOL    HW226775   4.253   3.852  15.850 -0.3332  0.2966  0.2964
 5048SOL     OW26776   3.226   0.991  11.190 -0.1394 -0.2339 -0.1425
 5048SOL    HW126777   3.169   1.046  11.244 -0.2773 -2.0975  1.5815
 5048SOL    HW226778   3.179   0.972  11.109 -0.2580 -1.5269  0.2292
 5049SOL     OW26779   4.443   0.793  17.657 -0.7761 -0.3282  0.1980
 5049SOL    HW126780   4.507   0.839  17.711 -1.5368  0.8937  0.0576
 5049SOL    HW226781   4.391   0.736  17.714 -0.0054 -0.1878  1.0268
 5050SOL     OW26782   2.108   3.925   3.455 -0.6330 -0.2576  0.1347
 5050SOL    HW126783   2.018   3.948   3.479 -0.9801  1.2819 -2.6989
 5050SOL    HW226784   2.155   3.935   3.538 -0.0249  2.5881 -0.5346
 5051SOL     OW26785   1.693   4.236  15.541  0.0325  0.3277  0.5461
 5051SOL    HW126786   1.616   4.222  15.597  0.2648  0.3091  0.8634
 5051SOL    HW226787   1.653   4.278  15.465  0.1081  1.1567  0.9632
 5052SOL     OW26788   0.122   3.299  16.823 -0.1743  0.3498  0.3115
 5052SOL    HW126789   0.108   3.388  16.858 -0.2562  0.4129  0.1210
 5052SOL    HW226790   0.118   3.317  16.729 -0.2884 -0.3681  0.1799
 5053SOL     OW26791   4.390   4.060   1.180 -0.2553  0.1421 -0.0983
 5053SOL    HW126792   4.414   4.096   1.265 -0.1343  2.7235 -1.2475
 5053SOL    HW226793   4.472   4.029   1.143 -0.6819  0.2992 -1.1888
 5054SOL     OW26794   0.168   1.592  13.437  0.2396 -0.3700  0.5267
 5054SOL    HW126795   0.098   1.573  13.499  1.0138 -1.3779  1.1031
 5054SOL    HW226796   0.218   1.661  13.481 -2.0063  0.3633  1.9349
 5055SOL     OW26797   1.521   0.435   0.779 -0.1298 -0.9217 -0.2886
 5055SOL    HW126798   1.512   0.346   0.813  0.6675 -1.2541 -0.9634
 5055SOL    HW226799   1.444   0.447   0.723  0.2525  2.8761 -0.0230
 5056SOL     OW26800   4.542   4.429   8.673  0.5580 -0.3197 -0.3036
 5056SOL    HW126801   4.541   4.521   8.698 -0.2388  0.0944 -1.8278
 5056SOL    HW226802   4.614   4.402   8.731 -0.1396  1.2731  1.2742
 5057SOL     OW26803   1.501   2.699   7.516  0.4301  0.1301 -0.3852
 5057SOL    HW126804   1.589   2.692   7.551  0.3595  0.0535 -0.2202
 5057SOL    HW226805   1.496   2.612   7.476  1.3820  1.3630 -3.1150
 5058SOL     OW26806   3.233   4.175   6.142 -0.7998  0.3292 -0.2535
 5058SOL    HW126807   3.323   4.202   6.127 -0.6235  0.6306  1.3446
 5058SOL    HW226808   3.240   4.120   6.220  2.1574  0.2933 -0.5625
 5059SOL     OW26809   0.468   3.983  11.983 -0.7161  0.1074 -0.4220
 5059SOL    HW126810   0.438   3.932  11.907  0.4913 -2.4886  0.8266
 5059SOL    HW226811   0.405   4.055  11.986  0.3182  1.0666 -2.3033
 5060SOL     OW26812   3.835   4.055   2.493  0.1235  0.1406 -0.2461
 5060SOL    HW126813   3.783   4.135   2.487  0.4861  0.3600 -0.4427
 5060SOL    HW226814   3.814   4.016   2.408 -1.3231  1.0666 -0.3142
 5061SOL     OW26815   4.161   1.823   7.327  0.1759  0.0618 -0.5250
 5061SOL    HW126816   4.213   1.878   7.386  0.5777 -2.0656  1.0989
 5061SOL    HW226817   4.084   1.813   7.383 -1.0043 -1.1793 -2.3569
 5062SOL     OW26818   3.361   4.378   3.128  0.1606 -0.2374 -0.0877
 5062SOL    HW126819   3.280   4.385   3.179  0.7931 -2.4755  1.2214
 5062SOL    HW226820   3.324   4.371   3.040  0.8099  2.5549 -0.5888
 5063SOL     OW26821   2.468   1.147   1.760  0.6431 -0.4204  0.4329
 5063SOL    HW126822   2.383   1.123   1.796  0.9578  0.6525  1.8678
 5063SOL    HW226823   2.451   1.242   1.761  1.2957 -0.3413  2.5444
 5064SOL     OW26824   0.377   3.768   8.800  0.5170 -0.1329  0.1092
 5064SOL    HW126825   0.468   3.791   8.780  1.0933 -2.3555  0.2001
 5064SOL    HW226826   0.350   3.857   8.824  0.9678 -0.0506  0.3015
 5065SOL     OW26827   3.758   2.397   6.573 -0.1186 -0.1883  0.5194
 5065SOL    HW126828   3.800   2.391   6.658 -0.8325 -1.5015  0.7762
 5065SOL    HW226829   3.762   2.492   6.560 -0.5026 -0.0246  1.6334
 5066SOL     OW26830   1.400   2.836   9.899  0.2048  0.0855 -0.3409
 5066SOL    HW126831   1.377   2.929   9.903  2.6138  0.7060 -1.1625
 5066SOL    HW226832   1.483   2.850   9.855  0.9512 -1.5314  0.5414
 5067SOL     OW26833   3.884   3.913   9.339 -0.0742  0.2574  0.1307
 5067SOL    HW126834   3.978   3.932   9.334  0.3439 -1.8538 -0.1015
 5067SOL    HW226835   3.885   3.829   9.386 -0.4836  0.4202  0.4325
 5068SOL     OW26836   0.956   2.742   7.241  0.0051 -0.4398 -0.6388
 5068SOL    HW126837   1.033   2.693   7.271 -0.0997 -0.0566  0.2517
 5068SOL    HW226838   0.892   2.672   7.232 -0.3455 -0.0020 -1.4939
 5069SOL     OW26839   4.562   4.253   3.145 -0.4926 -0.1548  0.1756
 5069SOL    HW126840   4.597   4.259   3.056 -3.1121 -2.8629 -1.0376
 5069SOL    HW226841   4.542   4.160   3.151 -0.6611 -0.1764 -0.8448
 5070SOL     OW26842   2.975   3.066   8.397  0.4252  0.3576  0.2564
 5070SOL    HW126843   2.939   2.987   8.358  0.8631 -0.2952  1.1983
 5070SOL    HW226844   2.909   3.079   8.465  1.0294  1.3915  0.6476
 5071SOL     OW26845   3.609   4.073   3.942  0.0884 -0.3072  0.1364
 5071SOL    HW126846   3.674   4.128   3.986 -0.7086  1.5485 -0.9900
 5071SOL    HW226847   3.542   4.069   4.010 -0.2689  0.5210 -0.1666
 5072SOL     OW26848   4.274   0.737  17.251  0.1802  0.0792  0.8130
 5072SOL    HW126849   4.180   0.731  17.270  0.1164 -0.3681  0.3491
 5072SOL    HW226850   4.304   0.792  17.324  0.7687  0.1631  0.5074
 5073SOL     OW26851   1.127   0.106   9.456  0.2694 -0.6305 -0.3021
 5073SOL    HW126852   1.127   0.165   9.381  0.4910 -2.8776 -2.0814
 5073SOL    HW226853   1.214   0.070   9.443 -0.0772 -1.0493 -1.4409
 5074SOL     OW26854   2.325   0.712   8.671 -0.3097  0.3551  0.1613
 5074SOL    HW126855   2.330   0.792   8.620 -0.7835 -0.7555 -1.6146
 5074SOL    HW226856   2.274   0.660   8.610  4.8505 -0.1550 -3.7496
 5075SOL     OW26857   4.555   0.149   4.809 -0.0836 -0.0941  0.2056
 5075SOL    HW126858   4.601   0.161   4.726  0.3180  1.5282  0.6514
 5075SOL    HW226859   4.614   0.201   4.864 -0.1087 -2.7575  2.7121
 5076SOL     OW26860   3.997   1.075  11.375 -0.1538  0.3071 -0.3040
 5076SOL    HW126861   3.959   1.077  11.287 -0.2390 -1.2059 -0.2937
 5076SOL    HW226862   3.939   1.010  11.414 -0.7629  0.6323 -0.6748
 5077SOL     OW26863   4.579   4.001   8.833  0.8409  0.1675 -0.4041
 5077SOL    HW126864   4.646   4.033   8.773 -0.7529  2.2325 -1.0836
 5077SOL    HW226865   4.496   4.021   8.790  0.4752  1.0434  0.7070
 5078SOL     OW26866   1.718   2.277  16.064 -0.1077  0.5478  0.4097
 5078SOL    HW126867   1.805   2.243  16.046  0.2806  2.1064 -0.7171
 5078SOL    HW226868   1.739   2.329  16.142  1.0491  0.3955  0.1887
 5079SOL     OW26869   4.080   3.799   5.991  0.2049  0.2070 -0.3297
 5079SOL    HW126870   4.069   3.894   5.988 -1.9136  0.0190  1.4851
 5079SOL    HW226871   4.021   3.779   6.064 -1.8528  0.7455 -1.8509
 5080SOL     OW26872   2.702   0.184   8.452 -0.8074 -0.3517 -0.4341
 5080SOL    HW126873   2.715   0.278   8.441  1.0803 -0.4611  0.7549
 5080SOL    HW226874   2.747   0.148   8.375  0.9990  1.6052 -0.3110
 5081SOL     OW26875   3.549   0.003   4.757 -0.4699  0.3562  0.4864
 5081SOL    HW126876   3.545   0.093   4.788 -1.0810  0.3036  0.5694
 5081SOL    HW226877   3.564   0.029   4.666  0.1289 -3.4342 -0.4926
 5082SOL     OW26878   3.672   3.939   7.417 -0.1420  0.5182  0.3862
 5082SOL    HW126879   3.678   4.034   7.430  1.0034  0.3515  1.0520
 5082SOL    HW226880   3.635   3.928   7.330  3.2252 -2.2485 -0.6922
 5083SOL     OW26881   2.363   2.168  13.999 -0.1224 -0.4114 -1.0084
 5083SOL    HW126882   2.267   2.163  14.002 -0.2339  1.4410 -1.4785
 5083SOL    HW226883   2.382   2.095  13.941  0.8843  0.6588 -2.0287
 5084SOL     OW26884   2.288   1.274   1.566  0.8418 -0.4009  0.4478
 5084SOL    HW126885   2.311   1.183   1.550  1.0983 -0.5316  1.5398
 5084SOL    HW226886   2.228   1.272   1.492  3.0898 -1.4889 -1.3317
 5085SOL     OW26887   1.321   3.239   7.461  1.0333 -0.0694 -0.0922
 5085SOL    HW126888   1.371   3.246   7.381 -1.7429 -0.1987 -1.8367
 5085SOL    HW226889   1.321   3.332   7.485 -1.0507 -0.2162  0.5262
 5086SOL     OW26890   1.185   2.141   3.321  0.2867 -0.1050 -0.2298
 5086SOL    HW126891   1.263   2.142   3.376  0.5675 -1.9642 -0.5888
 5086SOL    HW226892   1.163   2.233   3.309  1.0297 -0.0581 -1.2886
 5087SOL     OW26893   4.051   3.023   0.799  0.3213 -0.2253  0.2834
 5087SOL    HW126894   4.035   3.083   0.726  0.6795 -0.1053  0.3064
 5087SOL    HW226895   4.139   3.046   0.829  0.2672 -0.0828  0.3354
 5088SOL     OW26896   1.269   1.976  14.153  0.3198 -0.6819 -0.2653
 5088SOL    HW126897   1.273   1.891  14.109  0.3506 -1.3396  1.0161
 5088SOL    HW226898   1.189   2.027  14.140 -0.9852 -2.0312  2.4348
 5089SOL     OW26899   4.673   1.987   6.402 -0.0665 -0.0004  0.0705
 5089SOL    HW126900   4.719   1.905   6.422 -0.6572 -0.2321  0.4677
 5089SOL    HW226901   4.600   1.966   6.459  0.3291  0.5641  0.7848
 5090SOL     OW26902   4.063   3.724   2.516 -0.5384  0.2495  0.2355
 5090SOL    HW126903   4.002   3.690   2.582  0.4249  0.0938  1.0457
 5090SOL    HW226904   4.145   3.676   2.528  0.7000  2.4243  0.5208
 5091SOL     OW26905   1.370   1.061   5.452 -0.0303  0.1518  0.3031
 5091SOL    HW126906   1.339   1.030   5.538 -0.5021  2.7134  1.0596
 5091SOL    HW226907   1.435   0.997   5.423  0.0926  0.2244  0.4211
 5092SOL     OW26908   3.343   0.697  13.759  0.0134 -0.1059  0.1505
 5092SOL    HW126909   3.405   0.652  13.701  0.3327 -0.4045  0.7247
 5092SOL    HW226910   3.384   0.668  13.841  1.4559 -1.9390 -1.2096
 5093SOL     OW26911   2.520   4.216   5.971 -0.3140 -0.1681 -0.4768
 5093SOL    HW126912   2.474   4.241   5.891  2.2423 -0.1746 -1.9306
 5093SOL    HW226913   2.532   4.292   6.028 -1.0014 -0.4912  0.0986
 5094SOL     OW26914   1.441   3.237  14.116 -0.2550 -0.0699 -0.0655
 5094SOL    HW126915   1.429   3.332  14.107 -0.5177 -0.1303 -0.3491
 5094SOL    HW226916   1.352   3.212  14.141 -0.3156 -0.5873 -0.8129
 5095SOL     OW26917   3.257   2.131   2.913 -0.3605 -0.2938 -0.6746
 5095SOL    HW126918   3.165   2.150   2.932  0.4492  1.3351  1.6083
 5095SOL    HW226919   3.243   2.093   2.826 -0.7387  0.6142 -1.0040
 5096SOL     OW26920   1.294   4.654   3.225 -0.3615 -0.1205 -0.3803
 5096SOL    HW126921   1.367   4.652   3.163 -0.3788 -0.5839 -0.3875
 5096SOL    HW226922   1.336   4.598   3.290  0.5150  0.3960 -0.5058
 5097SOL     OW26923   3.000   2.132  14.868  0.4677  0.6263 -0.1216
 5097SOL    HW126924   2.986   2.194  14.796  0.3219 -1.1035 -1.5787
 5097SOL    HW226925   2.906   2.113  14.875  0.7405  0.6107  3.1585
 5098SOL     OW26926   2.940   0.105   5.916  0.0994  0.1243  0.4956
 5098SOL    HW126927   2.879   0.075   5.848  1.2318 -1.0514  0.0073
 5098SOL    HW226928   3.021   0.068   5.882  1.0180  2.0561  0.5800
 5099SOL     OW26929   1.630   1.328  11.784  0.2403  0.0931 -0.1246
 5099SOL    HW126930   1.644   1.401  11.844 -0.3397 -1.2796  1.6661
 5099SOL    HW226931   1.690   1.364  11.719 -0.0127  0.7109 -0.0197
 5100SOL     OW26932   0.995   1.712  15.156  0.1140  0.2777 -0.1176
 5100SOL    HW126933   1.055   1.775  15.117  0.3137  1.2136  1.6979
 5100SOL    HW226934   0.930   1.697  15.088 -0.0377 -2.5157  0.6095
 5101SOL     OW26935   2.193   3.951   7.807 -0.0625  0.5667  0.0637
 5101SOL    HW126936   2.232   3.925   7.724  2.3212  0.4433  1.2310
 5101SOL    HW226937   2.119   4.003   7.774 -1.6059 -0.8033  1.3443
 5102SOL     OW26938   1.480   1.322   5.409 -0.4460  0.1649  0.1698
 5102SOL    HW126939   1.542   1.307   5.480  1.4079  0.5368 -1.3810
 5102SOL    HW226940   1.414   1.255   5.426  1.0054 -1.2087  0.3789
 5103SOL     OW26941   0.294   1.688   2.275 -0.0495  0.2817 -0.0066
 5103SOL    HW126942   0.209   1.645   2.268  0.2200 -0.1560 -0.5991
 5103SOL    HW226943   0.259   1.775   2.292  0.2310 -0.0238  2.1701
 5104SOL     OW26944   3.388   1.096   3.240  0.3625 -0.4269  0.2226
 5104SOL    HW126945   3.371   1.104   3.146  0.0374 -0.6627  0.2621
 5104SOL    HW226946   3.416   1.005   3.250 -2.2428 -1.2622 -0.1394
 5105SOL     OW26947   2.077   1.844   0.987  0.1670  0.2121 -0.3818
 5105SOL    HW126948   2.060   1.865   0.895 -1.6415 -1.2076 -0.3735
 5105SOL    HW226949   2.150   1.904   1.005  1.7564 -0.5104 -4.3785
 5106SOL     OW26950   2.122   2.611   5.176 -0.1434 -0.3025 -0.2819
 5106SOL    HW126951   2.152   2.656   5.097 -1.1158  1.7430  0.5112
 5106SOL    HW226952   2.171   2.530   5.162 -0.1344 -0.7684  2.4506
 5107SOL     OW26953   0.606   0.742   8.406 -0.3889 -0.1438 -0.0814
 5107SOL    HW126954   0.556   0.821   8.385  0.1655 -0.0193 -0.9313
 5107SOL    HW226955   0.694   0.754   8.370  0.4974 -1.8905  1.5092
 5108SOL     OW26956   0.735   2.880  11.129  0.2352 -0.0272  0.2412
 5108SOL    HW126957   0.773   2.828  11.200  0.4076 -2.0685 -1.3565
 5108SOL    HW226958   0.700   2.957  11.175  0.3285 -0.7685  1.5466
 5109SOL     OW26959   2.003   4.368  10.337 -0.0825  0.0194 -0.1224
 5109SOL    HW126960   1.998   4.405  10.425  1.6504  0.6577 -0.3010
 5109SOL    HW226961   2.021   4.278  10.365 -0.7419 -0.5499 -1.5381
 5110SOL     OW26962   2.107   3.908   9.010 -0.3862  0.5315  0.1814
 5110SOL    HW126963   2.038   3.874   8.952  0.8626  0.2434 -1.1440
 5110SOL    HW226964   2.177   3.913   8.945 -1.1294  0.5373 -0.6240
 5111SOL     OW26965   2.690   2.496  16.878  0.0996  0.0416  0.5617
 5111SOL    HW126966   2.760   2.496  16.813  0.2566  0.3995  0.7317
 5111SOL    HW226967   2.665   2.403  16.880 -0.9683  0.2541 -3.4192
 5112SOL     OW26968   3.496   4.384   7.042 -0.0302  0.2076 -0.3628
 5112SOL    HW126969   3.513   4.290   7.028  2.5102  0.1787  2.8528
 5112SOL    HW226970   3.505   4.417   6.953  2.3649 -0.8079 -0.4878
 5113SOL     OW26971   4.719   1.388   4.514  0.5291  0.3030 -0.1297
 5113SOL    HW126972   4.718   1.476   4.477  0.2871  1.0296  1.6271
 5113SOL    HW226973   4.695   1.419   4.601 -0.6364  0.0014 -0.3475
 5114SOL     OW26974   0.138   0.169  16.598  1.0245 -0.5395  0.4715
 5114SOL    HW126975   0.103   0.245  16.645 -0.0819  0.3803 -1.8638
 5114SOL    HW226976   0.214   0.162  16.655  2.2396  0.1336 -1.0762
 5115SOL     OW26977   1.762   1.047   4.206  0.1472 -0.0861  0.6418
 5115SOL    HW126978   1.769   1.142   4.221 -2.2430  0.0290  1.0318
 5115SOL    HW226979   1.842   1.013   4.246  1.1051 -0.7388 -1.9004
 5116SOL     OW26980   3.843   3.891   3.466  0.4052 -0.0226  0.4468
 5116SOL    HW126981   3.827   3.969   3.518  1.0299  1.6777 -1.9032
 5116SOL    HW226982   3.788   3.830   3.515  1.8128 -1.9528 -0.3973
 5117SOL     OW26983   4.122   1.551   8.004  0.0546 -0.3002  0.0389
 5117SOL    HW126984   4.082   1.635   7.980 -2.6694 -0.2047  4.9067
 5117SOL    HW226985   4.176   1.531   7.927  0.7142 -0.2177  0.4779
 5118SOL     OW26986   4.517   2.284   8.920  0.8296 -0.4546 -0.0111
 5118SOL    HW126987   4.502   2.218   8.989 -0.6550 -1.5733 -1.4121
 5118SOL    HW226988   4.430   2.322   8.913  1.4708  1.0004 -0.0212
 5119SOL     OW26989   0.333   1.628   7.467 -0.0158 -0.2313 -0.8699
 5119SOL    HW126990   0.405   1.577   7.502 -1.0586 -1.4686 -0.5273
 5119SOL    HW226991   0.261   1.572   7.497 -1.6924  0.8157 -2.8947
 5120SOL     OW26992   4.487   2.185   7.059  0.0807 -0.1203 -0.7274
 5120SOL    HW126993   4.424   2.116   7.081  0.5828  0.0298  1.0929
 5120SOL    HW226994   4.464   2.209   6.969  1.0020  0.2722 -0.8528
 5121SOL     OW26995   2.405   1.406  13.834  0.0246  0.0381  0.4120
 5121SOL    HW126996   2.429   1.328  13.783  3.0400 -0.5112  2.6464
 5121SOL    HW226997   2.392   1.456  13.754  0.1671 -0.3805  0.1233
 5122SOL     OW26998   2.181   3.304   7.897 -0.2702 -0.0383  0.3447
 5122SOL    HW126999   2.133   3.384   7.875  2.0757  1.9209  2.3268
 5122SOL    HW227000   2.206   3.276   7.809 -0.7718  3.1269 -0.8270
 5123SOL     OW27001   1.218   3.250   2.700 -0.1328  0.0140 -1.0563
 5123SOL    HW127002   1.141   3.264   2.644 -0.7516 -0.2052 -0.2606
 5123SOL    HW227003   1.221   3.155   2.711 -2.8429  0.2649  1.7447
 5124SOL     OW27004   4.408   3.640   8.484  0.0915  0.6229  0.5980
 5124SOL    HW127005   4.359   3.701   8.540  1.5728  1.4824  0.9514
 5124SOL    HW227006   4.384   3.657   8.393  0.5799 -0.8031  0.2076
 5125SOL     OW27007   3.626   2.936   8.095 -0.6788  0.2934  0.4289
 5125SOL    HW127008   3.555   2.889   8.139  0.5691 -2.2682 -0.2906
 5125SOL    HW227009   3.706   2.917   8.143 -0.3901 -1.9394 -0.9298
 5126SOL     OW27010   2.549   2.945   0.818  0.7659  0.0312 -0.0875
 5126SOL    HW127011   2.604   2.905   0.750  0.9985  1.9200 -1.0115
 5126SOL    HW227012   2.610   2.938   0.891  0.7695 -1.9537 -0.2565
 5127SOL     OW27013   1.516   0.647   0.937 -0.2900 -0.6763  0.6429
 5127SOL    HW127014   1.508   0.571   0.879 -1.2278 -1.5653  1.9499
 5127SOL    HW227015   1.525   0.717   0.872 -0.9085  0.9790  2.3554
 5128SOL     OW27016   1.443   4.156   5.809 -0.7846  0.0417  0.3739
 5128SOL    HW127017   1.397   4.161   5.725  0.1291 -1.2040 -0.1971
 5128SOL    HW227018   1.399   4.080   5.847 -4.8949  1.7268 -1.0977
 5129SOL     OW27019   1.924   1.339   2.771 -0.1803  0.0072  0.7196
 5129SOL    HW127020   1.992   1.281   2.738 -0.1550 -0.5131  1.6776
 5129SOL    HW227021   1.964   1.364   2.855  1.7766 -0.5755 -0.0461
 5130SOL     OW27022   0.136   1.968   2.882  0.1237 -0.1161  0.1398
 5130SOL    HW127023   0.187   1.928   2.952  0.9380 -0.3934 -0.6063
 5130SOL    HW227024   0.182   1.920   2.813  1.6289  0.2201  0.9025
 5131SOL     OW27025   2.942   1.714  14.826 -0.2129  0.1838 -0.2856
 5131SOL    HW127026   2.955   1.621  14.846  1.5272  0.2519 -1.0824
 5131SOL    HW227027   2.933   1.754  14.913  0.7807  0.6027 -0.3756
 5132SOL     OW27028   2.534   3.922   1.048  0.3675 -0.0539 -0.3915
 5132SOL    HW127029   2.568   3.972   1.123  0.3179 -0.4067 -0.1344
 5132SOL    HW227030   2.541   3.831   1.077 -1.9110 -0.0160  0.2723
 5133SOL     OW27031   3.400   0.899   1.066 -0.6011  0.2823  0.5188
 5133SOL    HW127032   3.345   0.971   1.098  0.5544  1.2863  0.2627
 5133SOL    HW227033   3.402   0.829   1.131  0.4617  1.0724  1.3335
 5134SOL     OW27034   0.489   2.995   4.627  0.3622 -0.2241 -0.1214
 5134SOL    HW127035   0.450   3.059   4.567  2.2467 -0.0652 -1.1600
 5134SOL    HW227036   0.460   2.919   4.577 -0.9125  1.7069 -2.3243
 5135SOL     OW27037   1.025   2.074   3.652  0.0173 -0.2738  0.1841
 5135SOL    HW127038   0.964   2.058   3.580 -1.0420  1.8044  0.6098
 5135SOL    HW227039   1.098   2.022   3.619 -1.8635 -1.2955 -2.3484
 5136SOL     OW27040   2.063   2.332   5.914  0.0095  0.7483 -0.0995
 5136SOL    HW127041   2.055   2.376   5.829  0.9454  1.1859  0.0384
 5136SOL    HW227042   2.116   2.255   5.894 -0.2175  0.0314  2.1096
 5137SOL     OW27043   3.044   2.622   8.438  0.2762 -0.4530 -0.1354
 5137SOL    HW127044   3.130   2.624   8.395 -0.3576 -1.2879 -1.4468
 5137SOL    HW227045   3.065   2.569   8.514 -1.7773  0.6821  1.2329
 5138SOL     OW27046   4.700   2.590  15.836 -0.0599 -0.2953 -0.1304
 5138SOL    HW127047   4.736   2.502  15.823  0.7047 -0.1083  0.7702
 5138SOL    HW227048   4.715   2.607  15.929  0.4609 -1.8637  0.0644
 5139SOL     OW27049   1.257   4.280  11.150 -0.3585 -0.1366 -0.0404
 5139SOL    HW127050   1.339   4.236  11.170  1.5561  3.5417  0.2839
 5139SOL    HW227051   1.211   4.216  11.096 -2.4587  1.5232 -0.2338
 5140SOL     OW27052   3.160   4.579   6.995  0.8312  0.2080  0.1873
 5140SOL    HW127053   3.217   4.539   7.061 -0.8832 -2.0706  0.2896
 5140SOL    HW227054   3.118   4.650   7.045  0.3690 -1.1080  1.6499
 5141SOL     OW27055   3.633   1.213  11.277 -0.8198  0.5290 -0.5464
 5141SOL    HW127056   3.650   1.249  11.190  2.2259 -0.5439 -0.4048
 5141SOL    HW227057   3.679   1.276  11.332 -0.6127  0.2163 -0.3575
 5142SOL     OW27058   1.526   3.896   2.738 -0.1231  0.3847 -0.0147
 5142SOL    HW127059   1.489   3.808   2.742  0.9184 -0.0415  0.4364
 5142SOL    HW227060   1.620   3.875   2.738 -0.2288 -0.1477 -1.7841
 5143SOL     OW27061   1.095   2.710  14.439  0.1008 -0.2013 -0.5153
 5143SOL    HW127062   1.066   2.670  14.357 -0.8213  3.2017 -1.8781
 5143SOL    HW227063   1.101   2.803  14.415  1.9632  0.4220  2.4957
 5144SOL     OW27064   3.408   1.358   2.350 -0.2322  0.2213 -0.1261
 5144SOL    HW127065   3.353   1.317   2.283  0.6767  1.2101 -1.4897
 5144SOL    HW227066   3.440   1.431   2.298 -0.9659  0.7507  0.1586
 5145SOL     OW27067   1.471   1.403  13.517 -0.7172 -0.0909  0.3771
 5145SOL    HW127068   1.554   1.377  13.559 -0.9124 -1.0382  0.1835
 5145SOL    HW227069   1.516   1.437  13.440  0.3219 -2.7490 -0.2077
 5146SOL     OW27070   4.716   2.991   2.931  0.4503  0.2381  0.0532
 5146SOL    HW127071   0.026   2.921   2.973 -0.6397  0.4666  1.7337
 5146SOL    HW227072   4.712   2.957   2.841 -1.8309  0.4613  0.0777
 5147SOL     OW27073   2.775   3.762   6.754 -0.6762  0.6701  0.0420
 5147SOL    HW127074   2.860   3.807   6.760 -0.7131  0.8836 -0.9918
 5147SOL    HW227075   2.803   3.685   6.704  1.6039  1.5719 -0.1164
 5148SOL     OW27076   2.117   4.307   3.248  0.3387 -0.3168 -0.4580
 5148SOL    HW127077   2.073   4.273   3.325  0.8376 -1.3569 -0.6259
 5148SOL    HW227078   2.170   4.229   3.229 -0.3105 -0.0244 -3.5571
 5149SOL     OW27079   4.589   0.449   1.832 -0.0961 -0.2566 -0.1584
 5149SOL    HW127080   4.681   0.444   1.857 -0.2852  1.7734  0.8978
 5149SOL    HW227081   4.590   0.526   1.774  0.7087 -0.4976 -0.4762
 5150SOL     OW27082   4.297   3.116   9.119  0.0138  0.3447  0.5323
 5150SOL    HW127083   4.389   3.122   9.146 -0.4030  2.9163  1.3109
 5150SOL    HW227084   4.306   3.064   9.039  1.7689 -0.2147  1.0939
 5151SOL     OW27085   2.949   4.110   8.026 -0.6097 -0.0619  0.6422
 5151SOL    HW127086   2.960   4.059   8.106  0.4149 -0.1164  0.4688
 5151SOL    HW227087   2.862   4.082   7.998  0.1280 -1.7952  0.1070
 5152SOL     OW27088   2.935   0.639  17.189  0.1029 -0.6022  0.4962
 5152SOL    HW127089   2.850   0.681  17.190  0.8936  0.9188  2.1057
 5152SOL    HW227090   2.979   0.672  17.110 -0.9912  1.0850  0.6043
 5153SOL     OW27091   4.068   4.696   4.588 -0.0435  0.1282  0.2467
 5153SOL    HW127092   4.007   4.704   4.661  0.4572  0.3756  0.6436
 5153SOL    HW227093   4.143   4.734   4.635  1.4662  0.5459 -2.4726
 5154SOL     OW27094   3.404   1.885   3.459 -0.3047 -0.3817  0.1944
 5154SOL    HW127095   3.396   1.800   3.417 -2.3700 -0.7483  1.3389
 5154SOL    HW227096   3.362   1.936   3.389  2.5164  2.5183  0.5923
 5155SOL     OW27097   4.022   1.554   7.635  0.4770  0.2895 -0.8415
 5155SOL    HW127098   4.010   1.476   7.580 -1.4626 -1.0988  1.5787
 5155SOL    HW227099   4.083   1.522   7.702  0.2421 -1.0255 -1.2603
 5156SOL     OW27100   3.402   1.140   2.975  0.1361  0.1309  0.5938
 5156SOL    HW127101   3.364   1.209   2.921  3.5263 -0.1090 -2.0943
 5156SOL    HW227102   3.482   1.126   2.924 -1.8802 -0.4027 -2.4606
 5157SOL     OW27103   4.453   2.354   3.584  0.3002  0.4555 -0.4029
 5157SOL    HW127104   4.409   2.373   3.667  1.8008 -1.5025  0.8454
 5157SOL    HW227105   4.544   2.381   3.599  0.5172 -1.7315  2.3722
 5158SOL     OW27106   3.265   0.645   6.294  0.2549 -0.0599 -0.2876
 5158SOL    HW127107   3.172   0.666   6.288  0.4510  1.4624  1.6049
 5158SOL    HW227108   3.279   0.563   6.247 -0.4098  0.8554 -2.0767
 5159SOL     OW27109   3.863   2.808   0.727  0.1396  0.1407  0.5341
 5159SOL    HW127110   3.938   2.863   0.749  0.3144  0.3644 -0.6115
 5159SOL    HW227111   3.805   2.884   0.728 -1.6773 -1.2094 -2.1505
 5160SOL     OW27112   4.732   0.383   5.098 -0.1852  0.2357 -0.6310
 5160SOL    HW127113   0.082   0.402   5.128  0.5741 -2.8232 -0.9031
 5160SOL    HW227114   0.019   0.336   5.019 -0.0717 -0.2921 -0.2814
 5161SOL     OW27115   4.286   3.360   5.702  0.2587 -0.1013  0.1594
 5161SOL    HW127116   4.224   3.329   5.767  1.0145 -0.0883  0.8862
 5161SOL    HW227117   4.280   3.456   5.704  2.5351 -0.0163  3.6916
 5162SOL     OW27118   3.849   3.687  11.343  0.4564 -0.0666  0.2937
 5162SOL    HW127119   3.855   3.778  11.315 -1.1760 -0.1198 -0.2380
 5162SOL    HW227120   3.862   3.642  11.259 -0.0063 -0.1906  0.2925
 5163SOL     OW27121   4.192   1.948   0.290  0.4219  0.0409  0.4149
 5163SOL    HW127122   4.109   1.939   0.338 -0.5247  2.4079 -0.7887
 5163SOL    HW227123   4.238   2.015   0.340 -0.3806  0.2466  0.8740
 5164SOL     OW27124   2.408   2.116   7.293 -0.3170 -0.0457 -0.4536
 5164SOL    HW127125   2.316   2.122   7.269  0.0143  1.0825 -1.4112
 5164SOL    HW227126   2.408   2.109   7.389 -1.7083 -3.1682 -0.6848
 5165SOL     OW27127   4.474   2.104   5.193 -0.2019  0.6147 -0.2869
 5165SOL    HW127128   4.420   2.029   5.220  2.3385 -1.5205 -1.1666
 5165SOL    HW227129   4.539   2.113   5.263 -1.7148 -1.7778  1.4279
 5166SOL     OW27130   1.771   2.667   1.257  0.0433  0.1306 -0.8893
 5166SOL    HW127131   1.704   2.733   1.275  0.4076  0.2263  0.1063
 5166SOL    HW227132   1.802   2.651   1.346 -1.2046 -1.4722 -0.7238
 5167SOL     OW27133   0.315   2.134  16.506  0.2219  0.2860 -0.0975
 5167SOL    HW127134   0.223   2.146  16.528  0.1158 -2.4864  0.9347
 5167SOL    HW227135   0.347   2.065  16.563  2.0111  1.7091  0.6125
 5168SOL     OW27136   1.277   0.909  10.018 -0.2289 -0.3727  0.2308
 5168SOL    HW127137   1.228   0.833   9.986 -0.7473  0.0539  0.0202
 5168SOL    HW227138   1.207   0.951  10.068  0.3004  1.0146 -0.2105
 5169SOL     OW27139   3.737   3.094   6.947 -0.8316  0.1803 -0.1177
 5169SOL    HW127140   3.650   3.064   6.975 -0.1954  1.3297  3.1066
 5169SOL    HW227141   3.788   3.050   7.015  2.5227  1.4137 -1.8238
 5170SOL     OW27142   4.156   4.322   9.203  0.8176 -0.3796 -0.3186
 5170SOL    HW127143   4.083   4.383   9.208  2.7185  2.0180 -1.7721
 5170SOL    HW227144   4.229   4.383   9.216  0.0622  0.5379 -0.3739
 5171SOL     OW27145   0.634   3.090   5.665  0.3677 -0.1077 -0.2969
 5171SOL    HW127146   0.607   3.096   5.756 -0.5505  3.0601 -0.7652
 5171SOL    HW227147   0.552   3.065   5.622  0.4369 -1.5630  0.4347
 5172SOL     OW27148   3.618   4.431   6.018  0.4795  0.1795 -0.9311
 5172SOL    HW127149   3.649   4.474   6.097 -1.1659 -0.4955  0.0755
 5172SOL    HW227150   3.691   4.466   5.966  0.7864  0.1906 -0.4916
 5173SOL     OW27151   4.190   0.954   5.174  0.0063 -0.4468  0.5871
 5173SOL    HW127152   4.263   1.011   5.200  2.0813 -1.8131 -2.2907
 5173SOL    HW227153   4.118   1.014   5.192 -0.5432 -1.1609  0.7444
 5174SOL     OW27154   0.921   3.185   4.099 -0.4565 -0.3853 -0.2939
 5174SOL    HW127155   0.838   3.231   4.117  1.5941  3.4863 -0.6826
 5174SOL    HW227156   0.912   3.165   4.006 -2.1579 -2.0534  0.2125
 5175SOL     OW27157   2.243   1.716   3.113 -0.2218 -0.4712 -0.1474
 5175SOL    HW127158   2.255   1.634   3.160 -1.0601 -1.4600 -1.6468
 5175SOL    HW227159   2.272   1.782   3.176 -2.5823 -0.1803  0.6398
 5176SOL     OW27160   0.713   1.023   9.143 -0.2125 -0.4304 -0.6163
 5176SOL    HW127161   0.639   0.971   9.174 -0.2660 -0.4934 -0.8558
 5176SOL    HW227162   0.755   0.964   9.081  0.1444  0.2460 -1.0145
 5177SOL     OW27163   4.031   1.231   2.478  0.0949 -0.1829 -0.0154
 5177SOL    HW127164   3.999   1.180   2.404 -0.3794 -0.6667  0.5175
 5177SOL    HW227165   4.006   1.172   2.549 -1.2638 -1.1656 -1.3066
 5178SOL     OW27166   2.697   4.659  11.251  0.0749 -0.3626  0.1704
 5178SOL    HW127167   2.696   4.659  11.156  2.3300  1.0325  0.1292
 5178SOL    HW227168   2.715   4.570  11.280  0.7545  0.2073  1.5327
 5179SOL     OW27169   1.410   1.691   6.412  0.2625  0.3816  0.0103
 5179SOL    HW127170   1.476   1.644   6.462  0.2502 -2.1318 -2.3219
 5179SOL    HW227171   1.396   1.772   6.461  0.3046 -0.5975  1.6112
 5180SOL     OW27172   0.050   3.133   6.524 -0.1126  0.0694  0.3413
 5180SOL    HW127173   0.067   3.213   6.573  1.5184 -0.4785  0.7041
 5180SOL    HW227174   4.709   3.152   6.475 -0.6265  0.7481  1.4591
 5181SOL     OW27175   2.019   2.557   2.502  0.2105 -0.5368  0.0100
 5181SOL    HW127176   2.115   2.558   2.496  0.1095 -1.0620 -1.6310
 5181SOL    HW227177   2.001   2.463   2.501 -1.1221 -0.2797  0.0150
 5182SOL     OW27178   0.444   1.672   5.905 -0.2370  0.1651  0.7541
 5182SOL    HW127179   0.522   1.713   5.943  0.8142 -0.4779 -0.7212
 5182SOL    HW227180   0.459   1.678   5.811  0.6660  1.5886  0.9842
 5183SOL     OW27181   1.716   1.569   3.295 -0.4961 -0.3447  0.5877
 5183SOL    HW127182   1.676   1.484   3.278 -1.2961  0.9369 -4.0258
 5183SOL    HW227183   1.629   1.606   3.313  0.3899  1.7847  0.5290
 5184SOL     OW27184   2.446   2.764   3.972 -0.4404  0.6106 -0.9479
 5184SOL    HW127185   2.513   2.768   3.904 -0.8853  0.5965 -1.3857
 5184SOL    HW227186   2.469   2.685   4.022 -0.4565  1.5429  0.5268
 5185SOL     OW27187   1.751   3.169   5.536 -0.3923 -0.8650 -0.3358
 5185SOL    HW127188   1.680   3.131   5.484 -1.2090  2.4646 -1.6517
 5185SOL    HW227189   1.703   3.195   5.614  0.0883 -1.5485  0.1886
 5186SOL     OW27190   0.998   2.501  13.481  0.6901 -0.3292 -0.1574
 5186SOL    HW127191   0.981   2.536  13.393  1.0089 -0.1225 -0.1384
 5186SOL    HW227192   0.948   2.420  13.468  0.6900 -0.1617 -1.2594
 5187SOL     OW27193   2.271   2.471  17.690  0.7274  0.2149  0.2836
 5187SOL    HW127194   2.250   2.563  17.702 -2.1634 -0.2655 -0.9635
 5187SOL    HW227195   2.313   2.466  17.604  1.8398 -1.1284  0.8990
 5188SOL     OW27196   4.465   2.191   4.467 -0.1000 -0.3711 -0.1627
 5188SOL    HW127197   4.491   2.109   4.427  1.2104  0.1217 -0.3273
 5188SOL    HW227198   4.535   2.201   4.533 -0.9793  2.2500  0.3881
 5189SOL     OW27199   2.111   3.217  16.700  0.3417 -0.7292  0.1614
 5189SOL    HW127200   2.065   3.260  16.772 -1.4280 -1.8485 -0.2828
 5189SOL    HW227201   2.038   3.209  16.638  1.0180 -2.0675 -0.4527
 5190SOL     OW27202   3.086   3.700  15.934 -0.8255 -0.1067  0.1275
 5190SOL    HW127203   3.112   3.631  15.995 -2.2404  0.6390  1.5673
 5190SOL    HW227204   3.071   3.777  15.989  0.4970  2.5862 -3.2460
 5191SOL     OW27205   0.631   0.685   3.219  0.2536 -0.0737  0.2033
 5191SOL    HW127206   0.544   0.720   3.197  0.5197  0.7618  0.4602
 5191SOL    HW227207   0.682   0.758   3.182 -1.4678  1.2957  0.5198
 5192SOL     OW27208   3.495   3.735   5.323  0.6402 -0.2503 -0.4486
 5192SOL    HW127209   3.539   3.654   5.349  2.8558  1.0656 -0.0322
 5192SOL    HW227210   3.476   3.718   5.231  1.8603  1.3326 -0.9924
 5193SOL     OW27211   4.309   2.414  14.986  0.3579 -0.0316  0.5850
 5193SOL    HW127212   4.358   2.427  15.066  0.9083 -0.7821  0.3670
 5193SOL    HW227213   4.246   2.485  14.999 -0.8048 -0.7711 -0.9719
 5194SOL     OW27214   1.680   2.176   1.271 -0.0015 -0.2230  0.3350
 5194SOL    HW127215   1.707   2.256   1.226 -0.6555 -0.6088 -0.7490
 5194SOL    HW227216   1.707   2.183   1.362 -1.1442 -1.0252  0.7422
 5195SOL     OW27217   4.584   1.782   8.738  0.5267  0.1900  0.2388
 5195SOL    HW127218   4.530   1.708   8.712  1.1525 -0.5647  1.0922
 5195SOL    HW227219   4.645   1.743   8.801  0.6797  0.7905  0.4628
 5196SOL     OW27220   1.310   2.766   7.084  0.3662  0.2292  0.1084
 5196SOL    HW127221   1.234   2.818   7.057 -0.7330 -1.3017  0.2738
 5196SOL    HW227222   1.273   2.681   7.107  2.5925 -0.1708  2.2146
 5197SOL     OW27223   1.201   2.666   7.377 -0.0057  0.1204 -0.0467
 5197SOL    HW127224   1.265   2.595   7.368  0.7799  1.0289 -1.5211
 5197SOL    HW227225   1.174   2.661   7.469 -1.1532  0.8466 -0.3502
 5198SOL     OW27226   1.908   0.494   1.203  0.1202  0.0725 -0.4363
 5198SOL    HW127227   1.990   0.461   1.167 -0.7855 -1.2167 -1.2847
 5198SOL    HW227228   1.886   0.556   1.134 -0.0717  1.3595  0.7718
 5199SOL     OW27229   0.394   0.259  14.849 -0.2399  0.1811  0.3881
 5199SOL    HW127230   0.415   0.166  14.846 -0.4047  0.2538 -2.5606
 5199SOL    HW227231   0.306   0.261  14.812 -0.6609  0.7184  1.4087
 5200SOL     OW27232   0.041   2.179   3.440 -0.1988  0.2778  0.0023
 5200SOL    HW127233   4.717   2.189   3.369 -0.8971  3.0196  0.9841
 5200SOL    HW227234   0.037   2.084   3.443  1.3658  0.2001  0.1139
 5201SOL     OW27235   2.418   3.878  10.101  0.0469  0.3196 -0.0587
 5201SOL    HW127236   2.438   3.970  10.118  0.1741  0.2075  0.4204
 5201SOL    HW227237   2.325   3.887  10.078 -0.3887 -0.5338  1.3129
 5202SOL     OW27238   2.419   2.563  17.458 -0.3700  0.2140  0.2923
 5202SOL    HW127239   2.513   2.582  17.451 -0.2384 -0.3413  0.5608
 5202SOL    HW227240   2.394   2.651  17.484  1.3040  0.2267  1.8632
 5203SOL     OW27241   3.733   1.573  10.630  0.5836 -0.0975  0.0484
 5203SOL    HW127242   3.641   1.591  10.611  0.6224 -1.0886 -1.0831
 5203SOL    HW227243   3.735   1.530  10.716 -1.8666 -0.3411 -0.0239
 5204SOL     OW27244   0.853   1.746   4.606 -0.0443  0.0672 -0.4225
 5204SOL    HW127245   0.788   1.689   4.563  0.3150  1.5774 -2.9677
 5204SOL    HW227246   0.802   1.765   4.685  0.0317  0.3301 -0.4375
 5205SOL     OW27247   1.894   0.319   4.748 -0.3015  0.1546  0.0177
 5205SOL    HW127248   1.907   0.239   4.799 -1.0036 -1.0544 -1.7132
 5205SOL    HW227249   1.820   0.291   4.695 -2.6071  1.5678  2.4853
 5206SOL     OW27250   0.106   3.659  16.621 -0.1277  0.3253 -0.1499
 5206SOL    HW127251   0.052   3.707  16.683  1.0017  0.2262  0.9098
 5206SOL    HW227252   0.161   3.725  16.579 -0.0952  0.3542 -0.0614
 5207SOL     OW27253   2.535   2.848  11.959  0.6894  0.3990  0.0023
 5207SOL    HW127254   2.555   2.761  11.923 -0.2527  0.2806 -0.2583
 5207SOL    HW227255   2.592   2.908  11.911  0.6104 -0.2067 -0.8601
 5208SOL     OW27256   0.724   2.808   8.893 -0.0954  0.1702 -0.1499
 5208SOL    HW127257   0.783   2.875   8.929 -0.4805  0.4904 -0.1202
 5208SOL    HW227258   0.682   2.763   8.966  1.5828  0.5409  1.0626
 5209SOL     OW27259   2.016   0.458   7.391  0.2535 -0.2906 -0.3843
 5209SOL    HW127260   1.945   0.413   7.344 -0.3330  0.8449 -0.5902
 5209SOL    HW227261   2.069   0.486   7.316 -0.1584 -0.7928 -0.8634
 5210SOL     OW27262   2.718   0.910   3.295  0.1996  0.0655 -0.2020
 5210SOL    HW127263   2.659   0.953   3.232  1.4661  1.3055 -0.5584
 5210SOL    HW227264   2.662   0.893   3.371  1.1939  0.5043  0.6284
 5211SOL     OW27265   4.217   0.715   1.827  0.4638 -0.5015  0.0348
 5211SOL    HW127266   4.151   0.775   1.793  0.4038 -0.2445  0.5957
 5211SOL    HW227267   4.220   0.763   1.909 -0.1086 -0.0326 -0.2218
 5212SOL     OW27268   0.097   3.953  13.003  0.1515 -0.8852  0.5254
 5212SOL    HW127269   0.181   3.999  12.997 -0.3674 -0.0279 -0.1665
 5212SOL    HW227270   0.072   3.993  13.086  0.7020  1.2112 -0.3242
 5213SOL     OW27271   3.701   4.109  12.006  0.2803  0.7429 -0.1438
 5213SOL    HW127272   3.710   4.203  11.989 -0.8324  0.3386 -2.8407
 5213SOL    HW227273   3.682   4.121  12.099  0.2390 -0.4472 -0.0092
 5214SOL     OW27274   4.628   4.181   5.827  0.3347 -0.0577  0.4553
 5214SOL    HW127275   4.543   4.220   5.804  0.3231 -0.0882  0.4456
 5214SOL    HW227276   4.606   4.106   5.883 -3.3478 -0.1963 -1.1285
 5215SOL     OW27277   0.527   0.554   5.027 -0.1724  0.3183  0.1944
 5215SOL    HW127278   0.594   0.492   5.053 -1.1438  0.3540  2.8231
 5215SOL    HW227279   0.444   0.518   5.058  0.5806 -0.8383  0.8645
 5216SOL     OW27280   1.831   1.971  10.234  0.1481  0.1655  0.1824
 5216SOL    HW127281   1.776   1.896  10.211  1.0400 -1.2043  2.5546
 5216SOL    HW227282   1.781   2.032  10.289  0.5255 -0.7362  1.5358
 5217SOL     OW27283   0.645   2.628   0.478 -0.0137 -0.1040 -0.3792
 5217SOL    HW127284   0.669   2.705   0.427 -2.4500 -0.1585 -1.6354
 5217SOL    HW227285   0.700   2.641   0.555  0.2616 -1.0283 -0.4188
 5218SOL     OW27286   0.030   2.797   5.823 -0.5324  0.1223 -0.1643
 5218SOL    HW127287   0.034   2.891   5.808 -4.0823  0.1112 -1.2029
 5218SOL    HW227288   0.107   2.780   5.877 -1.8792  0.7384  1.9343
 5219SOL     OW27289   1.706   1.036   9.243  0.2856  0.3106  0.4303
 5219SOL    HW127290   1.749   0.998   9.320 -1.4024 -0.8245  0.8094
 5219SOL    HW227291   1.616   1.027   9.272 -0.4428 -0.4374 -2.0905
 5220SOL     OW27292   2.770   0.704  11.093 -0.3615 -0.4945  0.9033
 5220SOL    HW127293   2.842   0.740  11.041 -1.1205 -1.5048 -0.8472
 5220SOL    HW227294   2.805   0.683  11.179 -0.4345  0.7978  1.2464
 5221SOL     OW27295   3.887   2.241   7.927  0.2712 -0.1612 -0.6274
 5221SOL    HW127296   3.873   2.323   7.975 -1.1873 -0.9611  0.2994
 5221SOL    HW227297   3.838   2.179   7.982 -0.4059  1.3566  0.4760
 5222SOL     OW27298   1.535   1.258   2.581  0.3058 -0.5436 -0.3092
 5222SOL    HW127299   1.496   1.256   2.668 -0.9162 -3.0147 -0.9054
 5222SOL    HW227300   1.590   1.180   2.575 -0.3551 -0.8676 -2.3836
 5223SOL     OW27301   2.650   2.752   6.727 -0.1688 -0.3502  0.0644
 5223SOL    HW127302   2.689   2.703   6.655  0.5541 -1.8509  1.4592
 5223SOL    HW227303   2.559   2.750   6.697 -0.0201  0.1307 -0.4147
 5224SOL     OW27304   1.126   3.001   8.657  0.0321 -0.4711  0.3651
 5224SOL    HW127305   1.047   3.026   8.704  0.1269  0.9102 -0.2121
 5224SOL    HW227306   1.105   2.918   8.614  1.9254 -0.1602 -1.2212
 5225SOL     OW27307   4.623   1.412  15.987 -0.0780 -0.0628  0.2968
 5225SOL    HW127308   4.585   1.389  16.072  0.1457 -2.2239 -0.1962
 5225SOL    HW227309   4.712   1.378  15.997 -1.1339 -2.3148  1.8080
 5226SOL     OW27310   0.563   2.760   6.300 -0.2299 -0.4492 -0.1965
 5226SOL    HW127311   0.496   2.712   6.349  0.0150 -0.1585  0.4360
 5226SOL    HW227312   0.649   2.722   6.319 -0.5501 -0.9672  0.2078
 5227SOL     OW27313   0.925   0.449   3.481  0.4599 -0.2379  0.0482
 5227SOL    HW127314   0.928   0.361   3.443 -0.5875  0.2120 -1.0684
 5227SOL    HW227315   0.981   0.491   3.415  0.8469  0.4796  0.8369
 5228SOL     OW27316   2.858   2.702  12.061  0.1951 -0.4233 -0.0873
 5228SOL    HW127317   2.929   2.663  12.113 -0.1454  0.2227  0.8619
 5228SOL    HW227318   2.899   2.777  12.017  0.2013  0.7468  1.9401
 5229SOL     OW27319   1.145   2.210   9.639 -0.4582 -0.5509  0.3009
 5229SOL    HW127320   1.186   2.154   9.705  1.3096  0.2643 -0.1061
 5229SOL    HW227321   1.054   2.179   9.640  0.6165 -3.7056 -2.9284
 5230SOL     OW27322   0.757   0.230   6.601 -0.4036 -0.1809  0.3424
 5230SOL    HW127323   0.689   0.185   6.652 -1.3502  0.8747  0.0220
 5230SOL    HW227324   0.832   0.206   6.655 -1.4573 -2.7164  0.7061
 5231SOL     OW27325   3.764   4.571   5.451 -1.0205 -0.7570  0.2316
 5231SOL    HW127326   3.786   4.522   5.530 -1.6286 -0.1950  0.7494
 5231SOL    HW227327   3.733   4.503   5.391 -1.6652  0.5001 -0.8733
 5232SOL     OW27328   2.887   1.663   1.698 -0.1477  0.1294 -0.3610
 5232SOL    HW127329   2.798   1.632   1.682 -0.8112  2.0108 -0.2692
 5232SOL    HW227330   2.871   1.755   1.715  1.0521 -0.0583  1.8618
 5233SOL     OW27331   1.227   2.421   0.653 -0.4671 -0.7844  0.5398
 5233SOL    HW127332   1.272   2.341   0.682 -0.4215 -0.6904  0.7261
 5233SOL    HW227333   1.300   2.470   0.616 -0.5815 -2.9982 -2.6782
 5234SOL     OW27334   3.774   3.498   2.088 -0.5391 -0.6701  0.0773
 5234SOL    HW127335   3.833   3.573   2.099 -0.4671 -1.0319  2.1422
 5234SOL    HW227336   3.760   3.462   2.176  2.1732  0.2952  0.9027
 5235SOL     OW27337   2.661   1.692   7.560 -0.2743  0.2005 -0.5778
 5235SOL    HW127338   2.654   1.599   7.538  1.4583 -0.2871  0.9240
 5235SOL    HW227339   2.592   1.699   7.625  0.6129 -1.9632  0.6068
 5236SOL     OW27340   2.504   4.303   6.948  0.2198 -0.7298  0.2174
 5236SOL    HW127341   2.520   4.379   7.004 -1.2112 -0.4869  0.2958
 5236SOL    HW227342   2.593   4.289   6.915  0.4846  1.1319  0.1246
 5237SOL     OW27343   4.012   2.388  17.322 -0.3230  0.0123 -0.5208
 5237SOL    HW127344   4.022   2.397  17.417 -0.4375  2.5584 -0.7726
 5237SOL    HW227345   4.097   2.350  17.300 -0.5118 -0.6772 -0.0844
 5238SOL     OW27346   0.922   4.033   0.467  0.0478 -0.5550 -0.1676
 5238SOL    HW127347   0.883   4.034   0.379  0.9163 -0.6856 -0.5566
 5238SOL    HW227348   0.915   3.939   0.483 -1.6127 -0.7381 -1.9704
 5239SOL     OW27349   4.085   3.818   8.668  0.3952 -0.0093 -0.0880
 5239SOL    HW127350   4.179   3.815   8.689  1.2611 -0.4530 -4.0266
 5239SOL    HW227351   4.049   3.768   8.741 -0.9034  0.0873 -0.6584
 5240SOL     OW27352   2.303   2.212   4.180  0.4889 -0.3693 -0.6695
 5240SOL    HW127353   2.244   2.288   4.187 -0.0282 -0.6084 -2.4607
 5240SOL    HW227354   2.367   2.256   4.124  2.1457  0.9391  2.2527
 5241SOL     OW27355   3.134   2.329   1.124  0.2774 -0.1599  0.1058
 5241SOL    HW127356   3.227   2.330   1.145  0.4803  0.0232 -0.7788
 5241SOL    HW227357   3.144   2.283   1.040  0.6075  0.9336 -0.4542
 5242SOL     OW27358   1.088   0.725   2.249 -0.1268 -0.4338  0.0920
 5242SOL    HW127359   1.056   0.686   2.330  0.7437 -3.7401 -1.1814
 5242SOL    HW227360   1.150   0.790   2.280 -2.1581  1.3743  0.3951
 5243SOL     OW27361   3.051   0.115   8.971 -0.4702  0.1218  0.5425
 5243SOL    HW127362   3.036   0.086   8.881 -0.0015 -0.8018  0.7552
 5243SOL    HW227363   2.997   0.193   8.968 -0.5710  0.1272  2.4214
 5244SOL     OW27364   2.695   2.023  12.150  0.0528 -0.2240 -0.1920
 5244SOL    HW127365   2.652   1.994  12.070  2.0156 -1.7603 -0.6910
 5244SOL    HW227366   2.678   1.945  12.203 -1.7946  0.9677  0.9640
 5245SOL     OW27367   3.211   4.537   3.861  0.2877  0.0634  0.5908
 5245SOL    HW127368   3.115   4.525   3.859  0.4355 -1.0686 -0.5736
 5245SOL    HW227369   3.247   4.453   3.832 -1.4441 -1.3904  2.6344
 5246SOL     OW27370   0.199   0.390   9.345  0.8446 -0.6889 -0.2676
 5246SOL    HW127371   0.156   0.387   9.259 -1.7921 -1.9177  1.1026
 5246SOL    HW227372   0.254   0.312   9.348 -0.3862 -1.4807  1.2161
 5247SOL     OW27373   1.475   3.039  13.898 -0.6312  0.4486  0.1016
 5247SOL    HW127374   1.394   3.059  13.852  0.3185 -1.9995 -2.6720
 5247SOL    HW227375   1.486   3.105  13.967  0.8052 -1.2186  1.4680
 5248SOL     OW27376   3.375   0.549   8.415 -0.2605 -0.1238 -0.5501
 5248SOL    HW127377   3.284   0.551   8.384  0.5425 -1.4160 -2.9824
 5248SOL    HW227378   3.418   0.516   8.336  0.5490 -2.8145  1.0405
 5249SOL     OW27379   2.850   3.591   3.658  0.2960 -0.1949 -0.1207
 5249SOL    HW127380   2.862   3.530   3.731  1.5489  1.8779  1.4102
 5249SOL    HW227381   2.923   3.652   3.659 -1.0478  1.3588  1.5115
 5250SOL     OW27382   3.405   0.597   7.589 -0.1097 -0.4039 -0.1218
 5250SOL    HW127383   3.399   0.535   7.662  0.8923  1.5910  1.6498
 5250SOL    HW227384   3.432   0.537   7.520 -0.4967  1.4140 -1.8500
 5251SOL     OW27385   0.611   0.767   7.221  0.7937  0.5626 -0.1671
 5251SOL    HW127386   0.566   0.755   7.305  0.3134 -1.8859 -0.8010
 5251SOL    HW227387   0.648   0.855   7.229  1.6748  0.2311 -0.6841
 5252SOL     OW27388   4.193   0.354   5.224 -0.6295 -0.0739 -0.4113
 5252SOL    HW127389   4.198   0.421   5.292  1.0176  1.5607 -2.1501
 5252SOL    HW227390   4.126   0.387   5.164 -0.0295  1.5559 -0.1737
 5253SOL     OW27391   0.172   2.349   3.639 -0.0174 -0.2099 -0.5059
 5253SOL    HW127392   0.126   2.303   3.569  1.2155  0.1388 -1.5449
 5253SOL    HW227393   0.181   2.433   3.593  2.1402 -0.2361 -0.0906
 5254SOL     OW27394   4.321   0.983   8.847  0.1931 -0.3789  0.2953
 5254SOL    HW127395   4.308   0.902   8.797  0.4113 -0.5882  0.5814
 5254SOL    HW227396   4.301   1.047   8.778  3.5730  1.3862  0.9196
 5255SOL     OW27397   3.707   0.477   8.962  0.1263  0.0810 -0.1353
 5255SOL    HW127398   3.636   0.426   9.002 -0.1756  0.5868 -0.0368
 5255SOL    HW227399   3.781   0.468   9.023 -0.0579  1.9442  0.3414
 5256SOL     OW27400   2.772   4.170   4.509 -0.4177 -0.5340 -0.0738
 5256SOL    HW127401   2.781   4.213   4.423 -2.3044 -1.8642 -0.9186
 5256SOL    HW227402   2.706   4.106   4.484 -1.0862  0.7769 -1.6911
 5257SOL     OW27403   1.986   0.682   6.302 -0.4231 -0.1381 -0.5163
 5257SOL    HW127404   1.987   0.669   6.207 -0.8730  1.7113 -0.7680
 5257SOL    HW227405   2.036   0.611   6.342  0.3409  1.1084  0.7066
 5258SOL     OW27406   3.949   1.713   6.305  0.1009 -0.1730  0.5537
 5258SOL    HW127407   3.930   1.807   6.305 -0.7395 -0.3457 -0.4670
 5258SOL    HW227408   3.901   1.681   6.381  1.4163  2.3817  2.4549
 5259SOL     OW27409   2.847   1.205   4.290 -0.0040  0.0261 -0.0169
 5259SOL    HW127410   2.782   1.269   4.261 -1.7571 -1.0227  1.5281
 5259SOL    HW227411   2.932   1.248   4.296  1.1525 -2.3351  0.7008
 5260SOL     OW27412   2.907   1.039   5.499  0.1410  0.6406  0.5007
 5260SOL    HW127413   3.002   1.030   5.506 -0.1704 -2.1245  1.0840
 5260SOL    HW227414   2.895   1.129   5.467  0.7793  0.5259 -0.0753
 5261SOL     OW27415   2.549   3.158   3.476 -1.1204  0.8920  0.7009
 5261SOL    HW127416   2.629   3.178   3.427 -0.8511 -1.1176  0.3408
 5261SOL    HW227417   2.510   3.095   3.416  0.9277 -0.9350  1.3172
 5262SOL     OW27418   1.665   2.762   5.274 -0.3370  0.5187  0.6013
 5262SOL    HW127419   1.678   2.791   5.184  2.5324 -0.4064  0.7131
 5262SOL    HW227420   1.757   2.754   5.300 -0.1132 -0.9970 -0.6445
 5263SOL     OW27421   4.320   3.476   7.187 -0.2540  0.0516 -0.2538
 5263SOL    HW127422   4.250   3.469   7.252  1.3861 -0.4772  1.4719
 5263SOL    HW227423   4.361   3.558   7.214  0.3451 -0.7489  1.2724
 5264SOL     OW27424   2.152   3.408   6.091 -0.0525  0.6198 -0.6045
 5264SOL    HW127425   2.218   3.411   6.022 -0.2763 -0.1100 -0.8450
 5264SOL    HW227426   2.152   3.501   6.116 -2.5577  0.7447 -1.0610
 5265SOL     OW27427   2.273   4.360   7.661  0.0291 -0.1929  0.0900
 5265SOL    HW127428   2.209   4.303   7.618 -0.1877 -0.6999  1.0692
 5265SOL    HW227429   2.347   4.320   7.615  0.1101  0.5505 -0.4187
 5266SOL     OW27430   3.122   2.752   7.548  0.1887 -0.2065  0.3384
 5266SOL    HW127431   3.058   2.791   7.608 -1.0107  0.7675 -1.5882
 5266SOL    HW227432   3.088   2.773   7.461 -2.9845  1.3288  1.9663
 5267SOL     OW27433   3.524   0.375   8.627 -0.5446  0.3191 -0.1867
 5267SOL    HW127434   3.490   0.430   8.556 -0.9071  1.8452  1.1555
 5267SOL    HW227435   3.589   0.333   8.571 -0.6117 -0.8024  0.5901
 5268SOL     OW27436   2.650   3.410   6.319  0.2763 -0.0018 -0.7731
 5268SOL    HW127437   2.712   3.475   6.285 -0.0017  1.3113  1.2358
 5268SOL    HW227438   2.595   3.397   6.241 -1.2059 -1.7231  0.5643
 5269SOL     OW27439   3.078   2.115   4.251  0.3652 -0.3024 -0.5950
 5269SOL    HW127440   3.158   2.149   4.211  1.5042 -0.9882  1.1143
 5269SOL    HW227441   3.056   2.191   4.304  3.4397  0.2474 -0.0851
 5270SOL     OW27442   1.868   0.559   9.940  0.3149 -0.0224  0.2718
 5270SOL    HW127443   1.818   0.494   9.989 -1.2463 -0.4396 -1.8753
 5270SOL    HW227444   1.817   0.635   9.969  2.4154  1.6056 -0.3863
 5271SOL     OW27445   3.353   2.465   2.000  0.4616  0.8668  0.3883
 5271SOL    HW127446   3.345   2.413   1.920  1.8253 -0.9133  1.4179
 5271SOL    HW227447   3.370   2.547   1.955 -0.5959  0.4544 -0.7482
 5272SOL     OW27448   3.102   0.604   2.153 -0.5371 -0.4641  0.2531
 5272SOL    HW127449   3.072   0.528   2.103  1.1703 -1.8584  1.3360
 5272SOL    HW227450   3.028   0.618   2.212 -0.1263  0.7285  0.4735
 5273SOL     OW27451   1.255   2.820   8.278 -0.1771  0.3466 -0.7212
 5273SOL    HW127452   1.350   2.827   8.268  0.0415 -0.6316  0.7638
 5273SOL    HW227453   1.246   2.725   8.282  1.9991  0.2998  3.0758
 5274SOL     OW27454   0.275   2.162   5.421 -0.4321 -0.2379  0.1400
 5274SOL    HW127455   0.313   2.248   5.406 -1.7912  0.9145  3.2579
 5274SOL    HW227456   0.317   2.140   5.504  1.2813  0.9977 -0.4049
 5275SOL     OW27457   0.351   3.170   6.153  0.8052 -0.3342  0.1506
 5275SOL    HW127458   0.274   3.114   6.164  0.3911  0.0328 -0.9271
 5275SOL    HW227459   0.407   3.125   6.216  2.8257  2.1141  0.1420
 5276SOL     OW27460   2.736   2.541   1.206  0.5885 -0.0507  0.6554
 5276SOL    HW127461   2.718   2.544   1.300 -0.8503  1.7171  0.3100
 5276SOL    HW227462   2.832   2.537   1.213  0.6402 -1.4826 -0.9362
 5277SOL     OW27463   1.151   3.006   0.531 -0.4627 -0.1993 -0.5175
 5277SOL    HW127464   1.227   2.978   0.480 -0.4177  0.0039 -0.5588
 5277SOL    HW227465   1.104   2.924   0.547 -2.5597  0.7867 -1.5788
 5278SOL     OW27466   2.636   1.002   5.553  0.1861 -0.0648 -0.0166
 5278SOL    HW127467   2.622   1.061   5.627  1.8283 -0.5387  0.6802
 5278SOL    HW227468   2.730   1.000   5.532 -0.7775  1.5833 -4.1866
 5279SOL     OW27469   0.918   3.221   8.527  0.0965 -0.5140  0.4789
 5279SOL    HW127470   0.906   3.314   8.510 -0.8134 -0.6049  0.6041
 5279SOL    HW227471   1.013   3.214   8.515 -0.1953 -3.0108 -0.3474
 5280SOL     OW27472   1.587   2.217   2.062  0.0656 -0.4059  0.8059
 5280SOL    HW127473   1.647   2.201   1.989  0.2090 -0.2918  0.8976
 5280SOL    HW227474   1.651   2.240   2.130  1.8208 -0.2836 -0.8742
 5281SOL     OW27475   2.749   1.922   6.622  0.2393 -0.4195  0.4400
 5281SOL    HW127476   2.781   1.936   6.711  0.3241 -0.7467  0.4593
 5281SOL    HW227477   2.681   1.989   6.614 -1.9580 -3.0774 -2.7088
 5282SOL     OW27478   4.201   1.844  12.906  0.6879 -0.1505 -0.1640
 5282SOL    HW127479   4.222   1.880  12.820  2.7661  2.8157  1.5717
 5282SOL    HW227480   4.213   1.914  12.970 -0.6584 -0.3328  0.2977
 5283SOL     OW27481   3.773   0.096   6.996  0.4615  0.1852  0.7565
 5283SOL    HW127482   3.813   0.113   7.081  0.4991  0.1508  0.7455
 5283SOL    HW227483   3.762   0.187   6.968  2.6968  0.2127 -0.0211
 5284SOL     OW27484   0.746   3.093   4.682 -0.2094  0.3420 -0.5414
 5284SOL    HW127485   0.662   3.048   4.670  1.5866 -3.9289  2.7611
 5284SOL    HW227486   0.806   3.037   4.632  0.9906 -2.3088  3.8525
 5285SOL     OW27487   2.112   4.715   9.752 -0.4790 -0.4576 -0.0694
 5285SOL    HW127488   2.060   0.019   9.684  1.6853  0.6121 -1.0197
 5285SOL    HW227489   2.201   4.719   9.717  0.9506  0.4314  3.6933
 5286SOL     OW27490   2.376   4.342   8.651 -0.5207 -1.1889 -0.6044
 5286SOL    HW127491   2.298   4.302   8.689 -0.8442 -0.7833 -0.8486
 5286SOL    HW227492   2.339   4.418   8.606  1.8833  1.0512  1.1359
 5287SOL     OW27493   1.433   3.334   9.691  0.2249 -0.4365 -0.3458
 5287SOL    HW127494   1.400   3.421   9.665 -1.3422 -0.4781  1.4866
 5287SOL    HW227495   1.504   3.359   9.751  0.2387  0.2348 -0.6402
 5288SOL     OW27496   1.326   0.129  10.737 -0.5286  0.2659 -0.6282
 5288SOL    HW127497   1.400   0.068  10.744  0.1856  1.0144 -1.5204
 5288SOL    HW227498   1.295   0.095  10.653 -0.9461 -2.4674  0.6252
 5289SOL     OW27499   0.799   0.477   0.280 -0.0727 -0.1338  0.8129
 5289SOL    HW127500   0.862   0.427   0.230  0.0744 -1.2886  2.1411
 5289SOL    HW227501   0.850   0.503   0.357  0.7186  2.3648 -0.5677
 5290SOL     OW27502   2.324   2.519  16.492 -0.2479  0.1812  0.4765
 5290SOL    HW127503   2.378   2.582  16.539 -0.2357 -1.3239  2.4932
 5290SOL    HW227504   2.374   2.438  16.488 -1.8429 -0.7733 -0.2764
 5291SOL     OW27505   3.949   2.595   4.578  0.1365  0.3179 -0.4878
 5291SOL    HW127506   3.901   2.560   4.502 -0.3589 -0.1889  0.0509
 5291SOL    HW227507   3.999   2.665   4.538  0.5969 -0.8166 -1.8895
 5292SOL     OW27508   3.236   3.710   6.400 -0.5096  0.1832 -0.0356
 5292SOL    HW127509   3.174   3.720   6.328 -1.0131  2.9546  0.7715
 5292SOL    HW227510   3.319   3.704   6.352 -1.3418 -0.6479 -1.3681
 5293SOL     OW27511   1.444   2.384   5.826  0.0465 -0.2035 -0.0894
 5293SOL    HW127512   1.407   2.413   5.910 -1.4295 -1.4491 -0.3311
 5293SOL    HW227513   1.537   2.400   5.847 -0.4789 -0.8461  2.7555
 5294SOL     OW27514   4.705   4.411  13.940 -0.5945  0.1026 -0.6358
 5294SOL    HW127515   4.698   4.498  13.899 -0.9616 -0.2672 -1.3515
 5294SOL    HW227516   4.631   4.364  13.900 -0.5076 -1.3398  0.9070
 5295SOL     OW27517   2.748   2.635  11.727  0.0595 -0.3728 -0.1451
 5295SOL    HW127518   2.842   2.648  11.725  0.0282 -0.3441 -2.0049
 5295SOL    HW227519   2.736   2.615  11.634  0.8744  1.4305 -0.6289
 5296SOL     OW27520   0.473   0.542  16.995  0.3681  0.4535 -0.6456
 5296SOL    HW127521   0.476   0.504  17.083 -0.3125 -1.9252 -1.6613
 5296SOL    HW227522   0.503   0.632  17.011 -0.1783  0.4078  0.6344
 5297SOL     OW27523   1.338   0.828  11.391  0.1607 -0.1685  0.8952
 5297SOL    HW127524   1.426   0.793  11.405  0.8757  0.4934 -1.9564
 5297SOL    HW227525   1.358   0.922  11.394  0.6526 -0.1555 -3.1299
 5298SOL     OW27526   0.951   2.330   2.054 -0.3654  0.2221  0.0187
 5298SOL    HW127527   0.980   2.374   1.974 -1.1066 -1.8934 -1.4209
 5298SOL    HW227528   0.883   2.392   2.080 -0.0791 -0.2039  1.7800
 5299SOL     OW27529   4.056   4.652   8.239  0.0354  0.3421  0.7847
 5299SOL    HW127530   4.072   0.007   8.242  1.3332  0.2059 -1.3667
 5299SOL    HW227531   4.114   4.616   8.306 -0.2921  0.1697  0.9773
 5300SOL     OW27532   0.815   0.207   5.916  0.4270 -0.3970  0.6597
 5300SOL    HW127533   0.904   0.174   5.929  0.1229 -0.8023  1.7290
 5300SOL    HW227534   0.826   0.281   5.857 -0.0651 -1.9487 -1.3623
 5301SOL     OW27535   0.862   0.565   4.656 -0.0208  0.6731  0.0370
 5301SOL    HW127536   0.844   0.581   4.563 -1.4430 -0.4071  0.1366
 5301SOL    HW227537   0.947   0.608   4.659  1.2584 -2.0325  2.2804
 5302SOL     OW27538   0.498   3.158   7.114 -0.1382  0.2919 -0.1982
 5302SOL    HW127539   0.571   3.218   7.099  0.0907 -0.0348 -0.3875
 5302SOL    HW227540   0.477   3.125   7.026 -0.9821 -0.9958  0.4890
 5303SOL     OW27541   1.455   4.389   8.200 -0.0503 -0.0172 -0.1314
 5303SOL    HW127542   1.360   4.391   8.211 -0.2468  1.8530 -2.1843
 5303SOL    HW227543   1.483   4.350   8.117 -1.4995  1.0751 -1.1231
 5304SOL     OW27544   2.680   2.187   6.336 -0.1263  0.6676  0.2713
 5304SOL    HW127545   2.619   2.156   6.269  0.5923 -1.6053  0.6623
 5304SOL    HW227546   2.762   2.145   6.309 -0.7899 -0.0357 -0.6463
 5305SOL     OW27547   0.333   4.649   3.821 -0.1869  0.2856  0.7857
 5305SOL    HW127548   0.311   4.719   3.760  3.0051 -0.2073 -0.9588
 5305SOL    HW227549   0.289   4.681   3.899 -1.3581 -2.2664  1.1632
 5306SOL     OW27550   0.205   3.020   1.582  0.1279 -0.0464 -0.2035
 5306SOL    HW127551   0.224   2.960   1.511 -2.8531 -0.1283 -0.9584
 5306SOL    HW227552   0.247   2.971   1.653  0.6782  0.0735 -0.4476
 5307SOL     OW27553   4.705   1.228   3.367 -0.1855 -0.3990  0.0288
 5307SOL    HW127554   0.005   1.173   3.434 -0.9661  2.8264  3.1562
 5307SOL    HW227555   4.678   1.161   3.304  3.9611 -1.6103 -0.4236
 5308SOL     OW27556   4.475   0.833   2.506 -0.1430 -0.6180  0.2701
 5308SOL    HW127557   4.547   0.784   2.468 -1.1172 -1.3747 -0.6139
 5308SOL    HW227558   4.516   0.912   2.541 -0.5999 -0.4745  0.4856
 5309SOL     OW27559   0.629   3.313  17.715 -0.0445 -0.4768  0.0153
 5309SOL    HW127560   0.703   3.321   0.020  1.1453 -2.5260 -1.1966
 5309SOL    HW227561   0.652   3.234  17.665  4.2287  0.4505  0.5547
 5310SOL     OW27562   3.148   3.427   5.436 -0.4856  0.0560 -0.1900
 5310SOL    HW127563   3.160   3.390   5.523 -0.5698 -0.5330 -0.4294
 5310SOL    HW227564   3.194   3.510   5.442 -0.2043 -0.2264  1.4608
 5311SOL     OW27565   4.138   2.202   5.349 -0.5873  0.2269 -0.5170
 5311SOL    HW127566   4.159   2.194   5.256 -1.9818  0.7216 -0.8771
 5311SOL    HW227567   4.186   2.127   5.385 -0.4409  1.4268  1.8125
 5312SOL     OW27568   1.098   2.719   0.121  1.1084 -0.0622  0.4115
 5312SOL    HW127569   1.119   2.812   0.125  2.8458 -0.5953  3.8604
 5312SOL    HW227570   1.103   2.717   0.025  2.5841  0.0471  0.4746
 5313SOL     OW27571   0.102   2.015  10.462  0.1844 -0.2715  0.1166
 5313SOL    HW127572   0.059   1.931  10.441 -0.7859 -0.2417  2.0281
 5313SOL    HW227573   0.179   1.994  10.515 -0.2514 -0.6576  0.5981
 5314SOL     OW27574   4.556   0.628   9.383  0.0136 -0.2275  0.5774
 5314SOL    HW127575   4.461   0.634   9.391 -0.1063 -0.9562 -0.3252
 5314SOL    HW227576   4.577   0.664   9.469  1.0667 -0.2357  0.3301
 5315SOL     OW27577   4.656   2.891  12.094  0.2153 -0.2698 -0.3992
 5315SOL    HW127578   4.617   2.971  12.059  0.4419 -0.0596 -0.1731
 5315SOL    HW227579   0.009   2.914  12.092  0.2433 -0.5978 -2.7226
 5316SOL     OW27580   1.598   0.980   5.586 -0.1839  0.2193  0.4906
 5316SOL    HW127581   1.596   1.073   5.609  1.0458  0.2883  0.3301
 5316SOL    HW227582   1.680   0.969   5.537 -0.3913 -3.4375  1.0002
 5317SOL     OW27583   0.514   1.350   0.760  0.2155  0.1849 -0.1357
 5317SOL    HW127584   0.583   1.401   0.717 -0.6276 -0.5401 -2.3848
 5317SOL    HW227585   0.550   1.350   0.848  3.3703  0.6681 -1.4013
 5318SOL     OW27586   1.094   1.010  10.194  0.1755  0.9749 -0.5366
 5318SOL    HW127587   1.110   1.036  10.285 -2.0857 -0.3583  0.2536
 5318SOL    HW227588   1.002   0.984  10.197  0.7532 -1.4925 -3.6021
 5319SOL     OW27589   3.919   4.665  15.086 -0.4651 -0.0687 -0.1495
 5319SOL    HW127590   3.871   4.738  15.126  2.4628  1.7899 -0.0605
 5319SOL    HW227591   3.993   4.647  15.144 -0.8121  0.6356  0.5228
 5320SOL     OW27592   4.084   2.593   5.049  0.0501  0.0660 -0.1385
 5320SOL    HW127593   4.047   2.547   5.125  0.3215 -0.8414 -0.5578
 5320SOL    HW227594   4.041   2.544   4.979  0.2721 -0.7085  0.2598
 5321SOL     OW27595   0.054   0.488   2.284  0.0156  0.3858  0.9594
 5321SOL    HW127596   0.149   0.497   2.291 -0.1963  2.2804  1.4227
 5321SOL    HW227597   0.043   0.403   2.325 -0.7083 -0.1221 -0.2758
 5322SOL     OW27598   3.963   0.054   4.817 -0.2601  0.3604 -0.7925
 5322SOL    HW127599   4.029   0.055   4.887  0.5970 -2.3536 -1.5544
 5322SOL    HW227600   3.939   0.146   4.809  1.5131  0.7947 -1.2632
 5323SOL     OW27601   0.764   3.732   8.285  0.0992 -0.7320 -0.7866
 5323SOL    HW127602   0.752   3.753   8.378  1.1842  0.3946 -0.9036
 5323SOL    HW227603   0.846   3.683   8.294 -0.8750 -1.8444  1.9038
 5324SOL     OW27604   2.268   2.559   0.423 -0.1148 -0.3367  0.5173
 5324SOL    HW127605   2.294   2.558   0.515 -0.8012 -2.1202  0.6804
 5324SOL    HW227606   2.188   2.508   0.426 -0.1446 -0.2620  1.1122
 5325SOL     OW27607   2.125   0.796   6.597  0.2137  0.7142 -0.1471
 5325SOL    HW127608   2.178   0.766   6.671 -0.9378 -0.4565  0.1992
 5325SOL    HW227609   2.191   0.809   6.529 -0.3867  2.9198 -0.2879
 5326SOL     OW27610   0.120   0.065   3.317 -0.5407 -0.1766 -0.4972
 5326SOL    HW127611   0.119   0.135   3.382 -0.4015 -2.3872  1.8864
 5326SOL    HW227612   0.210   0.034   3.320  0.1575  1.6655 -2.1214
 5327SOL     OW27613   3.368   1.438   5.023  0.6808 -0.2758 -0.6303
 5327SOL    HW127614   3.454   1.466   4.993  0.4619  1.8946  0.7420
 5327SOL    HW227615   3.369   1.347   4.992 -0.9557 -1.1244  1.7913
 5328SOL     OW27616   0.789   1.022   2.566  0.1781 -0.3679 -0.1080
 5328SOL    HW127617   0.757   1.113   2.563 -0.9991 -0.8085 -0.8102
 5328SOL    HW227618   0.737   0.985   2.495  1.7574 -0.9512 -0.9652
 5329SOL     OW27619   2.473   3.652  10.213  0.1061  0.1344 -0.1546
 5329SOL    HW127620   2.420   3.615  10.142 -0.5100  1.3288 -0.3010
 5329SOL    HW227621   2.461   3.743  10.190 -0.4215 -0.3087 -1.6033
 5330SOL     OW27622   0.418   0.132   1.342  0.9096 -0.0583  0.2625
 5330SOL    HW127623   0.408   0.207   1.401 -2.6674 -1.7923  1.8394
 5330SOL    HW227624   0.374   0.061   1.389 -0.0477  0.1393 -0.3411
 5331SOL     OW27625   2.837   4.180   8.378 -0.0414  0.3533  0.1511
 5331SOL    HW127626   2.758   4.222   8.413 -0.5404 -0.9735  0.6424
 5331SOL    HW227627   2.819   4.087   8.392 -0.0863  0.0165 -2.2016
 5332SOL     OW27628   2.199   0.873   5.736 -0.0660  0.2694  0.3743
 5332SOL    HW127629   2.277   0.885   5.790  1.0709  1.9390 -1.6126
 5332SOL    HW227630   2.137   0.833   5.797 -0.3099  1.8306  1.1430
 5333SOL     OW27631   3.917   2.975   9.135  0.8810  0.6110  0.2338
 5333SOL    HW127632   3.984   3.036   9.168  0.0944  0.5969  1.8630
 5333SOL    HW227633   3.905   2.921   9.213  0.0031  1.2137  0.5212
 5334SOL     OW27634   3.680   0.445   2.459 -0.8211  0.5110  0.1407
 5334SOL    HW127635   3.675   0.355   2.492  0.8133  1.0840  1.9423
 5334SOL    HW227636   3.681   0.425   2.365  0.6161  0.0161  0.2479
 5335SOL     OW27637   3.360   0.884   1.633 -0.2146 -0.3581 -0.1293
 5335SOL    HW127638   3.313   0.850   1.557  2.1720  0.2457 -1.8692
 5335SOL    HW227639   3.389   0.802   1.674 -1.9569 -1.4947 -1.1395
 5336SOL     OW27640   1.237   2.887   3.060  0.3569  0.0084 -0.4279
 5336SOL    HW127641   1.194   2.919   3.139  0.9453  1.1717 -0.5812
 5336SOL    HW227642   1.243   2.794   3.083 -2.3368 -0.7474 -2.7825
 5337SOL     OW27643   2.249   4.546   8.499  0.2972  0.2245 -0.0639
 5337SOL    HW127644   2.212   4.596   8.426 -1.2063 -1.0721 -0.2012
 5337SOL    HW227645   2.324   4.603   8.517  0.1151  0.0782  1.2024
 5338SOL     OW27646   3.758   4.377   3.926  0.4056 -0.7347  0.3751
 5338SOL    HW127647   3.850   4.391   3.949 -0.0042 -2.1131  2.8570
 5338SOL    HW227648   3.728   4.341   4.010  0.1361 -2.5587 -0.5172
 5339SOL     OW27649   3.042   1.500   8.076  0.0352  0.0158  0.2802
 5339SOL    HW127650   3.084   1.476   8.159 -0.2906  0.9139  0.7024
 5339SOL    HW227651   2.977   1.564   8.104  0.9699  1.6016 -1.1818
 5340SOL     OW27652   0.308   3.067   8.707  0.0623 -0.0453  0.4951
 5340SOL    HW127653   0.256   3.147   8.716 -0.4206 -0.1737 -1.1151
 5340SOL    HW227654   0.273   3.024   8.629 -0.0154 -0.9513  1.0262
 5341SOL     OW27655   1.023   0.662   5.980  0.0426 -0.2657  0.1194
 5341SOL    HW127656   0.954   0.598   5.996 -0.4505  0.1680 -0.2586
 5341SOL    HW227657   0.994   0.736   6.033 -0.6206  0.6124 -1.4830
 5342SOL     OW27658   1.998   3.507   8.426 -0.0486 -0.1756  0.3351
 5342SOL    HW127659   1.946   3.454   8.486  0.1088 -0.3341  0.3306
 5342SOL    HW227660   1.946   3.523   8.347 -1.5352 -1.6503  0.9984
 5343SOL     OW27661   1.102   3.420   3.262 -0.4859  0.3108  0.8046
 5343SOL    HW127662   1.140   3.400   3.348  1.2157  3.4006  0.7560
 5343SOL    HW227663   1.067   3.333   3.246 -1.1839  0.3607  2.0223
 5344SOL     OW27664   2.939   3.864   4.086  0.6120 -0.0336 -0.7174
 5344SOL    HW127665   3.033   3.850   4.074  0.5963  0.3818 -1.2842
 5344SOL    HW227666   2.939   3.940   4.143  0.6290 -1.5706  1.3309
 5345SOL     OW27667   1.322   1.496   9.610 -0.4262 -0.2477 -0.2714
 5345SOL    HW127668   1.387   1.499   9.681  0.7443  1.9689 -1.4123
 5345SOL    HW227669   1.240   1.498   9.660  0.7963  1.3883  1.6842
 5346SOL     OW27670   1.773   3.924  15.917  0.2347  0.4781 -1.0652
 5346SOL    HW127671   1.803   3.995  15.974 -0.2741 -1.8489  2.0765
 5346SOL    HW227672   1.824   3.847  15.941  0.5570  1.0014 -0.0461
 5347SOL     OW27673   0.984   3.501   9.405 -0.1240  0.1796 -0.0781
 5347SOL    HW127674   0.973   3.476   9.497 -1.0561  2.6010  0.4758
 5347SOL    HW227675   1.022   3.589   9.400  1.0808 -0.2914  0.7303
 5348SOL     OW27676   2.205   2.656   7.330  0.2781  0.2397 -0.0255
 5348SOL    HW127677   2.146   2.585   7.305 -0.0199  0.8589 -1.0980
 5348SOL    HW227678   2.285   2.637   7.281 -0.2912 -1.4498 -0.2747
 5349SOL     OW27679   2.356   1.992   5.723  0.1716  0.3997  0.2567
 5349SOL    HW127680   2.292   1.969   5.656  0.0023  1.9420 -0.1187
 5349SOL    HW227681   2.414   2.061   5.689  0.5053 -0.3763 -0.7303
 5350SOL     OW27682   3.285   2.579   2.449 -0.0597 -0.0271 -0.0193
 5350SOL    HW127683   3.262   2.487   2.459 -0.9968  0.1518 -0.5525
 5350SOL    HW227684   3.198   2.614   2.466  1.3096  2.4447  1.9112
 5351SOL     OW27685   3.077   2.857   7.294  0.2135  0.7460  0.3449
 5351SOL    HW127686   3.008   2.792   7.305  0.0563  0.4995 -2.0189
 5351SOL    HW227687   3.025   2.937   7.303 -0.3911  0.1723  1.8997
 5352SOL     OW27688   2.695   2.052   4.402 -0.5496  0.3214  0.1925
 5352SOL    HW127689   2.675   2.005   4.483  1.8285  0.8127  1.0589
 5352SOL    HW227690   2.608   2.083   4.378 -0.4389  1.0196  0.6864
 5353SOL     OW27691   0.448   2.519   6.377  0.5376  0.1214  0.3554
 5353SOL    HW127692   0.491   2.483   6.300  1.5097  0.2792  0.8263
 5353SOL    HW227693   0.363   2.476   6.375 -0.4685  2.0587  1.5484
 5354SOL     OW27694   1.007   4.114   5.660 -0.4326  0.1138 -0.3220
 5354SOL    HW127695   0.956   4.111   5.579  1.3013 -0.9304 -1.3817
 5354SOL    HW227696   0.940   4.162   5.709  0.1364 -2.3910  2.9659
 5355SOL     OW27697   1.617   1.402   6.223  0.3144 -0.5266 -0.3970
 5355SOL    HW127698   1.540   1.355   6.255 -0.6781  2.2073  1.2433
 5355SOL    HW227699   1.605   1.486   6.267 -0.8445 -1.1548  0.4976
 5356SOL     OW27700   2.219   1.105  17.152 -0.0202 -0.1148 -0.4372
 5356SOL    HW127701   2.311   1.119  17.133  0.2789  0.6639  1.5391
 5356SOL    HW227702   2.206   1.027  17.097 -1.6275  0.4009 -0.7874
 5357SOL     OW27703   4.268   3.322  16.646 -0.3087 -0.3530  0.1487
 5357SOL    HW127704   4.216   3.343  16.723 -4.2358 -1.8311 -2.0886
 5357SOL    HW227705   4.214   3.357  16.574 -2.1825 -1.2981  1.0872
 5358SOL     OW27706   3.850   1.130   2.832 -0.3062 -0.3160 -0.4830
 5358SOL    HW127707   3.758   1.123   2.807 -0.6160 -0.7508  0.7796
 5358SOL    HW227708   3.884   1.093   2.750 -0.6264 -0.3484 -0.6028
 5359SOL     OW27709   2.483   3.157  10.646  0.4803 -0.3791  0.3860
 5359SOL    HW127710   2.442   3.076  10.617  1.1113  0.8760 -4.0315
 5359SOL    HW227711   2.578   3.152  10.631  0.7235 -1.2658  2.1480
 5360SOL     OW27712   4.442   0.364   3.879 -0.5536  0.2295 -0.1635
 5360SOL    HW127713   4.357   0.345   3.919 -0.3527 -0.6647 -0.1547
 5360SOL    HW227714   4.439   0.308   3.802 -0.3911  1.9700 -1.4327
 5361SOL     OW27715   3.135   3.551  16.358 -0.0545  0.4391 -0.6535
 5361SOL    HW127716   3.068   3.597  16.409 -1.9043 -0.8822 -1.8858
 5361SOL    HW227717   3.093   3.552  16.272 -1.7382 -2.7122  0.1218
 5362SOL     OW27718   1.925   1.874  17.747 -0.0755 -0.6539 -0.8263
 5362SOL    HW127719   1.881   1.888   0.077  1.7220  0.8564 -0.1296
 5362SOL    HW227720   1.870   1.807  17.706  1.0069 -2.4430  0.6661
 5363SOL     OW27721   3.774   2.191   5.795  0.2016 -0.0943 -0.3326
 5363SOL    HW127722   3.798   2.100   5.814  2.0784  0.4836  0.0447
 5363SOL    HW227723   3.855   2.219   5.753  0.2881 -1.7139 -1.2394
 5364SOL     OW27724   3.108   0.808  12.977 -0.0884 -0.1388 -0.2430
 5364SOL    HW127725   3.127   0.786  13.068  2.0318  1.4892 -0.2972
 5364SOL    HW227726   3.144   0.895  12.960 -1.0390  0.7129  2.1064
 5365SOL     OW27727   0.099   0.249   4.893  0.2502 -0.0469  0.2455
 5365SOL    HW127728   0.149   0.296   4.826 -0.5787  1.9150  0.9846
 5365SOL    HW227729   0.112   0.155   4.879 -0.8559 -0.2194  0.4132
 5366SOL     OW27730   0.224   1.511   8.094  0.1108 -0.1202  0.5068
 5366SOL    HW127731   0.171   1.477   8.167  1.0836 -2.2649  0.2161
 5366SOL    HW227732   0.197   1.602   8.104 -2.6588 -1.1229  2.2509
 5367SOL     OW27733   0.446   3.955   5.308 -1.1874  0.1085  0.1389
 5367SOL    HW127734   0.454   4.045   5.340 -0.6304 -0.1907  0.8423
 5367SOL    HW227735   0.513   3.902   5.351 -0.6560  0.4912 -0.2181
 5368SOL     OW27736   0.080   2.347  15.798 -0.1864 -0.8838  0.4650
 5368SOL    HW127737   0.167   2.369  15.831 -1.5391  2.7724  1.5875
 5368SOL    HW227738   0.102   2.328  15.707  0.1178  1.3718  0.0702
 5369SOL     OW27739   1.562   2.049   8.961 -0.0546  0.0529  0.1518
 5369SOL    HW127740   1.634   2.041   9.024 -0.0721 -0.7466  0.0599
 5369SOL    HW227741   1.584   1.988   8.891 -1.3291 -1.0969  0.7674
 5370SOL     OW27742   1.745   2.897   7.719  0.0056 -0.1777  0.0819
 5370SOL    HW127743   1.808   2.949   7.768 -1.3457 -0.1911  1.8533
 5370SOL    HW227744   1.683   2.965   7.692  0.0141 -0.0328  0.4343
 5371SOL     OW27745   0.899   4.473  11.440 -0.0936  0.1133 -0.3007
 5371SOL    HW127746   0.967   4.540  11.442  0.4439 -0.4375 -0.2099
 5371SOL    HW227747   0.939   4.387  11.432  1.2483  0.6980  0.0926
 5372SOL     OW27748   3.815   4.620   5.899 -0.2372  0.2361 -0.2028
 5372SOL    HW127749   3.755   4.676   5.849  0.9087 -1.0808 -3.1046
 5372SOL    HW227750   3.828   4.671   5.978  1.8225  0.0020 -0.3825
 5373SOL     OW27751   0.381   4.630   4.338 -0.0979 -0.0477  0.6033
 5373SOL    HW127752   0.470   4.623   4.303 -0.1905  0.6306  0.2267
 5373SOL    HW227753   0.332   4.550   4.324  0.8711 -0.5773  0.1977
 5374SOL     OW27754   1.310   1.828   1.907 -0.7098 -0.3470 -0.1457
 5374SOL    HW127755   1.269   1.753   1.951 -2.4416  0.0021 -1.1413
 5374SOL    HW227756   1.348   1.883   1.975 -1.5995 -0.1501  0.1985
 5375SOL     OW27757   2.364   3.412   8.066 -0.4893 -0.1093 -0.5026
 5375SOL    HW127758   2.367   3.505   8.043  0.8725  0.2384  1.0744
 5375SOL    HW227759   2.288   3.379   8.018 -1.4829  1.2729  0.1181
 5376SOL     OW27760   2.886   2.873   1.890 -0.0578  0.3245 -0.7244
 5376SOL    HW127761   2.811   2.868   1.830 -0.0897  0.3358 -0.6857
 5376SOL    HW227762   2.875   2.794   1.943 -2.3806  1.6132  0.7248
 5377SOL     OW27763   3.752   2.032   1.162  0.3371  0.2385 -0.3059
 5377SOL    HW127764   3.770   2.071   1.076 -1.1872 -1.9971 -1.6349
 5377SOL    HW227765   3.698   1.960   1.130  0.9113 -1.0777  1.6722
 5378SOL     OW27766   4.250   2.608   5.399  0.0485 -0.3438 -1.0213
 5378SOL    HW127767   4.162   2.582   5.369 -0.8515  0.0536  1.2959
 5378SOL    HW227768   4.301   2.581   5.322 -1.2093 -0.6654 -1.7454
 5379SOL     OW27769   2.824   1.065  17.679 -0.3715 -0.1884  0.6311
 5379SOL    HW127770   2.877   1.007  17.736 -2.8367 -2.1463  0.9260
 5379SOL    HW227771   2.841   1.152  17.715  0.2502 -0.8043  1.8543
 5380SOL     OW27772   3.496   2.992   7.007 -0.3876 -0.3894  0.1684
 5380SOL    HW127773   3.515   2.918   6.949 -2.9968 -2.2505  1.7176
 5380SOL    HW227774   3.410   2.969   7.039  0.0724 -0.7910  1.1099
 5381SOL     OW27775   4.101   0.926   3.896  0.7122 -0.0194  0.0874
 5381SOL    HW127776   4.193   0.941   3.919  0.4397  0.5657  0.8105
 5381SOL    HW227777   4.095   0.852   3.836  2.0933  0.2428 -0.3778
 5382SOL     OW27778   0.469   3.478   5.280 -0.2650  0.2432 -0.3507
 5382SOL    HW127779   0.410   3.424   5.227 -0.0375 -1.2834  0.9446
 5382SOL    HW227780   0.546   3.422   5.272 -0.9847 -0.7012 -0.7573
 5383SOL     OW27781   3.644   3.425   2.325 -0.0864  0.2472 -0.3661
 5383SOL    HW127782   3.699   3.373   2.383  0.8424  1.8786  0.1944
 5383SOL    HW227783   3.590   3.479   2.382  1.2176  0.4085  0.7095
 5384SOL     OW27784   2.651   0.350   2.342 -0.0877 -0.9708 -0.2723
 5384SOL    HW127785   2.560   0.337   2.369  0.4299  1.4880  2.6376
 5384SOL    HW227786   2.646   0.432   2.293 -1.5332 -2.1536 -2.1309
 5385SOL     OW27787   2.034   1.665   3.934  0.2840  0.0499 -0.7124
 5385SOL    HW127788   2.030   1.717   4.015  1.6287 -0.2830 -0.4301
 5385SOL    HW227789   1.990   1.728   3.877  1.7814  2.2131  0.5432
 5386SOL     OW27790   4.726   3.867  10.840 -0.4387  0.0099 -0.3540
 5386SOL    HW127791   0.019   3.891  10.753 -0.8364 -0.1590 -0.5510
 5386SOL    HW227792   4.689   3.952  10.865  0.2345 -0.5255  2.4430
 5387SOL     OW27793   3.115   0.871   2.761 -1.0251 -0.0441 -0.1145
 5387SOL    HW127794   3.028   0.896   2.791 -2.4328 -1.1381 -3.2066
 5387SOL    HW227795   3.172   0.892   2.834 -0.7994  1.9030 -0.8570
 5388SOL     OW27796   4.445   1.046  11.127 -1.0513 -0.2754 -0.3302
 5388SOL    HW127797   4.509   1.112  11.154  0.1534 -1.7167  0.3444
 5388SOL    HW227798   4.381   1.061  11.197 -0.3287 -1.3619  0.5819
 5389SOL     OW27799   1.277   0.123  12.138 -0.0294  0.1139  0.4006
 5389SOL    HW127800   1.352   0.181  12.152 -0.8923  0.7847  2.3505
 5389SOL    HW227801   1.299   0.042  12.184 -2.3143 -0.0772  1.1552
 5390SOL     OW27802   2.604   0.945   9.688  0.2561 -0.1902 -0.0924
 5390SOL    HW127803   2.656   0.977   9.762 -1.0323 -0.4425  0.9069
 5390SOL    HW227804   2.531   0.898   9.727 -0.1802 -0.3291 -1.0890
 5391SOL     OW27805   2.651   0.012   3.579  0.2296  0.6603 -0.7628
 5391SOL    HW127806   2.681   0.050   3.662 -0.6942 -1.3029  0.4803
 5391SOL    HW227807   2.724   4.692   3.561  1.6235  1.7281  1.4327
 5392SOL     OW27808   0.512   2.649   6.032  0.4221  0.1302  0.1915
 5392SOL    HW127809   0.559   2.680   6.109  0.7245 -1.3451  0.5964
 5392SOL    HW227810   0.557   2.567   6.015 -0.6940 -0.3624 -0.3747
 5393SOL     OW27811   2.091   3.299   5.155  0.0863  0.3700 -0.1398
 5393SOL    HW127812   2.081   3.271   5.246  1.9735  2.9328  0.8529
 5393SOL    HW227813   2.071   3.218   5.108 -0.2476  0.0800  0.4947
 5394SOL     OW27814   1.106   4.583  10.717 -0.0195  0.4262  0.3814
 5394SOL    HW127815   1.111   4.612  10.808  0.0911  2.6823 -0.3601
 5394SOL    HW227816   1.201   4.572  10.710  0.0423  2.0010 -1.0462
 5395SOL     OW27817   2.566   0.404   4.422  0.0951  0.4284  0.2578
 5395SOL    HW127818   2.542   0.403   4.329  3.1010  1.0736 -0.5093
 5395SOL    HW227819   2.661   0.397   4.421  0.1820  2.0643 -2.1135
 5396SOL     OW27820   3.030   1.665  17.186  0.2823  0.3958 -0.1729
 5396SOL    HW127821   3.098   1.693  17.247  0.6156  1.5240 -1.0709
 5396SOL    HW227822   2.949   1.674  17.236 -0.0389 -1.3978 -0.3548
 5397SOL     OW27823   1.486   2.911  16.205  0.6282 -0.3368  0.3649
 5397SOL    HW127824   1.417   2.883  16.265  0.1740 -0.6906 -0.3209
 5397SOL    HW227825   1.563   2.876  16.250  1.6442  1.7376  0.1905
 5398SOL     OW27826   1.252   2.221   0.341  0.1380 -0.3168  0.7476
 5398SOL    HW127827   1.318   2.167   0.384  0.3473  0.7759  1.7844
 5398SOL    HW227828   1.250   2.290   0.407 -2.3663  0.8687 -0.5854
 5399SOL     OW27829   3.790   3.989   5.154 -0.4127 -0.2843 -0.0331
 5399SOL    HW127830   3.699   4.019   5.147 -0.1690  0.3254 -0.5642
 5399SOL    HW227831   3.789   3.894   5.149 -0.2702 -0.2620 -0.4583
 5400SOL     OW27832   2.165   0.408  10.059 -0.4030 -0.6090  0.3270
 5400SOL    HW127833   2.080   0.418  10.101 -0.2954  0.5468  0.2778
 5400SOL    HW227834   2.165   0.317  10.030 -0.1216 -0.9008  1.2202
 5401SOL     OW27835   2.229   2.033  12.928  0.1906 -0.4427 -0.4422
 5401SOL    HW127836   2.305   2.078  12.891 -0.4199  0.7774 -0.2227
 5401SOL    HW227837   2.193   2.110  12.974 -0.6461 -1.1462  0.0740
 5402SOL     OW27838   0.852   0.600   9.561  0.6127  0.2534 -0.5294
 5402SOL    HW127839   0.774   0.650   9.586 -0.1624 -0.4905 -1.4185
 5402SOL    HW227840   0.842   0.525   9.619  0.2651  0.4564 -0.3295
 5403SOL     OW27841   0.490   4.000   9.323 -0.8363  0.3295  0.1138
 5403SOL    HW127842   0.509   4.000   9.229  1.2379 -0.5199  0.5280
 5403SOL    HW227843   0.441   3.918   9.328  1.2701 -0.9168  0.2030
 5404SOL     OW27844   1.311   2.890   3.670 -0.1531 -0.4213  0.2085
 5404SOL    HW127845   1.274   2.858   3.752  1.6780 -2.9966  0.0341
 5404SOL    HW227846   1.228   2.927   3.640  1.5169  1.3454 -2.3019
 5405SOL     OW27847   0.860   3.466   3.890  0.0933 -0.3638  0.7915
 5405SOL    HW127848   0.951   3.490   3.909  0.4910  0.3303 -2.1126
 5405SOL    HW227849   0.809   3.537   3.930 -1.6174 -1.7241  1.0462
 5406SOL     OW27850   2.353   0.996   7.040 -0.2225 -0.3258  0.3303
 5406SOL    HW127851   2.309   1.051   6.975  0.2071  1.3073  1.4343
 5406SOL    HW227852   2.397   1.058   7.097  0.2194 -2.4197  2.2733
 5407SOL     OW27853   1.378   3.982   8.005  0.4434  0.2401 -0.1442
 5407SOL    HW127854   1.368   3.999   8.099 -0.7678 -1.6951  0.0842
 5407SOL    HW227855   1.316   3.911   7.990  0.5558  0.5775 -2.2544
 5408SOL     OW27856   1.258   3.855   7.597  0.4348  0.5142 -0.5821
 5408SOL    HW127857   1.312   3.785   7.634 -0.4905 -0.1913 -0.5724
 5408SOL    HW227858   1.248   3.828   7.506  0.2995 -3.3183  0.5667
 5409SOL     OW27859   4.291   0.543   9.488 -0.0759  0.0914  0.3222
 5409SOL    HW127860   4.279   0.513   9.398 -0.2671  2.8073 -0.5523
 5409SOL    HW227861   4.204   0.569   9.518  1.4835  1.4977  3.5224
 5410SOL     OW27862   4.103   0.024   2.601  0.4465  0.6345 -0.3874
 5410SOL    HW127863   4.180   4.719   2.636 -0.2581 -0.1253  0.2021
 5410SOL    HW227864   4.087   0.102   2.654 -1.1487  0.4941 -0.6714
 5411SOL     OW27865   3.253   4.703   7.369 -0.6980 -0.0464 -0.0242
 5411SOL    HW127866   3.215   0.052   7.377  2.0036  1.0970  0.0529
 5411SOL    HW227867   3.173   4.653   7.384 -0.7175  0.0692  0.2705
 5412SOL     OW27868   1.185   3.514   9.788 -0.1047 -0.9045  0.1275
 5412SOL    HW127869   1.277   3.541   9.791 -0.8772  1.8230 -0.2980
 5412SOL    HW227870   1.139   3.598   9.799  0.9706 -0.5411  1.9910
 5413SOL     OW27871   3.964   0.277   7.442  0.6231 -0.5331 -0.0605
 5413SOL    HW127872   3.929   0.355   7.484  1.5956  0.2129 -0.6392
 5413SOL    HW227873   4.007   0.329   7.374 -1.6054  0.5688 -0.6232
 5414SOL     OW27874   3.469   1.242   7.169  0.8182  0.6281  0.1210
 5414SOL    HW127875   3.460   1.322   7.117 -0.8721 -0.4813 -1.3192
 5414SOL    HW227876   3.403   1.185   7.128  1.1061  0.9143 -0.7465
 5415SOL     OW27877   3.729   3.751   0.149 -0.6346 -0.1089 -0.4158
 5415SOL    HW127878   3.793   3.746   0.221 -0.1635 -0.4232 -0.8575
 5415SOL    HW227879   3.733   3.843   0.124  0.4528 -0.1606 -0.4540
 5416SOL     OW27880   3.362   2.453   8.685 -0.3908  0.1045 -0.4215
 5416SOL    HW127881   3.275   2.479   8.654  0.9019  3.6366 -0.9765
 5416SOL    HW227882   3.414   2.480   8.610  2.3205 -0.0514  1.3802
 5417SOL     OW27883   2.962   4.691   1.774 -0.1564 -0.5922 -0.4536
 5417SOL    HW127884   2.892   4.639   1.735 -1.1047  0.1947  0.1910
 5417SOL    HW227885   2.996   4.630   1.839 -1.0583 -0.4804  0.1151
 5418SOL     OW27886   2.066   2.909  17.633 -0.0194  0.1593 -0.4767
 5418SOL    HW127887   2.094   2.964  17.561  0.9491  0.8606  0.4349
 5418SOL    HW227888   2.058   2.970  17.707  0.2617  2.1178 -2.0734
 5419SOL     OW27889   0.910   0.373   7.123  0.2857 -0.2992 -0.4060
 5419SOL    HW127890   0.976   0.420   7.174  0.0527  1.7421 -1.9837
 5419SOL    HW227891   0.932   0.399   7.034 -0.8346  0.8131 -0.3651
 5420SOL     OW27892   3.195   2.312   9.051  0.4594 -0.7510  0.4362
 5420SOL    HW127893   3.232   2.327   9.138  2.5070  0.7039 -0.6930
 5420SOL    HW227894   3.266   2.267   9.006  2.3185  3.0567 -0.4431
 5421SOL     OW27895   0.852   4.346   5.713  0.3876  0.3856 -0.2844
 5421SOL    HW127896   0.789   4.416   5.730 -1.3554 -1.5087  0.9204
 5421SOL    HW227897   0.920   4.387   5.660  0.7554 -0.6104 -0.5856
 5422SOL     OW27898   1.170   0.169   9.723  0.3782  0.7146  0.1590
 5422SOL    HW127899   1.264   0.169   9.704  0.6986 -1.6576  1.7311
 5422SOL    HW227900   1.135   0.138   9.640  2.2377  0.5334 -0.5629
 5423SOL     OW27901   1.173   1.218   5.676  0.0789 -0.1584 -0.0517
 5423SOL    HW127902   1.163   1.249   5.765  2.0058  0.9592 -0.2325
 5423SOL    HW227903   1.201   1.127   5.688 -0.3437 -0.5228 -1.7660
 5424SOL     OW27904   2.994   2.189   2.955 -0.3951  0.4423  0.2387
 5424SOL    HW127905   2.977   2.283   2.950 -1.6497  0.2786  1.1958
 5424SOL    HW227906   2.933   2.154   2.890 -1.0530  0.6810  0.7273
 5425SOL     OW27907   0.335   3.312   0.719  0.5042  0.3999  0.1395
 5425SOL    HW127908   0.392   3.351   0.786 -0.3482 -0.9979  1.6997
 5425SOL    HW227909   0.279   3.260   0.777  0.1109  0.7260  0.0516
 5426SOL     OW27910   1.635   1.028   8.924  0.7237  0.6737  0.6591
 5426SOL    HW127911   1.731   1.024   8.923  0.7059  0.0277  2.3081
 5426SOL    HW227912   1.622   1.055   9.015  0.7620 -2.7984  1.6800
 5427SOL     OW27913   1.195   3.226   8.507 -0.2465 -0.1119 -0.3237
 5427SOL    HW127914   1.234   3.287   8.570 -0.6212 -1.5826  1.3531
 5427SOL    HW227915   1.188   3.143   8.556 -0.5744 -1.3319 -2.4434
 5428SOL     OW27916   0.007   4.534   7.569  0.6403 -0.5801  0.3399
 5428SOL    HW127917   4.653   4.540   7.545  0.3899  0.3119  1.5012
 5428SOL    HW227918   0.055   4.585   7.504  0.8159 -0.6209  0.4397
 5429SOL     OW27919   4.430   4.392   2.407 -0.0164 -0.2435  0.0910
 5429SOL    HW127920   4.341   4.427   2.413  0.9420  1.8875  1.6637
 5429SOL    HW227921   4.413   4.316   2.351 -1.0194  0.5318 -0.6509
 5430SOL     OW27922   1.229   3.376   6.282  0.1476 -0.0653 -0.7748
 5430SOL    HW127923   1.161   3.320   6.319  0.2073  0.2764 -0.1444
 5430SOL    HW227924   1.287   3.385   6.357 -1.6787 -1.6198  0.8202
 5431SOL     OW27925   4.603   0.771   8.124  0.0264 -0.0913 -0.5668
 5431SOL    HW127926   4.531   0.745   8.182 -0.1086 -0.0877 -0.7351
 5431SOL    HW227927   4.670   0.705   8.143  0.5213 -0.3880 -3.3877
 5432SOL     OW27928   1.426   2.237   1.805 -0.3693 -0.0187  0.0152
 5432SOL    HW127929   1.373   2.312   1.780  0.7091  1.0225  0.8543
 5432SOL    HW227930   1.447   2.256   1.897  1.6600  0.8471 -0.6160
 5433SOL     OW27931   4.061   1.054  15.905  0.0128 -0.3924 -0.2143
 5433SOL    HW127932   4.117   1.119  15.949  0.5814 -0.4851 -0.8130
 5433SOL    HW227933   4.067   1.079  15.813  3.4095  0.7846  0.3338
 5434SOL     OW27934   3.041   2.575   6.155 -0.3676 -0.3039 -0.0472
 5434SOL    HW127935   2.967   2.515   6.161 -1.2927  0.6472 -1.7700
 5434SOL    HW227936   3.047   2.604   6.245  1.1295 -0.4377 -0.0972
 5435SOL     OW27937   0.435   3.254   4.859  0.2124 -0.0192 -0.6390
 5435SOL    HW127938   0.449   3.343   4.828 -2.8976  0.5910 -0.2537
 5435SOL    HW227939   0.426   3.207   4.776  0.9704  2.0108 -1.8503
 5436SOL     OW27940   3.402   0.246   0.327  0.0500 -0.2414 -0.5459
 5436SOL    HW127941   3.445   0.253   0.412 -0.9534 -1.3976  0.0503
 5436SOL    HW227942   3.365   0.334   0.320  0.3832 -0.0942 -0.4490
 5437SOL     OW27943   0.771   2.597  14.269  0.0891  0.1988 -0.2497
 5437SOL    HW127944   0.692   2.544  14.260 -0.4043  1.2549 -2.0341
 5437SOL    HW227945   0.734   2.673  14.313  0.7746  1.6800 -2.2609
 5438SOL     OW27946   1.007   0.826   2.560 -0.2301 -0.3247 -0.0548
 5438SOL    HW127947   0.928   0.858   2.515 -0.0858 -0.7567 -0.6243
 5438SOL    HW227948   1.009   0.897   2.623  4.7478  0.5511 -1.2088
 5439SOL     OW27949   1.077   2.311   4.571  0.4311  0.3426 -0.5385
 5439SOL    HW127950   1.048   2.248   4.637 -2.5562  1.2205 -0.9905
 5439SOL    HW227951   1.004   2.373   4.561 -0.0319 -0.0615  0.3120
 5440SOL     OW27952   1.264   2.530  16.543 -0.1152 -0.3497  0.3889
 5440SOL    HW127953   1.190   2.571  16.587  0.2474  1.3471 -0.6022
 5440SOL    HW227954   1.317   2.605  16.515 -2.2158  1.3064  0.8646
 5441SOL     OW27955   2.301   0.732   8.959 -0.0997 -0.1104  0.1981
 5441SOL    HW127956   2.303   0.826   8.974  2.7945 -0.1346  0.0108
 5441SOL    HW227957   2.313   0.729   8.865  4.1537 -0.4187  0.7690
 5442SOL     OW27958   2.742   4.529   2.005  0.0191 -0.4784  0.6855
 5442SOL    HW127959   2.730   4.492   2.093 -1.1721 -1.9392 -0.1073
 5442SOL    HW227960   2.834   4.556   2.015 -0.9422  2.0244  3.0086
 5443SOL     OW27961   2.340   3.249   6.587  0.4101  0.4816  0.1355
 5443SOL    HW127962   2.299   3.232   6.672 -2.1388 -0.1660 -1.2227
 5443SOL    HW227963   2.407   3.314   6.607 -0.3235  1.1248  0.5116
 5444SOL     OW27964   0.729   3.517   9.014 -1.0446 -0.1827 -0.3719
 5444SOL    HW127965   0.736   3.591   9.074 -0.9345  0.6488 -1.4143
 5444SOL    HW227966   0.704   3.448   9.075 -0.1115 -0.1869  0.0181
 5445SOL     OW27967   3.217   2.025   2.673  0.3818  0.2171  0.1167
 5445SOL    HW127968   3.151   2.017   2.604  1.3475  0.9669 -0.9095
 5445SOL    HW227969   3.258   1.940   2.663 -1.3668 -0.4467 -1.4135
 5446SOL     OW27970   3.049   3.450   6.395 -0.4879  0.1785 -0.4898
 5446SOL    HW127971   3.069   3.510   6.467 -0.3605 -3.0462  2.1255
 5446SOL    HW227972   3.037   3.377   6.455 -0.4002 -0.0587 -0.7613
 5447SOL     OW27973   3.039   2.159  15.940  0.4030 -0.2946 -0.5114
 5447SOL    HW127974   3.076   2.220  15.877 -1.1028  0.2608 -0.8508
 5447SOL    HW227975   3.051   2.080  15.887  1.4578  0.0218 -0.7365
 5448SOL     OW27976   2.227   4.646   7.472  0.7219  0.3935 -0.3838
 5448SOL    HW127977   2.269   4.604   7.547 -0.4811 -0.1483 -0.0136
 5448SOL    HW227978   2.141   4.605   7.484  1.9939 -1.8871  1.0507
 5449SOL     OW27979   2.314   2.252  12.738  0.3280  0.0479 -0.6032
 5449SOL    HW127980   2.308   2.346  12.723 -2.5970 -0.1101 -0.3662
 5449SOL    HW227981   2.359   2.231  12.656  0.2942 -1.1279 -0.3181
 5450SOL     OW27982   1.694   2.013   8.664 -0.0957 -0.1753 -0.4193
 5450SOL    HW127983   1.734   1.967   8.737  1.3060 -0.1889 -1.2041
 5450SOL    HW227984   1.690   1.941   8.601 -3.0132 -1.2634  1.0202
 5451SOL     OW27985   3.851   1.494   1.791  0.3377 -0.1469 -0.0409
 5451SOL    HW127986   3.876   1.523   1.703 -0.4530  0.4018 -0.0906
 5451SOL    HW227987   3.858   1.399   1.782  0.7457 -0.1632  0.4941
 5452SOL     OW27988   3.434   0.031   8.415  0.5520 -0.4416 -0.0830
 5452SOL    HW127989   3.486   0.044   8.494  2.6514  0.1765 -1.5658
 5452SOL    HW227990   3.481   0.080   8.347 -1.5342 -0.9218 -1.8906
 5453SOL     OW27991   1.268   0.864   3.263  0.2614  0.2823 -0.3227
 5453SOL    HW127992   1.226   0.942   3.297 -1.5521 -0.2478 -1.3812
 5453SOL    HW227993   1.212   0.854   3.186 -0.9494 -0.5568  0.6783
 5454SOL     OW27994   3.594   0.128   8.162  0.1286  0.3501  0.0238
 5454SOL    HW127995   3.557   0.079   8.088  1.7955 -1.7799  0.6139
 5454SOL    HW227996   3.668   0.163   8.112 -0.5916  0.6966 -0.8015
 5455SOL     OW27997   3.603   1.060   1.752  0.1667  0.3503  0.0817
 5455SOL    HW127998   3.558   0.977   1.764  1.0863 -0.2817 -0.8034
 5455SOL    HW227999   3.533   1.110   1.710 -0.0592  0.3887  0.5136
 5456SOL     OW28000   2.964   2.729   7.884  0.0043  0.2412 -0.0120
 5456SOL    HW128001   3.033   2.678   7.926 -1.7861  0.4969  3.1807
 5456SOL    HW228002   2.891   2.708   7.941 -0.4166 -0.6443 -0.8664
 5457SOL     OW28003   3.006   2.551  12.268  0.0359  0.0637 -0.1718
 5457SOL    HW128004   2.944   2.480  12.285 -0.2997  0.6194  0.8973
 5457SOL    HW228005   2.992   2.612  12.340  0.1891 -0.7193  0.5253
 5458SOL     OW28006   2.149   3.602  10.534 -0.0853  0.6858  0.3832
 5458SOL    HW128007   2.099   3.598  10.615 -0.3147 -0.1397  0.1943
 5458SOL    HW228008   2.199   3.521  10.539  0.9411  1.4630  2.6563
 5459SOL     OW28009   0.771   0.308   0.596 -0.3567  0.0896 -0.3483
 5459SOL    HW128010   0.853   0.320   0.644  1.2541  2.4306 -3.6509
 5459SOL    HW228011   0.805   0.284   0.510 -0.3186 -1.6851  0.1696
 5460SOL     OW28012   1.115   2.307   2.956  0.0122 -0.5685  0.4150
 5460SOL    HW128013   1.146   2.217   2.962 -1.0772 -0.6823  4.2377
 5460SOL    HW228014   1.166   2.343   2.884 -0.7087  0.9377  0.6610
 5461SOL     OW28015   1.392   1.043   0.373 -0.1308  0.7349  0.2038
 5461SOL    HW128016   1.403   1.062   0.466  1.7092  0.2618  0.0880
 5461SOL    HW228017   1.302   1.010   0.374  0.1206  0.0202 -0.6674
 5462SOL     OW28018   4.542   3.126   1.134  0.2137  0.2762  0.3970
 5462SOL    HW128019   4.466   3.100   1.186 -0.8708 -0.3224 -1.4766
 5462SOL    HW228020   4.497   3.189   1.077 -1.1214 -1.2323 -0.2258
 5463SOL     OW28021   4.252   4.714  12.638 -0.7658 -0.1236  0.4810
 5463SOL    HW128022   4.255   4.636  12.583 -2.8295 -0.1396  0.4157
 5463SOL    HW228023   4.272   4.676  12.724  0.5495 -0.7012 -0.0704
 5464SOL     OW28024   1.837   4.396   5.163 -0.5038  0.6024 -0.2921
 5464SOL    HW128025   1.902   4.423   5.229 -1.9652  1.3985  0.8044
 5464SOL    HW228026   1.869   4.309   5.136  0.4518  0.8713 -0.0396
 5465SOL     OW28027   0.917   2.391   8.593  0.4168  0.1862  0.4212
 5465SOL    HW128028   0.983   2.322   8.604  0.4439  0.1957  0.3173
 5465SOL    HW228029   0.932   2.436   8.676 -0.4092  2.0725 -0.4704
 5466SOL     OW28030   2.715   2.418   4.862  0.0455 -0.0811  0.5523
 5466SOL    HW128031   2.694   2.325   4.872 -2.9719  0.4448 -0.7876
 5466SOL    HW228032   2.777   2.430   4.934 -0.5883  0.8757  0.9307
 5467SOL     OW28033   1.764   2.286   2.315 -0.3918  0.1342 -0.1216
 5467SOL    HW128034   1.796   2.302   2.403  0.6532  0.8640 -0.6433
 5467SOL    HW228035   1.737   2.194   2.326  1.6146 -0.3474  0.6951
 5468SOL     OW28036   3.242   0.783   7.479  0.4405  0.4145  0.4417
 5468SOL    HW128037   3.306   0.745   7.539 -1.6565  1.0785  3.1263
 5468SOL    HW228038   3.158   0.772   7.523  1.3293  0.0908  2.0476
 5469SOL     OW28039   3.712   3.996   6.213 -0.2084 -0.0726 -0.0290
 5469SOL    HW128040   3.762   3.915   6.204 -1.1569 -0.4475 -1.8450
 5469SOL    HW228041   3.771   4.053   6.261 -1.9133  0.8370  0.9750
 5470SOL     OW28042   0.711   1.125   9.534  0.2659 -0.0053 -0.2854
 5470SOL    HW128043   0.735   1.171   9.453 -1.5640 -0.9300 -1.3524
 5470SOL    HW228044   0.668   1.042   9.515 -1.2173  0.7913 -0.4794
 5471SOL     OW28045   2.332   1.382  14.128 -0.3420 -0.7945 -0.3407
 5471SOL    HW128046   2.336   1.292  14.160 -1.2293 -1.1438 -1.2323
 5471SOL    HW228047   2.350   1.371  14.034 -1.0891 -0.9400 -0.4673
 5472SOL     OW28048   3.226   3.080   2.028 -0.4592 -0.3385 -0.1066
 5472SOL    HW128049   3.215   3.018   1.956 -1.8554 -2.2491  1.7551
 5472SOL    HW228050   3.135   3.103   2.046 -0.4648 -0.5270  0.1198
 5473SOL     OW28051   2.432   1.439   1.731 -0.1519  0.0944 -0.3897
 5473SOL    HW128052   2.365   1.482   1.783 -0.5159 -0.9307  0.0019
 5473SOL    HW228053   2.379   1.398   1.662  1.0415 -0.7432 -0.8221
 5474SOL     OW28054   3.099   2.832   2.965  0.8721 -0.1981  0.3559
 5474SOL    HW128055   3.089   2.756   2.908 -2.4129  0.5935 -0.1392
 5474SOL    HW228056   3.011   2.869   2.958  0.7401 -0.1872  1.9599
 5475SOL     OW28057   0.848   3.768   7.416 -0.5052  0.1195 -0.0811
 5475SOL    HW128058   0.780   3.746   7.480  1.8199 -2.4743  1.5299
 5475SOL    HW228059   0.836   3.862   7.419 -1.0609 -0.0452  3.1303
 5476SOL     OW28060   4.126   0.718   5.634  0.1110  0.8421 -0.2755
 5476SOL    HW128061   4.129   0.651   5.566  0.6494 -1.9482  2.4889
 5476SOL    HW228062   4.083   0.789   5.587  2.6950  1.9835 -0.9507
 5477SOL     OW28063   4.416   3.497   1.159  0.3181  0.0743 -0.2091
 5477SOL    HW128064   4.343   3.436   1.157 -0.8018  1.4597 -1.8709
 5477SOL    HW228065   4.365   3.571   1.194 -0.5592 -0.3107 -0.6904
 5478SOL     OW28066   0.323   1.124   7.833  0.4165  0.1764  0.5108
 5478SOL    HW128067   0.287   1.036   7.820  0.5518  0.3584 -1.1520
 5478SOL    HW228068   0.251   1.170   7.876  0.1445 -1.3036  1.6524
 5479SOL     OW28069   3.108   2.034   1.280 -0.4140 -0.1169  0.6983
 5479SOL    HW128070   3.153   2.106   1.324  2.2557 -1.5105  0.2175
 5479SOL    HW228071   3.055   1.999   1.352 -1.6461  0.7798  0.2289
 5480SOL     OW28072   1.765   0.569  15.628 -0.1967  0.1002 -0.2240
 5480SOL    HW128073   1.733   0.531  15.546  0.3544 -0.1873 -0.3032
 5480SOL    HW228074   1.847   0.521  15.635 -0.2443 -0.0987 -1.0589
 5481SOL     OW28075   1.823   0.486   3.784 -0.1405 -0.1093  0.1328
 5481SOL    HW128076   1.860   0.399   3.797  0.8032  0.1235 -1.0029
 5481SOL    HW228077   1.775   0.497   3.866 -0.5084  0.1820 -0.1200
 5482SOL     OW28078   1.949   4.015  13.727  0.4543  0.1784  0.8448
 5482SOL    HW128079   1.956   3.926  13.762 -0.3714 -0.0225  0.4886
 5482SOL    HW228080   1.869   4.019  13.675  0.8502 -0.0317  0.2215
 5483SOL     OW28081   0.639   0.764   0.523  0.1189 -0.5236  0.3354
 5483SOL    HW128082   0.642   0.787   0.430 -0.4369 -1.7494  0.0204
 5483SOL    HW228083   0.601   0.677   0.528 -0.9037 -0.1587 -1.1956
 5484SOL     OW28084   4.109   0.972  14.983 -0.0397  0.6253  0.2082
 5484SOL    HW128085   4.019   0.999  15.000 -0.2347  2.1677 -3.2689
 5484SOL    HW228086   4.117   1.022  14.902 -2.8804  2.3028  0.9783
 5485SOL     OW28087   2.608   1.656   6.613 -0.2089  0.2285  0.5427
 5485SOL    HW128088   2.668   1.731   6.609 -0.5032  0.4848  0.8694
 5485SOL    HW228089   2.602   1.649   6.708 -0.7794 -0.4628  0.4504
 5486SOL     OW28090   4.089   3.430  13.938 -0.2245 -0.1756 -0.1931
 5486SOL    HW128091   4.169   3.428  13.991 -1.2983  0.1132  1.4165
 5486SOL    HW228092   4.031   3.361  13.968  0.9571 -1.3060 -0.5008
 5487SOL     OW28093   4.572   4.245   7.212  0.1644  0.5887 -0.0949
 5487SOL    HW128094   4.632   4.185   7.256  0.7293  1.6812  0.6151
 5487SOL    HW228095   4.498   4.187   7.192  1.2938 -1.2551  1.1220
 5488SOL     OW28096   0.738   3.950  16.524  0.0565 -0.7730 -0.5505
 5488SOL    HW128097   0.670   3.968  16.589 -0.6371 -0.7180 -1.2946
 5488SOL    HW228098   0.755   4.041  16.499  0.5484  0.0787  2.7902
 5489SOL     OW28099   0.303   0.949   4.131 -0.8748 -0.6555 -0.2243
 5489SOL    HW128100   0.314   0.876   4.069  0.8711  0.3440 -1.0755
 5489SOL    HW228101   0.344   0.910   4.208 -3.0331 -0.7292  0.8779
 5490SOL     OW28102   4.308   1.352   9.447 -0.2683  0.0315  0.0126
 5490SOL    HW128103   4.353   1.431   9.474 -1.6711  0.3761  1.3903
 5490SOL    HW228104   4.376   1.292   9.416 -0.1701 -1.4032  3.0031
 5491SOL     OW28105   0.759   4.411   9.135  0.2252 -0.3610 -0.5611
 5491SOL    HW128106   0.741   4.332   9.185 -1.2973  1.0102  1.0574
 5491SOL    HW228107   0.793   4.368   9.056  3.5511  0.1321  0.5911
 5492SOL     OW28108   3.652   1.512   1.406 -0.3381 -0.5497 -0.2319
 5492SOL    HW128109   3.670   1.606   1.398  0.2971 -0.9315 -3.5446
 5492SOL    HW228110   3.739   1.474   1.409 -0.1541 -0.1288 -0.1924
 5493SOL     OW28111   2.821   0.891   7.450  0.1459  0.4703 -0.2243
 5493SOL    HW128112   2.870   0.930   7.377  1.9608 -0.1206  0.6907
 5493SOL    HW228113   2.822   0.797   7.433 -2.6499 -0.0705  2.5821
 5494SOL     OW28114   0.992   0.859   8.491  0.3228  0.3212  0.2357
 5494SOL    HW128115   1.042   0.929   8.533  0.2020  0.4245  0.2066
 5494SOL    HW228116   0.916   0.896   8.446  0.2820  1.2038  1.0243
 5495SOL     OW28117   1.428   2.646   6.763 -0.4264 -0.0484  0.0267
 5495SOL    HW128118   1.442   2.697   6.683  2.4026 -0.6340  0.1433
 5495SOL    HW228119   1.334   2.664   6.765 -0.4319  0.0829 -1.5649
 5496SOL     OW28120   4.132   3.053   6.445 -0.1785 -0.4580 -0.2089
 5496SOL    HW128121   4.211   3.106   6.439 -1.1771  0.8134 -1.8949
 5496SOL    HW228122   4.125   3.036   6.539  0.3475  1.9574  0.2568
 5497SOL     OW28123   4.478   1.384   3.348  0.0957  0.0023  0.4595
 5497SOL    HW128124   4.558   1.334   3.367 -1.9107 -2.4467  2.3874
 5497SOL    HW228125   4.422   1.312   3.318  1.4875 -0.8425 -0.1444
 5498SOL     OW28126   3.946   3.176   5.141 -0.6232 -0.2372  0.1657
 5498SOL    HW128127   3.982   3.143   5.223 -2.5553  1.3562  1.6654
 5498SOL    HW228128   3.976   3.265   5.126  2.6505 -1.4101 -0.0791
 5499SOL     OW28129   2.910   0.211   1.782  0.4687 -0.0129  0.1308
 5499SOL    HW128130   2.977   0.254   1.729  1.9549 -0.9058  1.2763
 5499SOL    HW228131   2.927   0.120   1.757  1.1019  0.0898  0.1739
 5500SOL     OW28132   2.726   4.389  13.002 -0.0255  0.3353  0.1740
 5500SOL    HW128133   2.662   4.451  12.967  1.6046  0.7133 -2.1042
 5500SOL    HW228134   2.786   4.368  12.930 -1.6311 -1.0526 -0.7400
 5501SOL     OW28135   2.596   2.572   8.764  0.2629 -0.1755 -0.2265
 5501SOL    HW128136   2.542   2.528   8.829  0.1630  2.6889  1.6286
 5501SOL    HW228137   2.605   2.660   8.798 -0.8580  0.1885 -0.8738
 5502SOL     OW28138   2.870   4.097  15.376  0.5274  0.2100 -0.1248
 5502SOL    HW128139   2.787   4.083  15.421 -0.4389  1.6782 -1.4446
 5502SOL    HW228140   2.837   4.135  15.295 -1.1526 -0.5566  0.2182
 5503SOL     OW28141   1.955   1.187   8.607  0.0061  0.2791  0.5691
 5503SOL    HW128142   1.873   1.236   8.601 -0.6205 -0.8900 -0.3965
 5503SOL    HW228143   1.968   1.171   8.513  0.0420  0.9972  0.4493
 5504SOL     OW28144   4.240   0.451   4.683 -0.3376 -1.0154  0.3307
 5504SOL    HW128145   4.198   0.537   4.686 -0.3106 -1.0199  0.7851
 5504SOL    HW228146   4.285   0.471   4.601 -1.5648 -0.7282 -0.2830
 5505SOL     OW28147   0.961   4.506   7.922  0.6082  0.2615 -0.9119
 5505SOL    HW128148   0.896   4.510   7.853 -0.3088 -0.9400 -0.1103
 5505SOL    HW228149   0.972   4.601   7.927  2.7030 -0.1465  2.5061
 5506SOL     OW28150   0.144   0.316  15.720  0.3990  0.2485 -0.0648
 5506SOL    HW128151   0.143   0.372  15.798  2.5872  1.7051 -1.0687
 5506SOL    HW228152   0.188   0.374  15.657  1.1020 -0.2587 -0.0400
 5507SOL     OW28153   2.924   2.207   1.841  0.6377  0.0317 -0.4168
 5507SOL    HW128154   2.976   2.183   1.917  3.2695 -1.2829 -2.6199
 5507SOL    HW228155   2.895   2.293   1.871 -0.4191 -0.3648 -0.3087
 5508SOL     OW28156   1.620   3.567  14.521 -0.4924  0.5594  0.4086
 5508SOL    HW128157   1.651   3.648  14.563  0.6086 -0.3482  1.3280
 5508SOL    HW228158   1.704   3.528  14.497 -0.0012  2.4379 -0.9323
 5509SOL     OW28159   3.182   3.693   4.090 -0.9044 -0.8536  0.1243
 5509SOL    HW128160   3.113   3.627   4.105  1.7192 -2.6924  4.0896
 5509SOL    HW228161   3.242   3.674   4.162 -0.0199 -0.4836 -0.5220
 5510SOL     OW28162   1.583   0.728   1.703 -0.0464  0.3998 -0.1199
 5510SOL    HW128163   1.514   0.677   1.745 -0.7151  2.2536  1.0221
 5510SOL    HW228164   1.550   0.704   1.616 -2.1293  1.7484  0.2918
 5511SOL     OW28165   2.056   2.378   7.355 -0.3331  0.2353 -0.2758
 5511SOL    HW128166   1.960   2.379   7.350 -0.3751  0.5368  0.7397
 5511SOL    HW228167   2.079   2.318   7.284  1.7445  1.1398 -0.3461
 5512SOL     OW28168   2.432   2.837   3.002 -0.2286 -0.4290 -0.4201
 5512SOL    HW128169   2.361   2.858   3.062 -1.1106  1.3291 -2.0469
 5512SOL    HW228170   2.397   2.810   2.917 -2.1929  1.0671 -0.0901
 5513SOL     OW28171   4.425   2.511   3.078 -0.7888 -0.6055  0.6167
 5513SOL    HW128172   4.509   2.466   3.087 -0.3830  0.0784  0.3218
 5513SOL    HW228173   4.425   2.552   3.165  0.3428  1.9408 -0.5624
 5514SOL     OW28174   0.066   3.418   4.914 -0.4003 -0.9658 -0.2701
 5514SOL    HW128175   0.152   3.404   4.875  0.5246  3.4075  0.1546
 5514SOL    HW228176   0.049   3.337   4.962 -1.0732 -0.4859  0.3015
 5515SOL     OW28177   0.564   2.235   4.239 -0.0687 -0.1266 -0.1645
 5515SOL    HW128178   0.526   2.314   4.202  2.4997  1.6379  0.9577
 5515SOL    HW228179   0.499   2.223   4.308 -1.3251 -0.1977 -1.3659
 5516SOL     OW28180   0.968   2.584   5.023  0.0491 -0.1150 -0.0408
 5516SOL    HW128181   0.992   2.496   4.994  0.9617  1.1399 -3.1573
 5516SOL    HW228182   0.908   2.604   4.951  0.2089  3.2387  0.7732
 5517SOL     OW28183   2.893   0.556   5.846  0.7579  0.3907  0.4638
 5517SOL    HW128184   2.810   0.519   5.876  0.4504  1.5869  1.1198
 5517SOL    HW228185   2.875   0.560   5.752 -0.5393 -0.3885  0.6819
 5518SOL     OW28186   3.486   3.544   3.898  0.0879  0.2235 -0.0703
 5518SOL    HW128187   3.511   3.451   3.901  2.0097  0.7547  0.3975
 5518SOL    HW228188   3.551   3.576   3.836 -2.1235 -0.0229 -2.5199
 5519SOL     OW28189   3.906   2.937   7.510  0.0984  1.0140 -0.3099
 5519SOL    HW128190   3.834   2.968   7.455  0.4987  0.2268 -1.2893
 5519SOL    HW228191   3.923   3.024   7.545 -0.7191  2.1997 -2.8220
 5520SOL     OW28192   2.715   4.179   5.233 -0.2053  0.0715  0.2856
 5520SOL    HW128193   2.753   4.258   5.271 -2.4684  0.9720  0.6903
 5520SOL    HW228194   2.784   4.127   5.192 -1.5829 -1.4536 -0.1151
 5521SOL     OW28195   4.423   1.307   6.847  0.6753 -0.5788  0.3247
 5521SOL    HW128196   4.369   1.295   6.768  1.5073  0.8890 -0.4785
 5521SOL    HW228197   4.357   1.287   6.913 -1.4384  2.0108 -0.9667
 5522SOL     OW28198   1.113   3.756   6.655 -0.8057 -0.0585 -0.6317
 5522SOL    HW128199   1.163   3.781   6.733 -1.7854  0.7102 -0.2380
 5522SOL    HW228200   1.049   3.828   6.653 -0.5564  0.1351 -2.0503
 5523SOL     OW28201   4.461   2.267   5.550  0.7506  0.4570 -0.8827
 5523SOL    HW128202   4.426   2.338   5.604 -0.0985 -0.8688  0.2974
 5523SOL    HW228203   4.542   2.230   5.587 -0.6249 -2.5541 -0.9240
 5524SOL     OW28204   1.421   1.920   2.371  0.2154  0.2355  0.5544
 5524SOL    HW128205   1.399   1.941   2.280 -0.0793 -0.0698  0.5531
 5524SOL    HW228206   1.515   1.903   2.372  0.1206 -0.3088 -0.3393
 5525SOL     OW28207   4.563   4.111   4.002 -0.8719  0.2130 -0.1968
 5525SOL    HW128208   4.572   4.077   4.091 -2.0957 -1.8110 -0.8359
 5525SOL    HW228209   4.640   4.166   3.988  2.2184 -4.0662 -0.1935
 5526SOL     OW28210   4.122   2.151   5.057  0.3114  0.0552  0.1697
 5526SOL    HW128211   4.031   2.156   5.088  0.6178  1.2706  0.8667
 5526SOL    HW228212   4.140   2.057   5.061  1.3244  0.2080 -1.0475
 5527SOL     OW28213   1.379   0.260   6.532  0.3179 -0.1636 -0.1621
 5527SOL    HW128214   1.350   0.284   6.444 -1.4367 -1.3311  0.1100
 5527SOL    HW228215   1.470   0.288   6.539 -0.2067  1.8357 -1.2639
 5528SOL     OW28216   4.152   3.632   3.876  1.2227  0.0621  0.1319
 5528SOL    HW128217   4.236   3.587   3.885 -0.0605 -1.9747  2.1916
 5528SOL    HW228218   4.176   3.723   3.892  0.5565  0.0826  1.0423
 5529SOL     OW28219   3.664   0.443   3.642 -0.0843  0.7075  0.3810
 5529SOL    HW128220   3.591   0.450   3.702  0.6008  0.5481  1.2246
 5529SOL    HW228221   3.707   0.527   3.658  0.7891  0.7989 -2.3862
 5530SOL     OW28222   4.220   0.122   1.679 -0.0613  0.0075  0.4894
 5530SOL    HW128223   4.158   0.188   1.648 -1.2875 -0.4129  1.9818
 5530SOL    HW228224   4.260   0.155   1.759 -2.0949  1.4757  0.9064
 5531SOL     OW28225   2.059   2.092   5.240  0.2050  0.0306  0.1644
 5531SOL    HW128226   1.968   2.063   5.238  0.3443 -0.4068  0.0912
 5531SOL    HW228227   2.089   2.096   5.149 -0.6309  1.9378 -0.0099
 5532SOL     OW28228   1.676   3.705   8.180  0.1214 -0.3655 -0.2341
 5532SOL    HW128229   1.638   3.767   8.118 -1.0718 -0.0511  0.8166
 5532SOL    HW228230   1.596   3.652   8.178 -1.0220  1.2765  1.8522
 5533SOL     OW28231   0.567   2.332   6.226 -0.1379  0.2213 -0.0442
 5533SOL    HW128232   0.647   2.282   6.240 -1.2591 -1.5164  0.0905
 5533SOL    HW228233   0.505   2.284   6.172  2.2020 -1.8396 -0.9144
 5534SOL     OW28234   1.683   4.573  12.410 -0.1617  0.2168  0.1628
 5534SOL    HW128235   1.763   4.520  12.412  0.8794  1.8170  1.0237
 5534SOL    HW228236   1.657   4.569  12.502  0.2624  3.5479  0.4173
 5535SOL     OW28237   3.097   3.377   7.582 -0.7526  0.2380  0.0180
 5535SOL    HW128238   3.115   3.423   7.500  0.2168 -1.0482 -0.5109
 5535SOL    HW228239   3.185   3.388   7.619 -0.6026 -0.6104 -0.0727
 5536SOL     OW28240   1.672   2.261   7.673 -0.7854  0.1390  0.0922
 5536SOL    HW128241   1.734   2.194   7.644 -0.5262 -0.0938  1.1686
 5536SOL    HW228242   1.662   2.250   7.768  1.7857 -0.8057  0.2704
 5537SOL     OW28243   0.293   1.278   6.627  0.4818 -0.3872  0.7468
 5537SOL    HW128244   0.376   1.307   6.591  0.0563 -1.7797 -1.3427
 5537SOL    HW228245   0.298   1.183   6.622  3.3255 -0.2887  2.0720
 5538SOL     OW28246   3.821   2.260   6.335  0.7559  0.6650 -0.3206
 5538SOL    HW128247   3.903   2.303   6.312  0.8107  0.6976 -0.0570
 5538SOL    HW228248   3.810   2.279   6.428 -0.8739  0.3665 -0.4596
 5539SOL     OW28249   4.680   2.175   5.943  0.2274  0.8266 -0.1489
 5539SOL    HW128250   4.658   2.173   6.037 -3.6252  2.7069 -0.9964
 5539SOL    HW228251   4.737   2.098   5.937  0.8696  1.1753  1.3542
 5540SOL     OW28252   4.275   3.097   4.988 -0.2681 -0.3643 -0.2034
 5540SOL    HW128253   4.224   3.033   4.938  0.5967 -0.6560 -0.7069
 5540SOL    HW228254   4.286   3.038   5.063  0.5632  1.7934  1.3932
 5541SOL     OW28255   3.252   3.849  16.206  0.1016  0.9444  0.0648
 5541SOL    HW128256   3.243   3.905  16.129  2.9351  0.8078 -0.3648
 5541SOL    HW228257   3.346   3.829  16.204 -0.3059 -0.9931  0.0107
 5542SOL     OW28258   4.043   1.134   4.648 -0.5891 -0.0157 -0.0304
 5542SOL    HW128259   3.992   1.167   4.574 -2.7511  1.5328  2.1524
 5542SOL    HW228260   3.997   1.053   4.667 -0.1351  0.3198  2.4888
 5543SOL     OW28261   0.282   0.616   7.186 -0.1375  0.3847 -0.3676
 5543SOL    HW128262   0.240   0.700   7.201  0.9289  0.6342  1.2258
 5543SOL    HW228263   0.335   0.631   7.108  0.2847  1.2232  0.0688
 5544SOL     OW28264   0.243   0.802   1.486 -0.2035 -0.3828 -0.3709
 5544SOL    HW128265   0.190   0.725   1.467 -0.9771  0.3105 -1.0436
 5544SOL    HW228266   0.184   0.848   1.546 -1.8544 -3.1324  0.0845
 5545SOL     OW28267   0.956   1.558   5.948  0.0323 -0.5028 -0.8119
 5545SOL    HW128268   1.003   1.476   5.933  2.6786  0.4606  2.4420
 5545SOL    HW228269   0.867   1.529   5.966 -0.8083  1.9936 -0.9535
 5546SOL     OW28270   4.667   1.316   8.870 -0.0848  0.0443  0.0191
 5546SOL    HW128271   4.648   1.396   8.918  2.3737  0.6944 -0.0831
 5546SOL    HW228272   0.009   1.342   8.826  0.3425 -1.4315 -0.0623
 5547SOL     OW28273   3.786   2.397   3.231 -0.1902  0.2271 -0.2097
 5547SOL    HW128274   3.769   2.453   3.155 -0.6747  0.0224 -0.2517
 5547SOL    HW228275   3.735   2.443   3.298  1.5630 -0.2369  1.4539
 5548SOL     OW28276   2.408   4.162  10.149 -0.1630  0.3052  0.5379
 5548SOL    HW128277   2.467   4.238  10.146  0.5374 -0.3544 -2.2624
 5548SOL    HW228278   2.328   4.211  10.132  0.3529  0.3701 -1.7348
 5549SOL     OW28279   4.547   3.114  14.323  0.2000  0.0867 -0.4069
 5549SOL    HW128280   4.474   3.176  14.323 -1.6153 -2.0507  0.0400
 5549SOL    HW228281   4.536   3.087  14.414 -0.1888  1.4289 -0.0553
 5550SOL     OW28282   1.058   2.708  12.497  0.2030  0.5160 -0.1760
 5550SOL    HW128283   1.140   2.717  12.547 -0.0591 -3.7681  1.0466
 5550SOL    HW228284   1.074   2.745  12.410 -0.0437  0.4560 -0.2453
 5551SOL     OW28285   4.539   1.282   9.355  0.0307 -0.4613  0.1314
 5551SOL    HW128286   4.631   1.308   9.355 -0.0068 -0.3471 -1.8180
 5551SOL    HW228287   4.548   1.189   9.333 -1.5831 -1.0625  1.9532
 5552SOL     OW28288   1.894   3.486   5.730 -0.4210 -0.0689 -0.6250
 5552SOL    HW128289   1.924   3.424   5.797 -1.8957 -1.3209 -1.1370
 5552SOL    HW228290   1.860   3.559   5.783 -0.5685  0.0803 -0.9275
 5553SOL     OW28291   3.717   4.471   7.176 -0.1870 -0.2699 -0.3960
 5553SOL    HW128292   3.639   4.434   7.135  0.6713 -1.9158 -0.5584
 5553SOL    HW228293   3.770   4.503   7.102  0.4116  0.3826  0.3222
 5554SOL     OW28294   3.803   2.298   5.378  0.2255  0.1092  0.0456
 5554SOL    HW128295   3.762   2.339   5.454 -1.2654 -1.7364  0.2442
 5554SOL    HW228296   3.742   2.311   5.305 -0.9756 -3.0057  0.4820
 5555SOL     OW28297   2.123   1.170   8.102 -0.0154 -0.5494 -0.0689
 5555SOL    HW128298   2.061   1.240   8.124 -2.9297 -2.5858 -1.8421
 5555SOL    HW228299   2.126   1.120   8.183 -1.7142 -0.6194 -0.0418
 5556SOL     OW28300   3.223   3.097   6.870 -0.0631  0.3362  0.0597
 5556SOL    HW128301   3.188   3.051   6.794 -1.9201  3.8246 -1.2137
 5556SOL    HW228302   3.231   3.020   6.926  0.7187  0.2119 -0.2156
 5557SOL     OW28303   0.272   4.479  14.892  0.7244  0.4835 -0.4003
 5557SOL    HW128304   0.338   4.468  14.824  0.4060 -2.4372 -0.2128
 5557SOL    HW228305   0.330   4.514  14.960  2.6838  1.2404 -2.4762
 5558SOL     OW28306   3.536   3.887   3.281  0.3365 -0.4574 -0.4741
 5558SOL    HW128307   3.509   3.942   3.354 -0.6297 -2.7538  0.9260
 5558SOL    HW228308   3.559   3.953   3.215  0.4614  0.4132  0.4498
 5559SOL     OW28309   4.055   3.460   7.287  0.0174 -0.2322 -0.0782
 5559SOL    HW128310   3.986   3.524   7.271  0.3331  0.0646 -0.2496
 5559SOL    HW228311   4.047   3.464   7.383  2.0606 -0.7446  0.1166
 5560SOL     OW28312   2.377   3.178  16.003 -0.1069 -0.1485 -0.3057
 5560SOL    HW128313   2.299   3.233  16.001 -2.1877 -3.0271  1.2199
 5560SOL    HW228314   2.448   3.240  15.986  0.6688 -1.1652 -0.8221
 5561SOL     OW28315   0.204   0.549   9.561  0.8272  0.0966  0.2054
 5561SOL    HW128316   0.224   0.499   9.482 -0.6373  1.0358 -0.7502
 5561SOL    HW228317   0.123   0.501   9.579 -1.2841  2.9981 -1.8002
 5562SOL     OW28318   1.056   1.131   8.347 -0.3531  0.0093  0.2637
 5562SOL    HW128319   1.077   1.208   8.400  2.4383  1.0421 -2.3024
 5562SOL    HW228320   1.050   1.172   8.260 -0.8004 -2.1902 -0.7206
 5563SOL     OW28321   1.949   3.607  15.838  0.0217  0.2491  0.0706
 5563SOL    HW128322   1.915   3.595  15.927  0.5939  1.8540  0.5049
 5563SOL    HW228323   1.913   3.531  15.791 -0.3465 -0.7350  1.9375
 5564SOL     OW28324   0.339   3.399   6.305 -0.1261  0.0280 -0.2163
 5564SOL    HW128325   0.365   3.352   6.384 -0.2050  1.4673  0.6705
 5564SOL    HW228326   0.357   3.331   6.240 -1.4799  2.0919 -2.7741
 5565SOL     OW28327   0.508   2.060   4.017 -0.0086  0.0045  0.4321
 5565SOL    HW128328   0.510   1.983   4.073 -0.4910  0.7176  1.4274
 5565SOL    HW228329   0.539   2.127   4.077  0.2209 -0.5157  0.8892
 5566SOL     OW28330   1.077   2.785  16.243  0.2769 -0.5569  0.8977
 5566SOL    HW128331   0.983   2.802  16.231  1.1622  1.0916 -3.8239
 5566SOL    HW228332   1.107   2.785  16.152  1.5501 -2.6347  1.3165
 5567SOL     OW28333   3.988   2.007   2.198  0.0090 -0.7151  0.3461
 5567SOL    HW128334   3.986   2.017   2.103 -2.9137  0.8172  0.5527
 5567SOL    HW228335   4.068   1.963   2.226  1.1337  0.4525 -1.0282
 5568SOL     OW28336   0.758   3.274   4.900  0.4606  0.2802 -0.0141
 5568SOL    HW128337   0.848   3.241   4.904 -0.0165 -0.8025  2.0839
 5568SOL    HW228338   0.729   3.231   4.820  0.2932  0.6573 -0.1520
 5569SOL     OW28339   1.310   1.495  17.665 -0.4894 -0.0673 -0.4223
 5569SOL    HW128340   1.307   1.571  17.608  1.9578 -0.5807 -1.2303
 5569SOL    HW228341   1.310   1.530  17.754  0.6090  1.3840 -1.0078
 5570SOL     OW28342   0.390   4.372  10.792 -0.0240  0.0216 -0.7430
 5570SOL    HW128343   0.413   4.279  10.784  0.0068  0.0131 -0.5465
 5570SOL    HW228344   0.429   4.375  10.880  1.2901  2.6223 -1.3984
 5571SOL     OW28345   1.207   0.434   2.137 -0.3540 -0.5929 -0.4342
 5571SOL    HW128346   1.151   0.430   2.060 -1.0984  2.7762 -0.0967
 5571SOL    HW228347   1.158   0.490   2.198  0.4406 -1.2423  0.8108
 5572SOL     OW28348   0.286   4.022  11.649 -0.4658  0.4349 -0.1885
 5572SOL    HW128349   0.260   4.113  11.634  1.7844  1.0083 -0.6292
 5572SOL    HW228350   0.223   3.997  11.716 -0.5273  2.8791  0.6592
 5573SOL     OW28351   3.446   2.171  10.658 -0.5033  0.3782 -0.0360
 5573SOL    HW128352   3.453   2.080  10.686  1.0774  0.7215  0.7071
 5573SOL    HW228353   3.497   2.214  10.727  0.9698 -0.0261 -0.8780
 5574SOL     OW28354   1.506   2.247   4.183  0.0753 -0.0268  0.4726
 5574SOL    HW128355   1.472   2.257   4.094 -1.8959 -0.0830  1.2068
 5574SOL    HW228356   1.434   2.275   4.239  1.0154 -1.1050  2.2419
 5575SOL     OW28357   1.952   1.881   9.709  0.0909 -0.2365  0.1865
 5575SOL    HW128358   1.930   1.802   9.758  1.4958 -0.8920 -0.2183
 5575SOL    HW228359   1.885   1.938   9.745 -0.0987 -2.2126  2.9833
 5576SOL     OW28360   2.281   0.258   4.816 -0.1445  0.1639  0.2501
 5576SOL    HW128361   2.273   0.231   4.725  1.5831 -1.0172  0.4607
 5576SOL    HW228362   2.229   0.339   4.817  1.1065  0.9698 -1.2726
 5577SOL     OW28363   0.329   1.778   3.557  0.3151  0.2330 -0.8827
 5577SOL    HW128364   0.349   1.685   3.552  0.5660  0.3506 -2.1676
 5577SOL    HW228365   0.396   1.808   3.495 -0.9523  1.6697 -1.5670
 5578SOL     OW28366   4.198   3.116   9.807  0.7643 -0.2057 -0.4714
 5578SOL    HW128367   4.198   3.208   9.833  0.9873 -0.2728 -0.2233
 5578SOL    HW228368   4.163   3.083   9.890 -0.4584 -0.7134 -1.1843
 5579SOL     OW28369   1.302   0.040   2.463 -0.1681  0.3338  0.2335
 5579SOL    HW128370   1.297   0.090   2.381 -0.5220  1.0663  0.7056
 5579SOL    HW228371   1.347   4.702   2.431 -0.8786 -0.2881  0.7243
 5580SOL     OW28372   1.130   0.641   3.545 -1.1483  0.0172  0.4460
 5580SOL    HW128373   1.137   0.683   3.631 -1.0787 -1.6230  1.2358
 5580SOL    HW228374   1.211   0.680   3.513 -1.1807 -0.0017  0.3402
 5581SOL     OW28375   2.917   1.069   8.450 -0.5133 -0.3912 -0.0788
 5581SOL    HW128376   2.968   1.142   8.414 -0.3957 -0.1438  0.5769
 5581SOL    HW228377   2.906   1.085   8.544 -0.6096 -4.1020  0.5488
 5582SOL     OW28378   3.690   2.653  12.197  0.0876  0.3322 -0.0374
 5582SOL    HW128379   3.751   2.581  12.213  1.5655  1.3581 -1.0425
 5582SOL    HW228380   3.607   2.608  12.208 -0.4965  1.6259  0.8654
 5583SOL     OW28381   3.227   0.787   9.965 -0.5481  0.0419 -0.3521
 5583SOL    HW128382   3.280   0.842   9.907 -0.7540 -0.0431 -0.6204
 5583SOL    HW228383   3.152   0.784   9.907 -0.3335 -0.7239 -0.5920
 5584SOL     OW28384   4.571   0.531   5.638 -1.0154  0.5309  0.8850
 5584SOL    HW128385   4.635   0.462   5.650  0.7496  1.6074 -2.2256
 5584SOL    HW228386   4.538   0.513   5.550  1.6762  0.8428 -0.1891
 5585SOL     OW28387   2.829   1.228   1.759 -0.4386  0.3425  0.3336
 5585SOL    HW128388   2.790   1.184   1.834 -0.4048 -1.0127 -0.4399
 5585SOL    HW228389   2.899   1.276   1.803 -0.7757  0.6073  0.5870
 5586SOL     OW28390   0.684   0.612   1.748 -0.3570 -0.1690  0.4867
 5586SOL    HW128391   0.630   0.634   1.672 -1.6090  0.7550  1.6484
 5586SOL    HW228392   0.619   0.626   1.816 -2.9513  3.0923 -2.6800
 5587SOL     OW28393   0.416   2.107   3.686 -0.0374  0.1303  0.1961
 5587SOL    HW128394   0.511   2.109   3.692 -0.0565  1.1842  0.0767
 5587SOL    HW228395   0.404   2.030   3.629  0.6388 -1.9320  2.8340
 5588SOL     OW28396   0.348   2.216  12.244 -0.0252  0.3516  0.3902
 5588SOL    HW128397   0.274   2.273  12.264 -1.1632 -1.0038  0.0752
 5588SOL    HW228398   0.300   2.133  12.241  0.7548  0.0018 -2.6205
 5589SOL     OW28399   1.617   2.141  11.061  0.1324 -0.2207 -0.1064
 5589SOL    HW128400   1.628   2.047  11.052 -1.3862 -0.3697 -0.4690
 5589SOL    HW228401   1.549   2.137  11.129  1.1585 -0.1885  0.9054
 5590SOL     OW28402   3.637   1.899   6.755  0.3443 -0.3988 -0.1921
 5590SOL    HW128403   3.665   1.822   6.705 -0.3679 -1.4499  1.0585
 5590SOL    HW228404   3.565   1.871   6.811 -0.0914 -0.1469 -0.6188
 5591SOL     OW28405   3.440   0.221   2.119 -0.6759  0.1111 -0.3096
 5591SOL    HW128406   3.396   0.144   2.153  1.6359 -1.0229  0.1252
 5591SOL    HW228407   3.378   0.292   2.135  0.1097  0.0395  3.0814
 5592SOL     OW28408   1.924   1.876  14.846  0.0734 -0.1465 -0.3280
 5592SOL    HW128409   1.984   1.808  14.813 -0.6583 -1.5246  1.1685
 5592SOL    HW228410   1.915   1.848  14.937 -1.0899 -1.7059 -0.9094
 5593SOL     OW28411   1.351   0.262   7.768 -0.6151 -0.1053  0.2934
 5593SOL    HW128412   1.436   0.289   7.804 -1.4150 -2.1851  3.7109
 5593SOL    HW228413   1.392   0.206   7.701 -0.0929 -0.9548  1.3241
 5594SOL     OW28414   4.738   0.829   4.993  0.5832  0.3549  0.1972
 5594SOL    HW128415   0.049   0.753   4.965  1.0435  0.6176  0.3092
 5594SOL    HW228416   4.650   0.791   4.990  0.1617  1.4763 -2.0787
 5595SOL     OW28417   3.802   0.693   3.648  0.0226 -0.0628  0.4403
 5595SOL    HW128418   3.824   0.786   3.650  3.0648 -0.7740 -0.4073
 5595SOL    HW228419   3.887   0.654   3.670  1.0016  0.2237 -2.9227
 5596SOL     OW28420   0.891   3.556   2.450  0.0402 -0.0655  0.5675
 5596SOL    HW128421   0.925   3.644   2.468 -0.2588  0.1716 -0.0390
 5596SOL    HW228422   0.803   3.567   2.415  1.4962  1.4235 -2.6703
 5597SOL     OW28423   1.410   1.025   2.930  0.5719 -0.0321  0.0289
 5597SOL    HW128424   1.374   0.965   2.995 -0.2152 -0.0612 -0.4421
 5597SOL    HW228425   1.497   0.987   2.923  0.3518 -0.3691 -0.8491
 5598SOL     OW28426   2.549   2.550   5.837  0.7049  0.2019  0.2979
 5598SOL    HW128427   2.639   2.538   5.805  0.2586  0.2688 -1.0101
 5598SOL    HW228428   2.527   2.633   5.794  0.5562  0.6031  1.1601
 5599SOL     OW28429   2.154   1.974   0.115  0.0972 -0.3594  0.3640
 5599SOL    HW128430   2.136   2.068   0.118  0.6430 -0.2900  1.6117
 5599SOL    HW228431   2.078   1.942   0.067 -0.6768  1.1885  0.5721
 5600SOL     OW28432   4.034   4.689   1.559  0.1130  0.5189 -0.6556
 5600SOL    HW128433   4.107   4.733   1.603  0.7352  0.9596 -2.1008
 5600SOL    HW228434   4.023   4.619   1.623 -1.7198  1.1944 -0.2352
 5601SOL     OW28435   3.270   1.533   5.257  0.2969  0.1578 -0.2914
 5601SOL    HW128436   3.211   1.471   5.299 -0.3170  0.9098 -0.0490
 5601SOL    HW228437   3.299   1.483   5.180  0.0548 -0.0120 -0.2699
 5602SOL     OW28438   0.189   0.597   6.685 -0.2619  0.0366 -0.5560
 5602SOL    HW128439   0.252   0.531   6.715 -1.2514 -0.3189  0.7226
 5602SOL    HW228440   0.177   0.572   6.593  0.0556  1.1680 -0.9061
 5603SOL     OW28441   1.498   3.251  14.792 -0.1394  0.0658  0.3233
 5603SOL    HW128442   1.585   3.220  14.768 -0.0524 -0.1585  0.9221
 5603SOL    HW228443   1.499   3.345  14.774 -1.8877 -0.2200 -1.2747
 5604SOL     OW28444   4.035   2.031  17.208  0.1413 -0.6248 -0.1396
 5604SOL    HW128445   3.994   2.103  17.257 -1.5137  0.3764 -2.9941
 5604SOL    HW228446   4.063   2.075  17.127 -1.4083 -0.9503 -0.8432
 5605SOL     OW28447   1.817   1.555  14.944  0.7312 -0.5230 -0.0250
 5605SOL    HW128448   1.835   1.462  14.950 -0.9066 -0.8328  0.1751
 5605SOL    HW228449   1.722   1.546  14.934  0.8675 -0.9722 -0.8649
 5606SOL     OW28450   4.210   2.043   8.457  0.0130  0.0722  0.0062
 5606SOL    HW128451   4.293   2.003   8.485  0.3027  1.3532  0.9356
 5606SOL    HW228452   4.233   2.127   8.496 -0.2261  0.6407 -1.0813
 5607SOL     OW28453   2.064   3.708   5.140  0.1295 -0.3619  0.0290
 5607SOL    HW128454   2.148   3.704   5.187  0.4509 -1.7668 -0.6406
 5607SOL    HW228455   2.091   3.785   5.090  1.2200 -1.6279 -1.3343
 5608SOL     OW28456   3.038   3.175   5.846 -0.1187  0.0205 -0.0495
 5608SOL    HW128457   2.982   3.174   5.769 -1.3261 -3.4480  0.8828
 5608SOL    HW228458   3.058   3.082   5.847 -1.9961 -0.3826  0.0428
 5609SOL     OW28459   0.054   3.569   6.327  0.1706  0.2711 -0.0692
 5609SOL    HW128460   0.140   3.561   6.369  0.5740  0.8978 -0.7883
 5609SOL    HW228461   0.074   3.509   6.256  0.5782 -1.4087  1.4467
 5610SOL     OW28462   0.702   4.486   6.394  0.0159 -0.7220  0.0542
 5610SOL    HW128463   0.708   4.529   6.310  2.7145  1.5592  1.4469
 5610SOL    HW228464   0.790   4.449   6.404  0.2043 -0.0882  0.7778
 5611SOL     OW28465   4.402   4.726   8.437  0.3443  0.3517  0.5277
 5611SOL    HW128466   4.352   0.027   8.508 -0.9320  0.3840 -0.4005
 5611SOL    HW228467   4.393   4.633   8.458  1.1752  0.6583  2.2885
 5612SOL     OW28468   4.417   2.207   9.184 -0.1715  0.2667 -0.0572
 5612SOL    HW128469   4.355   2.143   9.149  0.7901 -0.1198 -1.0659
 5612SOL    HW228470   4.370   2.213   9.267  0.7018  0.9344  0.3855
 5613SOL     OW28471   1.316   1.868   4.114  0.4768 -0.6524  0.0024
 5613SOL    HW128472   1.300   1.885   4.021 -1.5973  1.3415  0.7410
 5613SOL    HW228473   1.249   1.800   4.125  0.4769 -0.6324  0.1188
 5614SOL     OW28474   2.504   0.746  10.261 -0.1320 -0.5502  0.6989
 5614SOL    HW128475   2.581   0.741  10.203  0.9130 -0.5021  2.0757
 5614SOL    HW228476   2.455   0.669  10.233  0.6308 -0.9877  0.5443
 5615SOL     OW28477   1.978   1.805   3.315 -0.5226  0.2404  0.6181
 5615SOL    HW128478   1.991   1.716   3.281  0.3723  1.3865 -2.0171
 5615SOL    HW228479   2.064   1.821   3.354  0.6926  0.1722 -2.0408
 5616SOL     OW28480   3.387   0.923   5.061 -0.4975  0.1374 -0.2378
 5616SOL    HW128481   3.421   0.979   4.992 -2.5537  1.3028 -0.2795
 5616SOL    HW228482   3.377   0.834   5.027 -0.2302  0.6459 -1.6443
 5617SOL     OW28483   0.664   4.309  17.393 -0.1626  0.2381  0.4986
 5617SOL    HW128484   0.703   4.395  17.405  1.9682 -0.6791  0.1328
 5617SOL    HW228485   0.625   4.316  17.306  1.6775  0.3805 -0.3226
 5618SOL     OW28486   1.939   3.076   5.747 -0.0130  0.4529 -0.4374
 5618SOL    HW128487   1.858   3.117   5.716  0.1120  2.1865  1.5146
 5618SOL    HW228488   1.969   3.145   5.807 -0.1430 -0.8918  1.1730
 5619SOL     OW28489   0.378   0.199   8.762  0.0235 -0.3000  0.2754
 5619SOL    HW128490   0.438   0.237   8.827 -0.2938 -0.9461  0.9485
 5619SOL    HW228491   0.421   0.116   8.744  0.6587 -0.2024  1.3247
 5620SOL     OW28492   0.137   4.284  10.157 -0.1706  0.0428 -0.0524
 5620SOL    HW128493   0.121   4.238  10.239  0.3278  0.7986  0.4789
 5620SOL    HW228494   0.232   4.299  10.154 -0.3440  0.9914 -0.8031
 5621SOL     OW28495   0.229   1.184   4.027 -0.0418  0.0459 -0.4267
 5621SOL    HW128496   0.250   1.100   4.068  0.2348  0.8022  0.9719
 5621SOL    HW228497   0.144   1.217   4.057 -0.6535 -1.8284 -0.0287
 5622SOL     OW28498   0.127   0.148  16.902 -0.0684 -0.1792  0.2676
 5622SOL    HW128499   0.080   0.218  16.856 -0.4733 -2.4010 -2.7012
 5622SOL    HW228500   0.081   0.071  16.867  0.9625 -0.4190 -0.5434
 5623SOL     OW28501   2.175   0.047   2.018 -0.1129 -0.0127 -0.1546
 5623SOL    HW128502   2.244   0.094   1.972 -2.6718  2.9927 -0.9429
 5623SOL    HW228503   2.100   0.075   1.965 -1.1450 -1.2574  0.6592
 5624SOL     OW28504   2.467   3.511   2.498  0.7800  0.1479  0.9053
 5624SOL    HW128505   2.480   3.605   2.488  1.2823  0.0725  0.8020
 5624SOL    HW228506   2.496   3.506   2.589 -1.7164  0.4601  1.6971
 5625SOL     OW28507   0.092   3.329  14.222 -0.0407 -0.2219  0.1500
 5625SOL    HW128508   0.093   3.242  14.262  1.1022  0.5285  1.7488
 5625SOL    HW228509   0.074   3.309  14.131  0.0528 -0.0720  0.0996
 5626SOL     OW28510   2.067   0.654  14.011 -0.6418  0.3577  0.2224
 5626SOL    HW128511   2.074   0.721  14.079 -1.4777  0.1463  0.5249
 5626SOL    HW228512   2.157   0.645  13.981 -0.3838  3.3632  0.0978
 5627SOL     OW28513   3.724   1.928   3.192 -0.5822 -0.3303 -0.3654
 5627SOL    HW128514   3.794   1.892   3.137 -0.0852 -1.5067  1.0464
 5627SOL    HW228515   3.649   1.898   3.141 -0.9373 -3.6836  2.2009
 5628SOL     OW28516   1.418   0.539   4.701  0.2047  0.0361 -0.0331
 5628SOL    HW128517   1.451   0.520   4.614  1.6744  2.0265  0.0935
 5628SOL    HW228518   1.331   0.574   4.681 -0.4266 -1.7477 -0.3727
 5629SOL     OW28519   1.319   4.679   6.450 -0.2124 -0.4062 -0.1087
 5629SOL    HW128520   1.389   4.681   6.516 -0.3026 -1.0790  0.0026
 5629SOL    HW228521   1.261   4.612   6.486 -1.7836  0.8353 -0.2923
 5630SOL     OW28522   2.878   3.033   3.944 -0.5612  0.7696 -0.1710
 5630SOL    HW128523   2.798   3.003   3.902  0.4187 -2.1451  0.0218
 5630SOL    HW228524   2.855   3.121   3.973 -1.9105  0.1317  0.7163
 5631SOL     OW28525   2.911   4.085   7.608  0.0501  0.7700 -0.1770
 5631SOL    HW128526   2.892   4.016   7.673  0.3505 -0.5130 -1.4445
 5631SOL    HW228527   2.932   4.163   7.659  0.5294  0.7186 -0.2997
 5632SOL     OW28528   0.629   4.209   0.113 -0.2191 -0.3950 -0.0763
 5632SOL    HW128529   0.587   4.203   0.027 -1.1363 -1.9424  0.4733
 5632SOL    HW228530   0.567   4.268   0.154  1.1145  0.5405  0.5684
 5633SOL     OW28531   4.234   3.899   4.717 -0.1065 -0.7916  0.1681
 5633SOL    HW128532   4.250   3.804   4.720  1.8902 -0.4458  0.0124
 5633SOL    HW228533   4.319   3.942   4.711 -0.4861 -0.3377 -1.8505
 5634SOL     OW28534   3.740   1.356   6.130  0.3218  0.2469  0.0795
 5634SOL    HW128535   3.755   1.264   6.107  2.1110  0.4439  0.4428
 5634SOL    HW228536   3.680   1.343   6.204  0.6680  3.0083  0.8405
 5635SOL     OW28537   1.265   0.490   1.654 -0.0433 -0.1507  0.2784
 5635SOL    HW128538   1.329   0.528   1.594 -0.2464 -0.1422  0.0690
 5635SOL    HW228539   1.196   0.480   1.589  0.2997 -1.5783  0.1278
 5636SOL     OW28540   2.637   1.069   1.284  0.7144  0.3317  0.1806
 5636SOL    HW128541   2.685   1.005   1.337 -1.8240 -2.2271 -0.6337
 5636SOL    HW228542   2.685   1.152   1.283  1.2916  0.0055  1.9449
 5637SOL     OW28543   1.989   3.901   5.686 -0.3045 -0.2861 -0.4683
 5637SOL    HW128544   2.046   3.962   5.733  0.3190 -1.5043  0.3404
 5637SOL    HW228545   2.036   3.818   5.691 -0.1741 -0.1289  0.7768
 5638SOL     OW28546   3.087   2.086   5.058  0.3095  0.0221  0.7074
 5638SOL    HW128547   3.029   2.118   5.128  0.6617 -1.0830  1.5154
 5638SOL    HW228548   3.025   2.054   4.992  2.1745  1.0285 -1.5144
 5639SOL     OW28549   1.793   2.962   0.986  0.3009 -0.0545 -0.1390
 5639SOL    HW128550   1.753   2.934   1.068  0.9100  1.3664  0.6351
 5639SOL    HW228551   1.888   2.966   0.996  0.1764 -0.9065  1.3350
 5640SOL     OW28552   4.407   3.167   0.621  0.5320 -0.2248  0.0601
 5640SOL    HW128553   4.419   3.193   0.530 -0.1983 -1.7787 -0.4856
 5640SOL    HW228554   4.342   3.229   0.653  2.5863  2.6927 -1.4636
 5641SOL     OW28555   2.274   3.281  15.682  0.0004 -0.0389  0.1916
 5641SOL    HW128556   2.344   3.320  15.630  0.0559 -0.1538  0.1823
 5641SOL    HW228557   2.194   3.271  15.629 -0.6720  0.3824  1.1272
 5642SOL     OW28558   1.503   0.836   0.698  0.0789  0.7730  0.2763
 5642SOL    HW128559   1.459   0.915   0.667  1.3300  1.8682  1.2949
 5642SOL    HW228560   1.593   0.846   0.666  0.0906 -1.4534 -0.4193
 5643SOL     OW28561   2.104   0.469   4.343 -0.1938 -0.2457  0.4727
 5643SOL    HW128562   2.070   0.380   4.335 -0.0935 -0.1691 -0.8252
 5643SOL    HW228563   2.096   0.484   4.437 -1.8116  2.3531 -0.0728
 5644SOL     OW28564   4.078   0.667  11.419 -0.0488 -0.3351 -0.2155
 5644SOL    HW128565   4.095   0.734  11.486  0.8418 -1.0053  0.2291
 5644SOL    HW228566   4.075   0.589  11.475 -0.2642  0.7921  1.3447
 5645SOL     OW28567   3.392   1.764   4.501 -0.1290  0.5752 -0.1400
 5645SOL    HW128568   3.361   1.761   4.411 -0.4779 -0.0013  0.0010
 5645SOL    HW228569   3.316   1.781   4.557 -0.5791  0.9767 -0.8776
 5646SOL     OW28570   1.899   4.677   7.850 -0.2419  0.2141  0.3863
 5646SOL    HW128571   1.936   4.613   7.789  1.1975  0.3488  1.1009
 5646SOL    HW228572   1.917   0.018   7.802 -2.3281 -0.0336 -0.7846
 5647SOL     OW28573   3.139   3.312   6.171 -0.7494 -0.5009  0.4036
 5647SOL    HW128574   3.180   3.367   6.104 -0.3505  0.4111  1.3784
 5647SOL    HW228575   3.097   3.379   6.225 -1.1578 -0.7350  0.3729
 5648SOL     OW28576   4.281   4.006   4.258 -0.3011  0.0771 -0.3318
 5648SOL    HW128577   4.368   4.019   4.221 -0.0276  1.4052  0.7619
 5648SOL    HW228578   4.273   4.079   4.320  1.0768  1.6240 -1.9501
 5649SOL     OW28579   3.627   0.157   2.916 -0.7755  0.2930  0.1369
 5649SOL    HW128580   3.608   0.218   2.988 -0.4828  2.4926 -1.6535
 5649SOL    HW228581   3.622   0.072   2.960  0.9803  0.5439  0.8137
 5650SOL     OW28582   0.567   1.833   4.330  0.0419 -0.1449 -0.3496
 5650SOL    HW128583   0.627   1.761   4.350 -0.5845  0.5707  3.9769
 5650SOL    HW228584   0.539   1.796   4.246  0.4130  0.8631 -0.9145
 5651SOL     OW28585   3.859   0.493   6.732 -0.2231 -0.0763 -0.1539
 5651SOL    HW128586   3.902   0.542   6.802 -0.2007 -0.4133  0.0697
 5651SOL    HW228587   3.817   0.560   6.678 -1.9992  0.7527  2.2474
 5652SOL     OW28588   1.760   1.225   3.852 -1.0057 -0.5669  0.2103
 5652SOL    HW128589   1.838   1.279   3.863  0.2960 -2.1776 -1.2506
 5652SOL    HW228590   1.760   1.235   3.757 -0.2860  2.5208  0.5493
 5653SOL     OW28591   1.045   4.392  11.719  0.2242  0.1289 -0.8071
 5653SOL    HW128592   0.950   4.382  11.709  0.2126  0.8551 -1.4107
 5653SOL    HW228593   1.053   4.385  11.814  1.4367  1.5632 -0.8135
 5654SOL     OW28594   4.536   1.521   9.081  0.4102 -0.0362 -0.3400
 5654SOL    HW128595   4.605   1.472   9.126 -0.1904  1.5245  2.2874
 5654SOL    HW228596   4.470   1.525   9.150 -0.1330  0.4252 -0.8823
 5655SOL     OW28597   1.973   0.414   7.793  0.0080  0.6833 -0.5560
 5655SOL    HW128598   1.952   0.384   7.705 -2.9769  1.2656 -0.0580
 5655SOL    HW228599   2.058   0.452   7.770  0.2431  0.6642  0.2802
 5656SOL     OW28600   2.871   4.501   6.951 -0.0064 -0.0833 -0.0793
 5656SOL    HW128601   2.871   4.491   6.856 -0.6255  2.4104 -0.3534
 5656SOL    HW228602   2.957   4.541   6.959 -0.2494  0.9072 -2.3958
 5657SOL     OW28603   3.199   4.340  14.920  0.1854 -0.5112 -0.3180
 5657SOL    HW128604   3.171   4.272  14.982  2.1179  0.0839  1.2042
 5657SOL    HW228605   3.273   4.292  14.883  0.3422  0.6580 -1.5227
 5658SOL     OW28606   0.855   4.577   6.646 -0.3967  0.3523 -0.8444
 5658SOL    HW128607   0.914   4.543   6.578 -0.1571 -0.2406 -0.3330
 5658SOL    HW228608   0.907   4.561   6.724 -1.2383  1.7329 -0.0065
 5659SOL     OW28609   3.801   4.541  14.891  0.3293 -0.7057  0.3078
 5659SOL    HW128610   3.865   4.594  14.938  2.4324  0.5815 -3.9438
 5659SOL    HW228611   3.728   4.603  14.888  0.3627 -0.6338  1.2635
 5660SOL     OW28612   2.326   3.082  11.980 -0.2451  0.2464 -0.3225
 5660SOL    HW128613   2.359   3.164  12.016  0.0603  0.2172 -0.5371
 5660SOL    HW228614   2.334   3.019  12.051  1.5898 -1.2914 -1.9093
 5661SOL     OW28615   4.711   2.393   6.660  0.0775  0.1162  0.0506
 5661SOL    HW128616   4.730   2.420   6.750 -2.1089  0.1866  0.5091
 5661SOL    HW228617   4.700   2.480   6.622 -0.4234 -0.1311 -0.3792
 5662SOL     OW28618   2.609   0.549   2.125  0.8088 -0.1553  0.2980
 5662SOL    HW128619   2.604   0.643   2.109 -4.1542 -0.3161  0.9699
 5662SOL    HW228620   2.679   0.520   2.067 -0.1240  1.6439 -1.7238
 5663SOL     OW28621   0.664   2.523   9.240 -0.2527  0.3570 -0.2905
 5663SOL    HW128622   0.645   2.597   9.183 -0.3113  1.4725  1.1724
 5663SOL    HW228623   0.613   2.543   9.319  0.4844 -0.1871  0.3312
 5664SOL     OW28624   1.917   1.561   3.515  0.7322 -0.0985 -0.0208
 5664SOL    HW128625   1.874   1.551   3.430 -1.9557  0.3225  1.2775
 5664SOL    HW228626   2.008   1.538   3.498  1.2792  1.4214  0.7950
 5665SOL     OW28627   2.344   3.498   7.734  0.7555 -0.3258  0.0520
 5665SOL    HW128628   2.394   3.417   7.745  0.7687  0.0355  2.6844
 5665SOL    HW228629   2.377   3.545   7.810 -0.4182  3.2280 -1.6188
 5666SOL     OW28630   1.430   0.302   3.396 -0.4504  0.3081  0.8042
 5666SOL    HW128631   1.383   0.309   3.312 -0.2821  1.3304  0.7933
 5666SOL    HW228632   1.362   0.246   3.433  0.5846 -1.3332  0.2511
 5667SOL     OW28633   3.810   3.984   6.659  0.4692  0.5163  0.2644
 5667SOL    HW128634   3.840   3.910   6.712  0.3203  1.0290  1.0647
 5667SOL    HW228635   3.742   3.943   6.606  0.3174  2.5241 -1.0699
 5668SOL     OW28636   3.990   1.207   4.985 -0.0689  0.2342  0.0442
 5668SOL    HW128637   3.918   1.242   5.039 -0.6409  1.5140 -1.5218
 5668SOL    HW228638   4.034   1.161   5.056 -3.2544  0.2427  2.0273
 5669SOL     OW28639   3.993   1.393   8.184  0.6358  0.0999  0.1730
 5669SOL    HW128640   3.963   1.346   8.106  0.8038 -0.3686  0.3895
 5669SOL    HW228641   4.046   1.461   8.142  0.4624  0.8952  1.2468
 5670SOL     OW28642   3.576   2.415   4.113  0.0812  0.1023  0.3069
 5670SOL    HW128643   3.603   2.506   4.123  1.1759 -0.2720  0.7749
 5670SOL    HW228644   3.639   2.381   4.049 -0.3809  1.4304 -0.8518
 5671SOL     OW28645   0.556   2.680   6.987  0.1847  0.3454  0.4813
 5671SOL    HW128646   0.605   2.759   7.012 -1.8123  2.4438 -2.2074
 5671SOL    HW228647   0.477   2.727   6.959 -0.0919  0.2137  1.0377
 5672SOL     OW28648   4.296   3.394   3.498  0.2755 -0.3198  0.2692
 5672SOL    HW128649   4.201   3.404   3.496  0.1492 -1.9103 -1.7589
 5672SOL    HW228650   4.304   3.318   3.556  2.0317  0.0752  0.5642
 5673SOL     OW28651   2.571   3.938  11.940  0.0041  0.1676 -0.4550
 5673SOL    HW128652   2.651   3.961  11.986  1.1737 -1.4320 -1.6923
 5673SOL    HW228653   2.573   3.843  11.951  0.2861  0.0004 -1.9175
 5674SOL     OW28654   4.304   1.968   3.573  0.0041  0.1343 -0.5188
 5674SOL    HW128655   4.386   1.918   3.582 -0.3149 -0.3996 -0.5786
 5674SOL    HW228656   4.255   1.918   3.508  0.6374 -2.1116  0.7010
 5675SOL     OW28657   3.970   4.240   5.412  0.4208  0.6039  0.0033
 5675SOL    HW128658   4.062   4.230   5.392  0.5979  0.2088  0.9795
 5675SOL    HW228659   3.971   4.187   5.492  0.0855 -2.3174 -1.9392
 5676SOL     OW28660   1.665   3.994   3.785  0.5053  0.6115 -0.1437
 5676SOL    HW128661   1.603   3.922   3.774  1.4747  0.1623 -2.5593
 5676SOL    HW228662   1.686   3.977   3.877 -1.0256 -1.0217 -0.0930
 5677SOL     OW28663   0.710   2.925   1.651 -0.2644 -0.3059  0.0919
 5677SOL    HW128664   0.653   2.994   1.617 -0.9836 -1.4590 -1.0474
 5677SOL    HW228665   0.704   2.960   1.740  0.3198 -3.1645  1.2557
 5678SOL     OW28666   2.820   2.535   9.356  0.1067 -0.1847 -0.4362
 5678SOL    HW128667   2.725   2.523   9.353  0.2702 -1.9068  1.5819
 5678SOL    HW228668   2.837   2.539   9.262  1.3157  0.0658 -0.2155
 5679SOL     OW28669   3.221   0.888   7.193  0.1836  0.1696  0.1438
 5679SOL    HW128670   3.197   0.852   7.278  0.5920  3.4482  1.6385
 5679SOL    HW228671   3.311   0.865   7.169  0.5899  1.2787  0.6214
 5680SOL     OW28672   4.739   4.629   3.155  0.0532  0.3612 -0.0993
 5680SOL    HW128673   4.660   4.679   3.137 -0.5890 -0.9953 -1.1196
 5680SOL    HW228674   0.043   4.697   3.205 -1.5753  0.6461  0.9047
 5681SOL     OW28675   3.896   1.877   7.697 -0.4902  0.8215 -0.0325
 5681SOL    HW128676   3.927   1.840   7.779  1.0556 -0.8191 -1.3587
 5681SOL    HW228677   3.950   1.956   7.689 -0.6881  1.1713  2.0647
 5682SOL     OW28678   2.116   3.329   2.105 -0.6275  0.2959  0.3511
 5682SOL    HW128679   2.116   3.235   2.121  1.4746  0.0993 -0.8404
 5682SOL    HW228680   2.136   3.364   2.192 -3.0578 -0.8565  1.3640
 5683SOL     OW28681   4.684   3.592   8.860 -0.2104  0.3296  0.2466
 5683SOL    HW128682   4.668   3.529   8.789 -1.6483 -0.9566  1.7046
 5683SOL    HW228683   4.710   3.665   8.803  1.1551  0.4313  1.0253
 5684SOL     OW28684   0.273   4.448   9.417 -0.4020 -0.0832 -0.0582
 5684SOL    HW128685   0.203   4.384   9.428  1.3028 -1.8956  0.2752
 5684SOL    HW228686   0.266   4.498   9.498  0.2605 -0.0598 -0.0127
 5685SOL     OW28687   2.864   2.434   3.170 -0.2052 -0.9743  0.0959
 5685SOL    HW128688   2.933   2.487   3.209  1.5195 -1.9393 -1.6297
 5685SOL    HW228689   2.792   2.488   3.202 -0.4973 -1.1185 -0.3151
 5686SOL     OW28690   3.577   3.401   7.812 -0.2196  0.8011 -0.2123
 5686SOL    HW128691   3.590   3.475   7.871  2.1720 -0.3283  0.6661
 5686SOL    HW228692   3.610   3.327   7.862  1.0398  2.4069  1.3237
 5687SOL     OW28693   2.065   0.736   2.872  0.2180 -0.5620  0.5618
 5687SOL    HW128694   2.012   0.723   2.950  2.9112  1.9315  2.7806
 5687SOL    HW228695   2.006   0.778   2.809  0.8332  1.2673  1.1898
 5688SOL     OW28696   4.436   4.733   2.324  0.5504 -0.3902  0.2885
 5688SOL    HW128697   4.385   0.075   2.323 -0.1126 -0.7765  1.8006
 5688SOL    HW228698   4.393   4.683   2.393 -1.6990  1.4935  0.2404
 5689SOL     OW28699   1.897   1.628   9.855  0.4178 -0.0261  0.1568
 5689SOL    HW128700   1.858   1.541   9.871  1.4050 -0.5349 -0.2347
 5689SOL    HW228701   1.946   1.641   9.936 -2.1875  1.4620  1.5121
 5690SOL     OW28702   3.174   2.333   4.743  0.6876  0.4484 -0.9449
 5690SOL    HW128703   3.191   2.240   4.726  1.4986  0.1760  1.4013
 5690SOL    HW228704   3.238   2.369   4.682  1.1939  0.7026 -0.2695
 5691SOL     OW28705   1.614   2.251   8.401 -0.4194 -0.4703 -0.3285
 5691SOL    HW128706   1.709   2.242   8.408 -0.4537 -0.1357  0.5256
 5691SOL    HW228707   1.614   2.268   8.307 -2.3476  2.3993  0.2126
 5692SOL     OW28708   4.734   0.591   3.298  0.0925 -0.6130 -0.1012
 5692SOL    HW128709   4.730   0.637   3.215 -0.2754 -0.4031  0.0316
 5692SOL    HW228710   0.089   0.600   3.310 -0.1033  1.7542 -0.4975
 5693SOL     OW28711   2.689   1.417  17.569 -0.1122 -0.1270 -0.2370
 5693SOL    HW128712   2.628   1.468  17.624 -1.8481 -2.3193 -0.1543
 5693SOL    HW228713   2.751   1.386  17.635  1.0218  1.6712 -0.4419
 5694SOL     OW28714   2.905   4.281   0.975  0.3603 -0.1144 -0.7038
 5694SOL    HW128715   2.867   4.354   1.023  0.5100 -1.5001  1.5075
 5694SOL    HW228716   2.827   4.239   0.940  1.4746 -3.3938  0.7959
 5695SOL     OW28717   2.083   2.698   4.614 -0.5064  0.0504 -0.1007
 5695SOL    HW128718   2.062   2.772   4.671  1.9789  0.9544 -0.3691
 5695SOL    HW228719   2.119   2.743   4.537  0.2993  1.1404  0.9107
 5696SOL     OW28720   1.106   4.432  12.658 -0.3883  0.2201  0.4499
 5696SOL    HW128721   1.120   4.519  12.622  0.8184 -0.9509 -1.9323
 5696SOL    HW228722   1.154   4.431  12.741  3.9321 -0.2616 -2.0171
 5697SOL     OW28723   1.579   3.704   6.060 -0.0493 -0.6063  0.0974
 5697SOL    HW128724   1.591   3.784   6.009  2.9015 -1.3566 -0.4228
 5697SOL    HW228725   1.485   3.705   6.077  0.0067  0.9847  0.2976
 5698SOL     OW28726   2.198   1.177  17.678 -0.3434  0.3184 -0.0040
 5698SOL    HW128727   2.241   1.100  17.714 -0.4438  0.3295  0.1385
 5698SOL    HW228728   2.254   1.187  17.601  0.8665 -1.4130  0.6646
 5699SOL     OW28729   4.470   2.045   5.769  0.2935 -0.5836 -0.0438
 5699SOL    HW128730   4.430   1.969   5.726  0.1177 -1.1711  1.1563
 5699SOL    HW228731   4.562   2.030   5.747 -0.1634 -1.1982 -1.5160
 5700SOL     OW28732   0.053   4.177   8.028  0.0335  0.0145  0.2613
 5700SOL    HW128733   0.082   4.256   8.073 -0.3568 -0.5942  1.5668
 5700SOL    HW228734   0.046   4.200   7.935  0.5233 -0.5070  0.0951
 5701SOL     OW28735   0.297   3.353   5.127  0.1727  0.7605  0.3757
 5701SOL    HW128736   0.308   3.314   5.041  1.7485 -2.0811  1.9012
 5701SOL    HW228737   0.211   3.318   5.149 -0.2661  1.4842 -0.1601
 5702SOL     OW28738   2.956   2.388   4.605  0.5339 -0.1356  0.4232
 5702SOL    HW128739   3.023   2.378   4.673 -1.1077 -2.5458  1.6781
 5702SOL    HW228740   3.012   2.367   4.530 -0.0992 -0.2101 -0.0265
 5703SOL     OW28741   0.285   0.636   6.300 -0.6577  0.0273  0.3269
 5703SOL    HW128742   0.266   0.677   6.215 -0.5105 -1.1543 -0.2811
 5703SOL    HW228743   0.364   0.596   6.264 -0.7014  1.5740 -1.5463
 5704SOL     OW28744   4.623   1.121   4.001 -0.1338  0.1560  0.5901
 5704SOL    HW128745   4.673   1.093   4.078 -0.8165 -1.0752  0.5808
 5704SOL    HW228746   4.590   1.043   3.957  1.0123 -0.7883  1.4050
 5705SOL     OW28747   0.873   3.554   3.337  0.2819  0.0649  0.4426
 5705SOL    HW128748   0.883   3.518   3.424 -0.7488 -2.8896 -0.6654
 5705SOL    HW228749   0.958   3.527   3.301 -0.0550  1.0008 -1.0956
 5706SOL     OW28750   3.505   0.797   9.320  0.1591 -0.4304 -0.4731
 5706SOL    HW128751   3.448   0.728   9.288  1.9087 -1.3353 -1.6414
 5706SOL    HW228752   3.592   0.774   9.286 -0.1596  1.3610 -2.4851
 5707SOL     OW28753   2.376   1.549   6.433 -0.4419  0.5207 -0.0308
 5707SOL    HW128754   2.320   1.576   6.506 -3.0176 -1.6104 -1.1786
 5707SOL    HW228755   2.454   1.597   6.460 -0.4004 -0.2731  1.2648
 5708SOL     OW28756   2.904   4.454   7.431  0.3169 -0.2394  0.6105
 5708SOL    HW128757   2.860   4.506   7.499  0.6278  1.1536 -0.2478
 5708SOL    HW228758   2.837   4.461   7.363 -0.7232 -0.0841  1.6395
 5709SOL     OW28759   3.956   0.875   5.479  0.5196 -0.2508 -0.3269
 5709SOL    HW128760   3.993   0.963   5.492 -1.8469  0.3330  2.4789
 5709SOL    HW228761   3.904   0.880   5.399  1.4318  0.9406 -0.8443
 5710SOL     OW28762   1.770   0.948   6.241 -0.0144  0.2309  0.0351
 5710SOL    HW128763   1.752   1.034   6.202  1.2190 -0.4669 -2.1064
 5710SOL    HW228764   1.791   0.972   6.331 -2.3000  3.0708 -0.2091
 5711SOL     OW28765   0.741   1.431   1.107 -0.2314  0.4990 -0.0150
 5711SOL    HW128766   0.701   1.469   1.029  1.3200  1.8403 -0.1525
 5711SOL    HW228767   0.692   1.349   1.117  0.4593  0.4422  2.9097
 5712SOL     OW28768   0.014   2.355   2.287  0.4076 -0.3304 -0.2540
 5712SOL    HW128769   4.675   2.301   2.301  1.2139 -1.0780  1.4711
 5712SOL    HW228770   4.728   2.430   2.234  0.1990 -1.0257 -1.1336
 5713SOL     OW28771   4.603   0.999   7.289 -0.0879  0.8137 -0.0131
 5713SOL    HW128772   4.564   0.927   7.339  0.3681  0.9695  0.5712
 5713SOL    HW228773   4.640   1.049   7.362  1.2294  1.1848 -0.9431
 5714SOL     OW28774   2.456   1.192   2.767  0.0119 -0.1115  0.2117
 5714SOL    HW128775   2.502   1.186   2.682  1.3809  0.3640  0.9181
 5714SOL    HW228776   2.501   1.267   2.804  0.4911 -1.3878  2.1970
 5715SOL     OW28777   0.321   4.295  11.667  0.2262  0.4567 -0.3305
 5715SOL    HW128778   0.391   4.336  11.717 -0.9302  1.9756  0.0304
 5715SOL    HW228779   0.358   4.300  11.579 -0.9811  0.1386 -0.8587
 5716SOL     OW28780   4.053   4.250   0.083  0.3373  0.0818  0.0124
 5716SOL    HW128781   4.146   4.232   0.077  0.0813 -1.0548 -0.4877
 5716SOL    HW228782   4.039   4.259   0.177 -4.0509  3.8061 -0.9687
 5717SOL     OW28783   3.197   2.111   0.943 -0.1851  0.0221 -0.4055
 5717SOL    HW128784   3.132   2.156   0.890 -0.3225  0.3567  0.0428
 5717SOL    HW228785   3.147   2.030   0.948  0.5584 -0.4458 -0.5760
 5718SOL     OW28786   2.890   0.970   2.266  0.1858  0.5338  0.2172
 5718SOL    HW128787   2.797   0.948   2.259  0.5171 -0.2575 -1.7322
 5718SOL    HW228788   2.924   0.881   2.255 -0.0873  0.3372  0.9923
 5719SOL     OW28789   0.845   1.616   7.242  0.2586 -0.1201 -0.3587
 5719SOL    HW128790   0.849   1.536   7.189  1.8251 -1.3380  1.6027
 5719SOL    HW228791   0.752   1.637   7.235  0.5761  1.4142  0.1915
 5720SOL     OW28792   3.172   1.803   7.057 -0.7126  0.0707 -0.2418
 5720SOL    HW128793   3.101   1.748   7.022  0.5007 -0.6532 -1.5711
 5720SOL    HW228794   3.145   1.893   7.039  1.7369  1.0552  1.0998
 5721SOL     OW28795   2.976   2.308   9.288 -0.2663  0.0614 -0.0300
 5721SOL    HW128796   2.934   2.371   9.347 -1.5558  0.3988 -1.2884
 5721SOL    HW228797   3.069   2.324   9.301 -0.6949  2.4892  0.0909
 5722SOL     OW28798   0.537   2.647  16.642  0.0611 -0.0658  0.1917
 5722SOL    HW128799   0.587   2.570  16.616 -0.1151 -0.8209  2.0543
 5722SOL    HW228800   0.443   2.626  16.648 -0.2355  0.9997 -0.7291
 5723SOL     OW28801   3.404   0.326   7.822 -0.1694 -0.1839 -0.0663
 5723SOL    HW128802   3.401   0.231   7.812  1.5255 -0.0795 -1.7047
 5723SOL    HW228803   3.495   0.350   7.802 -0.3811  1.2728  0.7161
 5724SOL     OW28804   1.172   2.673   6.765 -0.1561 -0.2470  0.4629
 5724SOL    HW128805   1.126   2.755   6.744 -1.1800 -0.8888  0.2198
 5724SOL    HW228806   1.107   2.632   6.821  1.4101 -1.9419  1.0400
 5725SOL     OW28807   0.622   1.479   3.685  0.3373  0.4076 -0.2077
 5725SOL    HW128808   0.690   1.412   3.679  1.9971  2.1538 -0.6241
 5725SOL    HW228809   0.607   1.495   3.591 -1.8819  0.6372  0.1718
 5726SOL     OW28810   3.717   0.131  15.628 -0.0427  0.5944  0.2628
 5726SOL    HW128811   3.739   0.223  15.619  0.8740  0.5791  2.2209
 5726SOL    HW228812   3.797   0.090  15.595  0.5568  1.9833 -0.0094
 5727SOL     OW28813   4.415   2.739   2.170 -0.3345 -0.9128 -0.4650
 5727SOL    HW128814   4.352   2.673   2.139 -2.6254  1.1669 -0.2280
 5727SOL    HW228815   4.416   2.801   2.097  0.1139  0.4645  0.7169
 5728SOL     OW28816   2.206   4.293   6.616  0.1770  0.6144 -0.6657
 5728SOL    HW128817   2.142   4.229   6.584  1.5813 -0.8585 -0.4942
 5728SOL    HW228818   2.151   4.372   6.620 -1.4206 -0.5218 -0.0801
 5729SOL     OW28819   0.497   3.551   5.950 -0.1315  0.1457 -0.2257
 5729SOL    HW128820   0.567   3.486   5.957 -0.8236 -0.3699  2.2285
 5729SOL    HW228821   0.523   3.618   6.014 -0.0696 -0.5673  0.5028
 5730SOL     OW28822   0.124   4.554   2.924 -0.4234  0.1043 -0.1331
 5730SOL    HW128823   0.213   4.576   2.952 -0.2267 -2.5032  1.3313
 5730SOL    HW228824   0.089   4.596   3.003 -1.0554 -0.0862 -0.3115
 5731SOL     OW28825   0.121   4.234   9.847 -0.0046  0.3403  0.3210
 5731SOL    HW128826   0.123   4.271   9.936 -2.3387 -0.4477  0.7082
 5731SOL    HW228827   0.197   4.177   9.839  1.6284  2.4175  0.7789
 5732SOL     OW28828   2.643   3.049  17.406  0.2453 -0.7063  0.1908
 5732SOL    HW128829   2.661   2.976  17.467  3.4860 -0.1139 -0.0727
 5732SOL    HW228830   2.565   3.022  17.357 -1.2501  0.9008  1.7063
 5733SOL     OW28831   2.481   4.414   6.620 -0.5025  0.3794  0.8347
 5733SOL    HW128832   2.543   4.345   6.644  1.2735  1.5573 -0.3066
 5733SOL    HW228833   2.401   4.363   6.610  2.0880 -2.9763 -2.7048
 5734SOL     OW28834   2.767   4.274   8.784  0.3217  0.5758  0.2145
 5734SOL    HW128835   2.753   4.193   8.832  0.0408  2.1001  2.7435
 5734SOL    HW228836   2.860   4.289   8.804  0.0960 -0.7872  2.3502
 5735SOL     OW28837   1.981   0.929   5.180 -0.0158  0.0935  0.2006
 5735SOL    HW128838   1.914   0.966   5.237  1.3073  0.8422  1.2580
 5735SOL    HW228839   2.051   0.995   5.180 -0.5326  0.6373 -3.5913
 5736SOL     OW28840   2.410   0.527   7.033 -0.2556 -0.0873 -0.7524
 5736SOL    HW128841   2.461   0.483   6.965  0.6007 -0.6759  0.2683
 5736SOL    HW228842   2.449   0.614   7.035  0.3910 -0.3830 -0.4871
 5737SOL     OW28843   2.684   3.167   4.373 -0.1273 -0.2575 -0.4336
 5737SOL    HW128844   2.688   3.256   4.407 -1.0797 -0.7088  0.8792
 5737SOL    HW228845   2.593   3.156   4.346 -1.0589  0.0112  2.5807
 5738SOL     OW28846   2.451   3.724   6.612 -0.3337 -0.6606 -0.2705
 5738SOL    HW128847   2.404   3.707   6.530  0.8803  1.1155 -1.3396
 5738SOL    HW228848   2.534   3.714   6.565 -1.3170  1.3282 -2.4663
 5739SOL     OW28849   4.011   0.190  13.853  0.0844 -1.1157  0.4833
 5739SOL    HW128850   3.967   0.268  13.819  0.3023  0.9902  4.9635
 5739SOL    HW228851   4.064   0.230  13.923  0.8555  1.3826 -1.5478
 5740SOL     OW28852   3.951   0.359   8.368 -0.4473 -0.7038 -0.2079
 5740SOL    HW128853   3.984   0.293   8.308  2.4626 -1.8649  2.6777
 5740SOL    HW228854   3.866   0.320   8.391 -0.9155 -0.9188 -2.2791
 5741SOL     OW28855   4.467   3.871   5.744  0.5066  0.2877 -0.5874
 5741SOL    HW128856   4.554   3.836   5.759  0.3941  0.5345  0.6606
 5741SOL    HW228857   4.411   3.804   5.782  3.1193 -1.2364  0.4836
 5742SOL     OW28858   2.017   0.202   4.420  0.2787  0.1542  0.1100
 5742SOL    HW128859   1.994   0.140   4.350  2.3801  1.7363 -2.0007
 5742SOL    HW228860   1.976   0.152   4.490  1.3074  1.4840  1.6898
 5743SOL     OW28861   2.215   3.574  12.463 -0.2619 -0.4509 -0.8161
 5743SOL    HW128862   2.174   3.587  12.548 -0.6919 -1.3845 -0.8755
 5743SOL    HW228863   2.147   3.577  12.395 -2.5432 -2.4363  1.3552
 5744SOL     OW28864   0.704   3.574  11.714  0.3417 -0.2415  0.1859
 5744SOL    HW128865   0.688   3.481  11.727  1.5174 -0.6948 -1.6187
 5744SOL    HW228866   0.765   3.602  11.782 -0.1841  0.0230  0.5474
 5745SOL     OW28867   2.280   3.907  10.853 -0.0241 -0.0437  0.3943
 5745SOL    HW128868   2.316   3.880  10.768 -0.0051  1.0852  0.0501
 5745SOL    HW228869   2.260   3.821  10.891 -1.0001  0.4222  0.9222
 5746SOL     OW28870   1.773   1.781   0.840 -0.5473  0.0758  0.1810
 5746SOL    HW128871   1.780   1.730   0.759 -0.1567 -1.3625  1.1271
 5746SOL    HW228872   1.857   1.827   0.839 -1.8538  2.5165  1.2232
 5747SOL     OW28873   3.616   0.875   9.974 -0.2781  0.7228  0.1042
 5747SOL    HW128874   3.653   0.895   9.887  0.6155 -1.8113 -0.0854
 5747SOL    HW228875   3.529   0.909   9.951 -1.0468 -2.1932 -1.2304
 5748SOL     OW28876   3.002   1.069  11.968 -0.3035  0.1921 -0.1643
 5748SOL    HW128877   2.986   1.162  11.988 -0.1307  0.1615  0.1038
 5748SOL    HW228878   3.016   1.024  12.050 -1.5771  1.0592  0.5328
 5749SOL     OW28879   3.157   1.390   7.055  0.1110 -0.8277 -0.4599
 5749SOL    HW128880   3.108   1.380   7.136  0.6123  0.4701  0.0096
 5749SOL    HW228881   3.198   1.303   7.055 -2.5532 -2.0736  1.0148
 5750SOL     OW28882   1.253   3.787   3.428  0.6397 -0.3018 -0.7144
 5750SOL    HW128883   1.259   3.731   3.350  0.0134 -5.0869  2.7010
 5750SOL    HW228884   1.344   3.802   3.450  0.7936 -0.7315 -1.0666
 5751SOL     OW28885   2.750   3.933   1.327  0.0816 -0.2762  0.1373
 5751SOL    HW128886   2.742   3.872   1.254  0.5422 -1.2300  0.8869
 5751SOL    HW228887   2.812   3.997   1.291  1.3081 -1.4008  0.2260
 5752SOL     OW28888   2.633   2.588  11.963 -0.1211 -0.4497  0.4713
 5752SOL    HW128889   2.709   2.643  11.981  0.4370 -1.3461  0.8655
 5752SOL    HW228890   2.655   2.561  11.874 -1.1170 -0.8328  0.3364
 5753SOL     OW28891   2.728   3.927   7.429  0.4221  0.1834 -0.1466
 5753SOL    HW128892   2.798   3.936   7.492 -0.5134  1.3309  0.7204
 5753SOL    HW228893   2.648   3.954   7.473 -0.4632  2.2777 -3.0066
 5754SOL     OW28894   2.948   1.494   4.364 -0.2631 -0.9997  0.0726
 5754SOL    HW128895   2.911   1.574   4.402  0.1784 -0.6837 -0.1549
 5754SOL    HW228896   2.979   1.515   4.275  0.1885 -1.2453  0.1753
 5755SOL     OW28897   4.504   4.117   5.180 -0.1354 -0.2025 -0.2630
 5755SOL    HW128898   4.440   4.049   5.160 -1.3898  1.2889 -1.3096
 5755SOL    HW228899   4.546   4.077   5.256 -0.6180  0.5277  0.3891
 5756SOL     OW28900   3.800   2.247   8.482 -0.1592  0.0186  0.0431
 5756SOL    HW128901   3.729   2.222   8.424  1.6044 -0.3498 -1.9748
 5756SOL    HW228902   3.755   2.304   8.544 -0.3554 -0.1855  0.0874
 5757SOL     OW28903   2.278   2.551   2.468  0.2360 -0.6863 -0.3289
 5757SOL    HW128904   2.299   2.636   2.428  3.0889 -0.3521  1.8848
 5757SOL    HW228905   2.267   2.493   2.393 -0.1705  2.0938 -2.4449
 5758SOL     OW28906   3.893   2.615   0.541  0.2411  0.1938 -0.2094
 5758SOL    HW128907   3.891   2.680   0.611 -2.0701  2.5809 -2.5401
 5758SOL    HW228908   3.813   2.566   0.560  0.4307 -0.0410 -0.0175
 5759SOL     OW28909   3.764   0.535  16.484  0.4385 -0.5160  0.0356
 5759SOL    HW128910   3.691   0.480  16.511  0.1123  0.2538  0.7532
 5759SOL    HW228911   3.731   0.589  16.412  0.7930 -2.8256 -1.8528
 5760SOL     OW28912   0.523   1.957  14.705  0.1066  0.4231  0.5322
 5760SOL    HW128913   0.482   1.893  14.764 -0.4571  2.0011  1.8594
 5760SOL    HW228914   0.472   1.938  14.627  1.7035 -1.8567  0.0526
 5761SOL     OW28915   0.969   4.709   3.981  0.2210  0.0030 -0.6971
 5761SOL    HW128916   0.917   4.634   3.952 -1.9038 -0.0055  3.0942
 5761SOL    HW228917   0.966   4.703   4.077  0.5516  0.5368 -0.6569
 5762SOL     OW28918   0.702   0.557   9.061  0.1809 -0.8446  0.4100
 5762SOL    HW128919   0.707   0.545   9.156  0.5099  0.1549  0.5180
 5762SOL    HW228920   0.773   0.498   9.035  0.3512  0.9593 -3.2692
 5763SOL     OW28921   3.787   2.463   7.716 -0.6534  0.1170  0.3693
 5763SOL    HW128922   3.750   2.394   7.770  2.2642 -2.5773 -1.1130
 5763SOL    HW228923   3.880   2.470   7.738 -0.5824  4.6853 -1.3670
 5764SOL     OW28924   4.147   0.712  10.485  0.7684  0.0640 -0.6080
 5764SOL    HW128925   4.211   0.658  10.439  0.9532  1.0150 -1.4571
 5764SOL    HW228926   4.201   0.744  10.557 -0.6858  0.2061  0.4151
 5765SOL     OW28927   0.248   3.300   1.081 -0.2878 -0.1385 -0.5496
 5765SOL    HW128928   0.230   3.390   1.051 -0.1771  0.5434  1.4537
 5765SOL    HW228929   0.166   3.277   1.123  1.5201 -1.7850  2.0701
 5766SOL     OW28930   3.857   4.578  12.221  0.5166 -0.4352 -0.4809
 5766SOL    HW128931   3.894   4.639  12.158 -1.0177 -0.0116 -0.9776
 5766SOL    HW228932   3.904   4.500  12.191 -2.7099 -3.0661  1.1778
 5767SOL     OW28933   2.097   3.246   4.632 -0.0196  0.4018 -0.9962
 5767SOL    HW128934   2.090   3.191   4.553 -0.4041  0.9271 -1.3290
 5767SOL    HW228935   2.007   3.245   4.665  0.1659  0.9800 -0.4884
 5768SOL     OW28936   1.278   4.583   6.198  0.1463  0.1645  0.0578
 5768SOL    HW128937   1.291   4.604   6.291 -1.3539 -0.2663  0.3637
 5768SOL    HW228938   1.269   4.674   6.169 -1.9619  0.0198  0.2556
 5769SOL     OW28939   2.377   0.983   3.668  0.0724  0.0036 -0.1216
 5769SOL    HW128940   2.382   0.892   3.639 -1.8122 -0.5421  1.2016
 5769SOL    HW228941   2.435   0.978   3.744  0.5727 -0.4962 -0.5368
 5770SOL     OW28942   2.047   4.614   6.838 -0.0090  0.1920 -0.1904
 5770SOL    HW128943   2.097   4.695   6.843  0.4972 -0.1124 -0.4136
 5770SOL    HW228944   1.961   4.640   6.871  0.7295  0.3878  1.6128
 5771SOL     OW28945   2.748   4.441   7.211  0.0490  0.1587  0.3847
 5771SOL    HW128946   2.798   4.464   7.132  0.6940 -1.4410  0.3320
 5771SOL    HW228947   2.690   4.517   7.218 -1.6587 -1.1355  0.1705
 5772SOL     OW28948   0.123   0.433   7.013 -0.2624 -1.4388 -0.0886
 5772SOL    HW128949   0.184   0.486   7.064 -0.6407  0.2921 -1.4233
 5772SOL    HW228950   0.040   0.477   7.031  0.7070 -1.0761  3.6029
 5773SOL     OW28951   1.388   3.290   8.165 -0.4960 -0.0992 -0.3553
 5773SOL    HW128952   1.420   3.244   8.087  0.8315  1.2449 -0.6083
 5773SOL    HW228953   1.294   3.274   8.174 -0.6320  0.0562 -1.4419
 5774SOL     OW28954   1.877   1.316   8.137 -0.4337  0.1377  0.4998
 5774SOL    HW128955   1.835   1.365   8.066  0.1652 -0.2861 -0.1398
 5774SOL    HW228956   1.802   1.286   8.189 -1.1124  0.6319 -0.1884
 5775SOL     OW28957   3.797   2.017   2.412  0.1462 -0.5956  0.0159
 5775SOL    HW128958   3.834   1.929   2.399  1.1090 -0.0321 -1.0679
 5775SOL    HW228959   3.832   2.057   2.332 -2.6694  1.9475  0.0777
 5776SOL     OW28960   3.028   3.697   7.991 -0.0756  0.6629 -0.1026
 5776SOL    HW128961   3.073   3.677   7.909  0.5668  0.4837  0.2896
 5776SOL    HW228962   3.040   3.790   8.008  1.5652  0.4943 -0.3725
 5777SOL     OW28963   0.037   1.395   6.670 -0.0861 -0.5337 -0.3205
 5777SOL    HW128964   4.733   1.313   6.694 -0.9431 -0.2160 -0.7518
 5777SOL    HW228965   0.121   1.361   6.638  0.1034 -0.0159 -0.3718
 5778SOL     OW28966   3.269   4.011   1.919  0.0571 -0.2034 -0.2600
 5778SOL    HW128967   3.255   3.975   2.007 -0.0990  0.7822  0.1211
 5778SOL    HW228968   3.295   4.101   1.938 -1.2529  0.0349  0.3438
 5779SOL     OW28969   2.325   3.328  16.591 -0.0414 -0.5542  0.2495
 5779SOL    HW128970   2.259   3.275  16.636  1.4853 -2.0010  0.8229
 5779SOL    HW228971   2.293   3.411  16.625  0.5546 -0.5987  0.9008
 5780SOL     OW28972   2.595   3.129   3.093 -0.1486 -0.4791 -0.1506
 5780SOL    HW128973   2.624   3.220   3.092  1.4200 -0.9905 -0.3418
 5780SOL    HW228974   2.533   3.131   3.020 -1.2355 -1.4922  0.7360
 5781SOL     OW28975   4.313   4.083   8.422 -0.0659  0.1238  0.1934
 5781SOL    HW128976   4.240   4.055   8.366 -0.1453  0.4358  0.1420
 5781SOL    HW228977   4.365   4.129   8.357 -1.6623  1.6557 -0.0031
 5782SOL     OW28978   0.077   4.699   6.034  0.2020  0.0720  0.7831
 5782SOL    HW128979   0.143   4.632   6.048  0.7732  0.4510 -0.1170
 5782SOL    HW228980   0.001   4.645   6.009  0.5277 -0.4471  0.9183
 5783SOL     OW28981   1.640   2.729   6.128  0.8307 -0.0126 -0.6682
 5783SOL    HW128982   1.687   2.692   6.203 -1.0888 -0.4048  0.3223
 5783SOL    HW228983   1.703   2.712   6.058  2.2058  1.3009  0.2466
 5784SOL     OW28984   2.754   3.355   7.974  0.1361 -0.5760 -0.1723
 5784SOL    HW128985   2.829   3.335   7.917  0.6063 -0.5151  0.4283
 5784SOL    HW228986   2.741   3.449   7.957  1.5435 -0.0220  1.7768
 5785SOL     OW28987   0.075   0.274  13.026 -1.0504 -0.1589  0.3963
 5785SOL    HW128988   0.056   0.194  13.076  0.4067 -0.5803  0.2826
 5785SOL    HW228989   0.165   0.285  13.058 -0.6435 -1.5841 -0.2681
 5786SOL     OW28990   2.588   3.159  11.446  0.4425  0.5961  0.1137
 5786SOL    HW128991   2.567   3.068  11.424  1.1826  0.6630 -0.8751
 5786SOL    HW228992   2.528   3.201  11.384  3.0350  2.1548 -1.2997
 5787SOL     OW28993   4.608   0.162   7.612  0.1814 -0.1122  0.0371
 5787SOL    HW128994   4.603   0.072   7.643  1.4002 -0.2025 -0.0439
 5787SOL    HW228995   4.543   0.209   7.665 -1.0300 -0.0596 -1.4898
 5788SOL     OW28996   4.311   1.922   9.483 -0.0696  0.3436 -0.6298
 5788SOL    HW128997   4.393   1.906   9.438 -0.2148  0.0104 -0.7771
 5788SOL    HW228998   4.327   2.008   9.520 -0.3037  0.1758 -0.1409
 5789SOL     OW28999   1.907   2.387   2.074 -0.1354  0.5667  0.9053
 5789SOL    HW129000   1.863   2.342   2.146  1.5455 -0.6863  1.1420
 5789SOL    HW229001   1.991   2.387   2.121  1.4387  1.2138 -1.9026
 5790SOL     OW29002   1.324   1.380   0.530  0.1577  0.3206 -0.4019
 5790SOL    HW129003   1.308   1.461   0.579  3.1290  0.1300  0.8794
 5790SOL    HW229004   1.414   1.389   0.498  1.2253  1.0388  2.7842
 5791SOL     OW29005   4.144   3.786   9.652  0.3496  0.7442  0.5650
 5791SOL    HW129006   4.054   3.789   9.619  0.0123  3.7600  1.6895
 5791SOL    HW229007   4.191   3.850   9.598 -3.7075  0.8053 -2.8368
 5792SOL     OW29008   0.902   0.537  12.049 -0.1199 -0.0110 -0.6063
 5792SOL    HW129009   0.813   0.531  12.082  0.5301 -0.8535  0.9741
 5792SOL    HW229010   0.883   0.514  11.958 -0.9329  0.4542 -0.5579
 5793SOL     OW29011   0.288   0.636   7.574  0.0525  0.4141  0.4200
 5793SOL    HW129012   0.290   0.551   7.617 -1.3118 -0.8936 -2.0989
 5793SOL    HW229013   0.374   0.622   7.533  0.0226  1.1631  0.0996
 5794SOL     OW29014   2.855   0.814   1.889  0.2300 -0.4433  0.0500
 5794SOL    HW129015   2.810   0.898   1.884 -0.1610 -0.6839 -0.4946
 5794SOL    HW229016   2.883   0.807   1.798  0.7937  1.0063  0.1145
 5795SOL     OW29017   1.710   1.808   2.769  0.4807 -0.3290 -0.4892
 5795SOL    HW129018   1.765   1.740   2.729  0.8261 -0.2977 -0.0716
 5795SOL    HW229019   1.763   1.824   2.847  0.8790 -1.8919 -0.4329
 5796SOL     OW29020   1.382   3.423   2.541  0.0724 -0.2972  0.0434
 5796SOL    HW129021   1.356   3.478   2.466  0.1700 -0.0390  0.1976
 5796SOL    HW229022   1.303   3.372   2.557 -1.7089  2.7734  1.2096
 5797SOL     OW29023   4.046   3.465   7.576 -0.0651 -0.1069 -0.2729
 5797SOL    HW129024   3.965   3.454   7.626 -0.6828 -0.8570 -1.4152
 5797SOL    HW229025   4.055   3.370   7.565  0.9801 -0.2544  2.0558
 5798SOL     OW29026   2.002   0.293  16.392  0.2670 -0.2723  0.9346
 5798SOL    HW129027   1.960   0.378  16.374  2.3464  0.4775 -0.4252
 5798SOL    HW229028   1.980   0.250  16.309  0.5319  0.4644  0.4747
 5799SOL     OW29029   3.013   1.688  11.104 -0.3279 -0.2274 -0.1161
 5799SOL    HW129030   3.023   1.593  11.113  0.1733  0.0158  1.8637
 5799SOL    HW229031   3.016   1.718  11.195 -1.6063 -0.5455  0.0358
 5800SOL     OW29032   0.712   2.111  11.868  0.5049  0.2314 -0.1223
 5800SOL    HW129033   0.684   2.135  11.957 -0.7141 -2.2344  0.1608
 5800SOL    HW229034   0.633   2.092  11.818  0.9201 -2.0963  0.1239
 5801SOL     OW29035   2.734   3.713   4.367  0.1971  0.1223 -0.4352
 5801SOL    HW129036   2.800   3.645   4.384  0.9229  1.1617  0.8651
 5801SOL    HW229037   2.740   3.717   4.271 -0.1425 -0.6192 -0.4944
 5802SOL     OW29038   1.758   0.478   2.204 -0.2947 -0.3825 -0.3678
 5802SOL    HW129039   1.681   0.504   2.154 -0.8761 -1.3551  0.0221
 5802SOL    HW229040   1.760   0.382   2.200  0.3167 -0.3610 -0.5739
 5803SOL     OW29041   2.916   4.691   6.490 -0.1375 -0.2177  0.0207
 5803SOL    HW129042   2.825   4.661   6.493 -0.2517  0.1148 -0.1522
 5803SOL    HW229043   2.958   4.607   6.508 -0.5646 -0.2235  1.0313
 5804SOL     OW29044   0.161   2.177  13.770 -0.3182  0.0282 -0.7096
 5804SOL    HW129045   0.141   2.231  13.693 -3.1361  0.6897  0.4772
 5804SOL    HW229046   0.080   2.129  13.782  0.4374 -1.1736 -0.4300
 5805SOL     OW29047   3.201   0.459   9.053 -0.4745  0.1073  0.7438
 5805SOL    HW129048   3.167   0.542   9.019 -2.0666 -1.5535 -1.7195
 5805SOL    HW229049   3.248   0.434   8.974 -1.9677  0.2394 -0.1787
 5806SOL     OW29050   4.398   4.386   5.426  0.7397 -0.5825 -0.2060
 5806SOL    HW129051   4.452   4.398   5.348  0.0971 -1.9167 -0.8660
 5806SOL    HW229052   4.358   4.473   5.434  2.2775  0.0892  0.0504
 5807SOL     OW29053   4.160   1.512  10.432  0.2773  0.5511  0.5170
 5807SOL    HW129054   4.087   1.520  10.371  0.2106  0.6431  0.6094
 5807SOL    HW229055   4.117   1.537  10.514  2.1525  0.8692  1.4014
 5808SOL     OW29056   1.729   0.836   8.133 -0.5915 -0.2589 -0.0686
 5808SOL    HW129057   1.669   0.763   8.119 -0.1140 -0.6851  0.0901
 5808SOL    HW229058   1.745   0.832   8.227  1.9215 -1.4195 -0.5301
 5809SOL     OW29059   0.103   0.347  15.341  0.1499  0.0880  0.3111
 5809SOL    HW129060   0.055   0.379  15.265  0.7096 -3.3734 -1.4498
 5809SOL    HW229061   0.112   0.254  15.323  3.4994  0.8720 -2.0692
 5810SOL     OW29062   1.074   2.313  11.270  0.2019 -0.3316 -0.5655
 5810SOL    HW129063   1.028   2.299  11.352 -1.6946 -1.6243 -1.8608
 5810SOL    HW229064   1.143   2.374  11.296 -1.0588  2.2718 -3.3293
 5811SOL     OW29065   1.624   2.873  14.823 -0.1971  0.5717 -0.1584
 5811SOL    HW129066   1.670   2.803  14.869 -0.4565  0.2236 -0.4316
 5811SOL    HW229067   1.555   2.897  14.885  1.6444  1.3853  1.5462
 5812SOL     OW29068   4.185   3.274   8.929  0.3154  0.4067 -1.0759
 5812SOL    HW129069   4.205   3.239   9.015 -1.0243  0.0291 -0.9145
 5812SOL    HW229070   4.273   3.300   8.902  0.3813 -0.8441 -2.0785
 5813SOL     OW29071   1.848   4.483   4.033  0.2734 -0.7285 -0.1503
 5813SOL    HW129072   1.896   4.480   3.950  0.4350 -0.0617 -0.0821
 5813SOL    HW229073   1.833   4.388   4.034 -0.2116 -0.6607 -0.7057
 5814SOL     OW29074   3.134   3.379  10.082 -0.1413  0.4326  0.2061
 5814SOL    HW129075   3.154   3.286  10.084  0.8489  0.5542 -3.7356
 5814SOL    HW229076   3.054   3.387  10.134  0.3024  1.9259  0.6786
 5815SOL     OW29077   2.829   1.671  17.399 -0.0435  0.7494  1.0345
 5815SOL    HW129078   2.753   1.613  17.407 -1.4559  2.7338  1.8670
 5815SOL    HW229079   2.795   1.756  17.427  0.7283  1.4006 -0.0017
 5816SOL     OW29080   0.382   0.319   4.111 -0.0323 -0.0064 -0.1139
 5816SOL    HW129081   0.420   0.250   4.057  0.4650 -0.9335  1.4246
 5816SOL    HW229082   0.452   0.379   4.137  0.2001 -1.0067  1.5277
 5817SOL     OW29083   1.835   1.033  11.172 -0.4681  0.2598  0.0037
 5817SOL    HW129084   1.892   1.027  11.249 -1.7527  0.0900  0.9507
 5817SOL    HW229085   1.806   1.124  11.176 -1.1613  0.0246  0.4175
 5818SOL     OW29086   4.307   3.686   1.337  0.6388  0.3628  0.0655
 5818SOL    HW129087   4.221   3.721   1.312 -1.6183 -4.6821  0.6888
 5818SOL    HW229088   4.299   3.694   1.432 -1.3884  1.0452 -0.1565
 5819SOL     OW29089   0.674   0.428   9.941 -0.0495 -0.0195 -0.2882
 5819SOL    HW129090   0.686   0.475  10.024  0.8156 -1.7235  0.5573
 5819SOL    HW229091   0.711   0.484   9.873 -0.7061  0.5727 -0.1557
 5820SOL     OW29092   2.944   0.666   2.628  0.1826 -0.1240  0.0873
 5820SOL    HW129093   3.003   0.733   2.660  2.8478 -1.5731 -1.7735
 5820SOL    HW229094   2.991   0.602   2.575 -2.4963 -0.4708 -1.8878
 5821SOL     OW29095   2.028   3.491  16.101 -0.2305  0.0189  0.6057
 5821SOL    HW129096   2.095   3.546  16.061  0.6360  0.1213  2.1864
 5821SOL    HW229097   2.076   3.410  16.083 -0.0122  0.5442 -1.1686
 5822SOL     OW29098   0.790   0.660   3.918  0.4510 -0.3087 -0.2076
 5822SOL    HW129099   0.706   0.635   3.880  0.9750 -2.2013 -0.1286
 5822SOL    HW229100   0.845   0.632   3.844  0.4875 -2.5076  0.6518
 5823SOL     OW29101   4.591   3.844   4.826 -0.2672  0.7442 -0.0403
 5823SOL    HW129102   4.645   3.816   4.752  1.4770  0.7504  1.2370
 5823SOL    HW229103   4.543   3.763   4.842 -0.2626  1.1143  1.8005
 5824SOL     OW29104   1.028   1.432   7.649 -0.4324  0.3124  0.1477
 5824SOL    HW129105   1.004   1.434   7.557  0.0484  1.5107  0.0464
 5824SOL    HW229106   1.123   1.446   7.647 -0.1293 -1.5611  0.8379
 5825SOL     OW29107   3.558   2.115   4.021  0.4526 -0.1359 -0.2344
 5825SOL    HW129108   3.570   2.205   3.991  0.6303 -0.3762 -0.8842
 5825SOL    HW229109   3.635   2.077   3.979  0.5422 -0.3897  0.1615
 5826SOL     OW29110   4.320   0.161   2.888  0.1055  0.5952  0.5150
 5826SOL    HW129111   4.231   0.196   2.879 -0.1896  0.1017  1.5167
 5826SOL    HW229112   4.361   0.239   2.926  0.6989  0.6077 -0.1455
 5827SOL     OW29113   4.121   1.031   4.345 -0.8828  0.3485 -0.9051
 5827SOL    HW129114   4.035   1.066   4.322 -1.3210  0.0929  0.3454
 5827SOL    HW229115   4.106   0.962   4.409 -0.4700  0.3570 -0.8000
 5828SOL     OW29116   4.045   4.529   3.744 -0.0281  0.4582 -0.0414
 5828SOL    HW129117   4.056   4.456   3.683 -3.9353  1.4016 -1.8845
 5828SOL    HW229118   4.110   4.503   3.809 -2.6445 -3.6374  0.8916
 5829SOL     OW29119   1.538   0.801   7.392 -0.0193  0.0918  0.2587
 5829SOL    HW129120   1.622   0.765   7.364 -0.0410  0.4007 -0.1910
 5829SOL    HW229121   1.515   0.861   7.322  2.0242  0.1591 -0.3446
 5830SOL     OW29122   4.471   3.147   9.521  0.0621 -0.3534  0.5745
 5830SOL    HW129123   4.379   3.123   9.531 -0.8616  2.2566 -1.5809
 5830SOL    HW229124   4.482   3.207   9.595 -0.8923 -0.5364  0.8632
 5831SOL     OW29125   1.015   0.241   3.318 -0.0810 -0.3905  0.1790
 5831SOL    HW129126   1.042   0.255   3.227 -0.9098 -0.8712 -0.1455
 5831SOL    HW229127   0.943   0.182   3.296  0.8207 -1.3953 -0.0497
 5832SOL     OW29128   1.666   0.239   3.582 -0.3677  0.1679 -0.6663
 5832SOL    HW129129   1.619   0.314   3.546  0.2741  1.5800  1.4511
 5832SOL    HW229130   1.610   0.166   3.556 -0.6324  0.2364 -0.2833
 5833SOL     OW29131   1.312   4.099   4.996  0.2458  0.4156 -0.3884
 5833SOL    HW129132   1.229   4.053   5.009 -0.6536  1.8915 -1.0325
 5833SOL    HW229133   1.347   4.051   4.921  1.4010  0.5331  0.0659
 5834SOL     OW29134   1.086   2.374   3.271 -0.0835  0.2462  0.1363
 5834SOL    HW129135   1.013   2.383   3.210  0.4703 -1.5665 -0.7592
 5834SOL    HW229136   1.133   2.457   3.260  0.3493  0.1810  1.4917
 5835SOL     OW29137   1.428   1.708  11.776  0.0778 -0.5938 -0.3954
 5835SOL    HW129138   1.480   1.641  11.821 -1.1327 -1.2909 -0.0374
 5835SOL    HW229139   1.343   1.702  11.819  0.1918  0.8902  0.0321
 5836SOL     OW29140   4.277   3.706   5.185 -0.8892 -0.0775  0.1057
 5836SOL    HW129141   4.307   3.682   5.273 -1.0258  0.1324  0.2084
 5836SOL    HW229142   4.182   3.716   5.183 -1.0788 -1.5517  1.4310
 5837SOL     OW29143   1.609   0.456  16.793  0.3171  0.3854  0.1950
 5837SOL    HW129144   1.594   0.526  16.729 -0.9973  0.0354  0.1156
 5837SOL    HW229145   1.516   0.447  16.813  0.6549 -1.8289  0.7713
 5838SOL     OW29146   0.064   4.042  12.720  0.5794  0.3566  0.2097
 5838SOL    HW129147   0.067   3.946  12.712 -0.1409  0.4120 -0.8090
 5838SOL    HW229148   0.107   4.073  12.640 -0.3961  0.4360 -0.2845
 5839SOL     OW29149   0.680   0.346   6.152  0.0597  0.0654 -0.0335
 5839SOL    HW129150   0.731   0.291   6.211  0.9220  0.1758 -0.6732
 5839SOL    HW229151   0.698   0.317   6.062 -1.6335 -0.4912 -0.1883
 5840SOL     OW29152   1.823   2.318   0.341  0.2744  0.1212  0.1918
 5840SOL    HW129153   1.822   2.223   0.352  0.9892  0.1716  0.7587
 5840SOL    HW229154   1.790   2.329   0.252 -0.2395  0.1703  0.3882
 5841SOL     OW29155   3.560   2.972   8.746  0.4146  0.4453  0.1401
 5841SOL    HW129156   3.502   3.047   8.762 -0.5117  0.7332 -4.4456
 5841SOL    HW229157   3.637   3.012   8.786 -0.3774  0.9224  1.1580
 5842SOL     OW29158   3.957   0.224   6.640 -0.2906  0.0577  0.5026
 5842SOL    HW129159   4.044   0.262   6.651  0.4369 -1.1650 -0.9319
 5842SOL    HW229160   3.955   0.159   6.709 -2.1539  1.1875  1.5330
 5843SOL     OW29161   2.456   2.475   1.361  0.0163  0.4249  0.6143
 5843SOL    HW129162   2.522   2.441   1.421 -0.1762 -1.0209  0.0341
 5843SOL    HW229163   2.462   2.566   1.387  2.6291  0.2609  0.6147
 5844SOL     OW29164   3.007   1.613   3.348  0.2838  0.5143  0.1943
 5844SOL    HW129165   2.990   1.701   3.314  0.5691  0.0297 -1.2229
 5844SOL    HW229166   2.985   1.625   3.440  0.2237 -0.6517  0.3372
 5845SOL     OW29167   1.905   3.881  11.232  0.5251  0.1220  0.3710
 5845SOL    HW129168   1.869   3.869  11.320 -2.1152  0.8421 -0.6090
 5845SOL    HW229169   1.977   3.938  11.258  0.5175  0.3187 -0.0434
 5846SOL     OW29170   0.509   0.638  13.579  0.1167  0.0885  0.5070
 5846SOL    HW129171   0.521   0.710  13.641  1.2701  0.7980 -0.5434
 5846SOL    HW229172   0.522   0.559  13.632 -2.6653 -0.1781  0.7789
 5847SOL     OW29173   0.157   4.007   5.744  0.2786  0.3905 -0.4003
 5847SOL    HW129174   0.205   3.965   5.673  0.3666 -1.3967  0.7167
 5847SOL    HW229175   0.079   3.953   5.758  1.7864 -1.6094  0.3382
 5848SOL     OW29176   4.076   0.809  11.665  0.2411 -0.3358 -0.0669
 5848SOL    HW129177   4.066   0.716  11.681  1.9222 -0.6540 -0.8974
 5848SOL    HW229178   4.109   0.845  11.748 -3.4620  1.0858  0.8226
 5849SOL     OW29179   2.643   2.996   2.076  0.3169 -0.2944  0.1823
 5849SOL    HW129180   2.597   3.056   2.135  0.3810 -0.8780  0.8276
 5849SOL    HW229181   2.574   2.994   2.010 -1.8250 -0.8503  2.4100
 5850SOL     OW29182   3.535   4.611   9.092 -0.2120  0.1114  0.1560
 5850SOL    HW129183   3.456   4.559   9.108 -1.9398  2.3629 -1.0410
 5850SOL    HW229184   3.591   4.539   9.119 -0.3112  0.2087  0.6384
 5851SOL     OW29185   1.619   3.863   7.577 -0.0355  0.5191 -0.5537
 5851SOL    HW129186   1.548   3.912   7.619 -0.2321 -0.0051 -0.2780
 5851SOL    HW229187   1.683   3.930   7.551  0.2912  0.6592  0.6139
 5852SOL     OW29188   3.407   4.262   2.004  0.5103 -0.7679 -0.7398
 5852SOL    HW129189   3.467   4.313   2.057 -0.5973  0.2274 -0.4637
 5852SOL    HW229190   3.468   4.225   1.939  0.8654  1.8266 -1.8714
 5853SOL     OW29191   3.595   1.144   2.488 -0.3394 -0.2419 -0.5203
 5853SOL    HW129192   3.561   1.166   2.401 -1.7402 -0.3178  0.0109
 5853SOL    HW229193   3.648   1.066   2.470 -0.4997 -0.0927 -1.6764
 5854SOL     OW29194   4.043   2.427   4.784  0.6722  0.2903  0.2632
 5854SOL    HW129195   4.011   2.462   4.701 -0.5858  3.6474  2.1747
 5854SOL    HW229196   3.990   2.351   4.806  1.3374 -0.1758  0.2599
 5855SOL     OW29197   1.195   4.737  10.513  0.0198  0.1234 -0.5974
 5855SOL    HW129198   1.122   0.043  10.470  0.0242 -0.2995 -1.0354
 5855SOL    HW229199   1.142   4.666  10.549 -1.3404  1.9101  0.9784
 5856SOL     OW29200   0.882   0.396   2.643  0.4938  0.3393  0.2524
 5856SOL    HW129201   0.887   0.329   2.575 -1.7494  0.0113  0.3984
 5856SOL    HW229202   0.789   0.420   2.640  0.3386 -0.3931 -0.8537
 5857SOL     OW29203   3.782   2.211   1.636  0.0702  0.1887  0.1522
 5857SOL    HW129204   3.846   2.163   1.583  1.9443  1.1277  1.5614
 5857SOL    HW229205   3.707   2.156   1.612 -1.5571  2.3762  0.2989
 5858SOL     OW29206   2.978   2.704   3.500  0.4632  0.7768  0.0923
 5858SOL    HW129207   3.026   2.652   3.565  0.4119 -1.7395 -1.9001
 5858SOL    HW229208   3.052   2.737   3.450  1.8308  0.5528  1.9484
 5859SOL     OW29209   1.581   1.601   0.356  0.0573  0.0145  0.0979
 5859SOL    HW129210   1.663   1.559   0.331 -0.8912 -0.1390 -2.7623
 5859SOL    HW229211   1.543   1.597   0.268  0.7912 -0.8249 -0.1752
 5860SOL     OW29212   2.813   0.337   5.227 -0.3881  0.0682  0.2371
 5860SOL    HW129213   2.735   0.342   5.282  0.4247  1.6649  1.2552
 5860SOL    HW229214   2.878   0.347   5.297 -1.4090  3.1542  0.7692
 5861SOL     OW29215   1.424   4.247   9.247  0.6958  0.2910  0.5803
 5861SOL    HW129216   1.345   4.194   9.255  0.6625  0.5524  2.0800
 5861SOL    HW229217   1.433   4.252   9.152  0.6617  1.3098  0.6267
 5862SOL     OW29218   2.737   2.650   3.340  0.1247  0.8031  0.1631
 5862SOL    HW129219   2.741   2.714   3.269  1.4846 -1.9371 -2.2006
 5862SOL    HW229220   2.823   2.665   3.378 -0.5844  2.4335  1.1268
 5863SOL     OW29221   0.528   1.908  12.608  0.2727  0.1487 -0.6873
 5863SOL    HW129222   0.589   1.875  12.542 -0.8748 -0.3111 -1.5028
 5863SOL    HW229223   0.490   1.987  12.571 -1.3759 -0.0892  0.5056
 5864SOL     OW29224   0.152   3.408   0.144  0.3154 -0.3406 -0.0195
 5864SOL    HW129225   0.138   3.379   0.054  0.5833  0.2193 -0.2440
 5864SOL    HW229226   0.227   3.458   0.110 -0.5712 -0.9531 -2.8894
 5865SOL     OW29227   2.051   4.115   6.470  0.5364  0.4813  0.2010
 5865SOL    HW129228   1.998   4.183   6.430 -1.6080 -0.6534  1.1038
 5865SOL    HW229229   2.054   4.048   6.402 -0.2596 -2.0429  2.6624
 5866SOL     OW29230   4.686   3.810  16.891 -0.4867 -0.6405 -0.7425
 5866SOL    HW129231   0.011   3.879  16.910 -1.3481 -0.3032  0.8879
 5866SOL    HW229232   4.617   3.854  16.841 -0.8538 -0.5966 -0.1966
 5867SOL     OW29233   1.713   3.304   7.497 -0.0659  0.3285  0.4125
 5867SOL    HW129234   1.639   3.365   7.499 -3.5124 -3.8579  1.3349
 5867SOL    HW229235   1.771   3.347   7.559  2.5714 -0.2770 -1.6509
 5868SOL     OW29236   4.480   2.711   4.665 -0.1805 -0.4182  0.3052
 5868SOL    HW129237   4.449   2.629   4.626 -2.0973  0.3202  0.2633
 5868SOL    HW229238   4.515   2.678   4.748  1.4530  4.1648  1.4069
 5869SOL     OW29239   1.217   4.360   5.112 -1.2316 -0.1161 -0.3485
 5869SOL    HW129240   1.252   4.283   5.067 -0.4631  0.5876 -0.9525
 5869SOL    HW229241   1.124   4.335   5.116 -1.0171 -0.7857  0.3298
 5870SOL     OW29242   3.190   3.211  17.465  0.4588  0.2095 -0.1059
 5870SOL    HW129243   3.266   3.161  17.495 -2.3001 -3.5651  0.6544
 5870SOL    HW229244   3.196   3.281  17.531  1.9258 -0.3206  0.3220
 5871SOL     OW29245   3.429   0.652   8.047  0.5890 -0.5452  0.3051
 5871SOL    HW129246   3.465   0.633   7.961  0.2154  3.1283 -0.6631
 5871SOL    HW229247   3.335   0.644   8.030  1.2388 -2.4167 -2.5273
 5872SOL     OW29248   1.515   2.084  16.000  0.1260  0.0544  0.1997
 5872SOL    HW129249   1.495   2.088  16.093 -0.7954  0.3557 -0.0127
 5872SOL    HW229250   1.600   2.125  15.989 -0.2709  1.2258  1.6350
 5873SOL     OW29251   1.917   2.735  12.595  0.0919 -0.2952 -0.6121
 5873SOL    HW129252   1.978   2.742  12.668 -0.8729 -1.1767  0.2896
 5873SOL    HW229253   1.924   2.819  12.551 -0.7393 -0.5788 -1.3018
 5874SOL     OW29254   0.341   0.656  14.903  0.1823 -0.3525 -0.5188
 5874SOL    HW129255   0.340   0.752  14.901  1.8924 -0.3320 -0.4053
 5874SOL    HW229256   0.347   0.623  14.813  1.3419 -0.2986 -0.4679
 5875SOL     OW29257   2.885   4.668   2.397  0.1046 -0.5603  0.3022
 5875SOL    HW129258   2.813   4.693   2.339  0.1331 -2.7469 -0.6720
 5875SOL    HW229259   2.933   4.606   2.342  0.6758 -0.7677  1.0416
 5876SOL     OW29260   3.115   3.482   8.134  0.6418 -0.0592  0.1243
 5876SOL    HW129261   3.075   3.553   8.083 -0.4075 -0.7093  0.0421
 5876SOL    HW229262   3.132   3.532   8.214 -1.4008 -1.3591  1.3791
 5877SOL     OW29263   3.348   0.599   3.555  0.2545 -0.0153 -0.2118
 5877SOL    HW129264   3.374   0.675   3.504  0.4890 -1.8461 -2.8329
 5877SOL    HW229265   3.312   0.544   3.485 -0.6106 -1.9028  1.7087
 5878SOL     OW29266   3.366   1.082   1.988  0.0570 -0.3585  0.1592
 5878SOL    HW129267   3.320   1.022   2.047 -0.9118  1.1877  0.9692
 5878SOL    HW229268   3.439   1.023   1.967 -0.0416 -1.0316  1.7163
 5879SOL     OW29269   4.613   0.440  11.445 -0.4188  0.1565  0.0422
 5879SOL    HW129270   4.686   0.409  11.392 -0.5265 -0.7000  0.3915
 5879SOL    HW229271   4.605   0.367  11.507 -1.6648 -1.3302 -1.8662
 5880SOL     OW29272   4.238   3.318   7.942 -0.1937 -0.0802 -0.2499
 5880SOL    HW129273   4.308   3.281   7.889 -0.8830 -1.8989  0.1188
 5880SOL    HW229274   4.192   3.239   7.969  0.6734 -0.6845 -0.5689
 5881SOL     OW29275   3.914   1.767   7.440 -0.4364  0.3869  0.1650
 5881SOL    HW129276   3.879   1.833   7.500  2.4449  1.6655  0.4632
 5881SOL    HW229277   3.928   1.693   7.498  0.7190 -0.0721 -0.7071
 5882SOL     OW29278   0.166   4.499  12.310  0.2745  0.4269  0.1893
 5882SOL    HW129279   0.100   4.509  12.379 -0.2421  5.2758 -1.0292
 5882SOL    HW229280   0.122   4.546  12.240 -1.4098 -1.7607 -0.2169
 5883SOL     OW29281   3.675   0.338   2.206  0.1442  0.5855  0.4374
 5883SOL    HW129282   3.610   0.271   2.186 -0.8570  1.1626  1.7519
 5883SOL    HW229283   3.681   0.384   2.122  0.0340  2.8025  1.6205
 5884SOL     OW29284   2.158   0.107   5.483  0.5183  0.1420 -0.1321
 5884SOL    HW129285   2.114   0.159   5.416 -0.1477  2.0233  1.7686
 5884SOL    HW229286   2.168   0.163   5.560 -1.0129 -0.7466  0.7042
 5885SOL     OW29287   2.319   2.720   2.176  0.1256 -0.8280 -0.0421
 5885SOL    HW129288   2.334   2.789   2.241  2.9344 -0.3978 -1.1674
 5885SOL    HW229289   2.320   2.763   2.091  0.4588 -2.1433 -0.7039
 5886SOL     OW29290   4.037   2.747   1.407  0.2294  0.3495  0.2344
 5886SOL    HW129291   3.991   2.823   1.370  0.2298  0.7870  1.1401
 5886SOL    HW229292   3.991   2.737   1.490 -0.1729 -0.9117 -0.1414
 5887SOL     OW29293   3.151   2.336   4.405  0.2522  0.1525 -0.2556
 5887SOL    HW129294   3.225   2.298   4.356  0.9173 -0.4233  1.1906
 5887SOL    HW229295   3.174   2.428   4.418  1.5124 -0.4572  1.7056
 5888SOL     OW29296   0.249   3.513   6.685  0.1909  0.0889 -0.1730
 5888SOL    HW129297   0.200   3.594   6.674 -1.1815 -0.6227  0.6733
 5888SOL    HW229298   0.258   3.526   6.780  1.2808  0.0597 -0.2729
 5889SOL     OW29299   3.732   4.334   3.473 -0.5201  0.0383  0.5452
 5889SOL    HW129300   3.734   4.417   3.426  4.8209  0.0581  0.8466
 5889SOL    HW229301   3.814   4.340   3.521 -0.3055  0.3831  0.1352
 5890SOL     OW29302   3.898   1.396  14.085 -0.2868 -0.0740 -0.2979
 5890SOL    HW129303   3.824   1.456  14.073 -0.9388 -1.0227 -1.1119
 5890SOL    HW229304   3.928   1.405  13.994 -0.6006 -2.5895 -0.6473
 5891SOL     OW29305   3.128   0.927   9.407  0.7957  0.3353 -0.1446
 5891SOL    HW129306   3.055   0.899   9.463 -1.3151  1.8522 -2.0993
 5891SOL    HW229307   3.131   0.852   9.348  0.8776 -0.4570  0.8771
 5892SOL     OW29308   4.637   0.833   4.362  0.2794  0.2459 -0.2753
 5892SOL    HW129309   4.570   0.853   4.427 -0.8902 -2.0827 -0.7942
 5892SOL    HW229310   4.651   0.738   4.368 -1.4847  0.1797  2.8215
 5893SOL     OW29311   1.804   3.496   9.041 -0.4635 -0.3556  0.4834
 5893SOL    HW129312   1.838   3.441   9.112 -1.6915 -2.1447 -0.3020
 5893SOL    HW229313   1.885   3.508   8.991  0.6434 -0.3769  2.2660
 5894SOL     OW29314   3.133   2.018  17.269  0.2284 -0.5621 -0.6693
 5894SOL    HW129315   3.043   1.990  17.286  0.2730  0.0045  0.4781
 5894SOL    HW229316   3.181   1.937  17.285  2.0843  0.6676 -0.1109
 5895SOL     OW29317   0.634   2.060   2.639 -0.6357  0.3597  0.2781
 5895SOL    HW129318   0.613   1.999   2.709 -0.4132 -0.4421 -0.3575
 5895SOL    HW229319   0.720   2.027   2.612 -0.2022  1.5237  0.2466
 5896SOL     OW29320   3.420   2.024   4.241  0.3701  0.5465  0.6565
 5896SOL    HW129321   3.364   2.101   4.246  1.1328  1.2936 -2.0429
 5896SOL    HW229322   3.463   2.042   4.157  0.0133 -0.2962  0.2873
 5897SOL     OW29323   2.161   0.779   7.113 -0.2256  0.2201 -0.5214
 5897SOL    HW129324   2.226   0.826   7.059 -0.6673  3.1527  1.5348
 5897SOL    HW229325   2.082   0.828   7.092  0.0318  0.4163 -1.0433
 5898SOL     OW29326   2.997   0.445   9.685 -0.1276 -0.5682 -0.4402
 5898SOL    HW129327   3.082   0.488   9.696 -1.4700  1.3233  2.3235
 5898SOL    HW229328   2.941   0.514   9.719  1.0892 -0.4388  1.2751
 5899SOL     OW29329   3.711   0.421   1.240  0.1803 -0.2842 -0.5409
 5899SOL    HW129330   3.701   0.515   1.230 -1.1465 -0.3160  0.4088
 5899SOL    HW229331   3.724   0.395   1.149 -0.3584  1.9370 -1.2524
 5900SOL     OW29332   1.189   4.678   6.805 -0.2841 -0.1913 -0.1011
 5900SOL    HW129333   1.265   4.622   6.789  0.6759  0.3323  2.6849
 5900SOL    HW229334   1.136   4.601   6.826  2.6273 -2.3914 -0.9059
 5901SOL     OW29335   1.910   0.342   0.795 -0.0494  0.9932 -0.5743
 5901SOL    HW129336   1.843   0.347   0.727  0.7023  0.2625 -1.3743
 5901SOL    HW229337   1.985   0.373   0.745  0.5388  0.9680  0.2973
 5902SOL     OW29338   1.677   3.076   8.390  0.4591 -0.6560  0.0431
 5902SOL    HW129339   1.633   3.020   8.455 -0.1288  0.6734  0.7917
 5902SOL    HW229340   1.623   3.154   8.393  1.0970 -0.3509  3.3716
 5903SOL     OW29341   2.624   0.189   9.782 -0.0758 -0.3666  0.6754
 5903SOL    HW129342   2.680   0.200   9.859  0.2646 -0.7372  0.4803
 5903SOL    HW229343   2.635   0.096   9.764  2.5629 -0.2652  1.7429
 5904SOL     OW29344   1.266   4.076   1.272  0.3042  0.3017  0.1139
 5904SOL    HW129345   1.294   4.084   1.180  2.1740 -0.8279  0.5684
 5904SOL    HW229346   1.274   4.164   1.308  3.4494 -0.0894  0.3864
 5905SOL     OW29347   2.790   0.606   6.625  0.1137 -0.3793 -0.0273
 5905SOL    HW129348   2.822   0.529   6.673 -1.9060 -1.6104 -0.6308
 5905SOL    HW229349   2.720   0.564   6.576  0.8690  0.1905 -1.6157
 5906SOL     OW29350   3.289   3.955   3.107 -0.1128  0.4206  0.3418
 5906SOL    HW129351   3.209   3.957   3.055  0.5283  0.6939 -0.6228
 5906SOL    HW229352   3.279   3.867   3.143  1.0458  0.5004  0.8754
 5907SOL     OW29353   2.374   0.768   4.746  0.1611  0.7229  0.5692
 5907SOL    HW129354   2.460   0.771   4.788  0.7831 -1.1480 -0.5836
 5907SOL    HW229355   2.381   0.703   4.676  1.3153  2.5181 -1.0119
 5908SOL     OW29356   2.448   0.634  17.218  0.6093  0.0442 -0.2298
 5908SOL    HW129357   2.431   0.619  17.311  0.4913  0.3157 -0.2064
 5908SOL    HW229358   2.360   0.638  17.179 -0.4989  0.6351  2.3578
 5909SOL     OW29359   0.310   1.910   8.984 -0.1703 -0.1157 -0.3761
 5909SOL    HW129360   0.286   1.870   9.068  1.1597  1.3994  0.7167
 5909SOL    HW229361   0.394   1.866   8.973 -0.1819 -0.1066 -0.5006
 5910SOL     OW29362   1.011   2.662   6.420  0.1130  0.4710 -1.0531
 5910SOL    HW129363   0.953   2.691   6.490  0.3071 -3.2941  0.6863
 5910SOL    HW229364   0.946   2.652   6.350 -0.3947  0.7944 -0.6243
 5911SOL     OW29365   1.716   1.359  17.704  0.1845  1.0320  0.1935
 5911SOL    HW129366   1.796   1.312  17.685 -1.1356 -1.5558  1.0893
 5911SOL    HW229367   1.644   1.299  17.685  1.7978 -0.9212  0.3995
 5912SOL     OW29368   3.501   2.301   9.978 -0.6760  0.1372  0.1487
 5912SOL    HW129369   3.531   2.340   9.897  1.1488 -1.1292  0.2127
 5912SOL    HW229370   3.432   2.248   9.938  1.6140 -0.2416 -3.2937
 5913SOL     OW29371   3.030   3.259   8.669  0.0267 -0.2762  0.3027
 5913SOL    HW129372   2.936   3.265   8.652  0.2369 -2.7938 -1.6543
 5913SOL    HW229373   3.080   3.271   8.588  0.5477  0.2655  0.7022
 5914SOL     OW29374   0.970   1.710  12.085  0.3549 -0.0309 -0.7144
 5914SOL    HW129375   0.944   1.651  12.156  1.3973 -0.1360 -0.4286
 5914SOL    HW229376   0.911   1.785  12.090  1.2409  0.5032  1.6544
 5915SOL     OW29377   4.025   4.440   4.922 -0.2246 -0.6165 -0.2765
 5915SOL    HW129378   4.009   4.352   4.889  1.8359 -0.5780 -1.3927
 5915SOL    HW229379   3.953   4.490   4.884 -0.2932 -0.3835  0.1653
 5916SOL     OW29380   1.461   0.322   9.283 -0.1880  0.2754  0.0795
 5916SOL    HW129381   1.520   0.251   9.309  0.3376  0.3270 -0.9533
 5916SOL    HW229382   1.489   0.354   9.197 -2.9763  2.4751 -0.0052
 5917SOL     OW29383   2.165   1.898   6.906  0.1973  0.0039  0.1578
 5917SOL    HW129384   2.137   1.848   6.830 -2.3605 -0.1900  1.2377
 5917SOL    HW229385   2.113   1.865   6.979 -2.8713 -1.6291 -2.7960
 5918SOL     OW29386   1.518   0.430   4.359 -0.4417  0.5274  0.0495
 5918SOL    HW129387   1.482   0.517   4.346  1.2505  0.7372 -3.2990
 5918SOL    HW229388   1.609   0.436   4.328 -0.4133 -1.4469 -0.2722
 5919SOL     OW29389   4.475   4.465   9.129 -0.4415  0.4595  0.0328
 5919SOL    HW129390   4.501   4.389   9.078  2.3926  2.1017 -0.9219
 5919SOL    HW229391   4.509   4.540   9.081 -1.2602 -1.5249 -3.6313
 5920SOL     OW29392   1.685   3.624   1.596 -0.2176  0.1167  0.1097
 5920SOL    HW129393   1.640   3.575   1.665  1.0211  0.6582  1.3167
 5920SOL    HW229394   1.615   3.675   1.555  1.3792  2.3493  0.1576
 5921SOL     OW29395   4.170   0.869  16.075 -0.6619  0.4562 -0.5143
 5921SOL    HW129396   4.191   0.922  16.151  0.8219  0.8422 -1.2054
 5921SOL    HW229397   4.154   0.926  16.000 -0.0014  1.8866  0.4432
 5922SOL     OW29398   1.806   1.331  11.160  0.0326  0.0086 -0.1340
 5922SOL    HW129399   1.728   1.353  11.109  2.0254 -1.1336 -3.7279
 5922SOL    HW229400   1.877   1.322  11.096  0.0482 -0.6726 -0.0126
 5923SOL     OW29401   4.195   2.159   6.986 -0.5087  0.1787 -0.4151
 5923SOL    HW129402   4.194   2.222   7.058 -2.0959  1.0379 -1.2034
 5923SOL    HW229403   4.210   2.209   6.905  0.3305  1.5913  0.6208
 5924SOL     OW29404   4.403   1.420   0.806  0.4873  0.3976  0.0411
 5924SOL    HW129405   4.381   1.340   0.854  1.0214  0.0298 -0.3346
 5924SOL    HW229406   4.489   1.407   0.768 -0.5196  1.0008 -2.4090
 5925SOL     OW29407   2.002   0.646   8.985 -0.4445  0.1761  0.0743
 5925SOL    HW129408   1.932   0.585   9.010  0.3066 -0.9736 -0.6238
 5925SOL    HW229409   2.074   0.583   8.983 -0.7838 -0.1339 -2.0015
 5926SOL     OW29410   2.535   1.829   8.544 -0.2654  0.2541  0.4259
 5926SOL    HW129411   2.582   1.857   8.622  2.0676 -1.8955 -0.2030
 5926SOL    HW229412   2.591   1.764   8.501  0.8260 -0.1019  2.4030
 5927SOL     OW29413   3.231   3.190   5.129 -0.2545  0.5399  0.3757
 5927SOL    HW129414   3.287   3.139   5.071  1.3808  2.2657  0.4228
 5927SOL    HW229415   3.209   3.259   5.065 -0.6382  1.1960  1.2184
 5928SOL     OW29416   2.212   4.328  10.088  0.0221  0.3368  0.4831
 5928SOL    HW129417   2.131   4.341  10.138  0.1411  1.6834  0.3331
 5928SOL    HW229418   2.180   4.362  10.004 -2.0772  0.4999  1.3553
 5929SOL     OW29419   1.812   1.752   1.647  0.1653 -0.2866  0.3190
 5929SOL    HW129420   1.817   1.780   1.556 -0.1094 -0.7372  0.1653
 5929SOL    HW229421   1.717   1.741   1.656  0.2969 -1.4235  0.3134
 5930SOL     OW29422   4.271   0.144   4.708 -0.0839 -0.0022 -0.1591
 5930SOL    HW129423   4.275   0.239   4.699 -0.5441  0.0753  0.4591
 5930SOL    HW229424   4.313   0.134   4.793 -0.9671  0.0279  0.2789
 5931SOL     OW29425   3.934   3.400  10.456  0.4169 -0.7996  0.1626
 5931SOL    HW129426   3.888   3.363  10.380 -2.1046 -1.5109  2.0117
 5931SOL    HW229427   3.928   3.325  10.515 -1.1117 -0.0019  1.0314
 5932SOL     OW29428   3.392   0.515   9.302 -0.2196 -0.1525 -0.2034
 5932SOL    HW129429   3.422   0.428   9.331 -0.0142 -0.0142 -0.0043
 5932SOL    HW229430   3.348   0.499   9.218  1.2428 -2.0082 -0.6191
 5933SOL     OW29431   0.177   3.974   2.089 -0.1654  0.2627 -0.1828
 5933SOL    HW129432   0.133   3.890   2.075  2.5776 -1.1207 -0.4428
 5933SOL    HW229433   0.098   4.028   2.083  1.6655  2.6253 -3.1281
 5934SOL     OW29434   1.586   1.560   1.482  0.5335  0.4149  0.0124
 5934SOL    HW129435   1.646   1.506   1.532 -1.3524 -3.4028 -1.8350
 5934SOL    HW229436   1.571   1.636   1.538 -1.5598 -0.1745  0.2587
 5935SOL     OW29437   3.516   2.817   5.681 -0.4955  0.0892  0.2016
 5935SOL    HW129438   3.513   2.744   5.744 -1.2414  0.6708  0.8403
 5935SOL    HW229439   3.433   2.864   5.691 -1.4775 -1.3220 -1.3460
 5936SOL     OW29440   3.037   0.735   8.561  0.5602  0.0814 -0.0056
 5936SOL    HW129441   3.089   0.785   8.623  1.8290 -3.8061  2.0727
 5936SOL    HW229442   3.108   0.704   8.505 -0.6211 -1.1794 -0.8190
 5937SOL     OW29443   1.170   3.089   2.377 -0.4455  0.5210  0.2006
 5937SOL    HW129444   1.120   3.159   2.420 -0.5459 -1.9376  4.0943
 5937SOL    HW229445   1.155   3.103   2.284  1.6333  0.6613 -0.0958
 5938SOL     OW29446   2.250   3.427   2.328 -0.4028  0.0965  0.4821
 5938SOL    HW129447   2.330   3.459   2.369 -0.2136 -0.1194  0.2794
 5938SOL    HW229448   2.206   3.399   2.409 -0.0469  1.3028  1.0966
 5939SOL     OW29449   3.216   1.214  17.415  0.6013 -0.1226  0.0511
 5939SOL    HW129450   3.178   1.277  17.354  2.5559  0.0357 -1.0016
 5939SOL    HW229451   3.140   1.166  17.447  0.0409  0.5445 -0.2696
 5940SOL     OW29452   3.205   3.184  12.958 -0.3960 -0.2438 -0.4480
 5940SOL    HW129453   3.268   3.211  13.024 -0.3562 -0.2769 -0.4719
 5940SOL    HW229454   3.181   3.272  12.929  1.2791  0.6577  0.9264
 5941SOL     OW29455   4.463   4.045   3.774  0.2578 -0.2133  0.0029
 5941SOL    HW129456   4.492   4.069   3.862  1.4178 -1.6959  0.0193
 5941SOL    HW229457   4.535   3.987   3.750  0.3558 -0.1195  0.0664
 5942SOL     OW29458   2.253   1.566   6.171 -0.5149  0.0927  0.3442
 5942SOL    HW129459   2.207   1.636   6.216  0.2374  0.0793  1.1217
 5942SOL    HW229460   2.325   1.555   6.233  0.7642  1.0533 -0.9809
 5943SOL     OW29461   0.217   1.524  16.059  0.3356  0.2291 -0.2323
 5943SOL    HW129462   0.160   1.601  16.057  0.3633  0.2104 -1.5217
 5943SOL    HW229463   0.304   1.560  16.043  0.2738  1.4097  2.1477
 5944SOL     OW29464   0.170   2.801   2.217  0.1674 -0.0649  0.3763
 5944SOL    HW129465   0.120   2.778   2.139 -0.5448  2.9978 -0.0762
 5944SOL    HW229466   0.142   2.892   2.223 -0.6136 -0.2479 -0.4382
 5945SOL     OW29467   1.885   3.471   3.036 -0.2123 -0.5124 -0.5441
 5945SOL    HW129468   1.951   3.514   2.981  0.8308  0.1376  1.2086
 5945SOL    HW229469   1.912   3.384   3.008  2.8256 -0.7665  3.1999
 5946SOL     OW29470   1.324   1.855   8.826 -0.3104  0.2912 -0.0724
 5946SOL    HW129471   1.340   1.949   8.825  2.2698 -0.1527 -1.1803
 5946SOL    HW229472   1.313   1.837   8.920  0.3527 -0.3929 -0.1229
 5947SOL     OW29473   0.103   1.174   9.568 -0.2834  0.7913 -0.2018
 5947SOL    HW129474   0.157   1.244   9.605  1.2758  0.8469 -2.6077
 5947SOL    HW229475   0.110   1.184   9.473 -0.2897  0.1893 -0.2636
 5948SOL     OW29476   2.797   0.162   2.062 -0.3423  0.2346 -0.3660
 5948SOL    HW129477   2.847   0.118   1.993  0.3044  1.7530 -0.8657
 5948SOL    HW229478   2.748   0.227   2.013  1.3070  1.2126 -0.7184
 5949SOL     OW29479   0.897   1.131   1.154 -0.0149 -0.2662  0.1708
 5949SOL    HW129480   0.923   1.219   1.184 -0.8915  0.0791 -0.0823
 5949SOL    HW229481   0.866   1.090   1.234  2.0104 -2.5240 -0.2025
 5950SOL     OW29482   1.914   0.578   8.490  0.4561 -0.3499  0.4551
 5950SOL    HW129483   1.849   0.621   8.436  0.0915 -2.3946 -0.7417
 5950SOL    HW229484   1.924   0.643   8.559  0.4889  0.5875 -0.4442
 5951SOL     OW29485   2.522   2.221   5.309 -0.5666 -0.0423 -0.2494
 5951SOL    HW129486   2.579   2.297   5.298 -0.8328  0.3475  1.1049
 5951SOL    HW229487   2.474   2.223   5.226 -2.2754 -2.2196  0.6843
 5952SOL     OW29488   0.808   3.471   9.924 -0.3595 -0.2884  0.6945
 5952SOL    HW129489   0.718   3.450   9.900 -0.3205  2.8997 -2.3407
 5952SOL    HW229490   0.819   3.411   9.997  1.0013  1.3218  1.8261
 5953SOL     OW29491   2.983   0.696   6.427 -0.1600 -0.5224  0.2335
 5953SOL    HW129492   2.934   0.634   6.480  0.6652 -0.3773  1.1816
 5953SOL    HW229493   2.924   0.749   6.373  0.2511  1.2918  1.5315
 5954SOL     OW29494   4.347   2.832  16.444  0.3346 -0.1842  0.4311
 5954SOL    HW129495   4.351   2.869  16.532  1.4273  1.7071 -0.4180
 5954SOL    HW229496   4.378   2.903  16.388 -2.3443  1.4846  1.0432
 5955SOL     OW29497   1.274   2.305  16.375  0.6317  0.4441  0.1378
 5955SOL    HW129498   1.365   2.302  16.345  0.4926 -1.3455 -0.1239
 5955SOL    HW229499   1.271   2.387  16.423  0.9557  0.1114  0.7199
 5956SOL     OW29500   2.198   1.449   8.981  0.3046 -0.2852 -0.0324
 5956SOL    HW129501   2.144   1.514   9.025  1.8732  0.7714  0.3409
 5956SOL    HW229502   2.263   1.430   9.049 -0.2227 -2.0663 -0.0275
 5957SOL     OW29503   0.033   4.209  11.048  0.4279  0.1673 -0.4101
 5957SOL    HW129504   0.037   4.277  10.980  0.9734  0.2684 -0.2774
 5957SOL    HW229505   4.699   4.161  11.010 -0.4620  2.0780 -1.1085
 5958SOL     OW29506   0.911   0.380   9.133  1.1176 -0.3829 -0.2937
 5958SOL    HW129507   0.953   0.332   9.204  0.1079  0.9300  1.2035
 5958SOL    HW229508   0.862   0.310   9.090 -3.1573  1.7186  1.0561
 5959SOL     OW29509   1.219   3.497   5.288  0.0471 -0.1332  0.2085
 5959SOL    HW129510   1.286   3.466   5.226  0.5520  2.0231 -0.3217
 5959SOL    HW229511   1.268   3.562   5.338 -2.8577  1.4580  0.9859
 5960SOL     OW29512   2.401   0.738   2.423  0.0820 -0.4897 -0.1413
 5960SOL    HW129513   2.339   0.720   2.352 -0.4478 -0.6919  0.3679
 5960SOL    HW229514   2.443   0.652   2.431 -0.4801 -0.4949  2.8521
 5961SOL     OW29515   1.356   1.657  17.253  0.6071  0.0408 -0.3238
 5961SOL    HW129516   1.368   1.563  17.266  1.4378 -0.1461 -2.4615
 5961SOL    HW229517   1.323   1.645  17.164 -0.1066  2.9329 -0.4450
 5962SOL     OW29518   2.096   3.069   8.048  0.1640  0.2526 -0.3031
 5962SOL    HW129519   2.122   3.024   8.128 -1.0230 -1.9684 -1.1812
 5962SOL    HW229520   2.150   3.147   8.036 -0.2775  1.2578  4.2487
 5963SOL     OW29521   3.610   4.009   2.213 -0.8006 -0.0892 -0.2273
 5963SOL    HW129522   3.628   3.925   2.255 -1.4128 -0.2454 -0.2913
 5963SOL    HW229523   3.644   3.985   2.127 -1.0903 -1.3236  0.0052
 5964SOL     OW29524   2.145   1.586   6.595 -0.0297  0.3559 -0.2897
 5964SOL    HW129525   2.091   1.648   6.644  1.9842  1.2751  0.7203
 5964SOL    HW229526   2.083   1.547   6.532  0.5585 -0.8034 -0.1599
 5965SOL     OW29527   3.000   4.656  14.151 -0.7960 -0.4860 -0.6291
 5965SOL    HW129528   3.090   4.649  14.120 -0.9092  0.9520 -1.2658
 5965SOL    HW229529   2.952   4.670  14.069  0.3467 -0.1544 -1.2473
 5966SOL     OW29530   2.224   4.145  16.585 -0.0130  0.0323  0.3610
 5966SOL    HW129531   2.233   4.148  16.681  0.6827 -1.8687  0.3531
 5966SOL    HW229532   2.131   4.160  16.569 -0.4202 -4.5081 -1.4481
 5967SOL     OW29533   4.621   2.500  14.296  0.0997 -0.0485  0.1585
 5967SOL    HW129534   4.691   2.506  14.362 -0.2025 -0.2073  0.4966
 5967SOL    HW229535   4.660   2.536  14.217  1.1273  0.2072  0.7746
 5968SOL     OW29536   4.491   2.987  17.583 -0.2360 -0.0062 -0.2037
 5968SOL    HW129537   4.543   2.908  17.566  0.9070  0.4483  1.1954
 5968SOL    HW229538   4.502   3.038  17.503  0.4305 -1.0234 -0.7627
 5969SOL     OW29539   4.709   1.596  15.543 -0.5080  0.3663 -0.4231
 5969SOL    HW129540   4.621   1.633  15.557 -0.8363 -1.0831  1.3223
 5969SOL    HW229541   4.691   1.502  15.541  1.3744 -0.0452  2.2642
 5970SOL     OW29542   3.451   4.320   3.396 -0.1264 -0.2277 -0.2069
 5970SOL    HW129543   3.458   4.351   3.306 -0.7072  1.9890  0.5171
 5970SOL    HW229544   3.516   4.369   3.446 -0.6739  0.0222  0.2641
 5971SOL     OW29545   1.565   3.335   6.237 -0.3458  0.2402  0.3642
 5971SOL    HW129546   1.554   3.243   6.212  2.0437  0.0814 -0.1373
 5971SOL    HW229547   1.505   3.341   6.311 -0.0127 -3.3364  0.9392
 5972SOL     OW29548   3.228   2.574  16.530 -1.0385 -0.6141  0.3010
 5972SOL    HW129549   3.188   2.512  16.469  0.7683 -0.9590 -0.5570
 5972SOL    HW229550   3.204   2.658  16.491  0.8194 -0.5570 -0.7366
 5973SOL     OW29551   4.687   0.643   2.467 -0.4521 -0.2715  0.4847
 5973SOL    HW129552   4.716   0.573   2.525 -0.6372 -0.1462  0.7284
 5973SOL    HW229553   4.728   0.613   2.386  0.1315  1.0998  0.2668
 5974SOL     OW29554   1.605   0.572   5.583 -0.0626  0.0937  0.2131
 5974SOL    HW129555   1.657   0.630   5.639  0.9893  1.3310 -2.0232
 5974SOL    HW229556   1.560   0.637   5.531  0.8450 -1.1206 -2.0853
 5975SOL     OW29557   3.607   0.042   0.218 -0.3392 -0.5404 -0.3012
 5975SOL    HW129558   3.600   0.009   0.129 -1.6549  1.0844 -0.8085
 5975SOL    HW229559   3.551   0.120   0.211 -0.0457 -0.0903  2.2460
 5976SOL     OW29560   3.925   0.243   4.458 -0.0866 -0.4084 -1.0717
 5976SOL    HW129561   3.895   0.251   4.367 -2.5531  2.2890 -0.0014
 5976SOL    HW229562   3.904   0.150   4.469 -0.2936 -0.1965  0.3288
 5977SOL     OW29563   3.394   0.972   9.832  0.2354  0.8557 -0.5523
 5977SOL    HW129564   3.359   1.054   9.866  3.4460  1.0646  2.3076
 5977SOL    HW229565   3.371   0.986   9.741 -4.3343  1.2281  0.6764
 5978SOL     OW29566   3.773   1.427  10.847  0.2460  0.0380  0.4678
 5978SOL    HW129567   3.737   1.338  10.855  0.4152 -0.1459 -0.8235
 5978SOL    HW229568   3.839   1.419  10.916 -2.0620  1.5133  2.8442
 5979SOL     OW29569   0.344   3.596   6.915  0.1130 -0.8498  0.3050
 5979SOL    HW129570   0.320   3.671   6.969 -2.2025 -0.2757 -1.5305
 5979SOL    HW229571   0.439   3.603   6.905 -0.0423 -0.0142 -0.4536
 5980SOL     OW29572   3.031   2.401  16.860 -0.4720  0.1015 -0.1040
 5980SOL    HW129573   2.963   2.431  16.799 -0.6904 -0.0324  0.0765
 5980SOL    HW229574   3.088   2.478  16.854  0.6750 -0.7785 -0.4053
 5981SOL     OW29575   4.626   2.669   3.383 -0.1585  0.2700 -0.0503
 5981SOL    HW129576   4.546   2.618   3.370  0.8959 -1.3864 -0.1395
 5981SOL    HW229577   4.690   2.603   3.356 -1.7805 -1.4702  0.3250
 5982SOL     OW29578   0.680   0.417   2.266 -0.1696 -0.4985 -0.1701
 5982SOL    HW129579   0.607   0.376   2.219 -1.6902  1.6656  0.3097
 5982SOL    HW229580   0.758   0.368   2.241 -1.5159 -1.7477 -1.9191
 5983SOL     OW29581   1.126   0.384   6.255 -0.3382  0.1801  0.2861
 5983SOL    HW129582   1.132   0.384   6.159  1.1838  1.6765  0.3640
 5983SOL    HW229583   1.049   0.332   6.278  0.7902 -1.1745  0.9990
 5984SOL     OW29584   2.339   3.008   5.022  1.1193  0.8443 -0.1960
 5984SOL    HW129585   2.305   3.030   5.108 -1.4568 -1.9826 -0.4799
 5984SOL    HW229586   2.297   3.082   4.978  0.6429  0.5779 -0.1817
 5985SOL     OW29587   4.542   4.689  10.380  0.9315 -0.2558 -0.3203
 5985SOL    HW129588   4.615   4.628  10.366  0.6004 -0.8168  0.3615
 5985SOL    HW229589   4.473   4.632  10.343  1.9599 -1.7058 -0.0096
 5986SOL     OW29590   3.206   2.066   3.329 -0.2984  0.2680 -0.7084
 5986SOL    HW129591   3.126   2.112   3.353 -1.3085 -2.1607  0.6122
 5986SOL    HW229592   3.266   2.141   3.329  1.5825 -1.2265 -1.8537
 5987SOL     OW29593   0.005   4.350  10.821  0.1078 -0.0769 -0.2006
 5987SOL    HW129594   4.671   4.410  10.812  1.1830  1.5029  1.5986
 5987SOL    HW229595   0.080   4.407  10.806  1.1124 -1.0560  0.9592
 5988SOL     OW29596   1.371   0.721   3.448 -0.0870  0.0324  0.0383
 5988SOL    HW129597   1.440   0.786   3.460  1.3900 -1.9413  2.2794
 5988SOL    HW229598   1.322   0.762   3.377  0.6467  3.3291  1.4145
 5989SOL     OW29599   2.865   0.806   3.867 -0.3175  0.0955 -0.2912
 5989SOL    HW129600   2.831   0.862   3.936  1.8346  1.5155 -0.3734
 5989SOL    HW229601   2.942   0.762   3.904 -0.2904 -0.3631 -0.8767
 5990SOL     OW29602   1.355   1.416   8.007 -0.6912 -0.5872 -0.2843
 5990SOL    HW129603   1.440   1.385   8.037 -0.6775 -0.2915 -0.0149
 5990SOL    HW229604   1.330   1.477   8.077 -1.1290  0.9447 -1.7589
 5991SOL     OW29605   0.323   4.037   8.822 -0.3150  0.5076 -0.1726
 5991SOL    HW129606   0.378   4.098   8.772 -1.0919  1.0834 -0.3259
 5991SOL    HW229607   0.247   4.038   8.764  0.1866  0.2812 -0.8313
 5992SOL     OW29608   1.965   1.651  11.831 -0.2448  0.0380 -0.7863
 5992SOL    HW129609   1.905   1.668  11.904 -0.1702 -0.1754 -0.6762
 5992SOL    HW229610   2.025   1.725  11.842 -0.4994  0.1350 -0.0055
 5993SOL     OW29611   1.272   2.376   8.576 -0.6239 -0.1638  0.3806
 5993SOL    HW129612   1.292   2.467   8.599  0.8514 -0.4403  0.2022
 5993SOL    HW229613   1.355   2.332   8.597 -0.5662 -0.1726  0.1307
 5994SOL     OW29614   2.810   1.938   1.724  0.2865  0.2752 -0.8102
 5994SOL    HW129615   2.836   1.956   1.815 -2.2535  0.1116 -0.0555
 5994SOL    HW229616   2.842   2.021   1.689 -1.1935  1.8684  1.5872
 5995SOL     OW29617   4.673   0.021   7.341  0.2771  0.2327  0.3916
 5995SOL    HW129618   4.604   0.025   7.407 -1.1189 -3.7475 -0.8270
 5995SOL    HW229619   0.009   0.058   7.389  1.9933  0.4065 -2.3955
 5996SOL     OW29620   0.066   0.713   9.234 -0.3047 -0.7823  0.4981
 5996SOL    HW129621   4.737   0.669   9.284 -0.3137 -1.3290  0.0011
 5996SOL    HW229622   0.130   0.642   9.237  0.4665 -0.0072  2.2555
 5997SOL     OW29623   2.018   0.458   2.000  0.3782 -0.4686  0.0905
 5997SOL    HW129624   2.067   0.529   1.958 -0.6427  0.3813  0.3568
 5997SOL    HW229625   1.943   0.473   1.943  0.7446 -0.5199 -0.4049
 5998SOL     OW29626   3.596   2.717   7.330 -0.2231  0.1673  0.1852
 5998SOL    HW129627   3.518   2.772   7.322 -0.5985 -0.5056 -0.8614
 5998SOL    HW229628   3.590   2.698   7.423 -2.2076  2.8720  0.6326
 5999SOL     OW29629   1.224   2.379   1.152 -0.1943 -0.1964 -0.3029
 5999SOL    HW129630   1.269   2.295   1.136  2.7900  1.2736  0.4028
 5999SOL    HW229631   1.295   2.438   1.177 -0.3477  0.6600 -1.8817
 6000SOL     OW29632   2.144   2.900   8.247  0.1856  0.5279  0.0043
 6000SOL    HW129633   2.200   2.850   8.306 -0.7120  0.6004  0.9127
 6000SOL    HW229634   2.106   2.962   8.309  2.7083  0.7947  1.2817
 6001SOL     OW29635   0.009   2.033   4.206  0.6052 -0.4465 -0.7235
 6001SOL    HW129636   4.672   2.023   4.264  1.1890  0.7217  0.2374
 6001SOL    HW229637   4.707   2.024   4.120  1.4765 -0.9911 -1.0923
 6002SOL     OW29638   0.272   1.289   3.074 -0.1047  0.7113 -0.1270
 6002SOL    HW129639   0.333   1.320   3.008 -1.7257  1.4339 -1.2814
 6002SOL    HW229640   0.312   1.318   3.156  0.5813  0.5900 -0.4223
 6003SOL     OW29641   4.402   3.107   4.398 -0.3982  0.0160  0.2962
 6003SOL    HW129642   4.318   3.131   4.358 -0.9613  0.8724  1.9918
 6003SOL    HW229643   4.366   3.040   4.457 -0.3817  0.9682  1.3886
 6004SOL     OW29644   2.903   1.360  17.736  0.4109 -0.3352  0.1171
 6004SOL    HW129645   2.894   1.406   0.065 -0.2997 -1.1202  0.4789
 6004SOL    HW229646   2.993   1.384  17.712  0.8361  0.5738  2.6710
 6005SOL     OW29647   1.192   4.583   7.598  0.2929 -0.4383 -0.0503
 6005SOL    HW129648   1.099   4.562   7.607  0.0445  0.1024 -1.2858
 6005SOL    HW229649   1.204   4.622   7.684 -1.4069 -3.3484  1.4791
 6006SOL     OW29650   4.217   4.379   7.508  0.4000  0.0221  0.3856
 6006SOL    HW129651   4.143   4.429   7.544 -1.1482 -2.5386  0.7140
 6006SOL    HW229652   4.251   4.332   7.584 -3.2102  0.1586  2.0954
 6007SOL     OW29653   3.486   2.680   9.758  0.3202 -0.1518 -0.3294
 6007SOL    HW129654   3.554   2.743   9.783 -0.3388 -0.1212  1.3789
 6007SOL    HW229655   3.407   2.735   9.751  0.0082 -0.6635 -0.8247
 6008SOL     OW29656   0.197   0.314   4.351 -0.8082  0.1773  0.4541
 6008SOL    HW129657   0.175   0.406   4.340  2.0685  0.6155 -1.4543
 6008SOL    HW229658   0.246   0.297   4.271 -3.3039 -0.4520 -0.9111
 6009SOL     OW29659   3.415   3.105   2.234 -0.0981 -0.4140 -0.1309
 6009SOL    HW129660   3.347   3.076   2.173 -1.3888 -0.6801  1.4010
 6009SOL    HW229661   3.370   3.182   2.269 -0.1116 -0.8119  0.7422
 6010SOL     OW29662   1.151   4.250  10.341 -0.5184 -0.4640  0.4359
 6010SOL    HW129663   1.095   4.328  10.345 -1.6811 -1.3364  1.2652
 6010SOL    HW229664   1.153   4.225  10.433 -4.2892  0.4459  0.7970
 6011SOL     OW29665   2.546   2.616   5.278 -0.0983  0.7400 -0.2204
 6011SOL    HW129666   2.574   2.674   5.208  3.7130  0.4843  1.1033
 6011SOL    HW229667   2.461   2.649   5.307  1.1729  1.0707  3.1977
 6012SOL     OW29668   0.916   2.477  14.471 -1.2394  0.2061 -0.3237
 6012SOL    HW129669   0.854   2.416  14.512 -1.2023  2.1625  2.6616
 6012SOL    HW229670   0.863   2.529  14.411  0.4235  1.2234 -0.9097
 6013SOL     OW29671   3.090   4.480   6.173 -0.6810 -0.1329 -0.2410
 6013SOL    HW129672   3.180   4.457   6.148 -0.4750  0.5533 -0.1177
 6013SOL    HW229673   3.052   4.392   6.164  0.4633 -0.7908  1.4773
 6014SOL     OW29674   0.943   1.316   5.229 -0.1915 -0.3654  0.6197
 6014SOL    HW129675   0.997   1.238   5.224  0.2237 -0.0611  0.3376
 6014SOL    HW229676   0.946   1.325   5.324 -0.7959  3.4341  0.2972
 6015SOL     OW29677   4.212   1.470   5.942 -0.0404  0.3400  0.1735
 6015SOL    HW129678   4.164   1.493   5.863  1.4030  1.7197 -0.3053
 6015SOL    HW229679   4.150   1.487   6.013 -2.1409 -0.0429 -1.6041
 6016SOL     OW29680   1.298   4.416   4.763 -0.2420 -0.9500  0.2053
 6016SOL    HW129681   1.209   4.444   4.784 -0.9387 -1.9204 -1.4915
 6016SOL    HW229682   1.315   4.476   4.690 -1.3488  0.4604  1.1014
 6017SOL     OW29683   0.741   2.505  11.907  0.2742  0.0514  0.2666
 6017SOL    HW129684   0.829   2.472  11.926 -0.4829 -1.7302  0.6082
 6017SOL    HW229685   0.692   2.434  11.947  0.5332  1.1249  2.5207
 6018SOL     OW29686   3.692   2.340  14.893 -0.1115 -0.4516 -0.2981
 6018SOL    HW129687   3.764   2.389  14.934  0.0891 -2.5800  1.8482
 6018SOL    HW229688   3.733   2.260  14.861  0.4414  0.3643 -1.6217
 6019SOL     OW29689   3.060   4.067   8.905  0.0717  0.3683  0.1655
 6019SOL    HW129690   3.122   4.040   8.973 -1.1686 -2.1025  0.3026
 6019SOL    HW229691   3.028   4.154   8.929 -0.9366  0.0966 -0.2213
 6020SOL     OW29692   1.763   2.631   7.618 -0.8913  0.6604  0.1375
 6020SOL    HW129693   1.753   2.710   7.670 -1.4197 -1.3818  3.1896
 6020SOL    HW229694   1.765   2.556   7.679  5.0417 -0.4517 -1.4220
 6021SOL     OW29695   1.280   2.897  16.398  0.5055  0.7349  0.3920
 6021SOL    HW129696   1.219   2.889  16.325 -1.3541 -2.1931  2.2578
 6021SOL    HW229697   1.220   2.879  16.471 -0.5449 -1.7967 -1.0943
 6022SOL     OW29698   1.296   0.811  13.723 -0.0392 -0.5623 -0.6203
 6022SOL    HW129699   1.358   0.883  13.714 -0.5249  0.1146  1.5134
 6022SOL    HW229700   1.332   0.758  13.652  1.5920  1.6641 -1.4597
 6023SOL     OW29701   0.356   1.572   6.205  0.1826  0.0081  0.3678
 6023SOL    HW129702   0.264   1.545   6.202  0.3435 -0.4796 -0.3624
 6023SOL    HW229703   0.357   1.621   6.123 -3.1609 -0.1343  0.2397
 6024SOL     OW29704   2.660   3.798  15.913 -0.1394  0.0526  0.3663
 6024SOL    HW129705   2.617   3.883  15.908 -2.4859 -1.1705  0.1295
 6024SOL    HW229706   2.695   3.793  15.824 -2.2089  2.2900 -0.5639
 6025SOL     OW29707   4.332   4.088  16.572 -0.0695 -0.3695 -0.3838
 6025SOL    HW129708   4.247   4.099  16.615  1.1513  0.8393  1.7296
 6025SOL    HW229709   4.313   4.058  16.483  1.3600  0.6448 -1.0161
 6026SOL     OW29710   2.326   0.324   7.865  1.0392 -0.8204  0.0564
 6026SOL    HW129711   2.264   0.303   7.935 -0.8840  1.6486 -0.9297
 6026SOL    HW229712   2.298   0.269   7.792  0.7387  0.1543 -0.5446
 6027SOL     OW29713   1.148   0.761   6.756 -0.8273 -0.1673 -0.0477
 6027SOL    HW129714   1.138   0.801   6.842 -0.6575  1.1461 -0.6386
 6027SOL    HW229715   1.232   0.717   6.764 -0.7712 -0.1579 -0.5540
 6028SOL     OW29716   1.238   1.017   6.113 -0.3047 -0.8752  0.0295
 6028SOL    HW129717   1.166   0.980   6.164 -0.1596  1.2461  1.8104
 6028SOL    HW229718   1.266   1.095   6.162 -3.0102 -0.2955  0.6412
 6029SOL     OW29719   2.488   1.139  14.243 -0.4526 -0.0073 -0.4044
 6029SOL    HW129720   2.535   1.075  14.296  0.5451  0.9591 -0.1294
 6029SOL    HW229721   2.547   1.214  14.241  0.8866 -1.1254 -1.7846
 6030SOL     OW29722   0.235   2.778   1.022 -0.3855  0.2342  0.3106
 6030SOL    HW129723   0.228   2.812   0.932 -1.0492 -2.6668 -0.7414
 6030SOL    HW229724   0.330   2.776   1.035 -0.1985  1.0808 -0.9033
 6031SOL     OW29725   0.700   0.830   4.948  0.1850  0.4134  0.1695
 6031SOL    HW129726   0.621   0.795   4.990  0.6715  0.7778  1.3533
 6031SOL    HW229727   0.663   0.849   4.861 -0.2818 -0.5121  0.1594
 6032SOL     OW29728   2.169   1.045   8.341 -0.6687 -0.5290  0.3856
 6032SOL    HW129729   2.202   0.978   8.401 -2.6689 -0.8423  1.1525
 6032SOL    HW229730   2.211   1.122   8.378  0.5707 -0.9492 -0.1524
 6033SOL     OW29731   4.029   1.581   6.945 -0.1447 -0.2801  0.1921
 6033SOL    HW129732   3.936   1.557   6.945 -0.8131  2.2918  0.1000
 6033SOL    HW229733   4.030   1.636   7.023 -1.0813 -2.7084  1.8964
 6034SOL     OW29734   2.745   3.809  15.668  0.1629  0.4962 -0.2449
 6034SOL    HW129735   2.696   3.870  15.613 -1.6358 -0.5314  0.2453
 6034SOL    HW229736   2.826   3.824  15.619  0.8797 -2.7145 -0.0472
 6035SOL     OW29737   2.405   3.943   7.274  0.2368 -0.0886 -0.2430
 6035SOL    HW129738   2.475   4.002   7.246 -0.3041 -0.8807 -3.2699
 6035SOL    HW229739   2.418   3.867   7.217  1.3803  0.4587 -0.6958
 6036SOL     OW29740   2.985   4.015  17.202 -0.0245  0.0904 -0.0782
 6036SOL    HW129741   2.975   3.997  17.109  2.5454 -3.5688  0.3633
 6036SOL    HW229742   3.076   3.990  17.220  0.5119  1.7422 -0.4174
 6037SOL     OW29743   1.353   0.282  13.289  0.3154  0.4064 -0.1712
 6037SOL    HW129744   1.332   0.264  13.381 -0.5518 -0.1567 -0.4770
 6037SOL    HW229745   1.436   0.235  13.281  0.4794  0.5984  0.4465
 6038SOL     OW29746   4.165   4.468   2.405  0.1692 -0.0210 -0.1350
 6038SOL    HW129747   4.125   4.383   2.389 -0.9017 -0.3474  4.3014
 6038SOL    HW229748   4.134   4.521   2.332 -3.2349 -3.1946 -0.9786
 6039SOL     OW29749   2.186   1.949  11.317  0.1459 -0.2029 -0.0698
 6039SOL    HW129750   2.277   1.940  11.345  0.3772  0.0697 -0.7270
 6039SOL    HW229751   2.189   1.869  11.265  0.0650 -0.5172  0.4072
 6040SOL     OW29752   4.169   4.350   6.048 -0.0318  0.1638 -0.8716
 6040SOL    HW129753   4.219   4.431   6.034  1.0869 -0.7468 -2.2309
 6040SOL    HW229754   4.143   4.338   5.956 -0.0728  1.3043 -1.0044
 6041SOL     OW29755   0.128   4.451   5.398 -0.2281 -0.2705 -0.3283
 6041SOL    HW129756   0.159   4.364   5.373 -0.6394 -0.1655 -1.2089
 6041SOL    HW229757   0.178   4.470   5.477 -1.7614  1.0941  0.3153
 6042SOL     OW29758   3.979   3.705   5.197  0.0911  0.2345 -0.3986
 6042SOL    HW129759   3.896   3.693   5.150  0.7041 -0.8584 -1.1997
 6042SOL    HW229760   3.961   3.771   5.264 -2.1797 -0.8925  0.1068
 6043SOL     OW29761   2.663   2.790   5.552  0.0058 -0.6629  0.2401
 6043SOL    HW129762   2.688   2.704   5.521  0.7556  0.3542 -1.9566
 6043SOL    HW229763   2.747   2.817   5.591 -0.8515  1.1856  0.8479
 6044SOL     OW29764   2.941   4.124  13.375  0.2542  0.6696  0.7887
 6044SOL    HW129765   3.014   4.096  13.318  1.5125  3.1066  1.1885
 6044SOL    HW229766   2.882   4.156  13.307  0.4784  0.9781  0.7409
 6045SOL     OW29767   2.747   0.455   7.777  0.0561 -0.2068  0.2834
 6045SOL    HW129768   2.700   0.527   7.736  2.5992  0.4298 -1.5131
 6045SOL    HW229769   2.678   0.419   7.833  0.6439  0.3895  1.3795
 6046SOL     OW29770   4.560   3.124   3.646 -0.0804  0.3610 -0.3290
 6046SOL    HW129771   4.492   3.178   3.687  0.6713  1.0859 -0.0460
 6046SOL    HW229772   4.512   3.049   3.612 -0.2573  0.0515  0.6064
 6047SOL     OW29773   0.914   0.814   0.765  0.8759 -0.2887  0.3160
 6047SOL    HW129774   0.936   0.738   0.818  1.0192 -0.5224 -0.0813
 6047SOL    HW229775   0.821   0.831   0.785  1.9210  3.5098  1.9850
 6048SOL     OW29776   4.727   0.731   6.046 -0.2784 -0.4508 -0.0691
 6048SOL    HW129777   4.692   0.654   6.090 -1.1002 -0.1814 -0.2426
 6048SOL    HW229778   4.684   0.733   5.960  1.5664  1.9762 -0.9642
 6049SOL     OW29779   3.983   0.491  10.409 -0.1158  0.8508  0.4321
 6049SOL    HW129780   4.012   0.477  10.319  0.7869 -1.0392  1.0178
 6049SOL    HW229781   4.042   0.561  10.437  0.3096 -0.1389  1.9916
 6050SOL     OW29782   4.521   4.336  16.920  0.2854 -0.5098 -0.0310
 6050SOL    HW129783   4.483   4.253  16.891 -1.9721  0.5305 -0.0285
 6050SOL    HW229784   4.454   4.399  16.894 -0.3213 -2.7935 -3.8607
 6051SOL     OW29785   2.337   0.128   8.202  0.1888 -0.1265 -0.2250
 6051SOL    HW129786   2.399   0.121   8.130 -1.1084 -0.3999 -1.3107
 6051SOL    HW229787   2.390   0.186   8.257 -0.0777  2.3046 -2.5339
 6052SOL     OW29788   1.169   3.259   4.205  0.5663  0.8367  1.2381
 6052SOL    HW129789   1.082   3.242   4.171  1.0879  1.2895 -0.3229
 6052SOL    HW229790   1.142   3.263   4.297 -1.2698  2.1415  0.6369
 6053SOL     OW29791   2.863   2.277   4.372 -0.4279  0.9267 -0.0231
 6053SOL    HW129792   2.826   2.189   4.376  1.4153  0.0759 -1.7139
 6053SOL    HW229793   2.847   2.306   4.462 -1.2760 -0.7161  0.3566
 6054SOL     OW29794   2.478   1.856   4.819 -0.5427 -0.0739  0.3048
 6054SOL    HW129795   2.405   1.859   4.757  0.3727  2.7495 -0.6615
 6054SOL    HW229796   2.442   1.915   4.885 -0.6317  1.1477 -0.8258
 6055SOL     OW29797   1.889   3.784   6.333  0.1452  0.4256 -0.3181
 6055SOL    HW129798   1.943   3.752   6.405 -0.4328 -0.7810 -0.4200
 6055SOL    HW229799   1.832   3.708   6.319 -0.6832  0.6257  1.9032
 6056SOL     OW29800   2.533   4.271   7.950  0.0641  0.1056  0.7449
 6056SOL    HW129801   2.557   4.288   8.041  1.2590 -0.3671  0.5154
 6056SOL    HW229802   2.579   4.190   7.928 -0.2121  0.4143 -1.0153
 6057SOL     OW29803   2.922   2.443   5.036 -0.6107 -0.1313  0.4397
 6057SOL    HW129804   3.006   2.423   5.077 -0.2623  1.0715  0.3065
 6057SOL    HW229805   2.962   2.454   4.950  0.3932  0.5750  0.9982
 6058SOL     OW29806   3.634   1.530  15.306  0.0504  0.1206  0.0344
 6058SOL    HW129807   3.610   1.595  15.239 -0.1508 -0.2255 -0.2310
 6058SOL    HW229808   3.678   1.581  15.373 -0.0315  0.5820 -0.2606
 6059SOL     OW29809   2.983   2.744   1.466 -0.1150  0.0950  0.3809
 6059SOL    HW129810   2.959   2.689   1.541 -0.7092  1.3783  1.1406
 6059SOL    HW229811   2.959   2.689   1.392 -1.2011  0.9622  0.0874
 6060SOL     OW29812   4.594   1.958   4.399 -0.4374 -0.2700 -0.9417
 6060SOL    HW129813   4.544   1.885   4.361 -2.7252  1.4668 -1.2217
 6060SOL    HW229814   4.607   1.929   4.489 -0.8544  1.2254 -0.4045
 6061SOL     OW29815   0.285   2.704   5.145  0.5070 -0.0193  0.2143
 6061SOL    HW129816   0.378   2.686   5.135  1.2504  3.6168  0.3324
 6061SOL    HW229817   0.270   2.670   5.233  0.8651  1.5171  0.8828
 6062SOL     OW29818   0.699   4.545   5.007 -0.3944  0.0700  0.2825
 6062SOL    HW129819   0.726   4.458   4.979 -0.9200  0.3224 -1.0126
 6062SOL    HW229820   0.727   4.606   4.940  1.9940 -0.2645  0.9912
 6063SOL     OW29821   0.439   0.972  13.084 -0.5110 -0.3252  0.1442
 6063SOL    HW129822   0.384   1.039  13.043 -1.0575 -2.2599 -2.2620
 6063SOL    HW229823   0.470   1.006  13.168  0.5391  0.8086 -0.6968
 6064SOL     OW29824   0.284   0.088  10.836 -0.1174 -0.5831 -0.1972
 6064SOL    HW129825   0.326   0.155  10.782  0.8350  0.8415  2.3079
 6064SOL    HW229826   0.190   0.100  10.820 -0.0780 -0.8476 -0.6300
 6065SOL     OW29827   0.764   0.560  12.383  0.0994  0.0951  0.1582
 6065SOL    HW129828   0.691   0.498  12.387 -1.5271  1.8744 -1.9612
 6065SOL    HW229829   0.722   0.644  12.362 -0.3227  0.0787  0.9199
 6066SOL     OW29830   0.252   3.351   4.100 -0.8118  0.2118 -0.0920
 6066SOL    HW129831   0.209   3.281   4.150 -0.1128  0.0144  0.2375
 6066SOL    HW229832   0.273   3.419   4.163 -0.8064  1.0063 -0.9396
 6067SOL     OW29833   0.042   0.588   1.534  0.0181 -0.1351  0.2868
 6067SOL    HW129834   0.036   0.632   1.619  1.0637  0.1171  0.2286
 6067SOL    HW229835   4.700   0.537   1.539  0.2374 -0.4505  0.5861
 6068SOL     OW29836   2.867   1.237   2.392  0.0481 -0.0824 -0.3312
 6068SOL    HW129837   2.903   1.234   2.481  0.2458 -3.2699 -0.5275
 6068SOL    HW229838   2.904   1.164   2.343 -0.1499  0.5247 -1.3690
 6069SOL     OW29839   2.167   4.426   7.054  0.5221  0.1940  0.2910
 6069SOL    HW129840   2.086   4.463   7.018  1.5555  0.1462 -2.0707
 6069SOL    HW229841   2.178   4.349   6.997  0.0773  0.2248  0.1623
 6070SOL     OW29842   4.251   2.871   5.945 -0.1207  0.0509 -0.3547
 6070SOL    HW129843   4.335   2.910   5.918 -0.1199  0.5741  0.3989
 6070SOL    HW229844   4.256   2.776   5.954 -1.0518 -0.0392 -0.8282
 6071SOL     OW29845   0.302   2.236   2.567  0.1009  0.2491 -0.1446
 6071SOL    HW129846   0.364   2.258   2.636  0.6983 -0.3705 -0.4719
 6071SOL    HW229847   0.219   2.259   2.607 -0.0048 -0.2511 -0.0769
 6072SOL     OW29848   2.945   1.527  11.862  0.5765 -0.2635  0.5765
 6072SOL    HW129849   2.854   1.507  11.842  0.6531  1.4189 -1.3833
 6072SOL    HW229850   2.968   1.447  11.910 -0.1895 -1.7259 -1.5016
 6073SOL     OW29851   2.579   4.166  13.924  0.0551  0.4869 -0.6916
 6073SOL    HW129852   2.525   4.148  13.847  0.7540 -1.0531 -0.8107
 6073SOL    HW229853   2.513   4.220  13.967 -0.5500 -0.3476 -0.5791
 6074SOL     OW29854   2.680   1.559   3.300  0.1277  0.0819  0.3977
 6074SOL    HW129855   2.697   1.650   3.323 -0.4636  0.5280 -0.9609
 6074SOL    HW229856   2.666   1.524   3.388  0.3511  1.6049  1.0302
 6075SOL     OW29857   0.669   4.341  16.681  0.1034 -0.2850 -0.0776
 6075SOL    HW129858   0.697   4.422  16.724 -1.1548 -0.0427  0.2871
 6075SOL    HW229859   0.643   4.296  16.762  0.1564  1.3755  0.8515
 6076SOL     OW29860   0.438   0.209  13.620 -0.8704 -0.1658  0.0525
 6076SOL    HW129861   0.376   0.195  13.691  2.7127 -2.2394  2.7613
 6076SOL    HW229862   0.519   0.214  13.672 -0.2116 -0.9973 -0.8742
 6077SOL     OW29863   2.346   3.110   0.871 -0.4844  0.3888 -0.3976
 6077SOL    HW129864   2.413   3.061   0.824 -0.3358  0.8423 -0.6481
 6077SOL    HW229865   2.393   3.172   0.926 -0.5352 -0.0999  0.2017
 6078SOL     OW29866   4.298   1.066  11.340 -0.3540 -0.5304  0.2573
 6078SOL    HW129867   4.203   1.061  11.353 -0.5231  1.5594 -0.1441
 6078SOL    HW229868   4.323   1.095  11.428  2.5492 -0.0042 -0.7523
 6079SOL     OW29869   1.282   1.097   8.840 -0.0776  0.2503  0.2212
 6079SOL    HW129870   1.328   1.177   8.817 -0.5253  0.5056  0.2306
 6079SOL    HW229871   1.204   1.092   8.785 -0.5893  1.8132  0.8302
 6080SOL     OW29872   0.269   0.796   9.495 -0.9125 -0.4291  0.0470
 6080SOL    HW129873   0.229   0.717   9.531 -2.3142 -0.1670 -0.9062
 6080SOL    HW229874   0.218   0.855   9.550 -0.5603 -0.7222  0.6899
 6081SOL     OW29875   2.144   3.285   4.022  0.1690 -0.1935  0.2533
 6081SOL    HW129876   2.074   3.228   4.057  0.4720 -0.4487  0.4475
 6081SOL    HW229877   2.200   3.301   4.098  2.9201  1.7017 -2.2132
 6082SOL     OW29878   0.560   4.674   1.207  0.2685  0.6830 -0.1244
 6082SOL    HW129879   0.499   0.008   1.202 -0.0931  0.4948  1.6204
 6082SOL    HW229880   0.567   4.671   1.302 -0.2116 -1.1102 -0.1358
 6083SOL     OW29881   1.982   2.541   3.646 -0.1264 -0.2199 -0.0577
 6083SOL    HW129882   2.006   2.584   3.564 -0.8467  0.5852  0.1542
 6083SOL    HW229883   2.051   2.579   3.701 -2.0854  1.4143  1.2863
 6084SOL     OW29884   4.168   0.557   9.945  0.6575  0.9159 -0.2110
 6084SOL    HW129885   4.211   0.640   9.967 -0.0794  1.2945 -0.1660
 6084SOL    HW229886   4.128   0.574   9.859 -0.0616 -0.4211 -0.1355
 6085SOL     OW29887   2.614   3.735  12.313  0.5329 -0.0200  0.3857
 6085SOL    HW129888   2.661   3.660  12.350 -0.7812 -1.2456 -0.4481
 6085SOL    HW229889   2.647   3.727  12.224 -0.8099  0.0106 -0.1191
 6086SOL     OW29890   0.047   1.568   9.199 -0.1781 -0.1250 -0.1564
 6086SOL    HW129891   0.122   1.573   9.258  1.2566 -3.9554 -1.6490
 6086SOL    HW229892   0.066   1.502   9.132 -1.4054  0.8996 -1.5227
 6087SOL     OW29893   2.948   0.617   3.382 -0.0427 -0.2872  0.1779
 6087SOL    HW129894   2.868   0.629   3.332 -1.5039 -2.9436  1.8677
 6087SOL    HW229895   3.008   0.577   3.318 -1.0983 -2.0611  0.3080
 6088SOL     OW29896   2.870   1.384   8.805  0.2721 -0.4977 -0.2653
 6088SOL    HW129897   2.806   1.371   8.875  0.3025  2.1390  0.2502
 6088SOL    HW229898   2.934   1.446   8.838  0.7180 -0.4791 -1.1655
 6089SOL     OW29899   0.594   4.691   2.469  0.1769 -0.0995  0.0906
 6089SOL    HW129900   0.614   4.600   2.447  3.0850  0.7448 -0.7861
 6089SOL    HW229901   0.650   4.694   2.547  0.0643  1.0135  0.1331
 6090SOL     OW29902   2.750   2.456  12.430 -0.7106 -0.2774 -0.1235
 6090SOL    HW129903   2.718   2.373  12.393 -0.8489 -0.4289  0.3289
 6090SOL    HW229904   2.824   2.422  12.480  0.1292  0.7317 -0.6909
 6091SOL     OW29905   2.365   3.855  12.290  0.0808 -0.0585 -0.3533
 6091SOL    HW129906   2.452   3.826  12.317 -0.8786 -0.4708  2.2587
 6091SOL    HW229907   2.340   3.783  12.232  1.9330  0.1107 -1.3639
 6092SOL     OW29908   3.610   0.002   2.286 -0.4059 -0.0077 -0.1073
 6092SOL    HW129909   3.698   0.021   2.254 -0.2104  0.8625  0.9563
 6092SOL    HW229910   3.632   4.674   2.350 -2.4628  1.6039  2.2586
 6093SOL     OW29911   0.363   0.750   3.155  0.0628 -0.1703 -0.0206
 6093SOL    HW129912   0.340   0.719   3.067 -0.4397  3.0504 -1.0130
 6093SOL    HW229913   0.341   0.842   3.151 -2.5311 -0.7845  0.4567
 6094SOL     OW29914   0.721   1.851   5.575 -0.3221  0.5038  0.9885
 6094SOL    HW129915   0.771   1.843   5.656  2.7534  2.3013 -0.7562
 6094SOL    HW229916   0.777   1.794   5.523 -0.1294  1.8071 -0.2156
 6095SOL     OW29917   2.390   1.161  15.934  0.4542  0.2006 -0.2201
 6095SOL    HW129918   2.301   1.198  15.932 -0.7551 -2.5295  4.1945
 6095SOL    HW229919   2.385   1.069  15.907 -0.8541 -0.1748  1.3106
 6096SOL     OW29920   4.409   4.406   5.139 -0.5657  0.5610  0.5618
 6096SOL    HW129921   4.465   4.328   5.141 -2.3538 -0.7049  0.6502
 6096SOL    HW229922   4.455   4.470   5.085 -2.0947  0.5253 -0.7680
 6097SOL     OW29923   2.526   0.463  16.540  0.1636  0.4431  0.7383
 6097SOL    HW129924   2.511   0.396  16.474  0.5931 -0.4519  1.5451
 6097SOL    HW229925   2.621   0.467  16.544  0.0861  2.8523 -0.0111
 6098SOL     OW29926   4.359   2.053   6.410  0.2761  0.1419 -0.5281
 6098SOL    HW129927   4.306   2.061   6.489  1.3720  0.8504  0.1291
 6098SOL    HW229928   4.333   2.133   6.365  1.9352  0.3878 -1.0492
 6099SOL     OW29929   2.200   1.040   7.863 -0.7259 -0.2221 -0.3212
 6099SOL    HW129930   2.187   1.093   7.942 -1.9356  0.1841 -0.7830
 6099SOL    HW229931   2.292   1.015   7.870 -0.4863  0.8398  0.2274
 6100SOL     OW29932   2.377   1.968   5.035 -0.0445 -0.1919  0.4294
 6100SOL    HW129933   2.356   1.877   5.059 -1.4768  0.8011  3.0139
 6100SOL    HW229934   2.294   1.995   4.996 -0.0770  0.3966  0.9056
 6101SOL     OW29935   4.001   2.417   7.502  0.1922  1.3794  0.2315
 6101SOL    HW129936   3.932   2.483   7.500 -1.8430 -0.7186  0.3590
 6101SOL    HW229937   3.957   2.335   7.525 -0.4130  1.5526 -0.3066
 6102SOL     OW29938   1.762   2.631   9.408 -0.9515 -0.1702  0.6915
 6102SOL    HW129939   1.828   2.563   9.392  0.0549  1.0482 -0.3869
 6102SOL    HW229940   1.685   2.590   9.369  0.0485 -0.1413 -1.3708
 6103SOL     OW29941   3.967   2.451  14.785  0.2239 -0.2092  0.4559
 6103SOL    HW129942   3.932   2.410  14.706  2.3445 -0.6952 -0.2337
 6103SOL    HW229943   3.965   2.543  14.759  1.0729 -0.4301 -0.3637
 6104SOL     OW29944   3.027   2.849  16.795  0.3442 -0.1222  0.2640
 6104SOL    HW129945   3.091   2.780  16.810  1.8248  0.9002 -1.3401
 6104SOL    HW229946   2.984   2.821  16.714 -0.3048  0.3062  0.4666
 6105SOL     OW29947   2.201   3.212   1.431  0.4573 -0.5193  0.4455
 6105SOL    HW129948   2.153   3.129   1.424 -0.3296  0.0413 -0.9473
 6105SOL    HW229949   2.168   3.245   1.514  2.5390  0.8444  0.7293
 6106SOL     OW29950   2.959   4.729   7.116 -0.2707  0.7976  0.0733
 6106SOL    HW129951   2.926   0.047   7.185 -1.4717 -0.0963  0.2192
 6106SOL    HW229952   2.873   4.699   7.088  0.9226 -1.7912 -0.7965
 6107SOL     OW29953   1.198   2.964  14.368 -0.6038 -0.4294  0.2286
 6107SOL    HW129954   1.253   2.958  14.290  0.4318 -0.3040  0.9564
 6107SOL    HW229955   1.204   3.057  14.387 -0.1171 -0.3385 -0.3533
 6108SOL     OW29956   1.846   4.712   7.427  0.4846 -0.2620  0.1719
 6108SOL    HW129957   1.763   4.692   7.470  0.4561 -0.6991 -0.0813
 6108SOL    HW229958   1.818   0.046   7.373 -0.2299 -1.8989 -1.6943
 6109SOL     OW29959   2.248   4.261   2.879 -0.1112 -0.3027  0.5116
 6109SOL    HW129960   2.182   4.330   2.881  1.2141  0.9941 -1.8297
 6109SOL    HW229961   2.197   4.182   2.863  1.4583 -1.2898  0.3931
 6110SOL     OW29962   2.326   3.209  17.597  0.5133 -0.2674  0.1385
 6110SOL    HW129963   2.419   3.191  17.607  1.1168  2.2824 -0.7845
 6110SOL    HW229964   2.301   3.167  17.514 -0.4029 -2.3451  1.4812
 6111SOL     OW29965   2.368   1.942   1.047  0.2901  0.3779  0.1099
 6111SOL    HW129966   2.455   1.932   1.086  0.6103  1.2151 -0.4108
 6111SOL    HW229967   2.312   1.923   1.122 -1.4785  2.1452 -0.7859
 6112SOL     OW29968   3.220   2.801   2.158  0.3610 -0.0597  0.3236
 6112SOL    HW129969   3.147   2.861   2.178 -1.0981 -1.8973  0.5064
 6112SOL    HW229970   3.292   2.846   2.202 -0.8888 -0.1373  2.4185
 6113SOL     OW29971   1.266   2.791  16.007 -0.3148 -0.7286 -0.0076
 6113SOL    HW129972   1.211   2.815  15.932 -0.1818  2.4816  0.8926
 6113SOL    HW229973   1.328   2.864  16.011  0.0482 -0.9825 -1.0433
 6114SOL     OW29974   4.584   1.454  16.853  0.2035  0.1031 -0.4210
 6114SOL    HW129975   4.628   1.373  16.877  0.9839  0.8827  0.7580
 6114SOL    HW229976   4.542   1.482  16.935 -2.2127  1.7375 -2.2194
 6115SOL     OW29977   3.598   2.637  15.764 -0.0934 -0.2440 -0.0619
 6115SOL    HW129978   3.660   2.593  15.822 -1.9979 -1.6030  0.9375
 6115SOL    HW229979   3.632   2.726  15.771 -0.4590 -0.0966 -0.1464
 6116SOL     OW29980   0.923   4.080   4.097 -0.3094 -0.0076 -0.0790
 6116SOL    HW129981   1.017   4.100   4.105 -0.3973  0.3703 -0.0085
 6116SOL    HW229982   0.932   3.996   4.052 -1.8556 -0.7856  1.0752
 6117SOL     OW29983   1.690   1.398   1.887 -0.1831 -0.4110 -0.0990
 6117SOL    HW129984   1.642   1.316   1.878 -0.5552 -0.3356  1.1633
 6117SOL    HW229985   1.702   1.409   1.793 -2.0846  0.6922 -0.2102
 6118SOL     OW29986   0.817   0.487  13.048 -0.8534  0.6358 -0.3884
 6118SOL    HW129987   0.881   0.541  13.001 -0.8476  0.2092 -0.8710
 6118SOL    HW229988   0.821   0.529  13.133  0.2304 -2.0867  0.9118
 6119SOL     OW29989   3.962   1.396  11.033  0.9814 -0.5191 -0.0430
 6119SOL    HW129990   3.933   1.385  11.123  1.0246 -0.7160 -0.0532
 6119SOL    HW229991   4.041   1.343  11.043  0.3703 -1.2202  1.0898
 6120SOL     OW29992   0.449   3.912   3.469  0.5865  0.2390  0.1460
 6120SOL    HW129993   0.406   3.838   3.426 -0.2841  0.6160  0.3745
 6120SOL    HW229994   0.532   3.896   3.423  0.0089  2.2985 -1.6070
 6121SOL     OW29995   2.735   3.761  14.483  0.0766 -0.5490  0.7982
 6121SOL    HW129996   2.828   3.775  14.502 -0.1477  0.0775  1.4308
 6121SOL    HW229997   2.704   3.841  14.526 -0.8312  0.6540 -2.0950
 6122SOL     OW29998   0.601   1.266   9.206  0.0488  0.7910  0.4711
 6122SOL    HW129999   0.663   1.326   9.164  1.0541 -0.9902 -0.6014
 6122SOL    HW230000   0.641   1.179   9.195  1.3746  1.4406  0.0707
 6123SOL     OW30001   4.544   3.503   3.505 -0.6433 -0.0811  0.5205
 6123SOL    HW130002   4.586   3.484   3.589 -1.7382  0.1118  1.1141
 6123SOL    HW230003   4.455   3.472   3.517 -0.9341  0.6687  0.3100
 6124SOL     OW30004   4.515   1.599   6.868 -0.9047 -0.5932  0.1653
 6124SOL    HW130005   4.608   1.609   6.848 -0.9745  0.0492  0.1634
 6124SOL    HW230006   4.482   1.532   6.809 -0.4734  0.9495 -1.8261
 6125SOL     OW30007   1.337   4.333  14.393 -0.3093 -1.2600  0.1242
 6125SOL    HW130008   1.326   4.389  14.316 -0.7859 -0.6127  0.6631
 6125SOL    HW230009   1.424   4.302  14.369 -0.5856 -0.4897 -1.8839
 6126SOL     OW30010   0.390   3.623   7.879 -0.4401  1.2953 -0.1817
 6126SOL    HW130011   0.307   3.588   7.913  0.4737 -1.7765 -1.0738
 6126SOL    HW230012   0.353   3.676   7.809 -0.8245 -0.6789 -1.4956
 6127SOL     OW30013   3.783   2.435   8.693 -0.1693  0.5556  0.7271
 6127SOL    HW130014   3.721   2.440   8.766 -0.6342  0.6857  0.3242
 6127SOL    HW230015   3.838   2.361   8.718  2.2995  2.1961  0.1595
 6128SOL     OW30016   0.291   0.054  12.861 -0.0115  0.0045  0.6514
 6128SOL    HW130017   0.383   0.072  12.879 -0.0878 -0.3106  1.3845
 6128SOL    HW230018   0.294   0.040  12.767  0.7192  1.2498  0.4835
 6129SOL     OW30019   0.139   3.398   4.538  0.8257  0.1128 -0.7216
 6129SOL    HW130020   0.053   3.389   4.580  0.4651  1.4797 -1.1578
 6129SOL    HW230021   0.169   3.307   4.538 -3.6054 -1.3367  2.3666
 6130SOL     OW30022   2.612   2.357   4.280  0.3452 -0.2015 -0.0420
 6130SOL    HW130023   2.552   2.308   4.336 -1.2997  1.2222 -0.5736
 6130SOL    HW230024   2.697   2.326   4.311  0.2533 -1.3156 -0.9110
 6131SOL     OW30025   3.708   2.645   0.921 -0.0841  0.3687 -0.2634
 6131SOL    HW130026   3.753   2.647   0.837  2.7395 -2.3712  1.2187
 6131SOL    HW230027   3.776   2.681   0.978 -1.0647  0.8435  0.6031
 6132SOL     OW30028   1.208   0.741   6.209  0.5469  0.4799  0.1758
 6132SOL    HW130029   1.300   0.730   6.233  0.8926  2.6278 -0.2140
 6132SOL    HW230030   1.178   0.650   6.215 -0.9196  1.0906  2.1983
 6133SOL     OW30031   0.613   0.925   4.706 -0.8698 -0.1375 -0.4165
 6133SOL    HW130032   0.615   0.875   4.624 -2.3866  1.9458 -1.6948
 6133SOL    HW230033   0.519   0.940   4.715 -0.4675  1.2987  1.3510
 6134SOL     OW30034   1.243   0.453   6.725 -0.3584  0.3704 -0.9103
 6134SOL    HW130035   1.275   0.376   6.679 -0.9499  0.2150 -1.0592
 6134SOL    HW230036   1.202   0.505   6.655  2.0529  0.0907 -2.5434
 6135SOL     OW30037   2.992   0.809   5.803  0.0329  0.4735  0.2948
 6135SOL    HW130038   3.045   0.793   5.725 -1.8827 -0.0937 -0.8851
 6135SOL    HW230039   2.942   0.729   5.822 -0.9335  0.9379 -0.3266
 6136SOL     OW30040   2.479   4.558   2.951  0.0089  1.2653 -0.3649
 6136SOL    HW130041   2.551   4.597   3.001 -0.3563 -0.2383  1.2979
 6136SOL    HW230042   2.468   4.465   2.966  0.9747  0.6335 -3.4880
 6137SOL     OW30043   4.727   3.335   7.921  0.1723  0.5064 -0.4987
 6137SOL    HW130044   0.039   3.255   7.937 -1.4592 -0.0797  1.8212
 6137SOL    HW230045   0.024   3.374   7.841 -0.4891 -1.0560 -1.5544
 6138SOL     OW30046   2.842   2.251   1.593 -0.1157 -0.2860  0.1068
 6138SOL    HW130047   2.853   2.345   1.575  0.3362 -0.0689  1.5139
 6138SOL    HW230048   2.895   2.241   1.672  0.9420 -0.2977 -0.5979
 6139SOL     OW30049   3.425   3.707   5.060  0.3773  0.0670  0.3647
 6139SOL    HW130050   3.363   3.779   5.047 -1.7036 -1.5796  1.1049
 6139SOL    HW230051   3.478   3.720   4.982 -1.5457 -2.0314 -1.2623
 6140SOL     OW30052   0.847   1.774   0.850  0.5044  0.0247 -0.2981
 6140SOL    HW130053   0.874   1.842   0.788 -0.8700 -0.7730 -1.7629
 6140SOL    HW230054   0.868   1.827   0.927 -1.0740  2.5519 -1.6195
 6141SOL     OW30055   0.059   3.975   3.188  0.4768 -0.3687  0.1685
 6141SOL    HW130056   0.112   4.008   3.115 -0.3797 -0.2115 -0.3863
 6141SOL    HW230057   0.111   3.994   3.266 -0.1356  1.3426  0.1632
 6142SOL     OW30058   4.543   0.711   9.916  0.4149 -0.3446 -0.1823
 6142SOL    HW130059   4.557   0.787   9.972 -0.0790 -1.4255  1.4074
 6142SOL    HW230060   4.532   0.744   9.827 -0.7254 -1.9000 -0.6258
 6143SOL     OW30061   2.479   1.598   0.939  0.1112  0.1151 -0.4060
 6143SOL    HW130062   2.471   1.605   1.034 -1.0355  1.2315 -0.5899
 6143SOL    HW230063   2.540   1.524   0.938  0.5164  0.4401  0.8560
 6144SOL     OW30064   2.991   2.814  11.633 -0.3415  0.4464  0.1674
 6144SOL    HW130065   2.975   2.908  11.620  5.1977  1.5544  0.9082
 6144SOL    HW230066   3.054   2.807  11.562 -0.3702 -1.0645  0.2974
 6145SOL     OW30067   1.212   2.353  16.792  0.6835  0.6635  0.0276
 6145SOL    HW130068   1.125   2.384  16.765  0.8997  0.7712 -0.5421
 6145SOL    HW230069   1.240   2.296  16.720  0.5621  1.0557 -0.3281
 6146SOL     OW30070   3.310   0.873   5.807  0.2242 -0.3332  0.1624
 6146SOL    HW130071   3.331   0.812   5.877  1.0355  0.9394  1.0323
 6146SOL    HW230072   3.274   0.822   5.735 -0.5787 -1.7550  1.5807
 6147SOL     OW30073   0.608   1.875   0.511 -0.2915 -0.0546 -0.4801
 6147SOL    HW130074   0.695   1.913   0.502 -0.9535  1.4644 -0.4664
 6147SOL    HW230075   0.583   1.876   0.419 -0.0159  0.6613 -0.5435
 6148SOL     OW30076   2.452   2.927  11.405 -0.1000 -0.0752  0.1560
 6148SOL    HW130077   2.374   2.955  11.454 -0.0712 -0.1054  0.2190
 6148SOL    HW230078   2.424   2.840  11.377 -2.8194  0.6008  0.7498
 6149SOL     OW30079   1.018   0.590  15.605  0.2175  1.0128 -0.0982
 6149SOL    HW130080   1.028   0.536  15.683 -1.0908 -0.9187 -1.2950
 6149SOL    HW230081   1.077   0.659  15.636 -2.1694  2.1128  2.0492
 6150SOL     OW30082   3.443   1.849  13.430  0.2029  0.4170 -0.1348
 6150SOL    HW130083   3.388   1.907  13.483  0.7809  1.9095 -1.1693
 6150SOL    HW230084   3.519   1.907  13.429 -0.1711  0.8902 -1.1463
 6151SOL     OW30085   1.981   2.683   5.740  0.1925  0.4729 -0.2217
 6151SOL    HW130086   2.023   2.600   5.717  0.3084  0.1983  0.9449
 6151SOL    HW230087   2.034   2.748   5.694 -0.9289 -0.1790 -2.4008
 6152SOL     OW30088   2.741   0.642   7.371  0.4382 -0.2519 -0.0335
 6152SOL    HW130089   2.706   0.556   7.347 -3.7535  1.8118 -1.3425
 6152SOL    HW230090   2.663   0.693   7.349  2.6695  3.2818  0.1917
 6153SOL     OW30091   1.668   4.083  10.997  0.5633 -0.5808 -0.2713
 6153SOL    HW130092   1.621   4.110  11.077 -2.2844  0.4653 -2.3017
 6153SOL    HW230093   1.640   3.994  10.976  0.0405 -0.2702 -0.9041
 6154SOL     OW30094   2.140   0.883   4.827 -0.4846 -0.2142  0.1450
 6154SOL    HW130095   2.212   0.827   4.797  1.5817  1.5661  1.8117
 6154SOL    HW230096   2.196   0.940   4.879 -2.5052  2.0079 -0.1384
 6155SOL     OW30097   2.309   3.461   5.483 -0.1291 -0.5788 -0.3123
 6155SOL    HW130098   2.217   3.460   5.457 -0.0518  0.8376 -0.6740
 6155SOL    HW230099   2.354   3.407   5.418  0.5510 -0.8840  0.4128
 6156SOL     OW30100   0.036   1.570   3.142 -0.4548 -0.7000  0.0821
 6156SOL    HW130101   4.703   1.517   3.174 -0.3657 -0.6646  0.3383
 6156SOL    HW230102   0.012   1.586   3.050 -2.5259  2.5194  1.2090
 6157SOL     OW30103   4.182   0.194   9.299  0.5741  0.7676  0.1639
 6157SOL    HW130104   4.190   0.130   9.229 -0.0301  0.3266  0.5029
 6157SOL    HW230105   4.269   0.223   9.325  0.4782  1.0423  0.1784
 6158SOL     OW30106   3.043   4.494   9.105 -0.0507  0.0750 -0.0397
 6158SOL    HW130107   3.006   4.564   9.159  0.0256  0.0181  0.0861
 6158SOL    HW230108   2.975   4.427   9.114  1.0190 -1.0176 -0.1188
 6159SOL     OW30109   3.195   0.572   2.926  0.5075 -0.4339 -0.2579
 6159SOL    HW130110   3.197   0.618   2.842  1.0976 -2.4173 -1.3331
 6159SOL    HW230111   3.239   0.636   2.982 -0.3967 -0.8689  0.9340
 6160SOL     OW30112   0.984   3.553   6.800  0.0458 -0.2101 -0.0124
 6160SOL    HW130113   1.042   3.624   6.773  0.7599 -0.9512 -0.4232
 6160SOL    HW230114   0.926   3.605   6.855 -0.4635 -0.3904 -0.3745
 6161SOL     OW30115   4.223   4.190   5.350  0.1191 -0.6841 -0.2061
 6161SOL    HW130116   4.279   4.264   5.371 -1.3058  0.4955 -0.6118
 6161SOL    HW230117   4.273   4.123   5.397  1.5891  0.2138 -0.5026
 6162SOL     OW30118   0.499   4.078   5.815  0.0177  0.3258 -0.3449
 6162SOL    HW130119   0.536   4.133   5.883  0.1267 -0.6925  0.4231
 6162SOL    HW230120   0.432   4.022   5.856  0.3711 -0.6107 -1.0475
 6163SOL     OW30121   2.907   1.671   1.298 -0.3547 -0.3822  0.2586
 6163SOL    HW130122   2.958   1.592   1.316 -1.2423 -0.9539  0.2410
 6163SOL    HW230123   2.876   1.635   1.215  1.6326  0.4896 -0.8754
 6164SOL     OW30124   3.019   4.663   5.469  0.2655  0.0624  0.0202
 6164SOL    HW130125   2.928   4.691   5.462  0.9597  2.9101  2.3103
 6164SOL    HW230126   3.023   4.595   5.536 -1.8204  0.8092  0.8876
 6165SOL     OW30127   4.655   3.427  10.006 -0.3247 -0.6895  0.0969
 6165SOL    HW130128   4.582   3.489  10.006  0.3152  0.0641  2.9215
 6165SOL    HW230129   4.717   3.473  10.062 -1.4398  0.5889  0.2776
 6166SOL     OW30130   0.135   4.076   6.428 -0.5259  0.0959  0.4362
 6166SOL    HW130131   0.096   4.134   6.363 -2.5694 -1.8195 -0.0188
 6166SOL    HW230132   0.066   4.065   6.493 -0.7455 -2.3251 -0.2235
 6167SOL     OW30133   1.100   1.217   3.073 -0.3005 -0.5562 -0.4679
 6167SOL    HW130134   1.186   1.236   3.111 -0.4143  0.4275 -0.7097
 6167SOL    HW230135   1.050   1.264   3.139 -1.8815 -2.2089 -0.5111
 6168SOL     OW30136   2.750   0.370   8.233  0.1967 -0.0536 -0.7948
 6168SOL    HW130137   2.704   0.394   8.153  0.8257  0.4765 -1.0053
 6168SOL    HW230138   2.843   0.386   8.215  0.4134 -0.8282 -0.3746
 6169SOL     OW30139   3.426   1.955   7.251 -0.4320 -0.1644 -0.1894
 6169SOL    HW130140   3.491   2.019   7.222 -0.3149  0.1146  0.6758
 6169SOL    HW230141   3.346   2.008   7.247 -0.4408 -0.3130 -2.0351
 6170SOL     OW30142   2.044   4.259   5.609  0.2535 -0.0703 -0.2242
 6170SOL    HW130143   2.110   4.283   5.673  0.0852  1.3183 -0.5566
 6170SOL    HW230144   2.106   4.207   5.557 -2.7242 -2.8667 -0.9949
 6171SOL     OW30145   0.994   4.014   8.333 -0.2656  0.0683  0.1448
 6171SOL    HW130146   1.054   4.088   8.344 -1.5324  1.2041 -0.6530
 6171SOL    HW230147   1.029   3.945   8.390 -0.3674 -0.9955 -1.0666
 6172SOL     OW30148   3.517   1.556   4.640 -0.1439 -0.1458 -0.6017
 6172SOL    HW130149   3.477   1.536   4.556 -1.0044  1.1745 -0.5049
 6172SOL    HW230150   3.509   1.651   4.631  0.3285 -0.0845 -0.3529
 6173SOL     OW30151   3.650   2.236   3.566  0.3354 -0.4586 -0.0659
 6173SOL    HW130152   3.666   2.197   3.480 -2.7082  1.6579 -1.6022
 6173SOL    HW230153   3.740   2.230   3.598  0.3179 -0.0821  0.0567
 6174SOL     OW30154   2.263   1.678   4.368 -0.3122  0.0034 -0.7499
 6174SOL    HW130155   2.175   1.672   4.331  0.6961  0.3025 -3.1652
 6174SOL    HW230156   2.293   1.588   4.354 -0.2224  0.1282 -1.3516
 6175SOL     OW30157   0.187   0.119   6.381  0.3193 -0.3152 -0.0284
 6175SOL    HW130158   0.170   0.109   6.474 -0.9847 -3.8604 -0.6344
 6175SOL    HW230159   0.282   0.125   6.377  0.2773  0.2009 -0.2896
 6176SOL     OW30160   0.027   1.912  17.049 -0.2533 -0.0508 -0.2418
 6176SOL    HW130161   0.017   1.884  16.958  3.4426 -0.6901 -0.4520
 6176SOL    HW230162   4.686   1.876  17.086  0.0931 -0.5781  0.0039
 6177SOL     OW30163   1.785   0.377   5.173  0.2908 -0.2809  0.4193
 6177SOL    HW130164   1.735   0.428   5.109  1.9705  0.2224 -0.4774
 6177SOL    HW230165   1.743   0.291   5.168  1.0849 -0.6235 -0.2730
 6178SOL     OW30166   1.466   1.592   5.980 -0.5018 -0.0746 -0.2366
 6178SOL    HW130167   1.458   1.675   5.934 -3.1721  0.1456  0.6238
 6178SOL    HW230168   1.562   1.595   5.975 -0.5619 -0.9329 -1.6458
 6179SOL     OW30169   0.214   1.421  11.268 -0.4033 -0.6794 -0.5164
 6179SOL    HW130170   0.174   1.468  11.341  0.5378 -0.5509 -0.0885
 6179SOL    HW230171   0.136   1.378  11.233 -0.9626 -0.5586  0.5815
 6180SOL     OW30172   4.184   3.479   6.698 -0.0705  0.0140 -0.2898
 6180SOL    HW130173   4.163   3.562   6.741  1.3376  0.7022 -0.9194
 6180SOL    HW230174   4.212   3.424   6.771 -0.4996 -0.3327 -0.3852
 6181SOL     OW30175   0.615   0.459   8.774  0.4739  0.2839  0.0283
 6181SOL    HW130176   0.572   0.447   8.859  2.4945 -0.3880  0.9705
 6181SOL    HW230177   0.648   0.548   8.778  0.7085  0.2717 -1.8550
 6182SOL     OW30178   0.194   3.814   4.949  0.2349  0.5432  0.3200
 6182SOL    HW130179   0.121   3.778   4.999 -1.1271  2.7233 -0.1039
 6182SOL    HW230180   0.172   3.781   4.861  2.8885  1.3072 -0.6370
 6183SOL     OW30181   0.091   2.518   8.671  0.0745  0.3515  0.2163
 6183SOL    HW130182   0.026   2.448   8.682  0.0491  0.0935 -1.6278
 6183SOL    HW230183   0.090   2.532   8.576  1.9407  1.9324  0.4344
 6184SOL     OW30184   0.923   1.612   8.765 -0.7507  0.4757 -0.0038
 6184SOL    HW130185   0.931   1.693   8.816  0.4381  0.0017  0.5449
 6184SOL    HW230186   0.912   1.644   8.675 -1.9617  2.8198  0.9664
 6185SOL     OW30187   4.305   4.522   3.090 -0.4922 -0.3640  0.5205
 6185SOL    HW130188   4.235   4.565   3.041 -0.7199  2.9536  3.8165
 6185SOL    HW230189   4.257   4.500   3.170 -0.0324 -0.3108  0.8089
 6186SOL     OW30190   2.903   3.668  11.037 -0.1413 -1.0383  0.2480
 6186SOL    HW130191   2.977   3.640  10.983 -0.5974 -1.0243 -0.3760
 6186SOL    HW230192   2.858   3.585  11.056 -2.3517  0.1727  0.2609
 6187SOL     OW30193   1.482   1.129  13.102 -0.3464 -0.2472  0.0407
 6187SOL    HW130194   1.543   1.069  13.058  0.5188  0.0025  0.8985
 6187SOL    HW230195   1.431   1.075  13.161 -0.0921  1.9679  2.2584
 6188SOL     OW30196   3.905   1.581   9.415 -0.0084 -0.0642  0.2986
 6188SOL    HW130197   3.960   1.562   9.338  0.0105 -0.5329  0.4226
 6188SOL    HW230198   3.933   1.666   9.447  1.5036  0.7277 -3.0732
 6189SOL     OW30199   1.378   4.732   9.405  0.0058  0.0606 -0.2392
 6189SOL    HW130200   1.406   4.640   9.406  0.7843  0.3045 -0.4651
 6189SOL    HW230201   1.456   0.024   9.360 -0.3226  1.5856  0.2644
 6190SOL     OW30202   4.350   3.398   2.694 -0.4704  0.0979 -0.7037
 6190SOL    HW130203   4.390   3.347   2.765  1.4435  0.3223 -1.6262
 6190SOL    HW230204   4.263   3.357   2.695  0.5839 -2.1289  1.7481
 6191SOL     OW30205   4.605   3.859  10.457 -0.8773  0.1401 -0.0238
 6191SOL    HW130206   4.541   3.807  10.505 -1.9390  0.0819 -1.5026
 6191SOL    HW230207   4.687   3.865  10.506 -1.0482  1.1951  0.1330
 6192SOL     OW30208   0.295   3.057  15.758  0.1173 -0.6923 -0.1905
 6192SOL    HW130209   0.240   3.102  15.822 -0.0444 -0.3849 -0.5483
 6192SOL    HW230210   0.280   2.967  15.787 -2.9461  0.2745  1.2259
 6193SOL     OW30211   0.027   2.898   8.724 -0.3102  0.2805 -0.5317
 6193SOL    HW130212   0.010   2.882   8.631  1.5521  0.3860 -0.9009
 6193SOL    HW230213   4.685   2.941   8.747 -0.5028 -0.2800 -0.1610
 6194SOL     OW30214   4.026   0.330   6.188 -0.3070 -0.3348  0.1223
 6194SOL    HW130215   3.976   0.269   6.242  0.8039 -2.1108 -0.8627
 6194SOL    HW230216   3.986   0.416   6.203 -0.8034 -0.3959 -0.8980
 6195SOL     OW30217   3.939   1.940  11.754 -0.2093  0.0868 -0.0815
 6195SOL    HW130218   3.928   2.025  11.711 -1.2054 -0.6053 -1.2010
 6195SOL    HW230219   3.921   1.962  11.845  0.8093 -0.9657  0.3587
 6196SOL     OW30220   2.707   2.641   9.820 -0.1101 -0.1436 -0.4748
 6196SOL    HW130221   2.618   2.677   9.817 -0.5928 -1.4911 -2.5545
 6196SOL    HW230222   2.686   2.548   9.834 -1.8563  0.0341 -1.8283
 6197SOL     OW30223   1.114   4.333   1.587 -0.2833  0.1136 -0.2778
 6197SOL    HW130224   1.128   4.291   1.502  0.9262 -0.6508  0.2946
 6197SOL    HW230225   1.169   4.270   1.634 -0.4143 -0.1188 -0.4366
 6198SOL     OW30226   2.109   2.738  12.815  0.0929 -0.1192 -0.5698
 6198SOL    HW130227   2.144   2.823  12.789  1.8745 -0.5870  0.3027
 6198SOL    HW230228   2.094   2.748  12.908 -1.6221  2.7720 -1.1726
 6199SOL     OW30229   2.074   4.404   6.148 -0.1487 -0.3111  0.0035
 6199SOL    HW130230   2.146   4.424   6.089  0.2956 -0.5300  0.4717
 6199SOL    HW230231   1.997   4.453   6.120  2.2250  2.6894 -1.2543
 6200SOL     OW30232   0.131   2.019   4.801 -0.5155 -0.1202 -0.2191
 6200SOL    HW130233   0.122   2.061   4.886  1.4185  1.6282 -0.8658
 6200SOL    HW230234   0.128   2.104   4.756  0.8780  0.3154  0.5106
 6201SOL     OW30235   3.174   2.370   6.969 -0.1710 -0.3689 -0.2749
 6201SOL    HW130236   3.142   2.370   7.059 -1.4226 -1.3000 -0.7303
 6201SOL    HW230237   3.087   2.370   6.930 -0.9887 -1.4873  1.5624
 6202SOL     OW30238   0.169   3.856   1.001 -0.3133  0.1303  0.1585
 6202SOL    HW130239   0.153   3.810   1.084  1.6162 -1.1367 -0.1912
 6202SOL    HW230240   0.264   3.850   1.003 -0.3965 -1.4433 -1.7003
 6203SOL     OW30241   3.339   2.006   2.305  0.1109 -0.3692 -0.4134
 6203SOL    HW130242   3.367   1.927   2.351  0.0103  0.2509  0.7292
 6203SOL    HW230243   3.247   1.994   2.285  0.1822 -0.0117 -0.9722
 6204SOL     OW30244   3.336   2.641   7.650  0.0611 -0.1979  0.8305
 6204SOL    HW130245   3.346   2.716   7.708  0.9740  0.4625 -0.1718
 6204SOL    HW230246   3.257   2.668   7.604  0.1565  0.4379  1.0364
 6205SOL     OW30247   3.972   2.717  13.647 -0.4028  0.2761  0.0683
 6205SOL    HW130248   3.879   2.699  13.663 -0.4640  0.9741  0.4671
 6205SOL    HW230249   3.973   2.788  13.582 -0.5183 -0.9912 -1.3296
 6206SOL     OW30250   0.582   0.360  12.405  0.5028 -0.4435  0.0134
 6206SOL    HW130251   0.589   0.310  12.324  0.6062 -1.8644  0.8959
 6206SOL    HW230252   0.562   0.292  12.470 -0.3639 -0.4044 -0.2211
 6207SOL     OW30253   1.373   1.619   9.375 -0.1107  0.0312  0.6322
 6207SOL    HW130254   1.354   1.594   9.465  0.1637  1.3665  1.0581
 6207SOL    HW230255   1.350   1.542   9.322  1.6255 -0.3144  0.3907
 6208SOL     OW30256   3.763   3.460   7.430 -0.1387 -0.3270  0.0114
 6208SOL    HW130257   3.767   3.421   7.518 -1.7201 -1.0814 -0.2604
 6208SOL    HW230258   3.701   3.400   7.389  1.0500  1.9702 -5.0462
 6209SOL     OW30259   3.556   4.133   8.741  0.4091  0.5811 -0.0858
 6209SOL    HW130260   3.621   4.147   8.810  0.3897  1.1025 -0.1699
 6209SOL    HW230261   3.481   4.169   8.788  0.9794 -0.1825  1.4011
 6210SOL     OW30262   1.294   4.085   0.093  0.5468 -0.6433  0.4385
 6210SOL    HW130263   1.246   4.073   0.011 -0.2446 -0.6681  0.9019
 6210SOL    HW230264   1.277   4.177   0.113 -0.6313 -0.4136 -1.6171
 6211SOL     OW30265   0.434   1.004   1.698  0.7077 -0.0392  0.1575
 6211SOL    HW130266   0.435   0.913   1.669  1.7970 -0.1274  0.4963
 6211SOL    HW230267   0.520   1.040   1.678  0.2453  1.1343  0.2677
 6212SOL     OW30268   3.634   1.075  14.853  0.5734  0.6134  0.1938
 6212SOL    HW130269   3.597   1.055  14.767  0.3677  2.5419 -0.1701
 6212SOL    HW230270   3.653   1.168  14.843 -0.4299  0.7489 -0.4732
 6213SOL     OW30271   4.577   1.172   4.368 -0.0217 -0.1653 -0.2603
 6213SOL    HW130272   4.630   1.241   4.407  1.0907 -0.2281 -1.6254
 6213SOL    HW230273   4.641   1.136   4.306 -2.3074 -0.0152 -2.7104
 6214SOL     OW30274   3.239   2.823  10.579 -0.2047  0.3846 -0.2008
 6214SOL    HW130275   3.315   2.811  10.636 -2.0424 -1.5786  1.8448
 6214SOL    HW230276   3.210   2.738  10.548  1.1389 -0.3728  0.6469
 6215SOL     OW30277   1.745   2.775   3.632  0.3344 -0.3347  0.6714
 6215SOL    HW130278   1.670   2.819   3.673 -0.7647 -2.4137  0.9400
 6215SOL    HW230279   1.813   2.804   3.692 -0.0096  2.3390 -0.2385
 6216SOL     OW30280   0.233   1.919   6.188 -0.7732  0.1848  0.1037
 6216SOL    HW130281   0.165   1.861   6.154 -0.9772  1.7024 -2.1104
 6216SOL    HW230282   0.273   1.855   6.247 -0.8702  0.3111  0.3042
 6217SOL     OW30283   0.502   0.360   6.972 -0.1639  0.2569  0.0819
 6217SOL    HW130284   0.550   0.399   7.045 -0.1074  0.5460 -0.1093
 6217SOL    HW230285   0.567   0.376   6.904 -1.6299 -0.1926 -1.4318
 6218SOL     OW30286   1.050   0.563   8.757  0.0786 -0.0970 -0.2972
 6218SOL    HW130287   1.135   0.553   8.714 -0.2280  0.3538 -0.9892
 6218SOL    HW230288   1.082   0.590   8.843 -0.9418  1.2768 -0.3588
 6219SOL     OW30289   3.451   2.510   3.157  0.4437  0.2259  0.1860
 6219SOL    HW130290   3.468   2.598   3.192 -1.6662  0.2981  1.0166
 6219SOL    HW230291   3.401   2.518   3.076  4.0642 -1.9686 -2.2650
 6220SOL     OW30292   1.519   4.668   3.947  0.3813 -0.2620 -0.0015
 6220SOL    HW130293   1.508   4.574   3.962 -1.2741  0.1191  1.1367
 6220SOL    HW230294   1.443   4.703   3.993 -0.5958 -3.7708  1.0645
 6221SOL     OW30295   0.864   3.140   3.838 -0.1293 -0.1011 -0.6434
 6221SOL    HW130296   0.914   3.153   3.757 -0.5059  0.2809 -0.8140
 6221SOL    HW230297   0.797   3.202   3.810 -0.3150 -1.0550 -2.3342
 6222SOL     OW30298   2.415   2.752  17.115 -0.5959  0.2323 -0.0841
 6222SOL    HW130299   2.380   2.679  17.063  0.5176  1.2028 -2.1852
 6222SOL    HW230300   2.493   2.709  17.149  0.5120  0.8467 -1.8063
 6223SOL     OW30301   1.293   0.549   8.637 -0.0559 -0.0496  0.4108
 6223SOL    HW130302   1.296   0.602   8.558 -0.0180  0.1644  0.5567
 6223SOL    HW230303   1.377   0.577   8.672  0.7620  0.6270 -2.0922
 6224SOL     OW30304   0.712   4.326   3.059  0.3465 -0.2959  0.4151
 6224SOL    HW130305   0.651   4.378   3.006  0.8566  1.0883  1.1896
 6224SOL    HW230306   0.690   4.236   3.035  0.4227 -0.1489 -0.2288
 6225SOL     OW30307   2.164   3.709   7.081  0.3084 -0.2169  0.1671
 6225SOL    HW130308   2.234   3.723   7.018 -0.1488  1.2240 -0.0260
 6225SOL    HW230309   2.130   3.799   7.080 -2.2786 -1.2167 -0.8125
 6226SOL     OW30310   0.386   1.078   3.401 -0.2188 -0.0014 -0.3540
 6226SOL    HW130311   0.449   1.148   3.382 -0.4262  1.0040  2.6860
 6226SOL    HW230312   0.353   1.114   3.483 -0.6370  2.1035 -1.4478
 6227SOL     OW30313   1.729   0.673  12.601  0.4334 -0.0423  0.8264
 6227SOL    HW130314   1.638   0.655  12.576 -0.0971  1.5392  1.6094
 6227SOL    HW230315   1.720   0.765  12.575 -1.6136  0.0851  1.9884
 6228SOL     OW30316   2.638   3.464   3.194  0.2649 -0.6595 -0.1629
 6228SOL    HW130317   2.704   3.437   3.130 -0.5536 -1.6366 -0.5967
 6228SOL    HW230318   2.635   3.559   3.185 -1.2553 -0.8265 -1.3217
 6229SOL     OW30319   2.754   1.199   5.170 -0.2498  0.1724 -0.2968
 6229SOL    HW130320   2.829   1.140   5.155  1.0905  2.1849 -1.5246
 6229SOL    HW230321   2.783   1.279   5.127 -0.0809 -0.6663 -1.7475
 6230SOL     OW30322   2.396   1.535   8.351 -0.2324 -0.2108  0.1790
 6230SOL    HW130323   2.466   1.599   8.335 -1.0210  0.5307 -0.3247
 6230SOL    HW230324   2.335   1.597   8.390 -1.3485 -0.6150 -0.9493
 6231SOL     OW30325   4.621   2.422   6.348 -0.2974  0.9160 -0.0011
 6231SOL    HW130326   4.614   2.349   6.287  1.0568  0.7838 -0.0091
 6231SOL    HW230327   4.596   2.494   6.291  0.9331  2.5865  1.5525
 6232SOL     OW30328   2.877   0.071   3.416 -0.4691  0.1637 -0.2273
 6232SOL    HW130329   2.882   0.137   3.485  0.7264 -0.1026 -0.0566
 6232SOL    HW230330   2.922   0.112   3.341  1.4966 -0.1945  0.7521
 6233SOL     OW30331   4.557   0.225   6.440 -0.0588  0.3726 -0.1405
 6233SOL    HW130332   4.578   0.189   6.526 -4.6862 -1.2411  0.3306
 6233SOL    HW230333   4.610   0.165   6.389 -1.4683 -0.0523 -1.1101
 6234SOL     OW30334   0.297   1.502   9.341 -0.5955  0.2326 -0.3650
 6234SOL    HW130335   0.323   1.419   9.301 -1.3359  0.1775 -0.7200
 6234SOL    HW230336   0.383   1.527   9.375 -0.1542 -0.6552 -0.8317
 6235SOL     OW30337   2.237   1.387   2.819 -0.0113  0.8319 -0.0218
 6235SOL    HW130338   2.322   1.404   2.860  0.0485 -2.3590  1.1613
 6235SOL    HW230339   2.260   1.308   2.770  1.0103  1.5538 -0.7059
 6236SOL     OW30340   4.328   1.685   0.674  0.0837  0.7076  0.1771
 6236SOL    HW130341   4.314   1.729   0.758  0.2938 -1.2120  1.2022
 6236SOL    HW230342   4.423   1.691   0.667  0.5191 -2.9826  2.6420
 6237SOL     OW30343   2.498   3.869   2.358 -0.5445 -0.0014 -0.6225
 6237SOL    HW130344   2.413   3.838   2.326 -0.1622 -0.4954 -1.1648
 6237SOL    HW230345   2.546   3.886   2.277  0.9683  1.2937  0.5398
 6238SOL     OW30346   0.425   0.408   3.804  0.1081  0.1299 -0.0544
 6238SOL    HW130347   0.450   0.484   3.857 -0.1020 -0.4127  0.8227
 6238SOL    HW230348   0.349   0.370   3.848  0.2079 -1.1033 -0.9419
 6239SOL     OW30349   2.508   0.104   4.648 -0.0845 -0.3139  0.0843
 6239SOL    HW130350   2.426   0.144   4.621  0.1252 -0.2725 -0.4778
 6239SOL    HW230351   2.471   0.016   4.653  0.6503 -0.5598  1.1910
 6240SOL     OW30352   2.429   3.404   3.523 -0.4346  0.2039 -0.3501
 6240SOL    HW130353   2.400   3.430   3.436 -1.1200 -0.0252 -0.1886
 6240SOL    HW230354   2.474   3.323   3.499 -1.4925 -1.1365  2.1063
 6241SOL     OW30355   3.338   1.419   6.800  1.1836  0.3285 -0.4650
 6241SOL    HW130356   3.418   1.409   6.850 -0.5277 -2.2815  1.7512
 6241SOL    HW230357   3.281   1.372   6.861  0.2328 -1.4644 -2.7377
 6242SOL     OW30358   0.620   4.168  11.536 -0.4711 -0.1879 -0.1948
 6242SOL    HW130359   0.605   4.081  11.573  0.6482  0.0609  0.8465
 6242SOL    HW230360   0.536   4.196  11.499 -0.6340  1.8161  1.7339
 6243SOL     OW30361   4.397   1.878   0.867  0.2121  0.0681 -0.0702
 6243SOL    HW130362   4.401   1.937   0.792 -0.0992  0.6713  0.3942
 6243SOL    HW230363   4.352   1.938   0.926 -0.4172 -1.4668  1.0056
 6244SOL     OW30364   2.476   0.952   7.886 -0.0665 -0.3662 -0.2723
 6244SOL    HW130365   2.483   0.857   7.893  0.9023 -0.4354 -2.4650
 6244SOL    HW230366   2.521   0.980   7.966 -2.9683  0.0177  1.2477
 6245SOL     OW30367   2.598   1.633  15.440 -0.4491  0.1400  0.6138
 6245SOL    HW130368   2.508   1.621  15.409 -1.2000 -0.5767  3.0337
 6245SOL    HW230369   2.633   1.700  15.382 -0.8799 -0.2639 -0.1107
 6246SOL     OW30370   2.539   0.620   6.429 -0.0591 -0.0162 -0.2097
 6246SOL    HW130371   2.594   0.692   6.462  1.0676 -1.0414  0.1633
 6246SOL    HW230372   2.448   0.628   6.459 -0.0655  1.3542 -0.5829
 6247SOL     OW30373   2.997   4.324   3.653 -0.1652 -0.3239  0.4118
 6247SOL    HW130374   3.086   4.305   3.623  0.0748 -0.7621  1.4005
 6247SOL    HW230375   2.972   4.394   3.593 -2.5315 -1.1203  0.4911
 6248SOL     OW30376   3.134   2.537   2.150  0.0084 -0.3461 -0.3278
 6248SOL    HW130377   3.207   2.492   2.106 -1.6352 -1.2344 -2.1241
 6248SOL    HW230378   3.171   2.623   2.171 -0.3220 -0.8580  2.3902
 6249SOL     OW30379   0.625   1.570   2.008  0.4343 -0.0900  0.1668
 6249SOL    HW130380   0.644   1.654   2.050 -0.1893 -0.4305  1.1439
 6249SOL    HW230381   0.530   1.579   1.994 -0.3253 -0.9505  4.7909
 6250SOL     OW30382   3.975   3.727   2.102 -0.3013 -0.1287 -0.5805
 6250SOL    HW130383   4.040   3.771   2.158 -0.6350  0.3596 -0.5701
 6250SOL    HW230384   4.024   3.712   2.021 -0.8200 -1.8446 -0.5634
 6251SOL     OW30385   2.000   3.046   5.125 -0.2322 -0.2957  0.1822
 6251SOL    HW130386   1.906   3.061   5.134 -0.0320  1.0576  0.0243
 6251SOL    HW230387   2.015   2.988   5.200 -0.5728 -1.2859 -0.5088
 6252SOL     OW30388   0.308   3.508   2.081 -0.4128 -0.2036  0.1867
 6252SOL    HW130389   0.228   3.465   2.111 -1.8046  0.9497 -1.8163
 6252SOL    HW230390   0.364   3.431   2.086  0.3757  0.4462  1.4430
 6253SOL     OW30391   1.981   2.319   1.802 -0.3535 -0.2601 -0.3531
 6253SOL    HW130392   1.965   2.356   1.889  1.0574  2.8077 -1.4136
 6253SOL    HW230393   1.919   2.246   1.804  0.3304 -0.7614  3.1783
 6254SOL     OW30394   4.437   4.337   5.695  0.6225  0.7939 -0.1318
 6254SOL    HW130395   4.423   4.353   5.602 -2.8505  2.0060  0.5920
 6254SOL    HW230396   4.347   4.309   5.713  0.7827 -1.5342 -3.0449
 6255SOL     OW30397   0.076   0.060   4.327  0.0686  0.0739  0.4817
 6255SOL    HW130398   0.129   0.135   4.352  1.0300 -0.0972 -1.0124
 6255SOL    HW230399   0.098   4.734   4.394 -1.7225  0.6335  1.6180
 6256SOL     OW30400   0.164   4.152  17.400  0.0640 -0.1743  0.3179
 6256SOL    HW130401   0.070   4.134  17.399  0.0259 -0.0397  1.8461
 6256SOL    HW230402   0.181   4.228  17.455  1.0360 -1.0058  1.1446
 6257SOL     OW30403   2.064   2.984   1.512 -0.8945 -0.1398 -0.1832
 6257SOL    HW130404   1.975   3.018   1.515 -0.2521  1.5591 -0.1057
 6257SOL    HW230405   2.040   2.893   1.495  3.3015 -1.0834 -1.1161
 6258SOL     OW30406   4.480   0.417   9.642  0.8725  0.3835  0.4228
 6258SOL    HW130407   4.431   0.484   9.594  1.7322  0.2297 -0.6581
 6258SOL    HW230408   4.408   0.371   9.686  1.5024  0.4551  1.5312
 6259SOL     OW30409   3.538   1.614   7.604 -0.5331  0.2474 -0.2576
 6259SOL    HW130410   3.532   1.532   7.556  1.5302 -0.7654  1.2247
 6259SOL    HW230411   3.541   1.581   7.694 -2.0387 -0.5365 -0.4880
 6260SOL     OW30412   1.655   1.043  10.253 -0.2919 -0.3560  0.8665
 6260SOL    HW130413   1.687   0.960  10.288  0.6520 -0.2607  0.2252
 6260SOL    HW230414   1.669   1.102  10.327  2.8692  1.3130 -1.0286
 6261SOL     OW30415   2.385   1.433   4.358  0.3389 -0.0763 -0.5734
 6261SOL    HW130416   2.462   1.480   4.326  0.2937 -0.1291 -0.7647
 6261SOL    HW230417   2.406   1.340   4.347 -0.1079 -0.2774  0.2452
 6262SOL     OW30418   1.884   1.231  10.869 -0.1188  0.1344  0.0218
 6262SOL    HW130419   1.895   1.279  10.788  3.2615 -0.3340  0.2238
 6262SOL    HW230420   1.790   1.214  10.871 -0.2256  0.9661  1.8590
 6263SOL     OW30421   1.435   2.879   4.738 -0.3963 -0.4557  0.6582
 6263SOL    HW130422   1.387   2.841   4.664  0.8870 -1.1650  0.1845
 6263SOL    HW230423   1.523   2.845   4.723  0.2146  2.4926 -2.6127
 6264SOL     OW30424   3.255   0.829   2.065  0.3747 -0.7601  0.0134
 6264SOL    HW130425   3.228   0.886   2.136  0.2285 -2.6070  1.4454
 6264SOL    HW230426   3.187   0.763   2.077 -1.8938  1.5729 -0.0076
 6265SOL     OW30427   1.738   0.778   8.402  0.4544 -0.0270  0.4311
 6265SOL    HW130428   1.780   0.864   8.398 -0.1276  0.2402  0.0568
 6265SOL    HW230429   1.672   0.784   8.471  0.0501 -1.1885  0.1519
 6266SOL     OW30430   1.677   0.310   9.590 -0.5529  0.5325 -0.1873
 6266SOL    HW130431   1.710   0.278   9.506  0.0354  0.6095  0.0157
 6266SOL    HW230432   1.702   0.403   9.588 -1.6184  0.8201 -0.3623
 6267SOL     OW30433   1.514   0.605   3.252  0.2700  0.0437 -0.4463
 6267SOL    HW130434   1.572   0.553   3.307  2.3208  2.5654 -0.2452
 6267SOL    HW230435   1.441   0.615   3.312  1.0490 -1.4229  0.7461
 6268SOL     OW30436   4.275   2.236   8.045  0.1192  0.1603 -0.2260
 6268SOL    HW130437   4.347   2.272   8.097 -0.6162  0.2525  0.7334
 6268SOL    HW230438   4.200   2.255   8.102  1.5187  0.0744  1.6555
 6269SOL     OW30439   4.000   2.858   8.200 -0.1627  0.4773  0.0600
 6269SOL    HW130440   3.986   2.848   8.294 -0.0865  0.4486  0.0678
 6269SOL    HW230441   3.999   2.767   8.170  1.7979  0.8719 -1.1544
 6270SOL     OW30442   3.048   3.256  17.242  0.6179  0.1436  0.4376
 6270SOL    HW130443   3.104   3.228  17.315  1.1633 -0.0867 -0.0726
 6270SOL    HW230444   2.966   3.261  17.292 -0.0986 -1.7381 -0.5348
 6271SOL     OW30445   0.678   4.631  14.917 -0.1337 -0.1987 -0.1900
 6271SOL    HW130446   0.723   4.632  14.832 -0.6737 -1.4080 -0.4971
 6271SOL    HW230447   0.743   4.611  14.984  0.6781 -1.5267 -1.3752
 6272SOL     OW30448   0.119   3.515   1.039 -0.0680 -0.4348 -0.2542
 6272SOL    HW130449   0.038   3.552   1.005 -0.0020  0.3911  0.4831
 6272SOL    HW230450   0.127   3.563   1.122  2.0485 -0.6225 -0.3412
 6273SOL     OW30451   2.200   2.181   1.974  0.4989  0.1362  0.0635
 6273SOL    HW130452   2.166   2.174   2.063 -1.3744  0.7390 -0.6124
 6273SOL    HW230453   2.137   2.129   1.925  0.9124 -0.7488  0.4603
 6274SOL     OW30454   3.898   1.974   8.131 -0.3038  0.2956 -0.6410
 6274SOL    HW130455   3.804   1.969   8.115 -0.0442  1.6910 -2.6494
 6274SOL    HW230456   3.911   1.975   8.226 -0.3113  0.0091 -0.6361
 6275SOL     OW30457   4.671   1.184   6.855  0.2519 -0.3412  0.3023
 6275SOL    HW130458   4.637   1.108   6.902  2.5087 -0.1521  2.2534
 6275SOL    HW230459   4.598   1.245   6.851  0.3886 -0.2649 -1.2968
 6276SOL     OW30460   2.753   4.287   5.643 -0.1767  0.0376  0.3149
 6276SOL    HW130461   2.786   4.272   5.554  1.1443 -0.5081  0.8991
 6276SOL    HW230462   2.814   4.236   5.696 -0.5271 -0.3436  0.3599
 6277SOL     OW30463   0.164   1.900   5.604 -0.1208  0.9800  0.0349
 6277SOL    HW130464   0.242   1.953   5.621  0.4768 -0.4225  1.7179
 6277SOL    HW230465   0.111   1.942   5.672  1.5468  0.5367  1.6261
 6278SOL     OW30466   4.361   2.354   7.534  0.4512  0.0037  0.2490
 6278SOL    HW130467   4.331   2.357   7.625 -2.0733  1.8786 -0.6225
 6278SOL    HW230468   4.453   2.373   7.553  0.9625 -2.8756  0.6359
 6279SOL     OW30469   1.902   1.016   2.880 -0.2062  0.0007  0.0417
 6279SOL    HW130470   1.890   1.048   2.970  1.4565  2.4175 -0.6135
 6279SOL    HW230471   1.998   1.016   2.880 -0.1903  1.9066  0.8865
 6280SOL     OW30472   1.085   0.100   0.509  0.4489  0.1566  0.3697
 6280SOL    HW130473   1.003   0.128   0.468  0.4500  2.6930  2.1195
 6280SOL    HW230474   1.081   0.153   0.589 -0.5237  0.7208 -0.0545
 6281SOL     OW30475   0.614   0.851   6.288 -0.0200 -0.8508  0.6967
 6281SOL    HW130476   0.570   0.806   6.216  0.0125 -0.3621  0.3697
 6281SOL    HW230477   0.696   0.803   6.278 -0.7502 -2.0569  0.5273
 6282SOL     OW30478   1.409   2.658   4.994  0.3407  0.3143  0.5065
 6282SOL    HW130479   1.441   2.719   4.926 -1.1324  1.1449  0.5421
 6282SOL    HW230480   1.370   2.589   4.940  1.0187  0.0619  0.3375
 6283SOL     OW30481   3.060   1.448  14.843  0.2669 -0.4418 -0.5360
 6283SOL    HW130482   3.087   1.510  14.774  1.4136  0.5161  0.7676
 6283SOL    HW230483   3.123   1.465  14.913 -0.5268  0.2319  0.0154
 6284SOL     OW30484   1.625   0.525   1.278  0.2120 -0.1361 -0.1760
 6284SOL    HW130485   1.721   0.521   1.285  0.2833 -0.5573 -1.5393
 6284SOL    HW230486   1.624   0.580   1.199 -1.0060 -0.4913 -0.4031
 6285SOL     OW30487   0.688   1.861  12.384  0.2758 -0.1751  0.2184
 6285SOL    HW130488   0.701   1.873  12.290  1.6202  0.5278  0.4875
 6285SOL    HW230489   0.776   1.831  12.407 -0.7373 -1.5930  2.2672
 6286SOL     OW30490   4.078   0.629  17.423  0.4530  0.2439 -0.1484
 6286SOL    HW130491   4.037   0.716  17.424 -1.2630 -0.5700  0.7442
 6286SOL    HW230492   4.091   0.606  17.515  0.7261 -1.5938 -0.6404
 6287SOL     OW30493   1.584   1.228   6.775 -0.1612 -0.1664 -0.1296
 6287SOL    HW130494   1.675   1.229   6.745 -0.1679  0.6269 -0.1216
 6287SOL    HW230495   1.549   1.158   6.720 -0.1408 -2.3741  2.6523
 6288SOL     OW30496   1.307   1.751  14.003 -0.3185 -0.5039 -0.1085
 6288SOL    HW130497   1.326   1.664  14.036  1.7721 -0.4524 -1.1797
 6288SOL    HW230498   1.388   1.762  13.954 -0.3450  0.1021 -0.0193
 6289SOL     OW30499   1.732   4.660  15.775 -0.9034  0.0289 -0.3148
 6289SOL    HW130500   1.721   4.722  15.847 -0.0918 -0.0514 -0.1237
 6289SOL    HW230501   1.643   4.625  15.774 -0.8733 -0.0851  0.7524
 6290SOL     OW30502   2.579   1.076   8.395  0.6300 -0.4126 -0.2013
 6290SOL    HW130503   2.489   1.076   8.429 -0.3445 -0.1261 -2.7548
 6290SOL    HW230504   2.614   1.139   8.458 -0.5176  0.3824 -0.3401
 6291SOL     OW30505   2.492   0.954   3.116  0.2567  0.2738  0.2225
 6291SOL    HW130506   2.419   0.892   3.119  1.9594 -1.5938  3.4662
 6291SOL    HW230507   2.472   1.009   3.192  0.1501  0.3545  0.1354
 6292SOL     OW30508   1.885   2.639   1.985 -0.2492 -0.0027 -0.0403
 6292SOL    HW130509   1.905   2.658   2.077 -1.0870  0.2018  0.0990
 6292SOL    HW230510   1.880   2.544   1.994 -1.8631  0.0685 -0.1885
 6293SOL     OW30511   1.744   2.872   1.799  0.2491  0.5703  0.5015
 6293SOL    HW130512   1.685   2.839   1.867 -0.7174  0.6599 -0.3026
 6293SOL    HW230513   1.680   2.879   1.728 -0.1788 -2.2147  0.6115
 6294SOL     OW30514   1.955   2.076  17.589 -0.2387 -0.3132 -0.4168
 6294SOL    HW130515   2.048   2.073  17.565 -0.2683 -2.2078 -0.2692
 6294SOL    HW230516   1.941   1.991  17.631  0.2306  0.0813  0.5587
 6295SOL     OW30517   0.650   0.825   0.798  0.2165  0.9002  0.0250
 6295SOL    HW130518   0.652   0.817   0.702 -1.4900 -1.4755  0.1768
 6295SOL    HW230519   0.580   0.763   0.818  0.1406  1.5664  1.7410
 6296SOL     OW30520   2.410   0.477   3.191  0.1317  0.3354  0.0615
 6296SOL    HW130521   2.331   0.432   3.222 -0.6483  0.1158 -2.2946
 6296SOL    HW230522   2.393   0.563   3.229  0.0844  0.0591  0.6731
 6297SOL     OW30523   1.296   3.755   7.152 -0.2990 -0.0918  0.4269
 6297SOL    HW130524   1.229   3.766   7.219  2.2705  0.6096  2.8806
 6297SOL    HW230525   1.363   3.709   7.202 -2.3333 -2.6081  0.8433
 6298SOL     OW30526   1.168   1.107   3.356 -0.3781  0.2614 -0.3675
 6298SOL    HW130527   1.110   1.168   3.310 -0.8579  0.6083  0.7189
 6298SOL    HW230528   1.249   1.127   3.309  0.2523 -1.1497  0.1095
 6299SOL     OW30529   3.229   4.573   2.501  0.8801 -0.0068  0.2237
 6299SOL    HW130530   3.186   4.533   2.425  2.8329  1.1404 -1.5057
 6299SOL    HW230531   3.276   4.645   2.458 -1.2673  0.6158 -1.0953
 6300SOL     OW30532   4.102   1.405   0.394 -0.1540 -0.2742  0.0428
 6300SOL    HW130533   4.130   1.494   0.373 -0.5545 -0.0807  0.3283
 6300SOL    HW230534   4.118   1.408   0.489 -0.4954  0.7415  0.0625
 6301SOL     OW30535   0.703   0.412   3.136 -0.6065 -0.7790 -0.3261
 6301SOL    HW130536   0.628   0.372   3.179  0.1553 -0.1718  1.5922
 6301SOL    HW230537   0.716   0.489   3.192  0.2115 -0.8235 -0.4568
 6302SOL     OW30538   3.161   0.491   2.544  0.1491  0.7533 -0.4395
 6302SOL    HW130539   3.170   0.416   2.485  1.3994 -0.4942  1.3594
 6302SOL    HW230540   3.209   0.460   2.620 -1.3038 -1.3283 -0.3644
 6303SOL     OW30541   0.807   4.234   1.923 -0.4556  0.0298 -0.4097
 6303SOL    HW130542   0.745   4.290   1.971 -0.7306  0.5103 -1.3372
 6303SOL    HW230543   0.847   4.300   1.868  1.9528 -1.2873 -0.2208
 6304SOL     OW30544   2.028   1.167   1.001  0.2390 -0.6775 -0.6326
 6304SOL    HW130545   2.019   1.152   0.906 -0.4342 -4.0582 -0.0524
 6304SOL    HW230546   2.026   1.262   1.003 -1.9869 -0.7341 -0.8208
 6305SOL     OW30547   2.767   1.136   3.050 -0.1363 -0.2593 -0.6590
 6305SOL    HW130548   2.780   1.228   3.075 -0.1512 -0.7801  1.2935
 6305SOL    HW230549   2.675   1.127   3.075  0.9807 -1.5944  3.0270
 6306SOL     OW30550   0.374   4.706   4.662 -0.2118  0.6129 -0.0941
 6306SOL    HW130551   0.435   0.041   4.665  1.9944 -1.1202 -2.6546
 6306SOL    HW230552   0.370   4.690   4.568 -0.2105  1.0276 -0.1686
 6307SOL     OW30553   4.351   3.777   8.723  0.3792 -0.5393  0.1639
 6307SOL    HW130554   4.359   3.872   8.733 -1.9162 -0.7065  3.6727
 6307SOL    HW230555   4.359   3.745   8.813 -0.2498 -0.3950  0.2714
 6308SOL     OW30556   1.395   2.254   3.894  0.1717 -0.0418 -0.1955
 6308SOL    HW130557   1.436   2.319   3.837  0.5186 -0.4469 -0.4080
 6308SOL    HW230558   1.325   2.314   3.920  0.6340  1.2778 -1.9765
 6309SOL     OW30559   1.531   3.311   8.391  0.3670 -0.0726 -0.6246
 6309SOL    HW130560   1.482   3.307   8.309 -0.8506 -2.7474  0.2455
 6309SOL    HW230561   1.456   3.303   8.450  1.0359  1.2287  0.3859
 6310SOL     OW30562   4.356   1.656  17.676 -0.0122  0.4512 -0.3010
 6310SOL    HW130563   4.372   1.703   0.003 -2.9099  1.8538 -0.5227
 6310SOL    HW230564   4.368   1.721  17.607  0.3615  1.3100  0.5801
 6311SOL     OW30565   1.268   2.491   7.116  0.6602  0.2625 -0.4014
 6311SOL    HW130566   1.335   2.424   7.130  0.2586 -0.0739 -0.0903
 6311SOL    HW230567   1.202   2.465   7.180  0.8832  0.9848  0.1205
 6312SOL     OW30568   1.122   2.772   8.523 -0.2930  0.7923  0.0516
 6312SOL    HW130569   1.089   2.684   8.504 -1.4541  1.6326 -1.7122
 6312SOL    HW230570   1.130   2.810   8.436  1.7598  2.1629  0.8314
 6313SOL     OW30571   2.104   1.391   2.416 -0.2335  0.4789  0.0630
 6313SOL    HW130572   2.110   1.306   2.460 -0.9420  0.2769 -0.2296
 6313SOL    HW230573   2.010   1.406   2.427  0.0627  2.7024 -0.5026
 6314SOL     OW30574   2.644   4.614   6.490 -0.0669 -0.2109  0.6300
 6314SOL    HW130575   2.595   4.559   6.551 -0.2027  0.8370  1.4648
 6314SOL    HW230576   2.570   4.662   6.452 -0.6484 -0.2209  1.7571
 6315SOL     OW30577   1.359   0.831   4.894  0.4913 -0.0868  0.2241
 6315SOL    HW130578   1.343   0.815   4.801  1.2584 -0.6226  0.1909
 6315SOL    HW230579   1.454   0.836   4.892  0.5241 -0.7141  0.2351
 6316SOL     OW30580   4.127   2.947  14.726 -0.4530  0.1625 -0.1180
 6316SOL    HW130581   4.126   2.920  14.634 -0.6336  2.6865 -0.8545
 6316SOL    HW230582   4.184   2.877  14.757 -0.1356  0.8693  0.9152
 6317SOL     OW30583   2.525   1.666   5.457 -0.5121 -0.4158 -0.4977
 6317SOL    HW130584   2.494   1.750   5.422 -0.8685 -0.5823 -0.5796
 6317SOL    HW230585   2.463   1.609   5.413 -0.9766 -0.1730 -0.1611
 6318SOL     OW30586   4.184   2.824   7.407  0.4290 -0.0304  0.2515
 6318SOL    HW130587   4.203   2.731   7.421  0.8244  0.2049  1.2885
 6318SOL    HW230588   4.109   2.838   7.465  0.9160 -0.7862  1.0797
 6319SOL     OW30589   0.613   2.629   3.527 -0.5144  0.0874  0.2043
 6319SOL    HW130590   0.623   2.662   3.438  1.7041  0.7509  0.7219
 6319SOL    HW230591   0.576   2.543   3.505  0.4305 -0.1005 -0.6351
 6320SOL     OW30592   3.823   1.940   5.211  0.5756 -0.2619 -0.3487
 6320SOL    HW130593   3.802   1.877   5.143 -1.3145  1.9172 -1.7925
 6320SOL    HW230594   3.833   2.020   5.160 -0.9001  0.7059  0.8637
 6321SOL     OW30595   2.382   0.978   8.572  0.2051  0.3558 -0.3184
 6321SOL    HW130596   2.352   1.031   8.646 -2.0339  0.2083 -1.1250
 6321SOL    HW230597   2.459   0.952   8.622  0.1800 -0.8772 -0.9234
 6322SOL     OW30598   2.880   2.748  17.060  0.2166 -0.2120 -0.1154
 6322SOL    HW130599   2.882   2.788  16.973  0.4728 -0.2339 -0.1198
 6322SOL    HW230600   2.915   2.825  17.104  2.2918 -0.9371 -0.5138
 6323SOL     OW30601   4.000   4.573  14.563 -0.0762  0.2189 -1.0921
 6323SOL    HW130602   3.954   4.510  14.508 -0.0254  0.9895 -2.0311
 6323SOL    HW230603   3.930   4.612  14.614 -0.0700  0.9657 -1.6541
 6324SOL     OW30604   3.826   2.933   1.388  0.3919  0.0818  0.4149
 6324SOL    HW130605   3.791   2.995   1.324 -0.9011  0.6342  1.6400
 6324SOL    HW230606   3.752   2.874   1.401  0.2265  0.1855 -0.0556
 6325SOL     OW30607   2.617   0.265   3.998  0.4926  0.0840  0.5858
 6325SOL    HW130608   2.609   0.358   3.978 -0.2475  0.2930  1.8403
 6325SOL    HW230609   2.589   0.261   4.089  0.5224 -0.1267  0.5870
 6326SOL     OW30610   1.351   0.609   1.870 -0.2934 -0.0323  0.1044
 6326SOL    HW130611   1.299   0.555   1.810  2.1350 -0.4794 -1.5696
 6326SOL    HW230612   1.282   0.663   1.907  1.3676  2.1481  0.0018
 6327SOL     OW30613   1.367   0.913  14.802  0.1877  0.1662  0.4495
 6327SOL    HW130614   1.453   0.873  14.818 -0.3257 -0.6063  1.2721
 6327SOL    HW230615   1.385   0.949  14.715  0.6679 -0.7264  0.1739
 6328SOL     OW30616   4.059   4.403   8.788  0.0856 -0.0781 -0.1069
 6328SOL    HW130617   4.131   4.399   8.725  1.8023  1.2392  1.7400
 6328SOL    HW230618   4.059   4.499   8.794  2.6978 -0.1165  0.6130
 6329SOL     OW30619   3.598   1.088   2.773  0.1622  0.6678 -0.4711
 6329SOL    HW130620   3.585   1.156   2.707  1.8502 -0.7074 -2.2283
 6329SOL    HW230621   3.551   1.016   2.731  0.1048 -0.5626  1.7001
 6330SOL     OW30622   3.723   3.486   5.763 -0.1701  0.1814  0.1875
 6330SOL    HW130623   3.772   3.567   5.767 -1.6918  1.0136  1.7278
 6330SOL    HW230624   3.775   3.433   5.824  0.4763 -0.8950 -1.2905
 6331SOL     OW30625   4.125   3.781  13.189 -0.3446  0.5490 -0.2398
 6331SOL    HW130626   4.125   3.825  13.104  2.4213  1.1353  0.0493
 6331SOL    HW230627   4.205   3.821  13.223 -0.9274  1.5308 -0.0145
 6332SOL     OW30628   3.809   4.516   2.991  0.2618 -0.3243  0.5508
 6332SOL    HW130629   3.733   4.508   2.933  1.3189  0.0907 -0.8879
 6332SOL    HW230630   3.814   4.425   3.019 -0.8912 -0.7004 -0.4618
 6333SOL     OW30631   0.922   2.691   5.661 -0.0286  0.3525  0.6372
 6333SOL    HW130632   0.885   2.706   5.748  0.5363  1.2941  0.7185
 6333SOL    HW230633   0.912   2.777   5.622  0.1552  0.2893  0.4500
 6334SOL     OW30634   4.453   2.370   5.986 -0.1981  0.3500 -0.1740
 6334SOL    HW130635   4.542   2.336   5.992 -0.6686 -0.9993 -0.8458
 6334SOL    HW230636   4.430   2.367   5.893  0.8824 -0.8853 -0.3863
 6335SOL     OW30637   1.580   1.052  11.593  0.1710 -0.4918 -0.0432
 6335SOL    HW130638   1.628   1.081  11.670  0.7755 -0.5968 -0.3834
 6335SOL    HW230639   1.631   0.980  11.555  0.3216 -0.3699 -0.0725
 6336SOL     OW30640   1.835   0.500  12.775  0.3949  0.5014 -0.3193
 6336SOL    HW130641   1.796   0.575  12.730  0.6572  0.7772 -0.0962
 6336SOL    HW230642   1.815   0.429  12.715  0.1756 -1.2286  1.7749
 6337SOL     OW30643   1.955   1.809   7.718  0.1368  0.3468 -0.7696
 6337SOL    HW130644   1.952   1.753   7.796 -0.1562 -0.1999 -1.1805
 6337SOL    HW230645   1.951   1.750   7.643  1.5888 -0.8091  0.0578
 6338SOL     OW30646   2.002   2.822  13.071  0.4072  0.0834  0.1680
 6338SOL    HW130647   2.047   2.901  13.100 -0.2468  0.6796 -0.4472
 6338SOL    HW230648   1.907   2.835  13.073  0.6872  2.2581 -1.3962
 6339SOL     OW30649   0.201   2.333   5.712  0.1192 -0.1638 -0.1053
 6339SOL    HW130650   0.237   2.354   5.798 -0.7743  0.1099  0.2035
 6339SOL    HW230651   0.260   2.260   5.696  0.2313 -0.6786  2.6335
 6340SOL     OW30652   0.577   2.843   5.814 -0.9148 -0.5875 -0.6110
 6340SOL    HW130653   0.647   2.891   5.859 -1.2553  0.0934 -0.8128
 6340SOL    HW230654   0.559   2.782   5.885  0.4646  1.5402  1.5488
 6341SOL     OW30655   2.182   0.577  12.394 -0.2686  0.0926  0.2746
 6341SOL    HW130656   2.264   0.556  12.438  1.0705  1.0686 -1.7578
 6341SOL    HW230657   2.207   0.609  12.307  1.8088  0.4554  0.9969
 6342SOL     OW30658   0.082   2.106  14.221 -0.4058  0.2147  0.0232
 6342SOL    HW130659   0.141   2.098  14.146 -0.5545 -1.0056  0.0400
 6342SOL    HW230660   0.116   2.046  14.288 -1.5125 -0.7165 -0.2458
 6343SOL     OW30661   2.961   0.869   6.066 -0.6763 -0.4011 -0.2338
 6343SOL    HW130662   3.048   0.904   6.085 -0.8380  0.0575 -0.3372
 6343SOL    HW230663   2.975   0.863   5.972  0.3135  1.3106 -0.1932
 6344SOL     OW30664   3.429   0.183   6.717  0.0207 -0.3397 -0.4183
 6344SOL    HW130665   3.365   0.176   6.647 -0.5512  0.6673 -0.0123
 6344SOL    HW230666   3.500   0.229   6.673 -0.2094  1.3206  0.9278
 6345SOL     OW30667   1.079   0.479   2.378 -0.1587  0.2606 -0.3921
 6345SOL    HW130668   1.133   0.501   2.454  1.5524 -0.5663 -1.3663
 6345SOL    HW230669   1.027   0.407   2.414  2.1721 -0.8084  0.8377
 6346SOL     OW30670   4.348   0.783   4.496  0.1169  0.5980 -0.3885
 6346SOL    HW130671   4.394   0.723   4.555  0.7678  2.0667  0.6081
 6346SOL    HW230672   4.259   0.791   4.531 -0.4178 -2.2795 -1.1358
 6347SOL     OW30673   0.990   0.989   0.571  0.1742 -0.1200 -0.4519
 6347SOL    HW130674   0.977   0.920   0.636  3.5008 -0.6232 -0.2910
 6347SOL    HW230675   1.005   1.060   0.634  0.6391 -1.0209  0.4529
 6348SOL     OW30676   4.401   4.506   4.115  0.0807  0.3926 -0.2355
 6348SOL    HW130677   4.467   4.570   4.142  0.2444  0.5022 -0.9035
 6348SOL    HW230678   4.376   4.465   4.198 -0.5208  0.5083 -0.3614
 6349SOL     OW30679   0.419   0.583   5.694 -0.7079 -0.0317  0.0328
 6349SOL    HW130680   0.486   0.523   5.660 -0.0537 -1.0226  3.0479
 6349SOL    HW230681   0.448   0.672   5.678  3.7948 -1.8537 -1.9667
 6350SOL     OW30682   0.864   1.694   2.314  1.0618  0.3300  0.7720
 6350SOL    HW130683   0.951   1.734   2.317  1.6536 -0.8836 -0.2704
 6350SOL    HW230684   0.889   1.607   2.283 -1.4191  0.2718 -1.1398
 6351SOL     OW30685   3.634   1.377   7.359  0.0725  0.2068  0.1386
 6351SOL    HW130686   3.604   1.366   7.449  1.8763 -1.8681  0.4900
 6351SOL    HW230687   3.558   1.347   7.310  0.7156 -2.8229  0.9816
 6352SOL     OW30688   3.926   1.454   4.025  0.0875 -0.2562 -0.2097
 6352SOL    HW130689   4.014   1.488   4.012  0.3390 -0.8528 -0.0395
 6352SOL    HW230690   3.883   1.540   4.022  2.7561  1.2295  3.8585
 6353SOL     OW30691   1.380   4.226   7.009 -0.0414  0.1791 -0.1584
 6353SOL    HW130692   1.396   4.170   7.086 -0.3562  0.4165  0.0783
 6353SOL    HW230693   1.410   4.169   6.939 -0.3422  0.6135 -0.6371
 6354SOL     OW30694   4.014   3.307   6.581 -0.0994 -0.0528  0.4389
 6354SOL    HW130695   3.969   3.253   6.646  0.6906  0.9520  1.8493
 6354SOL    HW230696   4.060   3.366   6.642  1.0849 -0.7969  0.2686
 6355SOL     OW30697   2.377   0.801   9.805  0.0021 -0.3842 -0.1360
 6355SOL    HW130698   2.332   0.798   9.890  0.8414 -3.1325  0.1935
 6355SOL    HW230699   2.389   0.707   9.797 -0.7312 -0.5035  0.1639
 6356SOL     OW30700   0.094   0.167   2.849  0.0074 -0.1742  0.4036
 6356SOL    HW130701   0.110   0.196   2.939  0.0302  0.7898  0.0888
 6356SOL    HW230702   0.014   0.219   2.841 -0.5240 -0.9705  0.5471
 6357SOL     OW30703   0.563   0.854  12.843 -0.2815  0.1157 -0.6697
 6357SOL    HW130704   0.539   0.901  12.923  0.5366 -0.4413 -0.0906
 6357SOL    HW230705   0.547   0.766  12.878  2.1899  0.5286  1.4823
 6358SOL     OW30706   2.060   2.905  11.523  0.5146 -0.5777 -0.5020
 6358SOL    HW130707   2.099   2.820  11.506 -0.6293 -1.5041  1.4355
 6358SOL    HW230708   1.972   2.881  11.494  0.2322  0.5824 -0.6123
 6359SOL     OW30709   2.616   3.862   3.674 -0.3001 -0.8696 -0.2344
 6359SOL    HW130710   2.674   3.934   3.650  0.3439 -1.0402  0.8447
 6359SOL    HW230711   2.645   3.837   3.761  2.7277  1.1370 -0.6651
 6360SOL     OW30712   1.356   2.115   9.148  0.0194  0.2329 -0.1531
 6360SOL    HW130713   1.424   2.132   9.214 -0.1886 -0.1158  0.1538
 6360SOL    HW230714   1.408   2.069   9.082 -2.2910 -0.6866 -1.2997
 6361SOL     OW30715   3.382   2.572   3.591  0.7550  0.6286  0.3179
 6361SOL    HW130716   3.410   2.593   3.680  1.3375  1.6120 -0.0982
 6361SOL    HW230717   3.377   2.481   3.619  1.7296 -0.6210 -3.5146
 6362SOL     OW30718   1.661   2.420   9.097 -0.0400 -0.4848  0.8619
 6362SOL    HW130719   1.591   2.390   9.039  0.4291  2.0190 -0.9758
 6362SOL    HW230720   1.739   2.383   9.054 -0.4290 -0.3988  0.0837
 6363SOL     OW30721   3.765   4.089  14.146  0.1908  0.2972 -0.0837
 6363SOL    HW130722   3.686   4.101  14.094 -1.3084 -0.3760  1.9993
 6363SOL    HW230723   3.775   4.173  14.191  0.6943  0.6022 -0.7809
 6364SOL     OW30724   3.808   3.085   4.941 -0.0134 -0.5405  0.4050
 6364SOL    HW130725   3.858   3.142   5.000 -0.9233  2.3450 -1.5906
 6364SOL    HW230726   3.877   3.063   4.878 -0.9478  0.7225 -1.0749
 6365SOL     OW30727   0.957   2.221  11.477  0.2132  0.0554  0.1150
 6365SOL    HW130728   0.935   2.239  11.568  1.6899 -1.1556  0.7094
 6365SOL    HW230729   0.877   2.185  11.438 -1.0832  0.5650  2.3753
 6366SOL     OW30730   2.492   4.663   8.496  0.2838  0.2933 -0.6253
 6366SOL    HW130731   2.578   4.667   8.537 -0.6467  0.7303  1.2869
 6366SOL    HW230732   2.513   4.635   8.407 -1.4172  2.6654 -1.7702
 6367SOL     OW30733   3.746   4.172  16.633  0.8454 -0.3971 -0.3157
 6367SOL    HW130734   3.748   4.079  16.658  1.3500 -0.4589 -0.5867
 6367SOL    HW230735   3.771   4.203  16.720  1.2113  1.6391 -1.1599
 6368SOL     OW30736   0.248   4.704   5.172 -0.1419  0.4668  0.1089
 6368SOL    HW130737   0.302   4.626   5.173  1.7733  1.8288  1.3640
 6368SOL    HW230738   0.230   4.707   5.077  0.7123  0.9000 -0.0409
 6369SOL     OW30739   1.020   3.110   3.173 -0.2073 -0.3788  0.0304
 6369SOL    HW130740   1.006   3.015   3.171 -1.1187 -0.2699  1.4113
 6369SOL    HW230741   1.076   3.126   3.097  1.5872 -2.6028  0.8559
 6370SOL     OW30742   3.032   3.916   3.016 -0.1292 -0.5476 -0.0048
 6370SOL    HW130743   2.986   3.903   3.099  0.1753 -1.2104  0.0640
 6370SOL    HW230744   2.959   3.931   2.956  1.1048 -0.9226 -1.6100
 6371SOL     OW30745   0.813   1.441  11.871  0.0788 -0.1428 -0.0553
 6371SOL    HW130746   0.844   1.387  11.944 -1.9275  0.0593  0.9575
 6371SOL    HW230747   0.842   1.531  11.888  2.2670 -0.7213 -0.6664
 6372SOL     OW30748   4.715   1.223   2.179 -0.2877 -0.3840 -0.7470
 6372SOL    HW130749   0.035   1.148   2.183  1.8430  1.3030 -0.7835
 6372SOL    HW230750   4.623   1.196   2.182  0.6387 -3.3226  1.3893
 6373SOL     OW30751   1.824   1.216   6.236 -0.3686  0.3234  0.0637
 6373SOL    HW130752   1.753   1.280   6.242  1.4865  2.2837  1.1228
 6373SOL    HW230753   1.897   1.276   6.250  2.0743 -3.0628  1.8299
 6374SOL     OW30754   3.195   3.378   8.869 -0.1132  0.5090  0.1696
 6374SOL    HW130755   3.197   3.457   8.814 -2.0300 -0.0877 -0.7402
 6374SOL    HW230756   3.128   3.328   8.822 -0.7263  1.0600  0.4590
 6375SOL     OW30757   2.196   2.889   4.783 -0.0946 -0.1603  0.1432
 6375SOL    HW130758   2.220   2.821   4.845 -2.1644 -1.5338 -0.5710
 6375SOL    HW230759   2.264   2.955   4.795  0.3697 -0.8970  1.5013
 6376SOL     OW30760   4.056   3.173   3.937 -0.1362  0.2884 -0.3552
 6376SOL    HW130761   4.091   3.247   3.987 -0.0233 -0.2523  0.3693
 6376SOL    HW230762   3.982   3.214   3.893  0.6012 -0.8318 -2.6091
 6377SOL     OW30763   1.827   4.312   4.405 -0.0063  0.1569  0.7189
 6377SOL    HW130764   1.792   4.223   4.403 -1.8704  0.8904  1.2660
 6377SOL    HW230765   1.755   4.364   4.369 -2.3885 -1.8796  2.5556
 6378SOL     OW30766   2.148   0.862   9.630  0.1629  0.1758  0.6841
 6378SOL    HW130767   2.237   0.870   9.666  1.3303 -0.1024 -2.1757
 6378SOL    HW230768   2.095   0.935   9.663  0.3329  0.2142  0.8797
 6379SOL     OW30769   4.299   0.196   4.393 -0.0107  0.6929  0.2683
 6379SOL    HW130770   4.311   0.102   4.382  1.1432  1.2833 -3.3389
 6379SOL    HW230771   4.253   0.197   4.478  0.0727 -2.7880  0.3610
 6380SOL     OW30772   2.242   3.962   4.385  0.6572  0.0086  0.1778
 6380SOL    HW130773   2.295   4.041   4.396  0.5591  0.0390  0.4493
 6380SOL    HW230774   2.305   3.896   4.415  0.4254  1.0150  2.9252
 6381SOL     OW30775   0.883   1.416   2.277 -0.0349  0.1734  0.0749
 6381SOL    HW130776   0.939   1.339   2.290 -0.8504 -0.4901 -0.3222
 6381SOL    HW230777   0.812   1.378   2.225  0.5790  0.3029 -0.8692
 6382SOL     OW30778   1.486   4.268   3.032 -0.3993  0.4987  1.1869
 6382SOL    HW130779   1.546   4.211   2.984 -0.1391 -0.6458  2.8938
 6382SOL    HW230780   1.547   4.305   3.095 -1.0732 -0.1997  2.2382
 6383SOL     OW30781   4.547   4.287   6.130  0.0923  0.0829 -0.2939
 6383SOL    HW130782   4.557   4.193   6.114  0.0603 -0.3926  2.5656
 6383SOL    HW230783   4.480   4.292   6.198  0.4152  1.5481 -0.0912
 6384SOL     OW30784   3.869   2.559   5.634  0.0831  0.1597 -0.1655
 6384SOL    HW130785   3.890   2.629   5.572 -2.2328  1.3012  0.3217
 6384SOL    HW230786   3.870   2.608   5.717 -2.7451  1.3808 -0.8390
 6385SOL     OW30787   1.475   4.277   5.361 -0.4547  0.0053 -0.2386
 6385SOL    HW130788   1.537   4.291   5.432  1.8197 -1.1823 -1.9731
 6385SOL    HW230789   1.455   4.367   5.334  3.5407  1.1988  0.6940
 6386SOL     OW30790   3.708   3.898   8.626  0.2357  0.3689  0.2007
 6386SOL    HW130791   3.641   3.957   8.661 -0.4399 -0.1607 -0.2047
 6386SOL    HW230792   3.786   3.949   8.649  0.4831  0.9299 -1.8573
 6387SOL     OW30793   0.380   2.721   0.572 -0.3424 -0.6584 -0.2787
 6387SOL    HW130794   0.379   2.700   0.479 -2.7032  0.8459 -0.5582
 6387SOL    HW230795   0.460   2.673   0.596  0.3631  0.6867  0.0420
 6388SOL     OW30796   0.296   1.397   6.929  0.1192 -0.0467  0.2371
 6388SOL    HW130797   0.324   1.372   6.840 -1.1805  0.0930 -0.2023
 6388SOL    HW230798   0.284   1.492   6.928  1.6230  0.1448 -1.2883
 6389SOL     OW30799   3.397   1.789   0.981 -0.3780  0.0047  0.6298
 6389SOL    HW130800   3.399   1.759   0.890 -1.3944 -0.6330  0.8062
 6389SOL    HW230801   3.305   1.767   1.000 -0.5616  0.3980  0.2013
 6390SOL     OW30802   3.597   0.107   6.058  0.4093 -0.0466  0.5259
 6390SOL    HW130803   3.681   0.073   6.090 -0.0954 -1.6885  0.1285
 6390SOL    HW230804   3.629   0.193   6.032 -0.2499 -0.0004 -0.1139
 6391SOL     OW30805   0.765   3.761   9.605 -0.5384  0.2370  0.2599
 6391SOL    HW130806   0.727   3.710   9.534  0.7135 -1.1304  0.5762
 6391SOL    HW230807   0.797   3.838   9.558 -0.4906 -0.5555 -1.0041
 6392SOL     OW30808   2.491   1.158  13.784 -0.2826 -0.4096 -0.6663
 6392SOL    HW130809   2.520   1.078  13.740 -0.4968 -0.9415  0.1571
 6392SOL    HW230810   2.405   1.126  13.811 -0.0929 -1.0765 -0.8520
 6393SOL     OW30811   0.943   2.904   4.555 -0.0087  0.7141  0.1373
 6393SOL    HW130812   0.969   2.841   4.622 -1.3267  1.1302  1.0514
 6393SOL    HW230813   0.957   2.855   4.474 -2.0431 -0.6834  0.6533
 6394SOL     OW30814   1.840   2.237   1.532 -0.5656  0.1897 -0.0289
 6394SOL    HW130815   1.783   2.291   1.587  0.3478  0.7056  0.4039
 6394SOL    HW230816   1.900   2.307   1.506  0.4394 -0.6672 -0.0206
 6395SOL     OW30817   2.451   3.210   7.733  0.6808 -0.2926 -0.3857
 6395SOL    HW130818   2.483   3.217   7.823  3.1912  1.6835 -1.4474
 6395SOL    HW230819   2.451   3.115   7.723 -1.8883 -0.1018 -2.3953
 6396SOL     OW30820   1.732   4.686  13.360 -0.3024 -0.2054  0.8101
 6396SOL    HW130821   1.808   4.727  13.318 -1.9687  0.9073 -1.1208
 6396SOL    HW230822   1.667   4.710  13.294  1.9067  0.7657 -1.0291
 6397SOL     OW30823   2.403   2.778   5.803 -0.3387 -0.6221 -0.6143
 6397SOL    HW130824   2.358   2.731   5.874 -0.3798  0.7346  0.2442
 6397SOL    HW230825   2.447   2.844   5.857 -0.6460 -0.3277 -0.7277
 6398SOL     OW30826   2.347   1.573   1.465  0.0867  0.2471 -0.3190
 6398SOL    HW130827   2.367   1.626   1.542 -1.0903  1.3212 -0.7480
 6398SOL    HW230828   2.294   1.501   1.500  2.0149 -0.5959  0.8863
 6399SOL     OW30829   4.725   2.244   8.388 -0.3237 -0.2856 -0.1878
 6399SOL    HW130830   4.662   2.232   8.458  2.3362  0.1353  2.2633
 6399SOL    HW230831   0.053   2.179   8.407 -0.9444 -0.9268 -0.1935
 6400SOL     OW30832   3.364   0.541   6.993 -0.5922 -0.8200  0.2326
 6400SOL    HW130833   3.343   0.556   7.085  1.3488 -3.5698  1.1313
 6400SOL    HW230834   3.373   0.446   6.998 -1.1429 -0.9734 -1.9533
 6401SOL     OW30835   4.360   0.389  17.095 -0.0537  0.6488  1.0983
 6401SOL    HW130836   4.368   0.295  17.077  1.2627  1.5036 -2.7265
 6401SOL    HW230837   4.277   0.403  17.050  0.1588 -0.3572  0.3844
 6402SOL     OW30838   0.634   0.015   8.463 -0.6968  0.2439 -0.3864
 6402SOL    HW130839   0.599   0.082   8.522  0.3228  1.8907 -1.6453
 6402SOL    HW230840   0.552   4.715   8.435 -0.9162  1.4104 -1.4122
 6403SOL     OW30841   2.577   2.118   2.934  0.0459 -0.2211 -0.4356
 6403SOL    HW130842   2.587   2.147   3.024 -1.3448  2.2453 -1.0789
 6403SOL    HW230843   2.496   2.070   2.950  0.0155 -0.6238 -1.7321
 6404SOL     OW30844   0.414   4.352   8.844  0.5776 -0.2797 -0.8104
 6404SOL    HW130845   0.487   4.396   8.799  1.5096  0.1482  1.1467
 6404SOL    HW230846   0.368   4.321   8.766 -0.2047  2.1347 -1.3027
 6405SOL     OW30847   1.093   2.948  15.555  0.5357 -0.3494 -0.6536
 6405SOL    HW130848   1.092   2.984  15.466  0.6901  1.2703 -0.0003
 6405SOL    HW230849   1.188   2.946  15.559  0.3583 -1.1255  3.1492
 6406SOL     OW30850   0.889   0.656   4.173 -0.6115  1.0159  0.2108
 6406SOL    HW130851   0.958   0.597   4.142  0.9540  1.2242  3.2444
 6406SOL    HW230852   0.844   0.667   4.089 -0.8985 -1.3764  0.0455
 6407SOL     OW30853   4.679   3.461   5.892 -0.3864 -1.0673 -0.2803
 6407SOL    HW130854   0.007   3.402   5.926 -0.8273 -0.8343  0.9994
 6407SOL    HW230855   4.721   3.491   5.811  1.1017 -0.0117  0.8892
 6408SOL     OW30856   2.636   3.082   5.280 -0.0113  0.3861  0.5594
 6408SOL    HW130857   2.565   3.021   5.304 -1.9882  0.9154 -3.7658
 6408SOL    HW230858   2.713   3.038   5.314  0.4526 -1.5004 -2.8369
 6409SOL     OW30859   4.279   4.185   4.454 -0.4158 -0.4414  0.1493
 6409SOL    HW130860   4.233   4.239   4.519  0.7799  1.7080 -0.7669
 6409SOL    HW230861   4.358   4.162   4.502 -0.9377 -0.4746  0.9907
 6410SOL     OW30862   0.877   0.939   5.772 -0.0660 -0.5314 -0.6121
 6410SOL    HW130863   0.844   1.001   5.838  0.5953  1.0755 -1.8044
 6410SOL    HW230864   0.866   1.006   5.704  4.3218  0.9328  0.1232
 6411SOL     OW30865   1.077   3.221   7.341  0.3489  0.0545  0.2057
 6411SOL    HW130866   1.166   3.249   7.362  0.2756 -0.9204  1.8032
 6411SOL    HW230867   1.095   3.128   7.354  1.1333  0.6971  3.7680
 6412SOL     OW30868   3.882   0.722  14.319  0.6367  0.1158  0.0943
 6412SOL    HW130869   3.846   0.788  14.260 -1.4413  0.9306  2.2816
 6412SOL    HW230870   3.813   0.669  14.359 -0.2249  0.4562 -0.9633
 6413SOL     OW30871   3.966   0.058   7.853  0.4893 -0.5648 -0.1013
 6413SOL    HW130872   3.962   0.047   7.758 -2.0797  1.2670 -0.2201
 6413SOL    HW230873   3.872   0.072   7.866  0.6490 -0.0079  0.4785
 6414SOL     OW30874   4.528   3.595   7.682  0.1641 -0.5020 -0.0054
 6414SOL    HW130875   4.461   3.572   7.617 -2.6078  1.3415  2.2096
 6414SOL    HW230876   4.602   3.635   7.636 -1.5940  2.2987 -0.3876
 6415SOL     OW30877   2.004   3.848   7.393  0.3101 -0.4565  0.2305
 6415SOL    HW130878   1.948   3.772   7.408 -0.9833  0.1976 -1.3313
 6415SOL    HW230879   2.093   3.814   7.387  0.2249 -0.6544  0.0600
 6416SOL     OW30880   3.447   2.893  15.084 -0.3501 -0.3802  0.6707
 6416SOL    HW130881   3.485   2.972  15.044  1.8369 -0.3273  2.8475
 6416SOL    HW230882   3.403   2.850  15.011 -3.0053  1.5642  1.0987
 6417SOL     OW30883   0.054   1.549  14.108  0.0522  0.0675 -0.6676
 6417SOL    HW130884   0.061   1.520  14.016  0.9171  3.1204 -1.5518
 6417SOL    HW230885   0.019   1.635  14.086  1.6369  0.8900  0.0553
 6418SOL     OW30886   3.422   4.212   9.971 -0.6476 -0.2816 -0.5434
 6418SOL    HW130887   3.378   4.127   9.979 -1.3004 -0.1075 -2.3053
 6418SOL    HW230888   3.388   4.254  10.050  1.9472  2.2937 -0.8340
 6419SOL     OW30889   3.952   3.594   3.139  0.5456 -0.2415  0.1306
 6419SOL    HW130890   3.996   3.660   3.193  0.9174  0.5729 -1.1552
 6419SOL    HW230891   3.859   3.616   3.149  0.5727  0.3421 -0.8760
 6420SOL     OW30892   1.810   1.571   8.593 -0.0441 -0.2543  0.3928
 6420SOL    HW130893   1.755   1.493   8.589 -0.9838  0.3878  0.9076
 6420SOL    HW230894   1.840   1.576   8.684  1.2333 -1.8495  0.0762
 6421SOL     OW30895   2.294   1.728   8.512 -0.2405  0.3412 -0.2518
 6421SOL    HW130896   2.265   1.778   8.588 -0.2400  1.3260 -0.9032
 6421SOL    HW230897   2.385   1.758   8.512  0.5430 -2.0226  1.8264
 6422SOL     OW30898   1.432   2.046   4.752  0.0666 -0.2038 -0.4863
 6422SOL    HW130899   1.486   1.972   4.781 -1.1279 -0.6793  0.5073
 6422SOL    HW230900   1.383   2.070   4.830 -0.6315 -0.8913 -0.7150
 6423SOL     OW30901   0.406   1.337   1.931  0.2223  0.4153 -0.4968
 6423SOL    HW130902   0.318   1.311   1.903 -0.3265  0.3636  1.2717
 6423SOL    HW230903   0.389   1.431   1.927 -0.3571  0.3738  0.8529
 6424SOL     OW30904   2.834   0.139  15.872 -0.5640  0.4242 -0.8043
 6424SOL    HW130905   2.745   0.108  15.853 -0.7102 -0.3042  1.1555
 6424SOL    HW230906   2.832   0.107  15.962  3.2683  0.2433 -0.8128
 6425SOL     OW30907   0.340   2.854  13.382  0.4927  0.3057  0.1609
 6425SOL    HW130908   0.379   2.937  13.356  0.3218 -0.2015 -1.6624
 6425SOL    HW230909   0.401   2.832  13.452 -0.6912 -0.7681  0.8508
 6426SOL     OW30910   2.175   2.145   0.449  0.1689 -0.1674  0.5585
 6426SOL    HW130911   2.221   2.066   0.420  1.9399  1.1067 -0.1087
 6426SOL    HW230912   2.231   2.212   0.488  1.4109 -0.8727 -0.0282
 6427SOL     OW30913   2.767   3.841   1.922 -0.1645 -0.0160 -0.1067
 6427SOL    HW130914   2.721   3.915   1.884 -0.1849 -0.4823 -1.0042
 6427SOL    HW230915   2.696   3.802   1.974  0.4407  1.0559  1.5309
 6428SOL     OW30916   2.436   3.259  14.128 -0.1692 -0.0216  0.6679
 6428SOL    HW130917   2.445   3.164  14.129 -0.4072 -0.0420  0.7986
 6428SOL    HW230918   2.355   3.257  14.077 -1.0849  4.1111  1.9027
 6429SOL     OW30919   1.573   3.034   6.249  0.3122 -0.1326  0.4291
 6429SOL    HW130920   1.578   3.025   6.153  0.8529  2.0877  0.2646
 6429SOL    HW230921   1.546   2.944   6.267  0.4878 -0.3130 -0.1791
 6430SOL     OW30922   2.209   4.670   2.249  0.1204 -0.1985 -0.6038
 6430SOL    HW130923   2.225   4.582   2.216  2.2694  0.6134 -1.7664
 6430SOL    HW230924   2.199   4.726   2.173 -2.8185 -0.2828 -0.2653
 6431SOL     OW30925   4.430   2.262   6.788 -0.7597  0.1936  0.1926
 6431SOL    HW130926   4.515   2.263   6.743 -0.7018  0.6846  0.3153
 6431SOL    HW230927   4.393   2.344   6.755  0.3926  0.1886 -1.0925
 6432SOL     OW30928   1.874   4.687   4.215  0.4806  0.0349 -0.6281
 6432SOL    HW130929   1.951   4.642   4.251  0.6447 -0.0398 -1.0677
 6432SOL    HW230930   1.851   4.620   4.151 -0.6864 -0.9004  0.7831
 6433SOL     OW30931   3.779   3.445   8.220  0.0523 -0.0066 -1.0648
 6433SOL    HW130932   3.719   3.372   8.203  2.0039 -1.5516 -1.3241
 6433SOL    HW230933   3.805   3.432   8.311 -2.9948  0.0755 -0.1821
 6434SOL     OW30934   0.839   3.526  16.256  0.3356 -0.9492  0.4223
 6434SOL    HW130935   0.882   3.526  16.171 -0.5862  3.6240 -0.0347
 6434SOL    HW230936   0.780   3.601  16.245 -0.3135 -1.5837 -0.4327
 6435SOL     OW30937   0.988   4.464   4.490  0.4079  0.4774  0.2383
 6435SOL    HW130938   0.961   4.555   4.506 -1.1969  0.3313 -1.6718
 6435SOL    HW230939   0.905   4.416   4.491  0.6262  0.0912 -0.1785
 6436SOL     OW30940   2.686   2.798   3.126  0.3623  0.1166  0.5435
 6436SOL    HW130941   2.674   2.703   3.114  0.2048 -0.0215  1.8161
 6436SOL    HW230942   2.596   2.814   3.098  0.2548 -0.9483  0.2778
 6437SOL     OW30943   3.701   2.181   0.676 -0.3081  0.4044  0.2752
 6437SOL    HW130944   3.720   2.188   0.770  0.2485 -3.0082  0.4207
 6437SOL    HW230945   3.615   2.141   0.683  0.8234 -1.9111  1.2577
 6438SOL     OW30946   1.759   0.860  11.678 -0.3431  0.3084 -0.1848
 6438SOL    HW130947   1.811   0.892  11.752 -0.9986  2.2869 -0.6069
 6438SOL    HW230948   1.829   0.853  11.613  0.8688 -0.0822  1.1535
 6439SOL     OW30949   0.460   4.496   5.194  0.1491  0.0680  0.1171
 6439SOL    HW130950   0.467   4.401   5.182  1.3416 -0.1908  2.7076
 6439SOL    HW230951   0.551   4.520   5.176  0.6286 -1.0715  0.9844
 6440SOL     OW30952   1.647   1.589  11.924 -0.2967 -0.1593 -0.0866
 6440SOL    HW130953   1.698   1.571  12.003  0.4868  0.2419 -0.5074
 6440SOL    HW230954   1.668   1.680  11.900 -2.8115  0.7979  1.3324
 6441SOL     OW30955   0.491   3.705   8.284  0.7512 -0.0734  0.5317
 6441SOL    HW130956   0.569   3.655   8.308  0.0232 -2.2843 -1.7249
 6441SOL    HW230957   0.436   3.696   8.362 -0.2851 -0.3101 -0.2277
 6442SOL     OW30958   0.668   1.321   2.139  0.7845 -0.4098  0.3750
 6442SOL    HW130959   0.651   1.398   2.085 -0.2255 -0.6903  0.2834
 6442SOL    HW230960   0.607   1.255   2.105  1.3178 -0.5580 -0.2772
 6443SOL     OW30961   0.739   4.370   1.092 -0.2749  0.5031 -0.0901
 6443SOL    HW130962   0.734   4.275   1.107 -1.4014  0.3057 -1.7031
 6443SOL    HW230963   0.796   4.398   1.163 -0.0152  1.1706 -0.5648
 6444SOL     OW30964   2.871   0.674  12.375 -0.3126 -0.8418  0.1444
 6444SOL    HW130965   2.875   0.702  12.466 -2.8194 -0.9980  0.3198
 6444SOL    HW230966   2.895   0.581  12.381  0.9331 -0.4757  0.7307
 6445SOL     OW30967   4.353   1.730   4.988  0.1080 -0.0567 -0.3913
 6445SOL    HW130968   4.288   1.748   5.055 -0.3972 -1.3818 -0.5257
 6445SOL    HW230969   4.305   1.684   4.919 -2.2568  1.7337  0.0697
 6446SOL     OW30970   1.944   2.307   2.984  0.4850  0.1664 -0.0360
 6446SOL    HW130971   1.932   2.385   3.038 -1.9660 -0.2177 -0.0554
 6446SOL    HW230972   1.861   2.297   2.938 -0.4608  0.3413  1.6602
 6447SOL     OW30973   0.807   0.086   8.778  0.3483 -0.2231 -0.1913
 6447SOL    HW130974   0.887   0.114   8.733 -0.3084 -0.1301 -1.3138
 6447SOL    HW230975   0.832   0.076   8.870  0.3741  2.3141  0.0886
 6448SOL     OW30976   3.137   2.349  15.764 -0.3110  0.0396  0.2886
 6448SOL    HW130977   3.057   2.378  15.720 -0.7700  1.5568  2.1481
 6448SOL    HW230978   3.209   2.398  15.726 -0.0787 -2.3186 -2.3644
 6449SOL     OW30979   3.854   1.262   3.481  0.1448  0.1831  0.2428
 6449SOL    HW130980   3.839   1.170   3.457  0.5591  0.4182 -0.9087
 6449SOL    HW230981   3.765   1.273   3.515 -0.7465 -0.2524 -1.9812
 6450SOL     OW30982   4.049   0.255  14.608 -0.0795  0.5748 -0.1879
 6450SOL    HW130983   4.066   0.234  14.700 -0.5620 -2.1607 -0.7385
 6450SOL    HW230984   4.063   0.169  14.569 -0.0977  0.4232  0.1463
 6451SOL     OW30985   4.454   3.788   3.463  0.1072  0.4353 -0.4665
 6451SOL    HW130986   4.519   3.822   3.402  1.6512  0.0715  0.9945
 6451SOL    HW230987   4.515   3.749   3.526 -0.4895 -0.6530 -0.5463
 6452SOL     OW30988   4.469   0.409   4.433 -0.0124  0.6439  0.3960
 6452SOL    HW130989   4.404   0.341   4.417 -0.6709  1.5252 -0.6320
 6452SOL    HW230990   4.542   0.380   4.378 -1.4018  3.5362 -2.9201
 6453SOL     OW30991   2.649   1.475   3.564  0.4023  0.3018  0.5417
 6453SOL    HW130992   2.703   1.502   3.638  0.2828  0.1784  0.6751
 6453SOL    HW230993   2.566   1.511   3.595 -0.6960 -1.0827 -0.7803
 6454SOL     OW30994   2.442   0.192   3.259 -0.2414  0.0753  0.2441
 6454SOL    HW130995   2.508   0.258   3.238 -2.0653  1.5269 -1.0088
 6454SOL    HW230996   2.395   0.172   3.178 -0.5728 -1.1063  0.7306
 6455SOL     OW30997   2.892   4.009   7.026  0.5249  0.1767  0.3222
 6455SOL    HW130998   2.798   4.015   7.008  0.4476 -1.4076  0.1898
 6455SOL    HW230999   2.926   3.945   6.963 -1.2923 -0.7023  0.2484
 6456SOL     OW31000   0.106   2.769  13.281 -0.0486 -0.1460  0.5117
 6456SOL    HW131001   0.125   2.856  13.244  1.0827 -0.4633  0.3269
 6456SOL    HW231002   0.183   2.752  13.337 -0.1460 -0.3448  0.5861
 6457SOL     OW31003   4.200   3.916   3.692  0.7198 -0.0563  0.0032
 6457SOL    HW131004   4.285   3.883   3.720  0.9410  0.9732  0.5367
 6457SOL    HW231005   4.146   3.837   3.687  0.2032  0.3481 -0.6823
 6458SOL     OW31006   3.131   4.043  13.195  0.2668  0.3071 -0.2627
 6458SOL    HW131007   3.223   4.069  13.205 -0.6099  3.1943  0.2208
 6458SOL    HW231008   3.141   3.992  13.114  1.4283 -0.5728  0.4465
 6459SOL     OW31009   3.436   2.102  11.901 -0.3546  0.3703 -0.7355
 6459SOL    HW131010   3.413   2.015  11.867 -3.0487  0.9720 -0.4219
 6459SOL    HW231011   3.348   2.139  11.906  0.1575  1.1186  2.5479
 6460SOL     OW31012   1.431   2.401   4.540 -0.2864  0.1103  0.1635
 6460SOL    HW131013   1.408   2.383   4.631  1.8636  0.6290  0.8113
 6460SOL    HW231014   1.361   2.456   4.504  1.7459  2.5556 -0.0782
 6461SOL     OW31015   4.652   1.016   3.559  0.4832  0.2439  0.6986
 6461SOL    HW131016   4.559   1.038   3.552  0.1072 -2.1538 -2.0854
 6461SOL    HW231017   4.635   0.939   3.614  0.9907  1.0964  2.0185
 6462SOL     OW31018   2.124   4.301  15.824  0.0145 -0.3738  0.3541
 6462SOL    HW131019   2.156   4.306  15.734  0.3395  1.4642  0.5589
 6462SOL    HW231020   2.035   4.335  15.818 -0.6345 -1.8142  1.9514
 6463SOL     OW31021   2.146   3.167  12.415 -0.1189  0.2429 -0.3019
 6463SOL    HW131022   2.134   3.084  12.459 -2.3445  0.0415 -1.3068
 6463SOL    HW231023   2.223   3.200  12.463  0.2758 -0.1933 -0.6372
 6464SOL     OW31024   1.789   2.590   3.937 -0.1859  0.2945  0.1176
 6464SOL    HW131025   1.872   2.638   3.935  0.2194 -0.4802 -1.5979
 6464SOL    HW231026   1.821   2.503   3.912 -0.3135 -0.3705  2.2850
 6465SOL     OW31027   0.977   3.722  10.895  0.0509 -0.0954 -0.1557
 6465SOL    HW131028   1.046   3.785  10.875 -0.3033  0.0701 -0.8332
 6465SOL    HW231029   1.027   3.641  10.880 -0.0710 -0.0117 -0.9962
 6466SOL     OW31030   1.534   1.687   7.754  0.1045  0.6392  0.1830
 6466SOL    HW131031   1.484   1.761   7.789  1.3082  1.6646 -0.2591
 6466SOL    HW231032   1.585   1.730   7.685  1.6582 -2.3775 -0.5287
 6467SOL     OW31033   3.192   1.231   2.138 -0.5950 -0.0813  0.3968
 6467SOL    HW131034   3.248   1.222   2.061  0.5283 -0.9363  1.3221
 6467SOL    HW231035   3.175   1.138   2.154  0.2661 -0.6672 -2.1836
 6468SOL     OW31036   3.429   3.787   8.942  0.5002  0.4820 -0.1872
 6468SOL    HW131037   3.494   3.738   8.992 -0.3349  0.2960  0.7179
 6468SOL    HW231038   3.457   3.761   8.854 -2.0212 -0.5446 -0.7068
 6469SOL     OW31039   2.489   0.300  10.360 -0.2441  0.0007 -0.0834
 6469SOL    HW131040   2.583   0.318  10.359 -0.0417 -0.8429  2.4487
 6469SOL    HW231041   2.478   0.207  10.341  1.6742 -0.2963  0.2968
 6470SOL     OW31042   2.076   1.674   7.499 -0.4116 -0.3079  0.5672
 6470SOL    HW131043   2.096   1.618   7.424  1.3429 -1.2552  1.7475
 6470SOL    HW231044   2.162   1.712   7.515 -0.2380 -0.8059  0.8005
 6471SOL     OW31045   2.099   0.889  14.166 -0.0391 -0.3844 -0.1830
 6471SOL    HW131046   2.039   0.886  14.241 -1.1853 -1.6945 -1.1371
 6471SOL    HW231047   2.122   0.982  14.169 -0.1173 -0.3786  0.1783
 6472SOL     OW31048   3.892   0.282   3.630  0.0399  0.0946 -0.2920
 6472SOL    HW131049   3.837   0.219   3.677  0.8832  0.3332  1.0087
 6472SOL    HW231050   3.831   0.354   3.618  0.4193  0.5616  0.5707
 6473SOL     OW31051   3.504   1.328  16.983  0.0248 -0.1237 -0.1785
 6473SOL    HW131052   3.483   1.408  16.933 -0.0983 -0.3777 -0.5348
 6473SOL    HW231053   3.560   1.363  17.052  0.5416  1.6982 -1.5031
 6474SOL     OW31054   2.187   1.409   6.852  0.5033  0.2573  0.5916
 6474SOL    HW131055   2.092   1.401   6.866  0.0748  0.9364 -1.8610
 6474SOL    HW231056   2.188   1.476   6.784  2.1131 -0.6002 -0.2125
 6475SOL     OW31057   0.305   3.082   2.102  0.3852 -0.2284  0.4583
 6475SOL    HW131058   0.318   2.988   2.103  0.3750 -0.2081  1.8161
 6475SOL    HW231059   0.218   3.089   2.140 -0.1210 -3.3608 -0.1309
 6476SOL     OW31060   0.561   3.737   0.730  0.5018  1.1451  0.3888
 6476SOL    HW131061   0.635   3.688   0.767 -0.8847 -2.4434 -1.5710
 6476SOL    HW231062   0.613   3.809   0.693  3.0065 -0.8060  0.0802
 6477SOL     OW31063   2.957   1.101   6.864  0.0260  0.2107  0.5507
 6477SOL    HW131064   2.953   1.162   6.938  0.0481 -1.5320  1.9910
 6477SOL    HW231065   2.956   1.017   6.909 -0.6832  0.1187  0.3737
 6478SOL     OW31066   0.667   1.916   6.563  0.2756 -0.0942 -0.1321
 6478SOL    HW131067   0.693   1.870   6.643  1.6568  0.5027 -0.2283
 6478SOL    HW231068   0.591   1.966   6.593 -0.5018 -1.6525  0.4928
 6479SOL     OW31069   2.600   4.688  13.623  0.0522 -0.1683 -0.3593
 6479SOL    HW131070   2.626   4.608  13.669  0.8681  0.8920  1.0038
 6479SOL    HW231071   2.506   4.676  13.638  0.4951 -1.9424  1.0688
 6480SOL     OW31072   0.075   2.401   6.133 -0.3427  0.6509  0.1457
 6480SOL    HW131073   0.097   2.329   6.075  2.0541  0.9222  0.7442
 6480SOL    HW231074   0.082   2.359   6.219  1.5082  1.5056  0.4044
 6481SOL     OW31075   4.739   2.370   7.976  0.0980 -0.4587  0.3031
 6481SOL    HW131076   0.011   2.447   7.922  1.8241 -0.1677  1.0856
 6481SOL    HW231077   4.708   2.306   7.911 -2.0048  0.7468  0.1134
 6482SOL     OW31078   4.281   3.227   7.293  0.3455  0.1937  0.5127
 6482SOL    HW131079   4.329   3.159   7.245  0.3510  3.1263 -3.6731
 6482SOL    HW231080   4.299   3.309   7.247 -1.4368 -0.2406 -0.9756
 6483SOL     OW31081   2.809   1.124   3.641  0.1497  0.2989 -0.2568
 6483SOL    HW131082   2.885   1.112   3.698  0.4033 -1.8438 -1.0401
 6483SOL    HW231083   2.770   1.037   3.654 -0.8953  0.7576 -0.3285
 6484SOL     OW31084   3.867   0.517   1.924 -0.0404 -0.6046 -0.4864
 6484SOL    HW131085   3.834   0.607   1.917  0.4143 -0.4836 -1.0727
 6484SOL    HW231086   3.948   0.539   1.970 -0.8503 -1.3828  1.3170
 6485SOL     OW31087   4.244   2.588   9.372 -0.0820 -0.2296 -0.0501
 6485SOL    HW131088   4.319   2.598   9.313 -0.6463  0.7344 -0.5918
 6485SOL    HW231089   4.207   2.515   9.322  0.2962 -1.9380  2.1445
 6486SOL     OW31090   4.645   4.469   4.712 -0.0012 -0.1546  0.2146
 6486SOL    HW131091   4.576   4.403   4.713 -1.1044  1.0243  2.8156
 6486SOL    HW231092   4.600   4.553   4.701 -0.8557 -1.0620 -2.9541
 6487SOL     OW31093   1.337   1.472   7.744  0.3377 -0.0040  0.4739
 6487SOL    HW131094   1.421   1.518   7.751  0.3946 -0.1836  0.8998
 6487SOL    HW231095   1.326   1.431   7.829  1.4499 -1.4765 -0.1012
 6488SOL     OW31096   4.006   3.561  10.101 -0.1257  0.3791 -0.7063
 6488SOL    HW131097   4.079   3.583  10.043  0.1657  1.0539 -0.0896
 6488SOL    HW231098   4.036   3.607  10.180 -0.6113 -0.8624  0.1901
 6489SOL     OW31099   1.763   1.147   2.247 -0.0212 -0.5918 -0.2896
 6489SOL    HW131100   1.696   1.119   2.185  0.1584 -1.6350 -0.0125
 6489SOL    HW231101   1.732   1.093   2.320  0.6761 -2.8855 -1.6962
 6490SOL     OW31102   1.279   0.516   5.348 -0.3189  0.0139 -0.0311
 6490SOL    HW131103   1.274   0.601   5.392 -1.1921  0.7507 -1.5492
 6490SOL    HW231104   1.194   0.474   5.358 -0.8388  1.1320  0.2488
 6491SOL     OW31105   0.437   3.335  14.839  0.0246  0.2990  0.5445
 6491SOL    HW131106   0.352   3.341  14.795 -0.6751 -0.2237  1.8512
 6491SOL    HW231107   0.491   3.390  14.781  0.1464  0.4392  0.7923
 6492SOL     OW31108   4.663   1.372  16.268  0.2051 -0.2868  0.2324
 6492SOL    HW131109   4.720   1.303  16.302 -0.2529 -1.6815 -1.9082
 6492SOL    HW231110   4.594   1.371  16.335 -0.7442 -1.2883 -0.7541
 6493SOL     OW31111   3.646   2.740   4.027  0.6585 -0.5802 -0.0868
 6493SOL    HW131112   3.728   2.691   4.037 -0.1122 -1.0540  3.9930
 6493SOL    HW231113   3.684   2.827   4.040 -0.0221 -0.5645  1.9446
 6494SOL     OW31114   1.014   2.071   2.715  0.4474 -0.8664  0.3525
 6494SOL    HW131115   1.097   2.119   2.714 -0.5198  0.6748 -3.0465
 6494SOL    HW231116   0.985   2.108   2.632  1.9822 -2.3600 -0.8155
 6495SOL     OW31117   0.310   3.530   4.809 -0.0133 -0.1463  0.6996
 6495SOL    HW131118   0.378   3.544   4.743  0.8931  2.0123  2.0789
 6495SOL    HW231119   0.361   3.559   4.885  0.1110 -2.9299  1.7016
 6496SOL     OW31120   4.148   0.712   8.087 -0.2561 -0.0976 -0.5731
 6496SOL    HW131121   4.083   0.659   8.133 -0.0218  0.7261  0.7284
 6496SOL    HW231122   4.223   0.690   8.143  0.2246 -1.9188 -1.9476
 6497SOL     OW31123   3.118   1.201   9.656  0.2786 -0.1993  0.2900
 6497SOL    HW131124   3.085   1.188   9.745 -0.3336  1.3720  0.3010
 6497SOL    HW231125   3.209   1.226   9.674 -0.0207 -0.7863  2.6405
 6498SOL     OW31126   4.403   0.734   8.304 -0.2566 -0.0782 -0.3045
 6498SOL    HW131127   4.352   0.678   8.363 -0.6412  0.0689 -0.4952
 6498SOL    HW231128   4.345   0.809   8.297  0.6309  0.4875 -1.4262
 6499SOL     OW31129   3.722   3.068   5.664  0.5232  0.2749 -0.1820
 6499SOL    HW131130   3.665   3.133   5.623  0.6059  1.2550  1.2484
 6499SOL    HW231131   3.660   2.994   5.662  1.4239 -0.5075  0.6294
 6500SOL     OW31132   4.178   2.785  17.406  0.0570  0.3724  0.2296
 6500SOL    HW131133   4.193   2.812  17.316  1.4317  1.3801  0.7607
 6500SOL    HW231134   4.086   2.765  17.426 -0.3352  3.6485  1.5955
 6501SOL     OW31135   2.005   1.383   8.361 -0.2238 -0.3535  0.0932
 6501SOL    HW131136   1.942   1.452   8.382  0.9551  0.8096 -0.1222
 6501SOL    HW231137   1.986   1.356   8.271 -0.7689 -0.3862  0.2212
 6502SOL     OW31138   2.465   3.983   6.708 -0.1022 -0.1123  0.6695
 6502SOL    HW131139   2.464   3.889   6.691  1.0676 -0.2943  1.5786
 6502SOL    HW231140   2.448   3.997   6.801 -0.6851  2.4352  0.1989
 6503SOL     OW31141   4.589   3.152   0.004  0.3761 -0.6434 -0.4945
 6503SOL    HW131142   4.679   3.128  17.738 -0.3987 -1.6209 -2.7561
 6503SOL    HW231143   4.540   3.107  17.689 -2.9147  0.9602  0.7930
 6504SOL     OW31144   3.150   0.223  10.641  0.1421  0.1973 -0.0261
 6504SOL    HW131145   3.190   0.246  10.725 -3.3607 -1.6054  2.1271
 6504SOL    HW231146   3.060   0.207  10.670  0.2360 -1.5424 -0.6627
 6505SOL     OW31147   0.923   2.194   0.437 -0.3056  0.2571 -0.0046
 6505SOL    HW131148   0.883   2.270   0.480  0.1922  0.2702  0.4240
 6505SOL    HW231149   0.915   2.233   0.350  2.2808  0.8916  0.0661
 6506SOL     OW31150   3.196   1.861   4.678 -0.0635 -0.4633  0.0772
 6506SOL    HW131151   3.104   1.880   4.660  0.5122 -0.5532 -3.0041
 6506SOL    HW231152   3.182   1.799   4.749 -1.1886 -0.1786  0.1027
 6507SOL     OW31153   1.832   2.034   4.878 -0.2084  0.0273 -0.4728
 6507SOL    HW131154   1.873   2.090   4.812 -1.5735  0.7721 -0.6777
 6507SOL    HW231155   1.796   2.106   4.930  3.5509  1.0674  0.6984
 6508SOL     OW31156   2.522   3.916   8.574  0.3360 -0.0284 -0.6704
 6508SOL    HW131157   2.502   3.925   8.667  1.8033 -2.5619 -0.1108
 6508SOL    HW231158   2.437   3.931   8.533  0.1743 -1.0334 -0.6838
 6509SOL     OW31159   0.314   1.663   6.908 -0.2257  0.3245 -0.1974
 6509SOL    HW131160   0.354   1.743   6.874  2.5933 -0.5694  1.0181
 6509SOL    HW231161   0.282   1.687   6.995 -0.4601 -0.5889 -0.0336
 6510SOL     OW31162   3.463   0.049   3.797  0.4738  0.3161  0.2257
 6510SOL    HW131163   3.404   0.084   3.863  0.5446 -3.0351  2.0741
 6510SOL    HW231164   3.399   0.034   3.727  0.4012 -0.6264  0.4930
 6511SOL     OW31165   3.244   1.583  12.171 -0.6214 -0.1071 -0.0152
 6511SOL    HW131166   3.209   1.666  12.204  1.2764  0.7749 -0.1818
 6511SOL    HW231167   3.313   1.567  12.236 -0.3558 -1.0572 -0.5313
 6512SOL     OW31168   2.286   2.686   4.970 -0.1334 -0.1473  0.5794
 6512SOL    HW131169   2.320   2.602   4.939  1.0000  0.4667  0.1623
 6512SOL    HW231170   2.361   2.745   4.963 -1.0264  0.8042 -0.7951
 6513SOL     OW31171   1.091   2.988   8.159  0.3247  0.3050 -0.2786
 6513SOL    HW131172   1.016   2.933   8.138 -2.6885  3.3118  2.6676
 6513SOL    HW231173   1.138   2.913   8.196  1.3240  1.3614  0.5930
 6514SOL     OW31174   0.054   1.387   5.598  0.0638 -0.1138 -0.5114
 6514SOL    HW131175   0.109   1.338   5.660  0.2673 -0.1183 -0.6948
 6514SOL    HW231176   0.113   1.460   5.578  2.1471 -1.0786  2.0577
 6515SOL     OW31177   0.492   4.654  13.744  0.4121 -0.7568  0.1016
 6515SOL    HW131178   0.473   0.005  13.767 -0.7604 -0.4474 -2.0584
 6515SOL    HW231179   0.402   4.625  13.730  0.0229 -0.6121  2.3890
 6516SOL     OW31180   1.570   3.183   3.885  0.4705 -0.2020 -0.0455
 6516SOL    HW131181   1.568   3.088   3.881 -2.8249 -0.2322  3.3105
 6516SOL    HW231182   1.589   3.198   3.792 -0.8223 -0.5074 -0.3540
 6517SOL     OW31183   3.921   2.183  11.609  0.4259  0.4619 -0.0799
 6517SOL    HW131184   3.965   2.193  11.524 -0.7035  0.7900 -0.6286
 6517SOL    HW231185   3.864   2.260  11.609 -0.4926 -0.2260 -1.0142
 6518SOL     OW31186   3.417   2.530   1.526 -0.0217 -0.6230 -0.6830
 6518SOL    HW131187   3.381   2.539   1.438 -1.3984 -1.2940 -0.1888
 6518SOL    HW231188   3.487   2.466   1.520 -0.2791 -1.0994  1.3413
 6519SOL     OW31189   2.454   2.773   3.458 -0.3155 -0.6463  0.3684
 6519SOL    HW131190   2.472   2.816   3.374 -3.6419  0.5782  0.2706
 6519SOL    HW231191   2.541   2.744   3.485 -0.2796 -0.3749  0.5463
 6520SOL     OW31192   0.445   2.849   2.000  0.0567  0.1095 -0.1248
 6520SOL    HW131193   0.368   2.869   1.946  0.1939 -0.8336 -0.6793
 6520SOL    HW231194   0.491   2.933   2.000 -0.8467  0.6083 -0.2254
 6521SOL     OW31195   3.418   2.928   6.071 -0.0912  0.2385 -0.3379
 6521SOL    HW131196   3.500   2.932   6.020 -0.1269  2.3738 -0.2108
 6521SOL    HW231197   3.356   2.949   6.001 -0.6061 -0.8090 -0.1991
 6522SOL     OW31198   3.704   1.053   4.711 -0.2415  0.1191 -0.1346
 6522SOL    HW131199   3.650   1.132   4.701 -2.0741 -1.4945 -2.9254
 6522SOL    HW231200   3.711   1.017   4.623  0.7430 -1.2313  0.4852
 6523SOL     OW31201   4.298   1.523   8.900 -0.0028  0.0648  0.4498
 6523SOL    HW131202   4.234   1.456   8.875 -0.2063  0.8728 -1.2242
 6523SOL    HW231203   4.380   1.493   8.861 -0.3882 -0.0680 -0.2686
 6524SOL     OW31204   4.188   3.756  15.461  0.2409 -0.0068  0.1137
 6524SOL    HW131205   4.184   3.706  15.379  1.1665  0.6508 -0.3288
 6524SOL    HW231206   4.132   3.830  15.437  2.7435  1.6798 -0.5054
 6525SOL     OW31207   3.662   3.517  17.421 -0.3881 -0.5110 -0.0342
 6525SOL    HW131208   3.715   3.567  17.482  0.3481 -0.6493 -0.5543
 6525SOL    HW231209   3.580   3.498  17.466  0.0229 -2.4314 -0.0804
 6526SOL     OW31210   3.348   0.783  13.217 -0.0528  0.3123 -0.1182
 6526SOL    HW131211   3.322   0.872  13.239 -3.5146 -0.4691 -0.9087
 6526SOL    HW231212   3.378   0.788  13.126 -3.0416  0.0283 -1.1330
 6527SOL     OW31213   3.568   0.849   6.856 -0.5304  0.6500  0.0525
 6527SOL    HW131214   3.662   0.860   6.852 -0.1354 -1.9981  1.6761
 6527SOL    HW231215   3.537   0.903   6.783 -2.0747  1.0622  1.0115
 6528SOL     OW31216   4.001   1.332   2.931 -0.2119 -0.7723  0.1233
 6528SOL    HW131217   4.075   1.332   2.869 -0.1858  0.9309  0.1456
 6528SOL    HW231218   3.951   1.260   2.893  0.2810 -0.2341 -1.5719
 6529SOL     OW31219   3.097   4.210   8.429  0.4026  0.3572 -0.0452
 6529SOL    HW131220   3.014   4.205   8.383  1.4265 -2.6241 -1.5437
 6529SOL    HW231221   3.101   4.119   8.459  1.9262  0.2605 -0.5338
 6530SOL     OW31222   1.069   3.849   5.022 -0.7845  0.0470 -0.2500
 6530SOL    HW131223   0.996   3.881   4.970 -0.8952 -1.6090 -1.1012
 6530SOL    HW231224   1.126   3.818   4.952  1.1249  1.6111  0.6052
 6531SOL     OW31225   2.708   2.389   5.213 -0.0412  0.4769  0.6561
 6531SOL    HW131226   2.681   2.469   5.258  2.7832  2.1013 -0.5663
 6531SOL    HW231227   2.771   2.431   5.156  1.5163 -1.4503  0.9505
 6532SOL     OW31228   0.800   4.441  11.153 -0.5411  0.5839 -1.0160
 6532SOL    HW131229   0.844   4.447  11.237 -0.9629  1.1514 -0.8324
 6532SOL    HW231230   0.715   4.482  11.173 -1.1611 -1.8743  1.3882
 6533SOL     OW31231   0.484   1.412   7.159  0.0426 -0.4020 -0.1644
 6533SOL    HW131232   0.409   1.412   7.099 -1.3500  1.6516  1.5650
 6533SOL    HW231233   0.532   1.331   7.142  0.8983 -0.1040  0.7878
 6534SOL     OW31234   4.650   1.013   3.192 -0.1663  0.4149 -0.6486
 6534SOL    HW131235   4.724   0.974   3.240 -0.9307 -0.5411 -0.2505
 6534SOL    HW231236   4.696   1.069   3.130 -0.5039  0.8374 -0.5158
 6535SOL     OW31237   2.957   1.517   9.450 -0.6360 -0.0172  0.2477
 6535SOL    HW131238   2.981   1.426   9.433 -1.7015  0.0669 -1.6805
 6535SOL    HW231239   3.040   1.540   9.491  0.5204 -0.2438 -1.9355
 6536SOL     OW31240   2.231   0.061  14.490 -0.8710  0.6087 -0.1580
 6536SOL    HW131241   2.218   0.034  14.400  0.0978 -2.0987  0.5261
 6536SOL    HW231242   2.167   0.004  14.532 -1.3718  1.3023  0.0224
 6537SOL     OW31243   2.194   1.058   2.787 -0.0602 -0.0819 -0.0717
 6537SOL    HW131244   2.286   1.083   2.778 -0.0119 -1.0218 -2.1409
 6537SOL    HW231245   2.186   0.983   2.729 -2.6548  0.5955 -0.5997
 6538SOL     OW31246   1.337   2.730   9.254  0.1681 -0.2112  0.1079
 6538SOL    HW131247   1.405   2.797   9.263 -0.3406  0.2913  0.2702
 6538SOL    HW231248   1.344   2.681   9.336 -1.3442  2.0141  1.5800
 6539SOL     OW31249   4.524   2.634   2.775 -0.1064 -0.2029 -0.2229
 6539SOL    HW131250   4.509   2.700   2.843  0.6122 -0.3626  0.0903
 6539SOL    HW231251   4.501   2.690   2.701  0.1488 -0.7447 -0.7109
 6540SOL     OW31252   0.268   0.598   3.385  0.1150  0.1785 -0.1345
 6540SOL    HW131253   0.291   0.677   3.433 -0.2200  0.0322  0.2704
 6540SOL    HW231254   0.301   0.618   3.297 -0.5055 -0.1887 -0.4542
 6541SOL     OW31255   2.550   1.602  15.954  0.6465 -0.5789  0.4532
 6541SOL    HW131256   2.616   1.552  16.002  0.3215 -1.2683  0.1923
 6541SOL    HW231257   2.598   1.641  15.881  1.0523  0.8638  1.4965
 6542SOL     OW31258   1.779   3.929   2.935  0.1634 -0.1342 -0.7863
 6542SOL    HW131259   1.730   3.906   3.014  1.4112  0.4186  0.1438
 6542SOL    HW231260   1.772   3.850   2.881 -4.8204 -1.0810  1.2292
 6543SOL     OW31261   3.703   0.718   3.381  0.3154  0.3857  0.2059
 6543SOL    HW131262   3.739   0.701   3.468  1.1896 -2.1636 -0.6419
 6543SOL    HW231263   3.609   0.723   3.398  0.4318  1.1301  0.6137
 6544SOL     OW31264   1.160   0.162   4.531 -0.1378  0.0944 -0.1678
 6544SOL    HW131265   1.142   0.234   4.591  3.3183  0.8595 -0.0471
 6544SOL    HW231266   1.220   0.199   4.467 -0.4622  0.3289 -0.3325
 6545SOL     OW31267   0.516   4.081   0.778  0.5739  0.8224 -0.0618
 6545SOL    HW131268   0.529   4.175   0.789  1.6496  0.5392  1.1852
 6545SOL    HW231269   0.421   4.073   0.771  0.6474 -1.0468  1.0655
 6546SOL     OW31270   2.495   3.843  14.851  0.3002 -0.4345 -0.6810
 6546SOL    HW131271   2.414   3.892  14.834 -1.0512 -2.3704  0.2114
 6546SOL    HW231272   2.513   3.868  14.942  0.7879 -0.7191 -0.7025
 6547SOL     OW31273   1.910   3.729   1.455 -0.3469  0.2650  0.1914
 6547SOL    HW131274   1.854   3.671   1.507  0.4230  0.5743  1.3627
 6547SOL    HW231275   1.881   3.695   1.370 -2.0799 -0.8258  1.2145
 6548SOL     OW31276   4.295   4.035   9.797  0.1746  0.2274 -0.6209
 6548SOL    HW131277   4.338   4.091   9.862 -1.3844  1.5534 -0.7357
 6548SOL    HW231278   4.210   4.078   9.806 -0.2442 -0.6456 -0.4765
 6549SOL     OW31279   1.723   0.645   2.413  0.3764 -0.1357  0.0224
 6549SOL    HW131280   1.754   0.604   2.333 -0.7533 -1.4216  0.2456
 6549SOL    HW231281   1.742   0.586   2.487 -0.2328  1.4505  1.4537
 6550SOL     OW31282   1.894   1.022   8.346 -0.7107  0.0724 -0.3129
 6550SOL    HW131283   1.986   1.027   8.322 -0.4907 -1.3410  0.1948
 6550SOL    HW231284   1.839   1.061   8.278 -1.8620 -1.4034 -0.2445
 6551SOL     OW31285   4.434   2.423  14.456  0.4779 -0.1837  0.4676
 6551SOL    HW131286   4.488   2.461  14.386  1.3699 -1.2959  0.5518
 6551SOL    HW231287   4.457   2.331  14.444 -1.1273 -0.8317  2.2871
 6552SOL     OW31288   1.879   0.811   2.042  0.3313 -0.1944 -0.3820
 6552SOL    HW131289   1.865   0.899   2.077 -0.9036  0.4630 -2.5534
 6552SOL    HW231290   1.801   0.793   1.990 -1.4292  1.5849  1.6385
 6553SOL     OW31291   2.578   2.178   3.200  0.2662  0.5599  0.4053
 6553SOL    HW131292   2.632   2.249   3.234  1.5648 -0.4072  0.3222
 6553SOL    HW231293   2.504   2.180   3.260  1.3892  0.7072  1.7749
 6554SOL     OW31294   3.996   1.998   0.879  0.5950 -0.2398 -0.1344
 6554SOL    HW131295   4.075   2.016   0.930  0.1707  2.4525 -0.4547
 6554SOL    HW231296   3.957   2.083   0.859  0.7509 -0.5177 -1.6192
 6555SOL     OW31297   0.053   0.778   7.485  0.0522 -0.6261  0.1483
 6555SOL    HW131298   0.130   0.725   7.508  0.6297  0.2179  0.1710
 6555SOL    HW231299   4.725   0.769   7.552  0.3313 -0.7805  0.4091
 6556SOL     OW31300   2.316   4.068   2.205  0.3318  0.1219  0.4109
 6556SOL    HW131301   2.405   4.084   2.176  0.5043 -1.4669  0.0229
 6556SOL    HW231302   2.303   3.975   2.184  0.6273  0.4615 -1.3021
 6557SOL     OW31303   1.034   2.493  16.175  0.3769 -0.4764  0.6328
 6557SOL    HW131304   1.023   2.579  16.216 -1.3612 -0.7949  0.8181
 6557SOL    HW231305   1.130   2.488  16.168  0.3832  2.0506 -0.9821
 6558SOL     OW31306   2.438   2.479   8.560 -0.5304 -0.2310  0.4617
 6558SOL    HW131307   2.506   2.524   8.610  0.1127 -0.9432  0.2288
 6558SOL    HW231308   2.394   2.437   8.634 -0.3505  0.8118  1.1540
 6559SOL     OW31309   0.813   4.642   9.887 -0.8971 -0.0259 -0.4065
 6559SOL    HW131310   0.797   4.643   9.793 -2.5810  0.2894 -0.1204
 6559SOL    HW231311   0.829   4.735   9.904  0.8164 -0.2386 -0.9063
 6560SOL     OW31312   1.956   4.334  15.506  0.1144  0.2374  0.3383
 6560SOL    HW131313   1.960   4.359  15.598  0.0233  2.4945 -0.2643
 6560SOL    HW231314   1.866   4.302  15.501  0.1720  0.6130 -3.5769
 6561SOL     OW31315   4.093   0.328   2.236  0.2561 -0.1702  0.3368
 6561SOL    HW131316   4.003   0.305   2.257 -0.0694 -0.3612 -1.2520
 6561SOL    HW231317   4.130   0.241   2.250 -1.4615 -0.9366  0.0579
 6562SOL     OW31318   1.772   0.204   1.008  0.2677 -0.6738  0.6377
 6562SOL    HW131319   1.802   0.278   0.955 -2.5829  1.6459  2.2548
 6562SOL    HW231320   1.717   0.239   1.077 -1.5632 -0.3226 -1.0049
 6563SOL     OW31321   4.180   0.080   7.475 -0.3672  0.5286 -0.4809
 6563SOL    HW131322   4.094   0.112   7.449 -0.5519  1.6997  1.5570
 6563SOL    HW231323   4.160   0.030   7.555  2.4003 -0.9863 -0.7408
 6564SOL     OW31324   2.257   1.568   5.283 -0.5630  0.3265 -0.1896
 6564SOL    HW131325   2.226   1.647   5.237  1.3562  1.1441 -0.0633
 6564SOL    HW231326   2.218   1.503   5.225 -2.3460  0.2005  1.1390
 6565SOL     OW31327   4.642   0.646  11.597 -0.2871 -0.1202 -0.5907
 6565SOL    HW131328   4.629   0.580  11.529  0.4911 -0.1196 -0.7378
 6565SOL    HW231329   4.581   0.717  11.580  2.3748  2.2074 -0.4214
 6566SOL     OW31330   0.064   3.785   0.040  0.1162  0.1326 -0.7921
 6566SOL    HW131331   0.101   3.802  17.708  0.3115  2.6219 -0.2422
 6566SOL    HW231332   0.100   3.697   0.048 -0.4349  0.1508  1.9537
 6567SOL     OW31333   2.763   4.475  10.776  0.2985  0.8470  0.1089
 6567SOL    HW131334   2.804   4.447  10.695 -2.3965  3.3425 -2.1680
 6567SOL    HW231335   2.685   4.423  10.795  1.3770 -0.4432  0.9340
 6568SOL     OW31336   1.737   4.385   0.409  0.3056  0.2783 -0.0424
 6568SOL    HW131337   1.743   4.395   0.504  1.2462 -0.8415  0.0206
 6568SOL    HW231338   1.781   4.466   0.385  2.0915 -0.4500  0.7373
 6569SOL     OW31339   0.339   0.572   7.959  0.1398  0.2023  0.8322
 6569SOL    HW131340   0.411   0.529   8.005  1.1636  1.5352  0.4679
 6569SOL    HW231341   0.293   0.589   8.042 -0.0886  1.5587  0.4334
 6570SOL     OW31342   0.713   4.086   8.952 -0.2727 -0.1352  0.4169
 6570SOL    HW131343   0.729   4.123   8.865  0.3541 -0.0705  0.5560
 6570SOL    HW231344   0.786   4.125   9.001 -0.7066  1.6527 -0.3377
 6571SOL     OW31345   2.063   2.831   4.305  0.1063  0.7484  0.5617
 6571SOL    HW131346   1.973   2.804   4.319  0.3237 -0.9392 -1.2395
 6571SOL    HW231347   2.067   2.813   4.211 -3.1629  0.7933  0.4246
 6572SOL     OW31348   0.706   3.592   2.691 -0.2229 -0.0145 -0.0159
 6572SOL    HW131349   0.728   3.522   2.630 -1.6014 -1.5413  1.2514
 6572SOL    HW231350   0.790   3.630   2.719  0.6068 -1.2350 -0.8925
 6573SOL     OW31351   3.990   3.850  12.176  0.3409 -0.3973 -0.0725
 6573SOL    HW131352   3.947   3.770  12.203 -0.6732  0.1675 -0.0212
 6573SOL    HW231353   4.069   3.806  12.145  1.4034  2.8163 -1.9669
 6574SOL     OW31354   3.919   2.893   9.571  0.0558  0.6060 -0.4119
 6574SOL    HW131355   3.840   2.889   9.626  0.7592  1.0462  0.6199
 6574SOL    HW231356   3.875   2.856   9.494  0.2630  0.1922 -0.3292
 6575SOL     OW31357   0.756   4.205  16.467  0.1005 -0.3127  0.4045
 6575SOL    HW131358   0.806   4.284  16.448  0.6863 -0.1639  2.5364
 6575SOL    HW231359   0.713   4.237  16.547 -3.9534  0.2083 -1.9745
 6576SOL     OW31360   1.057   1.428   5.510  0.4139 -0.8014 -0.2370
 6576SOL    HW131361   1.085   1.513   5.545 -0.2259 -1.3005  1.5148
 6576SOL    HW231362   1.098   1.364   5.569  2.0442  0.7470  0.3184
 6577SOL     OW31363   0.533   3.834   6.732  0.4814  0.4862 -0.2942
 6577SOL    HW131364   0.597   3.792   6.789 -1.1011 -1.9978 -0.3760
 6577SOL    HW231365   0.526   3.774   6.658  1.5768 -0.3256  0.2529
 6578SOL     OW31366   2.678   0.769  17.140  0.1122  0.2811 -0.1973
 6578SOL    HW131367   2.600   0.714  17.137  0.6130 -0.3778 -1.2584
 6578SOL    HW231368   2.645   0.849  17.181  0.8244  0.9898 -1.0010
 6579SOL     OW31369   2.514   3.701   7.415  0.1360  0.0878  0.0758
 6579SOL    HW131370   2.592   3.756   7.406  0.0560  0.4015  1.2211
 6579SOL    HW231371   2.556   3.616   7.414 -0.0219  0.0151 -0.4122
 6580SOL     OW31372   2.617   4.660   9.739  0.6827  0.2448  0.2841
 6580SOL    HW131373   2.657   4.611   9.667  1.2346  0.2378  0.5975
 6580SOL    HW231374   2.617   4.597   9.811 -0.3605  1.8186  1.6501
 6581SOL     OW31375   3.208   1.770   5.396  0.0530  0.1958 -0.1317
 6581SOL    HW131376   3.298   1.784   5.426 -0.2002  0.1398  0.6688
 6581SOL    HW231377   3.227   1.721   5.316  0.1775 -1.5779  0.9905
 6582SOL     OW31378   2.491   4.179   3.274 -0.1022 -0.0640  0.3639
 6582SOL    HW131379   2.465   4.262   3.236  0.9545  0.7577  1.4432
 6582SOL    HW231380   2.508   4.200   3.366  0.6309  0.5425  0.0826
 6583SOL     OW31381   0.922   0.853  14.978  0.2664  0.1322  0.3359
 6583SOL    HW131382   0.993   0.833  14.916 -1.9102 -2.8508 -1.1678
 6583SOL    HW231383   0.850   0.802  14.939 -0.7362  1.1639  0.8322
 6584SOL     OW31384   4.728   3.617   0.508  0.0509  0.7123 -0.4228
 6584SOL    HW131385   0.076   3.584   0.531 -0.6632 -0.7309  0.2534
 6584SOL    HW231386   4.709   3.551   0.441 -1.7047  2.8370 -1.9895
 6585SOL     OW31387   2.480   2.361   6.445  0.8092  0.1468  0.2754
 6585SOL    HW131388   2.521   2.375   6.531  0.1230  0.7476  0.5117
 6585SOL    HW231389   2.535   2.293   6.409  0.4862  0.3471 -0.5970
 6586SOL     OW31390   0.076   2.204   2.997 -0.2192 -0.0145  0.2668
 6586SOL    HW131391   0.097   2.133   2.937 -1.4141  1.4903 -1.9218
 6586SOL    HW231392   0.131   2.277   2.968 -0.2661  0.3165  0.9851
 6587SOL     OW31393   1.044   3.040   6.136 -0.7323 -0.3486  0.0303
 6587SOL    HW131394   1.019   2.948   6.126 -2.2422 -0.0583  1.2667
 6587SOL    HW231395   1.040   3.034   6.231  0.4966 -0.8158  0.0614
 6588SOL     OW31396   3.658   0.278  16.631 -0.3432  0.4268 -0.1437
 6588SOL    HW131397   3.586   0.218  16.650  0.0630  0.2556  0.8942
 6588SOL    HW231398   3.662   0.340  16.705 -2.4211  2.3696 -1.6696
 6589SOL     OW31399   3.078   4.697  12.572  0.0312  0.5828 -0.1456
 6589SOL    HW131400   3.000   4.737  12.610 -0.1201 -2.0844  2.3116
 6589SOL    HW231401   3.036   4.628  12.521  1.1650 -0.0562 -0.2130
 6590SOL     OW31402   2.514   0.772   7.023  0.9052  0.3923 -0.8346
 6590SOL    HW131403   2.592   0.812   7.061 -0.0716  0.1081  1.4669
 6590SOL    HW231404   2.463   0.849   7.000  1.7814  0.9449 -0.9198
 6591SOL     OW31405   0.475   1.959   7.366  0.5491  0.0328 -0.4653
 6591SOL    HW131406   0.388   1.982   7.335  0.7988  1.2327 -0.2828
 6591SOL    HW231407   0.491   1.870   7.336 -0.7547 -1.4474  3.2845
 6592SOL     OW31408   0.791   0.811  16.781  0.4713 -0.3658 -0.3616
 6592SOL    HW131409   0.882   0.785  16.767  0.6204  1.3171 -2.4183
 6592SOL    HW231410   0.802   0.852  16.867 -2.4995  1.2556 -0.7653
 6593SOL     OW31411   0.019   3.339   6.695 -0.0466 -0.1904 -0.2773
 6593SOL    HW131412   0.097   3.395   6.693  0.5505 -1.0132 -0.0854
 6593SOL    HW231413   4.688   3.401   6.710  1.2373  0.8199  1.4430
 6594SOL     OW31414   1.401   0.858  12.118  0.0578  0.0309 -0.2955
 6594SOL    HW131415   1.322   0.865  12.172  1.4315 -2.2146  1.9846
 6594SOL    HW231416   1.367   0.873  12.029  0.6778  1.1955 -0.3290
 6595SOL     OW31417   4.309   2.141   3.277  0.5799 -0.6104  0.4389
 6595SOL    HW131418   4.252   2.065   3.281 -0.5264  0.1227 -1.3950
 6595SOL    HW231419   4.264   2.209   3.328 -0.8538  0.4253 -2.2248
 6596SOL     OW31420   2.705   0.519   4.667  0.3163 -0.1570 -1.1209
 6596SOL    HW131421   2.796   0.503   4.645  1.0382 -0.1113  1.8332
 6596SOL    HW231422   2.676   0.590   4.610  1.2555  2.1467  1.3164
 6597SOL     OW31423   3.888   3.347  16.346 -0.0796 -0.2873 -0.0073
 6597SOL    HW131424   3.951   3.283  16.310 -0.9388 -0.2610 -1.5435
 6597SOL    HW231425   3.808   3.321  16.301  0.7240 -0.3194 -1.4165
 6598SOL     OW31426   3.286   2.260   4.139 -0.1021  0.4244 -0.0591
 6598SOL    HW131427   3.206   2.312   4.138 -0.6238 -0.4056 -0.9715
 6598SOL    HW231428   3.353   2.313   4.095 -0.0612  1.5047  1.2771
 6599SOL     OW31429   3.962   0.611   1.577 -0.4407 -0.3742 -0.1139
 6599SOL    HW131430   4.012   0.571   1.506 -0.5420 -3.1999  1.4358
 6599SOL    HW231431   4.013   0.576   1.650  2.5358  1.8063 -1.1341
 6600SOL     OW31432   1.331   4.233   3.570  0.0553  0.0520 -0.4842
 6600SOL    HW131433   1.339   4.157   3.512  1.3061  0.5557 -0.9789
 6600SOL    HW231434   1.334   4.310   3.512  0.3363 -0.7224 -1.5077
 6601SOL     OW31435   3.889   1.693   1.116  0.2391 -0.0440 -0.6720
 6601SOL    HW131436   3.805   1.739   1.113 -1.3927 -2.8058  1.3417
 6601SOL    HW231437   3.954   1.759   1.094 -1.0549  0.4690 -2.9210
 6602SOL     OW31438   1.923   2.120   1.149  0.2368 -0.5743  0.5465
 6602SOL    HW131439   1.911   2.026   1.158 -1.5700 -0.4339 -0.5370
 6602SOL    HW231440   1.850   2.148   1.094  1.5478  1.2913 -0.2440
 6603SOL     OW31441   4.318   4.053   2.632  0.3308  0.7230  0.0782
 6603SOL    HW131442   4.368   4.089   2.706  2.2053 -1.5084 -0.1195
 6603SOL    HW231443   4.229   4.063   2.665 -0.0697 -0.4162 -0.6662
 6604SOL     OW31444   0.689   1.400  15.259  0.1714 -0.2271 -0.1208
 6604SOL    HW131445   0.731   1.438  15.336  0.3733 -3.6461  1.4494
 6604SOL    HW231446   0.668   1.310  15.283  1.1806 -0.0795  1.2733
 6605SOL     OW31447   0.099   0.193   5.496 -0.1245 -1.0120 -0.2401
 6605SOL    HW131448   0.052   0.114   5.470 -0.7716 -0.9581  0.7667
 6605SOL    HW231449   0.124   0.174   5.586  2.0923 -0.6251 -0.7768
 6606SOL     OW31450   1.651   4.278   2.111 -0.1588  0.3287 -0.3289
 6606SOL    HW131451   1.580   4.226   2.149  0.9785 -0.2354  1.0134
 6606SOL    HW231452   1.598   4.357   2.098  0.6306  0.8347 -0.5105
 6607SOL     OW31453   2.257   0.675   6.817  0.0242 -0.3823 -0.4272
 6607SOL    HW131454   2.280   0.678   6.910 -0.6705 -1.1243 -0.2351
 6607SOL    HW231455   2.330   0.634   6.771  0.7306 -0.7654  1.0528
 6608SOL     OW31456   3.058   1.249   9.391  0.3922 -0.2917  0.5241
 6608SOL    HW131457   2.973   1.206   9.383  0.5566 -0.5118 -0.0367
 6608SOL    HW231458   3.084   1.237   9.482 -0.6565 -2.5657  0.5155
 6609SOL     OW31459   2.020   1.559   7.951  0.0914 -0.2901  0.0278
 6609SOL    HW131460   2.109   1.592   7.964 -0.8103  2.2912 -0.2892
 6609SOL    HW231461   2.027   1.537   7.858 -3.0224  1.1401 -0.5476
 6610SOL     OW31462   0.681   0.738   6.766  0.1410 -0.2610 -0.8323
 6610SOL    HW131463   0.694   0.816   6.821 -2.9379  1.8217 -3.0434
 6610SOL    HW231464   0.652   0.766   6.679  2.6517  3.4053 -0.4925
 6611SOL     OW31465   2.565   3.719  11.041 -0.9206  0.2841 -0.1064
 6611SOL    HW131466   2.534   3.807  11.060  1.0746  0.9451  0.0915
 6611SOL    HW231467   2.609   3.706  11.125  1.3307  1.8668 -1.0582
 6612SOL     OW31468   0.805   1.014   2.845 -0.3013  0.3401 -0.8652
 6612SOL    HW131469   0.797   1.010   2.749 -0.8887  0.6367 -0.8246
 6612SOL    HW231470   0.900   1.021   2.858 -0.3241 -0.6262 -0.2264
 6613SOL     OW31471   0.610   0.242  12.628  0.3161  0.3553 -0.1932
 6613SOL    HW131472   0.701   0.271  12.634  0.1937  0.6282  0.3840
 6613SOL    HW231473   0.586   0.256  12.720  0.3605 -1.9038  0.1646
 6614SOL     OW31474   4.709   4.315   2.298  0.6248  0.1551 -0.9022
 6614SOL    HW131475   4.710   4.367   2.218  0.9830 -0.8561 -1.5572
 6614SOL    HW231476   4.629   4.347   2.341 -0.4226 -1.6401 -1.4991
 6615SOL     OW31477   0.878   4.015  10.618  0.1430  0.2824 -0.2602
 6615SOL    HW131478   0.905   3.931  10.656  0.4387  1.1435  1.4178
 6615SOL    HW231479   0.831   4.053  10.692 -1.1747 -0.5623 -0.6641
 6616SOL     OW31480   3.085   3.368  14.167  0.3710  0.1798  0.2465
 6616SOL    HW131481   3.039   3.338  14.246 -1.0638 -0.0469 -0.6754
 6616SOL    HW231482   3.010   3.386  14.109 -1.0437  2.7243  2.8666
 6617SOL     OW31483   3.708   4.167   8.971  0.4826  0.0516 -0.1239
 6617SOL    HW131484   3.786   4.217   8.994  0.8534 -2.0217  3.1523
 6617SOL    HW231485   3.731   4.079   9.003 -1.3918 -0.8274 -1.1652
 6618SOL     OW31486   0.382   2.528   3.261 -0.2342 -0.7860 -0.0809
 6618SOL    HW131487   0.447   2.598   3.265 -1.0042 -0.1555  1.5037
 6618SOL    HW231488   0.353   2.564   3.177  1.0324 -0.5457 -0.4044
 6619SOL     OW31489   2.403   2.254   5.072  0.1757 -0.1019 -0.1097
 6619SOL    HW131490   2.482   2.255   5.019  0.3905  1.8561  0.2339
 6619SOL    HW231491   2.332   2.209   5.027  0.5906 -1.2935  0.4234
 6620SOL     OW31492   2.295   1.571   9.256  0.2553  0.0442  0.1462
 6620SOL    HW131493   2.237   1.495   9.252 -1.9040  1.6395  0.9580
 6620SOL    HW231494   2.295   1.590   9.350  1.3660 -1.5641  0.4624
 6621SOL     OW31495   4.361   1.422   8.185  0.7146  0.1754 -0.2618
 6621SOL    HW131496   4.300   1.402   8.114 -2.5299 -1.0332  2.8453
 6621SOL    HW231497   4.388   1.510   8.160 -0.5105  0.4253 -0.7051
 6622SOL     OW31498   0.700   3.517  17.392  0.0274 -0.1569  0.6199
 6622SOL    HW131499   0.765   3.584  17.414 -0.4367 -0.1215  1.8347
 6622SOL    HW231500   0.754   3.438  17.383 -0.2602 -0.3593  0.6780
 6623SOL     OW31501   4.578   2.217   4.957 -0.1232  0.3622 -0.3259
 6623SOL    HW131502   4.654   2.254   5.002  0.0413 -1.1109  0.5942
 6623SOL    HW231503   4.545   2.157   5.024 -0.4159  0.1230 -0.6855
 6624SOL     OW31504   3.161   2.515   0.714  0.0995 -0.1717  0.0604
 6624SOL    HW131505   3.149   2.588   0.775  0.3947  0.2076 -0.3374
 6624SOL    HW231506   3.257   2.510   0.715  0.1436  0.6205 -0.2413
 6625SOL     OW31507   0.102   3.525  17.226 -0.5648  0.1850  0.3870
 6625SOL    HW131508   0.076   3.541  17.135 -0.6937  0.9943  0.5717
 6625SOL    HW231509   0.194   3.544  17.213 -0.5630  0.5407  0.9435
 6626SOL     OW31510   0.133   1.225  15.712  0.2110  0.1112  0.2871
 6626SOL    HW131511   0.105   1.213  15.803  0.3248 -2.2057  0.0040
 6626SOL    HW231512   0.220   1.190  15.728 -0.6356 -0.6159  3.3497
 6627SOL     OW31513   0.242   2.677   9.468 -0.0403  0.6385  0.5991
 6627SOL    HW131514   0.194   2.637   9.395  0.5152 -0.7667  1.0007
 6627SOL    HW231515   0.230   2.771   9.451 -0.0194  1.0484  2.7897
 6628SOL     OW31516   3.251   1.112   3.619  0.5627 -0.4121  0.7037
 6628SOL    HW131517   3.170   1.092   3.667 -0.4988  2.3181  0.0558
 6628SOL    HW231518   3.308   1.045   3.656  0.2967 -0.8829  0.2679
 6629SOL     OW31519   0.688   2.003   3.055 -0.0921 -0.0250 -0.1490
 6629SOL    HW131520   0.746   2.076   3.034 -1.0695  0.6952 -0.3206
 6629SOL    HW231521   0.667   1.960   2.972  2.1480 -3.6741  1.1413
 6630SOL     OW31522   0.106   4.300  14.633  0.0540 -0.1875  0.2640
 6630SOL    HW131523   0.078   4.382  14.674  1.1124  1.0220 -1.4151
 6630SOL    HW231524   0.126   4.330  14.544 -0.3543 -2.1246 -0.4823
 6631SOL     OW31525   2.775   0.952   4.074  0.3702  0.2109  0.5333
 6631SOL    HW131526   2.780   0.870   4.123 -0.1359  0.4188  0.9344
 6631SOL    HW231527   2.747   1.013   4.143 -3.9045 -2.0649  0.8067
 6632SOL     OW31528   1.603   3.778   3.349 -0.0451 -0.1069  0.5124
 6632SOL    HW131529   1.598   3.720   3.424 -2.0650 -0.4620  0.1182
 6632SOL    HW231530   1.640   3.715   3.287 -0.6605  0.3938 -0.3697
 6633SOL     OW31531   1.848   3.486   8.177  0.0889  0.1744 -0.3735
 6633SOL    HW131532   1.794   3.565   8.184  0.3280  0.3832 -0.8699
 6633SOL    HW231533   1.882   3.503   8.089 -0.3634 -0.3642 -0.6511
 6634SOL     OW31534   1.357   2.174   2.436 -0.4993  0.0363 -0.0917
 6634SOL    HW131535   1.373   2.080   2.431  0.4675  0.0974  1.9515
 6634SOL    HW231536   1.311   2.180   2.352 -0.7581 -1.7593 -0.0821
 6635SOL     OW31537   2.940   4.509   3.843 -0.2169 -0.0937 -0.3157
 6635SOL    HW131538   2.859   4.549   3.811  0.1645  1.7679  1.0599
 6635SOL    HW231539   2.943   4.430   3.789 -0.8482  0.2658 -0.8830
 6636SOL     OW31540   2.764   0.873   1.424  0.0526 -0.1330 -0.0646
 6636SOL    HW131541   2.746   0.905   1.513 -1.0011  0.1634 -0.3773
 6636SOL    HW231542   2.847   0.827   1.430  1.5659  2.5119 -0.6106
 6637SOL     OW31543   4.403   1.566   0.273  0.1521  0.1890  0.6461
 6637SOL    HW131544   4.332   1.617   0.234 -0.3311 -0.0814  1.1852
 6637SOL    HW231545   4.481   1.617   0.251 -1.3281  2.1163 -0.1843
 6638SOL     OW31546   3.087   2.488   3.682 -0.5771 -0.0481 -0.0986
 6638SOL    HW131547   3.052   2.443   3.759  1.2447 -2.2763 -0.5873
 6638SOL    HW231548   3.103   2.410   3.629  0.6775 -0.6714  1.1996
 6639SOL     OW31549   3.812   3.012  14.831  0.6674 -0.3616 -0.2459
 6639SOL    HW131550   3.812   2.981  14.740  3.1261  0.7195 -0.5925
 6639SOL    HW231551   3.874   3.083  14.816  0.1302  0.4197  1.3504
 6640SOL     OW31552   4.736   4.401   0.750  0.1625  0.0072  0.2646
 6640SOL    HW131553   0.052   4.381   0.675  0.8637 -2.0421  1.2989
 6640SOL    HW231554   0.063   4.413   0.819  1.0742  0.3477 -0.6808
 6641SOL     OW31555   3.555   0.287   3.450  0.0789 -0.1518 -0.1768
 6641SOL    HW131556   3.581   0.340   3.525  0.2134 -0.2986 -0.1218
 6641SOL    HW231557   3.594   0.202   3.469  0.6074  0.9616  3.6411
 6642SOL     OW31558   2.148   0.876  17.367 -0.3613  0.3388 -0.2338
 6642SOL    HW131559   2.066   0.884  17.416 -1.6157 -0.3509 -2.2351
 6642SOL    HW231560   2.121   0.898  17.278  2.9866  2.0118 -0.8240
 6643SOL     OW31561   1.409   1.422   8.562  0.1158 -0.6650  0.0460
 6643SOL    HW131562   1.398   1.499   8.618  1.0106 -0.0165 -0.6702
 6643SOL    HW231563   1.458   1.363   8.619  0.0955 -1.6181 -0.9220
 6644SOL     OW31564   0.269   4.168  11.945  0.0320  0.2302 -0.2745
 6644SOL    HW131565   0.302   4.212  11.866  0.1353  0.5062 -0.0775
 6644SOL    HW231566   0.179   4.201  11.943 -0.3992 -0.8869  0.5057
 6645SOL     OW31567   2.653   2.227  16.865  0.2490 -0.1664 -0.0804
 6645SOL    HW131568   2.572   2.222  16.815  0.6857 -0.3539 -0.7675
 6645SOL    HW231569   2.711   2.173  16.811  0.5467  0.3219 -0.2464
 6646SOL     OW31570   3.195   1.501   6.166 -0.3975 -0.1037  0.5668
 6646SOL    HW131571   3.158   1.546   6.241 -0.8890  0.4225  0.0060
 6646SOL    HW231572   3.208   1.419   6.214 -1.2245 -0.5305  0.0496
 6647SOL     OW31573   0.305   1.361   9.633 -0.2910 -0.1675  0.2560
 6647SOL    HW131574   0.401   1.365   9.640 -0.1907 -0.5997 -0.9305
 6647SOL    HW231575   0.277   1.452   9.642 -1.8077 -0.3562 -2.7900
 6648SOL     OW31576   0.676   4.376   9.536  0.1253  0.1979 -0.2425
 6648SOL    HW131577   0.613   4.403   9.469 -1.8519 -1.7405  0.8656
 6648SOL    HW231578   0.691   4.282   9.531  0.2067  0.1753  0.4421
 6649SOL     OW31579   3.255   1.461   1.180 -0.0000 -0.3242 -0.3401
 6649SOL    HW131580   3.341   1.432   1.150  1.1770  1.5359  1.2097
 6649SOL    HW231581   3.258   1.473   1.275  0.0844 -5.1182  0.2496
 6650SOL     OW31582   2.583   3.677   1.159 -0.5591  0.3507 -0.2186
 6650SOL    HW131583   2.493   3.649   1.141 -1.0787  0.2964  2.4398
 6650SOL    HW231584   2.588   3.638   1.246  0.4441 -0.5356 -0.6722
 6651SOL     OW31585   1.245   2.129   8.804 -0.0686 -0.0930 -0.1867
 6651SOL    HW131586   1.157   2.134   8.765 -0.5436 -1.9738  0.6359
 6651SOL    HW231587   1.299   2.139   8.726  0.9485  1.0178  0.6783
 6652SOL     OW31588   3.953   3.147   6.771 -0.7308 -0.4694  0.2476
 6652SOL    HW131589   4.020   3.146   6.840 -1.2734 -1.3153  0.7728
 6652SOL    HW231590   3.873   3.113   6.812 -0.2490  1.6216  2.9199
 6653SOL     OW31591   0.192   4.573  10.813 -0.0704 -0.0662 -0.2385
 6653SOL    HW131592   0.225   4.662  10.807  0.1855 -0.1295  0.2029
 6653SOL    HW231593   0.274   4.523  10.801 -0.6495 -0.8104 -1.0899
 6654SOL     OW31594   2.328   2.762  10.088 -0.0669 -0.2825  0.1193
 6654SOL    HW131595   2.336   2.809  10.171  0.8609  1.4615 -0.9593
 6654SOL    HW231596   2.239   2.727  10.097 -0.4434  0.3489 -1.1439
 6655SOL     OW31597   2.741   2.048   2.382 -0.3732  0.4218 -0.3552
 6655SOL    HW131598   2.759   1.954   2.386  0.3283  0.6191  1.0982
 6655SOL    HW231599   2.655   2.048   2.339 -0.6974  1.9414  0.2859
 6656SOL     OW31600   1.476   4.142   4.521  0.6205  0.6740 -0.7597
 6656SOL    HW131601   1.566   4.155   4.492  1.2730 -1.5134  0.3045
 6656SOL    HW231602   1.435   4.086   4.454  0.5524  0.7051 -0.7445
 6657SOL     OW31603   2.614   0.731   8.365 -0.6804 -0.5740 -0.2391
 6657SOL    HW131604   2.671   0.799   8.400 -2.0133 -0.0099  0.8565
 6657SOL    HW231605   2.531   0.773   8.340  0.9013  1.8399 -1.4808
 6658SOL     OW31606   4.733   3.665   5.043 -0.0648  0.2103  0.1884
 6658SOL    HW131607   4.641   3.671   5.018  0.0291  0.7613 -0.0120
 6658SOL    HW231608   0.022   3.588   4.993 -0.9804 -0.3991  0.6002
 6659SOL     OW31609   2.449   3.028  15.777 -0.0222  0.1889  0.3918
 6659SOL    HW131610   2.422   3.114  15.809  1.2877 -0.2409  2.6322
 6659SOL    HW231611   2.489   2.993  15.856  0.2472 -0.2512  0.0643
 6660SOL     OW31612   0.278   1.148  17.439 -0.2883  0.0014  0.4335
 6660SOL    HW131613   0.334   1.223  17.459 -0.0718 -0.8166  2.9254
 6660SOL    HW231614   0.335   1.073  17.420  0.6081  0.7932  0.0170
 6661SOL     OW31615   2.880   2.014   8.792 -0.4092 -0.4261 -0.5923
 6661SOL    HW131616   2.823   1.937   8.801  0.5013 -0.9623  0.6537
 6661SOL    HW231617   2.828   2.064   8.729 -1.3402 -1.0878 -0.3567
 6662SOL     OW31618   1.855   3.600   2.549  0.1433 -0.2773 -0.2336
 6662SOL    HW131619   1.815   3.555   2.474  0.1512 -0.2334 -0.2639
 6662SOL    HW231620   1.915   3.666   2.513 -1.2825  0.1831 -1.7759
 6663SOL     OW31621   2.019   0.525  10.759 -0.5841 -0.0903 -0.0894
 6663SOL    HW131622   2.106   0.563  10.772  1.2268 -4.2899 -0.0059
 6663SOL    HW231623   2.020   0.479  10.843  0.5466  0.4749  0.2142
 6664SOL     OW31624   2.809   0.849   6.283  0.1024  0.7371  0.0588
 6664SOL    HW131625   2.724   0.874   6.249  0.3911  1.0212 -0.4400
 6664SOL    HW231626   2.863   0.867   6.206  0.1545  1.2805  0.2236
 6665SOL     OW31627   1.053   2.394  17.567 -0.5394  0.1518  0.3826
 6665SOL    HW131628   1.083   2.368  17.480  0.7109  2.5462  0.0781
 6665SOL    HW231629   1.110   2.339  17.620 -0.9610 -0.9783 -0.3449
 6666SOL     OW31630   3.724   0.870   7.224  0.2261  0.0677  0.1655
 6666SOL    HW131631   3.739   0.965   7.217  2.3642 -0.4647 -2.2281
 6666SOL    HW231632   3.814   0.838   7.227 -0.2151 -1.0638  1.1357
 6667SOL     OW31633   2.726   3.837   3.901  1.0036  0.2194 -0.3407
 6667SOL    HW131634   2.689   3.793   3.977 -0.1737  1.9939  0.1084
 6667SOL    HW231635   2.816   3.833   3.934  0.1194 -0.6573  1.9350
 6668SOL     OW31636   3.924   1.152   2.211  0.4131 -0.1967  0.1796
 6668SOL    HW131637   3.890   1.065   2.191  3.3412 -1.6945  1.6709
 6668SOL    HW231638   3.855   1.207   2.174  0.8513  1.0218  1.1908
 6669SOL     OW31639   0.530   0.006   9.056 -0.0853 -0.2603 -0.1568
 6669SOL    HW131640   0.526   4.703   8.970 -0.2143  0.9681 -0.7524
 6669SOL    HW231641   0.519   4.680   9.126  1.9650 -1.2893 -0.8037
 6670SOL     OW31642   1.621   0.940   2.421 -0.6980 -0.1486  0.4474
 6670SOL    HW131643   1.658   0.855   2.398 -2.8317 -0.5114 -1.6184
 6670SOL    HW231644   1.577   0.926   2.505 -1.6850  3.6147  0.5884
 6671SOL     OW31645   4.097   0.212   7.161 -0.5880  0.4647 -0.0425
 6671SOL    HW131646   4.173   0.255   7.121 -0.0236 -0.0005  0.5387
 6671SOL    HW231647   4.129   0.125   7.185 -0.3852  1.4484  3.1700
 6672SOL     OW31648   1.270   0.716   7.411 -0.0939 -0.1403  0.4043
 6672SOL    HW131649   1.241   0.804   7.435  0.3714  0.6762 -2.0680
 6672SOL    HW231650   1.363   0.735   7.399  0.1724  0.4825  3.3156
 6673SOL     OW31651   0.600   3.209  12.316  0.6849  0.6965  0.2834
 6673SOL    HW131652   0.597   3.122  12.278  1.9276 -0.3549  2.6400
 6673SOL    HW231653   0.688   3.212  12.352  0.9130 -0.6782 -0.1895
 6674SOL     OW31654   1.568   3.066   7.527  0.2072  0.0510  0.0247
 6674SOL    HW131655   1.620   3.146   7.523  1.3180 -0.6273  0.9922
 6674SOL    HW231656   1.507   3.068   7.453 -0.9536  0.8676  1.0081
 6675SOL     OW31657   3.351   3.131   7.498  0.2464 -0.2026  0.3121
 6675SOL    HW131658   3.263   3.108   7.525 -1.1605  2.6278 -1.7863
 6675SOL    HW231659   3.401   3.119   7.579  0.1709 -2.0509  0.0778
 6676SOL     OW31660   3.576   4.445   2.844 -0.1881  0.0746  0.5077
 6676SOL    HW131661   3.512   4.469   2.776 -2.1983 -1.8746  1.7110
 6676SOL    HW231662   3.552   4.353   2.854  2.0623 -0.6782 -1.0179
 6677SOL     OW31663   4.681   3.571   9.375 -0.0166 -0.8057 -0.4183
 6677SOL    HW131664   4.735   3.527   9.441  1.3142  0.8567 -0.4198
 6677SOL    HW231665   4.593   3.533   9.386 -0.5297  0.7029  0.6881
 6678SOL     OW31666   2.192   2.358   0.964 -0.6119  0.7320 -0.3024
 6678SOL    HW131667   2.256   2.409   0.914  0.0199 -0.6303 -0.8854
 6678SOL    HW231668   2.228   2.271   0.944 -0.6084  0.5614  0.4599
 6679SOL     OW31669   3.844   2.906   8.547 -0.0041 -0.1852 -0.5667
 6679SOL    HW131670   3.866   2.818   8.577  2.4065  0.6457  0.1022
 6679SOL    HW231671   3.876   2.962   8.618  0.7051  1.7105 -2.3861
 6680SOL     OW31672   2.159   0.760   1.445 -0.0520 -0.5475  0.3197
 6680SOL    HW131673   2.163   0.732   1.354  1.5247 -0.6409  0.4118
 6680SOL    HW231674   2.211   0.698   1.497 -0.5227 -0.6719  0.6455
 6681SOL     OW31675   4.237   4.523  13.627 -0.1455 -0.0901 -0.5107
 6681SOL    HW131676   4.159   4.559  13.670  1.3956  4.0207 -1.1856
 6681SOL    HW231677   4.217   4.545  13.536  0.0848  2.0035 -0.0494
 6682SOL     OW31678   1.374   4.574  12.414 -0.1604 -0.6278 -0.0936
 6682SOL    HW131679   1.301   4.627  12.446 -0.2719 -0.5489 -0.4680
 6682SOL    HW231680   1.447   4.634  12.426  1.6578 -2.1879 -3.2112
 6683SOL     OW31681   4.420   4.212   8.189  0.3614 -0.1901 -0.1774
 6683SOL    HW131682   4.354   4.274   8.159  0.7843  0.7648  0.8655
 6683SOL    HW231683   4.488   4.271   8.158  0.7256 -0.6139 -0.1846
 6684SOL     OW31684   2.577   1.153   9.213 -0.2827  0.0109 -0.4119
 6684SOL    HW131685   2.554   1.233   9.259 -2.2140 -0.6417 -0.2483
 6684SOL    HW231686   2.533   1.091   9.272  1.3879 -1.3442 -0.5684
 6685SOL     OW31687   0.185   2.337   7.509  0.3517 -0.2420 -0.3659
 6685SOL    HW131688   0.186   2.243   7.527 -2.0327 -0.0025  0.9355
 6685SOL    HW231689   0.230   2.339   7.424  0.9071  0.7339 -0.0611
 6686SOL     OW31690   1.883   0.985   7.145 -0.2328 -0.1497 -0.2468
 6686SOL    HW131691   1.936   0.980   7.066 -1.4550  0.6618 -1.1223
 6686SOL    HW231692   1.955   1.011   7.202 -0.1937  0.2282 -0.4674
 6687SOL     OW31693   4.330   3.782  14.533  0.3741  0.6819 -0.2408
 6687SOL    HW131694   4.355   3.813  14.446  0.3994 -0.2140 -0.5503
 6687SOL    HW231695   4.330   3.864  14.583 -2.8287  0.7343 -0.3260
 6688SOL     OW31696   0.515   3.510  16.409 -0.2446  0.1940 -0.0285
 6688SOL    HW131697   0.588   3.491  16.468  0.9900 -1.4474 -2.1143
 6688SOL    HW231698   0.446   3.457  16.449 -0.7993  0.1322 -1.0853
 6689SOL     OW31699   0.099   0.940   3.371 -0.5467 -0.5636  0.3624
 6689SOL    HW131700   0.182   0.924   3.415  0.5510  1.7217 -0.8949
 6689SOL    HW231701   0.037   0.935   3.444 -0.0594 -0.2790  0.7952
 6690SOL     OW31702   0.345   3.264   3.542 -0.1947  0.5107 -0.1572
 6690SOL    HW131703   0.255   3.257   3.572  0.1346  2.3030  1.3214
 6690SOL    HW231704   0.345   3.360   3.548  3.0022  0.4590  1.0122
 6691SOL     OW31705   4.239   2.614   2.892  0.1493 -0.0898  0.4203
 6691SOL    HW131706   4.290   2.573   2.823 -0.7079  0.0956 -0.3324
 6691SOL    HW231707   4.311   2.631   2.952 -0.4348 -0.3324  1.1821
 6692SOL     OW31708   3.499   1.660   3.966 -0.0843  0.1660  0.3055
 6692SOL    HW131709   3.551   1.687   3.890  0.4145 -1.2263  0.1389
 6692SOL    HW231710   3.457   1.578   3.937 -0.7029  0.8422 -0.6992
 6693SOL     OW31711   0.987   2.697   4.033 -0.2017  0.0408  0.3696
 6693SOL    HW131712   0.940   2.634   3.978 -0.4133  0.5676 -0.0518
 6693SOL    HW231713   0.922   2.767   4.041 -0.4587 -0.4974  2.8031
 6694SOL     OW31714   0.835   2.554   6.250 -0.0915 -0.6865 -0.4739
 6694SOL    HW131715   0.796   2.529   6.166  0.4388 -0.1481 -0.8739
 6694SOL    HW231716   0.857   2.471   6.293  2.5275 -0.5003 -1.4653
 6695SOL     OW31717   1.558   4.064   8.530 -0.6327 -0.3844  0.0346
 6695SOL    HW131718   1.496   3.994   8.548 -0.3372 -0.8311 -0.6928
 6695SOL    HW231719   1.604   4.032   8.452 -1.3636  0.5545 -0.7844
 6696SOL     OW31720   0.831   0.896   7.604 -0.0975 -0.1703  0.1291
 6696SOL    HW131721   0.741   0.871   7.626 -0.3448  0.2042 -0.4725
 6696SOL    HW231722   0.836   0.982   7.647  1.5739  0.5528 -1.5302
 6697SOL     OW31723   0.289   4.603   2.655  0.2454 -0.1714  0.2108
 6697SOL    HW131724   0.369   4.585   2.607 -0.5580  0.7808 -1.4906
 6697SOL    HW231725   0.260   4.512   2.658  2.2014 -0.7755  0.5988
 6698SOL     OW31726   3.939   4.602   6.580 -0.0021 -0.3129  0.2606
 6698SOL    HW131727   4.013   4.641   6.534  0.9001 -0.2533  1.7631
 6698SOL    HW231728   3.982   4.546   6.644  0.3666  0.1360  0.4100
 6699SOL     OW31729   4.550   3.339   8.403 -0.2093 -0.0871  0.3870
 6699SOL    HW131730   4.561   3.405   8.334  0.3332 -1.2046 -0.6016
 6699SOL    HW231731   4.634   3.295   8.390  0.7532  2.1217 -0.8127
 6700SOL     OW31732   0.714   1.128   8.577  0.2037  0.1167  0.3346
 6700SOL    HW131733   0.742   1.123   8.669  1.7774  0.1593 -0.1475
 6700SOL    HW231734   0.634   1.177   8.598  1.5123  2.1462  0.5953
 6701SOL     OW31735   0.433   0.547  14.676 -0.4187 -0.2962 -0.1109
 6701SOL    HW131736   0.466   0.635  14.656  0.0497 -0.2292  1.0025
 6701SOL    HW231737   0.513   0.504  14.708  0.9073  1.3498 -1.1780
 6702SOL     OW31738   0.639   3.696   6.171 -0.0538  0.5154 -0.1147
 6702SOL    HW131739   0.727   3.734   6.172  0.0284  0.3676 -1.0637
 6702SOL    HW231740   0.652   3.602   6.186  0.3133  0.4644 -0.7291
 6703SOL     OW31741   3.932   1.949   5.986 -0.0382  0.4302 -0.0053
 6703SOL    HW131742   3.933   1.961   6.081  0.1205  1.9120 -0.1905
 6703SOL    HW231743   3.839   1.940   5.969 -0.4424  0.9090  1.9450
 6704SOL     OW31744   1.150   1.324   8.530 -0.0460  0.5333  0.2003
 6704SOL    HW131745   1.241   1.350   8.517 -0.1792  0.4614 -0.8878
 6704SOL    HW231746   1.107   1.410   8.534 -0.8105  0.2599 -1.9963
 6705SOL     OW31747   1.777   2.170   0.881 -0.0879  0.0402  0.4589
 6705SOL    HW131748   1.762   2.131   0.795 -1.1331  2.8077 -0.6221
 6705SOL    HW231749   1.734   2.255   0.870 -0.5362 -0.3802 -1.0493
 6706SOL     OW31750   0.635   0.004   6.671  0.4927  0.3680  0.2580
 6706SOL    HW131751   0.589   4.675   6.621  2.5518 -0.7566 -0.1083
 6706SOL    HW231752   0.721   4.701   6.671  0.7802  0.9638 -0.7510
 6707SOL     OW31753   3.900   1.194   7.960 -0.4131  0.2079 -0.3146
 6707SOL    HW131754   3.913   1.105   7.993 -0.9844  0.0469 -0.5191
 6707SOL    HW231755   3.991   1.213   7.937  0.5661 -2.8263  0.9205
 6708SOL     OW31756   1.386   0.443  10.514  0.3225 -0.1623  0.1633
 6708SOL    HW131757   1.426   0.509  10.457  1.4980 -1.3521 -0.4023
 6708SOL    HW231758   1.462   0.400  10.554 -0.0616 -0.8203  0.1923
 6709SOL     OW31759   0.475   2.074   0.735 -0.2418  0.1746  0.0222
 6709SOL    HW131760   0.381   2.052   0.732 -0.3429  0.6485 -0.2961
 6709SOL    HW231761   0.508   2.025   0.660 -0.9441  0.7501 -0.6721
 6710SOL     OW31762   0.884   1.847   7.421 -0.2641  0.1146  0.5001
 6710SOL    HW131763   0.935   1.901   7.360 -1.3486  1.4618  0.7951
 6710SOL    HW231764   0.859   1.779   7.358 -1.2041  0.8204  0.1252
 6711SOL     OW31765   1.326   3.370   4.487 -0.3492 -0.3843  0.0294
 6711SOL    HW131766   1.236   3.402   4.486  0.3741  1.6968 -0.2928
 6711SOL    HW231767   1.317   3.275   4.484  0.3101 -0.4219 -0.8698
 6712SOL     OW31768   4.083   1.039   9.866  0.0586  0.1930 -0.0873
 6712SOL    HW131769   4.032   1.091   9.928 -0.2703 -0.1391 -0.0756
 6712SOL    HW231770   4.090   1.106   9.798  0.7666  1.0884  0.8802
 6713SOL     OW31771   2.018   4.675   8.091  0.0193 -0.0525 -0.2347
 6713SOL    HW131772   1.971   4.669   8.007  1.3794 -0.1207 -0.9967
 6713SOL    HW231773   2.044   4.582   8.094  3.2184  0.8102 -0.6633
 6714SOL     OW31774   0.523   3.193  11.115  0.3184 -0.6023 -0.7416
 6714SOL    HW131775   0.541   3.232  11.029 -0.3055 -1.0282 -1.0648
 6714SOL    HW231776   0.558   3.257  11.177  0.7832 -0.1392 -1.4728
 6715SOL     OW31777   3.519   1.643   3.166  0.3758  0.3027  0.0422
 6715SOL    HW131778   3.612   1.630   3.182 -0.0521 -2.8817 -0.0862
 6715SOL    HW231779   3.477   1.600   3.241  1.2813  1.1684  1.0410
 6716SOL     OW31780   3.192   3.076  10.544  0.3922 -0.4072 -0.5440
 6716SOL    HW131781   3.129   3.068  10.473  1.5750  2.3696 -1.9118
 6716SOL    HW231782   3.212   2.983  10.555 -0.6006 -0.6473 -0.7778
 6717SOL     OW31783   4.656   2.634   6.029 -0.1842  0.1316  0.4138
 6717SOL    HW131784   4.701   2.550   6.020  0.7142  0.3939  2.2865
 6717SOL    HW231785   4.687   2.681   5.952 -1.3051  0.3360  0.0905
 6718SOL     OW31786   2.847   1.743   6.414  0.6803  0.1070  0.6943
 6718SOL    HW131787   2.799   1.767   6.334  2.0572 -1.0409 -0.4889
 6718SOL    HW231788   2.806   1.805   6.473 -0.1671  0.1030  0.1096
 6719SOL     OW31789   1.557   3.492   4.445 -0.1178 -0.0371 -0.1394
 6719SOL    HW131790   1.470   3.452   4.450 -0.0911  0.3204  2.8262
 6719SOL    HW231791   1.558   3.532   4.532 -0.3087  0.5748 -0.4153
 6720SOL     OW31792   4.594   2.759   6.739  1.0193 -0.7052  0.2017
 6720SOL    HW131793   4.646   2.704   6.680  0.9354 -0.6409  0.0685
 6720SOL    HW231794   4.569   2.689   6.798 -1.8126 -0.6437 -0.9513
 6721SOL     OW31795   2.614   2.513   0.000 -0.7741  0.0960  0.1518
 6721SOL    HW131796   2.572   2.478   0.079  2.7014 -0.0624  1.8959
 6721SOL    HW231797   2.621   2.606   0.019  0.4574 -0.1648  0.9965
 6722SOL     OW31798   3.235   2.358   9.330  0.0330  0.1296 -0.4781
 6722SOL    HW131799   3.318   2.327   9.366  0.9524  1.7114 -1.2442
 6722SOL    HW231800   3.264   2.447   9.315 -2.4000  1.0584  0.2255
 6723SOL     OW31801   2.741   4.277   1.367 -0.3705  0.2732 -0.5634
 6723SOL    HW131802   2.671   4.261   1.304 -0.3746 -1.0961 -0.1983
 6723SOL    HW231803   2.703   4.216   1.429  2.9234  0.4424  1.6346
 6724SOL     OW31804   3.716   1.886   0.792  0.2946  0.4623  0.9816
 6724SOL    HW131805   3.798   1.934   0.785  0.5153 -0.4144 -2.5406
 6724SOL    HW231806   3.708   1.852   0.703 -0.5224  3.4539 -0.0919
 6725SOL     OW31807   0.049   0.568   8.584  0.1330 -0.2767 -0.0469
 6725SOL    HW131808   0.136   0.545   8.553  0.5307  0.3979  0.5508
 6725SOL    HW231809   4.737   0.542   8.507  2.2613  2.2409 -2.3132
 6726SOL     OW31810   2.031   1.505   7.691  0.3244 -0.1149 -0.3854
 6726SOL    HW131811   1.980   1.437   7.647  2.7711 -0.7147 -2.2984
 6726SOL    HW231812   2.048   1.573   7.626 -0.4326 -0.2842 -0.7632
 6727SOL     OW31813   2.220   3.647   8.336 -0.6024  0.1796  0.6910
 6727SOL    HW131814   2.196   3.666   8.245  2.4574 -0.7438 -0.2962
 6727SOL    HW231815   2.136   3.605   8.357  0.3765 -2.2306 -0.1484
 6728SOL     OW31816   3.118   4.594   3.262 -0.1053 -0.0770  0.2017
 6728SOL    HW131817   3.063   4.594   3.341  0.1162 -0.3142  0.3583
 6728SOL    HW231818   3.044   4.578   3.204 -0.0218 -0.6128  0.2354
 6729SOL     OW31819   0.245   0.085  12.341  0.0678  0.3509  0.0346
 6729SOL    HW131820   0.287   0.002  12.316 -2.7900 -0.5546 -1.7667
 6729SOL    HW231821   0.158   0.074  12.303 -0.0937  1.1485  0.1803
 6730SOL     OW31822   1.873   2.091   4.003  0.2875 -0.0760  0.2566
 6730SOL    HW131823   1.822   2.135   4.072  1.9142  2.0164  0.1241
 6730SOL    HW231824   1.859   2.140   3.922 -1.3791  0.9730  1.1830
 6731SOL     OW31825   3.400   1.829   7.535  0.5349  0.3512  0.2499
 6731SOL    HW131826   3.470   1.878   7.492 -1.1484  2.4198 -0.1698
 6731SOL    HW231827   3.433   1.740   7.539  0.7738  0.3807 -0.9909
 6732SOL     OW31828   1.411   0.346   1.246  0.0631  0.2350  0.3381
 6732SOL    HW131829   1.487   0.404   1.255 -0.1442  0.2346  2.0366
 6732SOL    HW231830   1.338   0.407   1.231  0.9814  1.0034 -1.0939
 6733SOL     OW31831   1.919   2.075   0.457 -0.3870  0.7715  0.0027
 6733SOL    HW131832   1.999   2.121   0.480 -1.1414  2.2225 -0.2706
 6733SOL    HW231833   1.957   1.993   0.424  1.6019  2.0846 -0.9337
 6734SOL     OW31834   1.740   1.252  13.936  0.5492  0.3056 -0.4294
 6734SOL    HW131835   1.660   1.265  13.987  0.5729 -0.7399 -0.1280
 6734SOL    HW231836   1.781   1.182  13.988  0.4245  0.1975 -0.4764
 6735SOL     OW31837   0.822   1.684  14.938  0.1567 -0.2659  0.8949
 6735SOL    HW131838   0.808   1.774  14.909 -0.3373 -1.2177 -1.8231
 6735SOL    HW231839   0.865   1.646  14.861 -1.7193  0.9863 -0.7810
 6736SOL     OW31840   4.231   1.075  11.780  0.5917  0.2058 -0.5636
 6736SOL    HW131841   4.218   1.004  11.843  1.2241  0.6415  0.0573
 6736SOL    HW231842   4.148   1.123  11.788  1.0093  1.0024 -0.9446
 6737SOL     OW31843   0.571   0.506   0.545 -0.0399 -0.2793  0.2422
 6737SOL    HW131844   0.529   0.498   0.631  0.2374  1.0269  0.5011
 6737SOL    HW231845   0.632   0.434   0.561 -0.8043 -0.4770  2.2468
 6738SOL     OW31846   2.876   0.556   1.585 -0.2650 -0.0215  0.4538
 6738SOL    HW131847   2.969   0.539   1.599 -0.6727 -0.2952  2.7329
 6738SOL    HW231848   2.871   0.531   1.493  0.2376 -0.5049  0.5576
 6739SOL     OW31849   0.060   2.328   9.295  0.6275 -0.1066  0.5485
 6739SOL    HW131850   0.043   2.366   9.381 -1.6034  0.8934 -0.3336
 6739SOL    HW231851   0.024   2.398   9.241  1.6160 -0.1065 -0.1161
 6740SOL     OW31852   0.583   2.624   8.148 -0.2026  0.7087  0.2253
 6740SOL    HW131853   0.502   2.648   8.103 -0.6441  1.0331  1.2067
 6740SOL    HW231854   0.617   2.708   8.179  2.5383  0.0813 -1.0684
 6741SOL     OW31855   3.367   1.173   4.860 -0.1798  0.1367 -0.1236
 6741SOL    HW131856   3.385   1.220   4.779 -0.1083 -1.7980 -1.2363
 6741SOL    HW231857   3.282   1.216   4.872 -0.5747  0.0612 -2.6914
 6742SOL     OW31858   0.208   1.782   3.837 -0.2091 -0.0914  0.3464
 6742SOL    HW131859   0.291   1.817   3.870 -0.0436  2.2833 -2.6421
 6742SOL    HW231860   0.212   1.818   3.749 -1.4304 -0.1209  0.2890
 6743SOL     OW31861   4.280   3.925   7.417 -0.7134  0.1199  0.6760
 6743SOL    HW131862   4.265   4.007   7.370  0.2008  1.1808  2.2184
 6743SOL    HW231863   4.254   3.954   7.505 -0.4359 -1.8832  1.4095
 6744SOL     OW31864   0.116   4.546  10.014  0.1790 -0.3778 -0.2505
 6744SOL    HW131865   0.211   4.538  10.004 -0.1614 -0.6094 -3.2058
 6744SOL    HW231866   0.090   4.471  10.068 -0.7009 -1.2067 -1.8245
 6745SOL     OW31867   2.716   2.175   5.898 -0.2658 -0.0085  0.0539
 6745SOL    HW131868   2.764   2.100   5.865  1.0288 -0.1970  2.4285
 6745SOL    HW231869   2.786   2.239   5.884 -0.2140  0.1249  0.9607
 6746SOL     OW31870   0.063   2.219   8.866  0.0737  0.0089  0.4306
 6746SOL    HW131871   0.027   2.133   8.889  0.0128 -0.0363  0.1651
 6746SOL    HW231872   4.729   2.279   8.860  0.6261  0.9854  3.4756
 6747SOL     OW31873   4.238   4.219   1.464  0.1710  0.9938  0.3435
 6747SOL    HW131874   4.221   4.219   1.558  1.7760  1.0334  0.6378
 6747SOL    HW231875   4.285   4.303   1.462 -0.1629  1.1342 -1.3966
 6748SOL     OW31876   0.076   2.177   6.542  0.1502 -0.2545  0.3829
 6748SOL    HW131877   0.034   2.236   6.604 -0.3594  1.9215 -2.0172
 6748SOL    HW231878   0.007   2.153   6.480  0.8365 -1.2969  0.0266
 6749SOL     OW31879   1.265   3.652   5.798  0.7230  0.4334 -0.2295
 6749SOL    HW131880   1.287   3.559   5.795 -0.2851  0.1291  1.9807
 6749SOL    HW231881   1.232   3.673   5.711  0.7513  1.4388  0.0014
 6750SOL     OW31882   2.616   0.945   5.182 -0.4129 -0.3602  0.9140
 6750SOL    HW131883   2.699   0.917   5.222 -0.0764 -1.1860 -0.3691
 6750SOL    HW231884   2.635   1.039   5.180 -0.2991 -0.4950 -3.3309
 6751SOL     OW31885   3.295   4.165  13.817  0.0909 -0.1258 -0.4148
 6751SOL    HW131886   3.220   4.224  13.824 -0.9131 -1.0821 -2.8690
 6751SOL    HW231887   3.276   4.118  13.735  2.0148  0.7605 -1.3752
 6752SOL     OW31888   1.713   1.928   2.322 -0.2558  0.7644  0.2401
 6752SOL    HW131889   1.765   1.969   2.252  2.7755 -0.7223  1.6165
 6752SOL    HW231890   1.691   1.845   2.280  0.1330  0.6824  0.1997
 6753SOL     OW31891   4.067   1.870   9.088  0.2843  0.0800 -0.1216
 6753SOL    HW131892   4.005   1.878   9.160 -0.3153  4.3787 -1.1591
 6753SOL    HW231893   4.013   1.819   9.028 -1.3984 -0.0250  1.4738
 6754SOL     OW31894   4.091   1.240   8.426  0.4010 -0.6306 -0.2011
 6754SOL    HW131895   4.066   1.299   8.355  1.0354 -1.6052 -1.2354
 6754SOL    HW231896   4.012   1.193   8.452  0.5548 -0.4487  0.5801
 6755SOL     OW31897   2.643   1.133   2.554  0.2531  0.3605  0.5280
 6755SOL    HW131898   2.718   1.156   2.499  1.1329 -0.4180  1.4152
 6755SOL    HW231899   2.657   1.040   2.570 -2.4913  0.5555  4.1507
 6756SOL     OW31900   3.135   0.002   6.761 -0.4595 -0.7457  0.2848
 6756SOL    HW131901   3.147   4.693   6.843 -0.9526 -0.6848  0.3903
 6756SOL    HW231902   3.203   4.699   6.708 -0.3424  0.2518 -0.3545
 6757SOL     OW31903   2.646   2.380   2.822 -0.0308 -0.4335  0.0739
 6757SOL    HW131904   2.615   2.294   2.852  2.2237 -1.0277  0.7053
 6757SOL    HW231905   2.576   2.401   2.759  0.2198  1.7542  0.5657
 6758SOL     OW31906   3.610   1.745  14.799  0.4438  0.1675 -0.3022
 6758SOL    HW131907   3.566   1.829  14.799  2.1310  1.0509  0.1954
 6758SOL    HW231908   3.613   1.720  14.707  2.1735  0.4487 -0.3326
 6759SOL     OW31909   4.009   4.067   6.096  0.5448  0.2807  0.4390
 6759SOL    HW131910   4.072   4.139   6.097 -0.5949  1.2599  0.9766
 6759SOL    HW231911   4.015   4.025   6.182  0.8624  1.6381  1.0955
 6760SOL     OW31912   3.823   1.235   4.171 -0.1888  0.1822  0.0224
 6760SOL    HW131913   3.865   1.295   4.109 -1.1464  0.2729 -0.5469
 6760SOL    HW231914   3.730   1.259   4.166 -0.4160 -0.9571 -1.3139
 6761SOL     OW31915   0.647   3.692   3.960  0.2057 -0.5702  0.7362
 6761SOL    HW131916   0.610   3.650   3.882  0.2592 -1.0406  0.9614
 6761SOL    HW231917   0.566   3.711   4.008 -1.7916  1.0235 -3.3137
 6762SOL     OW31918   4.578   3.220   2.833 -0.2721 -0.3162  0.1017
 6762SOL    HW131919   4.623   3.143   2.798 -1.4190 -0.4120 -1.1866
 6762SOL    HW231920   4.518   3.180   2.895  0.8248 -0.7699  0.8662
 6763SOL     OW31921   2.107   1.284  17.314  0.4845 -0.3284  0.8790
 6763SOL    HW131922   2.170   1.219  17.281  0.6295 -0.2010  0.9065
 6763SOL    HW231923   2.059   1.292  17.231  0.3989  2.5600  1.2382
 6764SOL     OW31924   3.762   4.078   8.156 -0.3576 -0.2332 -0.1179
 6764SOL    HW131925   3.711   4.057   8.078 -0.5968 -0.9626  0.2365
 6764SOL    HW231926   3.747   3.999   8.208 -1.8682 -0.9757 -1.6920
 6765SOL     OW31927   1.989   1.215  11.633  0.2239  0.0508 -0.2419
 6765SOL    HW131928   1.944   1.291  11.671 -2.1537 -1.6507  0.3630
 6765SOL    HW231929   2.075   1.255  11.624  0.6317 -0.7445  0.1253
 6766SOL     OW31930   4.286   2.379   7.803 -0.0890  0.0805  0.1755
 6766SOL    HW131931   4.286   2.313   7.872 -0.2052 -1.1032 -0.9349
 6766SOL    HW231932   4.341   2.446   7.843 -1.6234  1.8071 -0.6104
 6767SOL     OW31933   3.951   3.718   6.491  0.1740  0.6407  0.3177
 6767SOL    HW131934   4.043   3.696   6.499  0.3206  1.1904  0.1540
 6767SOL    HW231935   3.913   3.694   6.576 -0.0517 -0.6321 -0.1328
 6768SOL     OW31936   1.025   2.514   6.917 -0.1985  0.5434 -0.0813
 6768SOL    HW131937   0.936   2.511   6.953  0.1520  2.6103  0.9385
 6768SOL    HW231938   1.067   2.459   6.983 -0.8946 -0.6625 -0.6459
 6769SOL     OW31939   0.077   3.632   5.292  0.0883  0.0817  0.0237
 6769SOL    HW131940   0.052   3.631   5.200  1.0120 -0.9117 -0.2216
 6769SOL    HW231941   4.736   3.604   5.336 -0.1927  2.5607  1.0729
 6770SOL     OW31942   0.260   0.988   1.895 -0.6774 -0.3924  0.5960
 6770SOL    HW131943   0.239   1.081   1.885 -2.3714 -0.9269 -0.7680
 6770SOL    HW231944   0.328   0.989   1.828 -1.4399  0.6078 -0.1708
 6771SOL     OW31945   0.863   0.246  15.742 -0.4918  0.1383  0.5677
 6771SOL    HW131946   0.812   0.287  15.672  0.7871 -0.9331 -0.9891
 6771SOL    HW231947   0.810   0.167  15.747  1.1431 -0.9672  0.4471
 6772SOL     OW31948   1.804   0.637   6.606  0.3795  0.9571 -0.2996
 6772SOL    HW131949   1.775   0.600   6.522  1.4576 -0.5718  0.0000
 6772SOL    HW231950   1.737   0.600   6.663  1.1346 -1.1763 -0.7807
 6773SOL     OW31951   0.913   3.279   6.017  1.1093 -0.3934  0.5313
 6773SOL    HW131952   0.963   3.211   6.063  1.7401 -0.2942  0.0048
 6773SOL    HW231953   0.978   3.319   5.959 -0.2574 -0.4613 -1.0481
 6774SOL     OW31954   1.723   3.967  11.975  0.0182  0.6360  0.1018
 6774SOL    HW131955   1.665   3.954  12.050 -0.9081 -0.0233 -0.7370
 6774SOL    HW231956   1.799   3.927  12.018 -1.2962 -0.6822  1.1938
 6775SOL     OW31957   4.625   2.658   4.031  0.2525 -0.1213  0.0923
 6775SOL    HW131958   4.614   2.563   4.023  2.0949 -0.1621 -2.1827
 6775SOL    HW231959   4.593   2.691   3.946 -0.1475  1.2405  0.7676
 6776SOL     OW31960   2.084   1.001   6.253 -0.3777 -0.1287  0.0930
 6776SOL    HW131961   2.068   0.907   6.255 -1.1299 -0.0126 -0.5873
 6776SOL    HW231962   2.001   1.044   6.274 -0.7309  0.3210 -2.2906
 6777SOL     OW31963   0.096   3.463  11.198  0.4784 -0.5345 -0.1926
 6777SOL    HW131964   0.032   3.507  11.143  0.9762  0.5902  0.1183
 6777SOL    HW231965   0.167   3.528  11.194  1.0461 -1.3518 -2.9901
 6778SOL     OW31966   3.353   1.484   0.149 -0.2104 -0.2057  0.6465
 6778SOL    HW131967   3.435   1.438   0.130 -1.0410 -1.1300 -0.6513
 6778SOL    HW231968   3.313   1.427   0.215 -0.6024 -2.2863 -1.3946
 6779SOL     OW31969   0.345   2.992   0.275 -0.2408 -0.0181 -0.0595
 6779SOL    HW131970   0.416   2.935   0.304 -0.5118 -0.8670 -1.0965
 6779SOL    HW231971   0.394   3.070   0.250 -0.4514  0.5486  1.2650
 6780SOL     OW31972   1.290   0.887   9.734  0.2632  0.0584 -0.7512
 6780SOL    HW131973   1.228   0.936   9.787  0.2134 -1.3669  0.4989
 6780SOL    HW231974   1.224   0.831   9.694  0.4911 -0.8248  0.0897
 6781SOL     OW31975   0.983   0.215   3.860  0.3134 -0.0811  0.6355
 6781SOL    HW131976   0.970   0.129   3.901 -1.0522 -0.5830 -0.8540
 6781SOL    HW231977   0.890   0.237   3.851  0.8930  1.6981 -1.0252
 6782SOL     OW31978   1.542   4.697   4.930 -0.2901 -0.1122  0.1703
 6782SOL    HW131979   1.588   4.695   4.846 -1.4377  0.1346 -0.4745
 6782SOL    HW231980   1.576   4.620   4.975  1.8296  1.4946  1.3315
 6783SOL     OW31981   2.985   3.182   5.260 -0.1139 -0.0385  0.0537
 6783SOL    HW131982   3.071   3.203   5.225 -0.6759 -0.1077 -1.3836
 6783SOL    HW231983   2.937   3.265   5.271 -2.6061 -1.4410 -0.1516
 6784SOL     OW31984   2.935   1.768   2.959  0.9133  0.0707  0.6123
 6784SOL    HW131985   2.922   1.838   3.022  0.5648  0.6701 -0.1287
 6784SOL    HW231986   3.026   1.747   2.980  1.0211 -0.1596 -0.0695
 6785SOL     OW31987   3.439   0.001   7.905 -0.1209  0.0091 -1.1011
 6785SOL    HW131988   3.413   4.660   7.949 -1.0573  1.4776  1.0035
 6785SOL    HW231989   3.362   0.012   7.849 -1.1457 -2.9808 -0.2597
 6786SOL     OW31990   3.391   2.542   6.396 -0.0734 -0.1529  0.4895
 6786SOL    HW131991   3.308   2.508   6.362  0.6323 -0.9923 -0.3826
 6786SOL    HW231992   3.438   2.463   6.423 -1.8213 -1.0999  0.7767
 6787SOL     OW31993   4.349   2.328   2.882  0.1747 -0.3022 -0.2449
 6787SOL    HW131994   4.377   2.256   2.939 -0.9008 -1.1465 -0.7793
 6787SOL    HW231995   4.352   2.400   2.945 -0.6192 -2.1256  1.9119
 6788SOL     OW31996   0.598   1.554   6.858 -0.1720  0.1874 -0.1438
 6788SOL    HW131997   0.614   1.514   6.943 -0.4710  0.5462  0.0848
 6788SOL    HW231998   0.505   1.578   6.857  0.2539  1.8671 -0.4698
 6789SOL     OW31999   3.912   2.610   0.253  0.1899  0.4444  0.7077
 6789SOL    HW132000   3.999   2.610   0.294  1.7875 -1.9139 -2.7605
 6789SOL    HW232001   3.869   2.579   0.333 -1.6072 -2.2529 -1.3052
 6790SOL     OW32002   1.011   2.190  11.045 -0.1357 -0.1337  0.3400
 6790SOL    HW132003   0.921   2.182  11.076 -0.5250  1.0996 -0.4567
 6790SOL    HW232004   1.053   2.233  11.119 -3.0119  2.6873  0.3592
 6791SOL     OW32005   4.410   3.721   7.317  0.0330  0.3237  0.2280
 6791SOL    HW132006   4.385   3.655   7.382  1.7766 -0.3394  0.2136
 6791SOL    HW232007   4.367   3.795   7.360 -1.4953  0.2884 -1.2203
 6792SOL     OW32008   4.119   4.089   1.217  0.2642  0.5283 -0.5736
 6792SOL    HW132009   4.201   4.056   1.180 -0.6385 -1.2713 -0.9449
 6792SOL    HW232010   4.151   4.127   1.299 -0.4854  0.8733 -0.4392
 6793SOL     OW32011   1.901   1.355   7.268 -0.2555  0.4848 -0.1890
 6793SOL    HW132012   1.833   1.297   7.233  0.3133 -0.1435 -0.2644
 6793SOL    HW232013   1.927   1.305   7.346  2.4940  1.0063 -0.7880
 6794SOL     OW32014   4.578   2.139   3.255 -0.6510  0.2084 -0.3580
 6794SOL    HW132015   4.570   2.043   3.250  0.8591  0.0154  1.3019
 6794SOL    HW232016   4.489   2.157   3.286 -1.3323 -1.1544 -1.4672
 6795SOL     OW32017   2.645   1.408   2.374  0.3130 -0.4534  1.1338
 6795SOL    HW132018   2.668   1.384   2.284 -0.0580 -1.1125  1.2174
 6795SOL    HW232019   2.715   1.360   2.418  0.5063 -0.4843  0.7962
 6796SOL     OW32020   3.470   0.757  11.329 -0.1810  0.1175  0.7770
 6796SOL    HW132021   3.467   0.781  11.422 -0.2404 -1.4980  1.1842
 6796SOL    HW232022   3.532   0.814  11.283 -1.2561 -0.3794 -1.2886
 6797SOL     OW32023   3.992   3.011   4.240  0.3589 -0.3787  0.2648
 6797SOL    HW132024   4.071   2.978   4.196  0.5910 -0.5781  0.8304
 6797SOL    HW232025   4.018   3.092   4.284  1.0896  1.3499 -3.2666
 6798SOL     OW32026   4.131   0.573   1.344  0.0108  0.2856  0.2776
 6798SOL    HW132027   4.198   0.554   1.410  1.0802  1.8518 -0.3527
 6798SOL    HW232028   4.133   0.488   1.300 -0.6141  2.0781 -3.1529
 6799SOL     OW32029   4.613   4.527   7.118  0.3982  0.0651  0.3952
 6799SOL    HW132030   4.548   4.560   7.181 -0.2224  0.0457 -0.2384
 6799SOL    HW232031   4.603   4.433   7.135 -0.8187  0.0948 -0.1482
 6800SOL     OW32032   3.164   0.045   2.220  0.4533  0.4625 -0.3054
 6800SOL    HW132033   3.223   0.029   2.294  0.1001 -0.3089 -0.2000
 6800SOL    HW232034   3.201   4.718   2.161  2.3547  0.6808  0.6300
 6801SOL     OW32035   3.380   1.944   1.223  0.0510 -0.1320  0.4658
 6801SOL    HW132036   3.290   1.974   1.218  1.1284  2.3810 -2.9034
 6801SOL    HW232037   3.392   1.918   1.132 -0.7583 -0.0271  0.3343
 6802SOL     OW32038   3.781   3.554  10.622  0.4941 -1.1388 -0.8990
 6802SOL    HW132039   3.841   3.629  10.624  0.5231 -1.2117  1.1985
 6802SOL    HW232040   3.823   3.505  10.552  2.2586  0.9234 -1.2749
 6803SOL     OW32041   2.428   1.640   8.792  0.0873  0.2095  0.0270
 6803SOL    HW132042   2.455   1.573   8.729  0.3370 -0.8364  1.2379
 6803SOL    HW232043   2.501   1.701   8.793  0.2252  0.0568 -0.5351
 6804SOL     OW32044   3.341   4.091   8.373 -0.6191 -0.3027  0.6524
 6804SOL    HW132045   3.293   4.174   8.380  1.1302  0.7700  0.0445
 6804SOL    HW232046   3.424   4.108   8.417  0.3417 -1.7914 -0.5761
 6805SOL     OW32047   1.177   1.159   5.242 -0.5045 -0.0018 -0.1152
 6805SOL    HW132048   1.233   1.146   5.318 -0.5171  0.0630 -0.0948
 6805SOL    HW232049   1.182   1.073   5.202  2.0385 -0.1755  0.5405
 6806SOL     OW32050   0.615   2.984   2.451 -0.1360 -0.6900  0.0916
 6806SOL    HW132051   0.552   2.916   2.427 -1.0873  0.6481 -1.1140
 6806SOL    HW232052   0.559   3.043   2.501  1.2318  0.2192  0.5535
 6807SOL     OW32053   0.249   0.754  12.753  0.3213 -0.0215 -0.1136
 6807SOL    HW132054   0.213   0.670  12.726  2.1431 -1.2910  1.4541
 6807SOL    HW232055   0.291   0.730  12.835  0.3935  1.5651  0.3253
 6808SOL     OW32056   0.970   4.252   6.431 -0.4307  0.0243 -0.3700
 6808SOL    HW132057   0.972   4.178   6.370 -1.8412 -0.4166  0.1384
 6808SOL    HW232058   0.977   4.324   6.368  0.6699 -0.8449 -1.2739
 6809SOL     OW32059   4.280   0.774   7.679 -0.1391 -0.5697  0.5987
 6809SOL    HW132060   4.346   0.779   7.610 -2.0614  1.7690 -1.0995
 6809SOL    HW232061   4.343   0.759   7.750  0.5633  0.3175  0.1646
 6810SOL     OW32062   4.241   4.423   8.154  0.1262 -0.0960  0.4721
 6810SOL    HW132063   4.234   4.460   8.066 -1.2852  1.2083  1.1381
 6810SOL    HW232064   4.151   4.392   8.168 -0.2134 -0.4217 -2.4016
 6811SOL     OW32065   2.260   0.288  16.938 -0.4271 -0.2975 -0.0341
 6811SOL    HW132066   2.265   0.225  17.009  3.8005  1.7488  1.4818
 6811SOL    HW232067   2.175   0.279  16.894 -1.3261  1.3009  1.3712
 6812SOL     OW32068   0.424   0.004  14.711  0.1513 -0.8418 -0.1195
 6812SOL    HW132069   0.505   0.054  14.721 -0.5654  0.6682 -1.8573
 6812SOL    HW232070   0.451   4.654  14.732  1.3029 -0.9520 -2.0565
 6813SOL     OW32071   3.414   0.804   3.405 -0.5032  0.0857 -0.1933
 6813SOL    HW132072   3.320   0.826   3.407 -0.4692  0.2474 -0.4293
 6813SOL    HW232073   3.427   0.805   3.311 -1.9479 -1.7700 -0.4129
 6814SOL     OW32074   1.966   1.490   0.824 -0.1931 -0.0435  0.2850
 6814SOL    HW132075   1.879   1.451   0.813 -0.6436  1.3420 -0.9833
 6814SOL    HW232076   1.953   1.535   0.907 -2.2952  1.0562 -0.6304
 6815SOL     OW32077   4.005   1.639  17.571 -0.6179 -0.2007 -0.0102
 6815SOL    HW132078   4.009   1.724  17.615  0.8608 -0.1558 -0.2111
 6815SOL    HW232079   4.088   1.628  17.523 -0.8708  0.5692 -0.6327
 6816SOL     OW32080   3.190   2.422   4.993 -0.2819 -0.1158 -0.0719
 6816SOL    HW132081   3.278   2.456   5.011 -0.5308  1.5356 -1.9207
 6816SOL    HW232082   3.200   2.387   4.905 -1.4964  2.0560 -1.0698
 6817SOL     OW32083   1.013   2.596  14.157 -0.0107 -0.1682  0.0631
 6817SOL    HW132084   0.929   2.588  14.203  1.3343 -0.0112  2.5302
 6817SOL    HW232085   1.025   2.504  14.134 -4.3464 -0.6234 -0.4655
 6818SOL     OW32086   2.617   1.261   8.008 -0.3859  0.2372  0.1353
 6818SOL    HW132087   2.593   1.316   8.083 -0.2749  0.3400  0.0958
 6818SOL    HW232088   2.599   1.173   8.039 -1.1712  0.3970  0.1392
 6819SOL     OW32089   0.657   3.302   2.578 -0.1110 -0.2592  0.0992
 6819SOL    HW132090   0.591   3.335   2.516  0.3493  2.2740  0.9549
 6819SOL    HW232091   0.610   3.266   2.653 -1.3905  1.1586 -0.0185
 6820SOL     OW32092   0.903   0.756   1.815  0.5978  0.0883  0.0410
 6820SOL    HW132093   0.819   0.719   1.787  1.5026  1.1566 -4.2186
 6820SOL    HW232094   0.958   0.740   1.738 -0.2111 -2.7998  0.0561
 6821SOL     OW32095   2.613   2.163   8.924  0.1238  0.0055 -0.0392
 6821SOL    HW132096   2.543   2.110   8.964 -1.4395  1.2581 -1.1290
 6821SOL    HW232097   2.678   2.153   8.994 -2.4478 -0.5664  2.2597
 6822SOL     OW32098   2.263   0.107  17.119  0.3576 -0.4457 -0.1094
 6822SOL    HW132099   2.340   0.054  17.101  1.6647  1.1242  0.8918
 6822SOL    HW232100   2.232   0.071  17.202 -1.8965  0.4493 -0.5630
 6823SOL     OW32101   2.181   0.883   2.586  0.2511 -0.6034  0.0220
 6823SOL    HW132102   2.250   0.830   2.546  0.2262 -1.2190  0.8011
 6823SOL    HW232103   2.117   0.815   2.604  2.0276 -1.9554  1.2751
 6824SOL     OW32104   1.709   3.347   5.007  0.3927 -0.0492 -1.0135
 6824SOL    HW132105   1.769   3.419   5.027  1.1702 -0.7781 -0.7232
 6824SOL    HW232106   1.624   3.391   5.014  1.8202  2.4551  0.2580
 6825SOL     OW32107   0.706   4.572  10.671 -0.1724 -0.0634  0.3956
 6825SOL    HW132108   0.636   4.594  10.732 -1.7776 -3.0363 -0.3314
 6825SOL    HW232109   0.770   4.525  10.724 -0.1264  1.7887  1.9781
 6826SOL     OW32110   2.452   1.290   5.470 -0.4260 -0.1459 -0.3391
 6826SOL    HW132111   2.518   1.243   5.521  2.1707  3.7089 -0.1025
 6826SOL    HW232112   2.413   1.353   5.530  0.0931 -1.6553  1.6063
 6827SOL     OW32113   4.043   3.976  15.378 -0.3681  0.5828 -0.0350
 6827SOL    HW132114   4.013   4.048  15.322 -0.9190  0.1631 -0.2800
 6827SOL    HW232115   4.115   4.024  15.419 -0.7739  1.1634  0.0104
 6828SOL     OW32116   2.159   0.140   1.425 -0.3963  0.6576  0.0964
 6828SOL    HW132117   2.137   0.216   1.478  0.8001  0.0849  1.4100
 6828SOL    HW232118   2.197   0.171   1.342 -0.7610 -0.1118 -0.3555
 6829SOL     OW32119   1.361   3.609   2.345  0.2406 -0.0310 -0.0280
 6829SOL    HW132120   1.417   3.653   2.280 -0.4296 -2.1494 -2.0615
 6829SOL    HW232121   1.276   3.617   2.302  0.7184  2.2475 -0.5564
 6830SOL     OW32122   2.393   0.828   5.518  0.1349 -0.2054  0.4464
 6830SOL    HW132123   2.458   0.896   5.533  1.0116 -0.4292 -2.4047
 6830SOL    HW232124   2.330   0.835   5.589  0.0534  4.6456 -0.1449
 6831SOL     OW32125   0.373   1.120   2.841 -0.4000 -0.2287  0.5246
 6831SOL    HW132126   0.287   1.095   2.810 -0.8310 -0.9118  2.2559
 6831SOL    HW232127   0.377   1.216   2.836  1.0847 -0.2857  0.5836
 6832SOL     OW32128   3.920   3.791   6.222 -0.5910  0.2724  0.3747
 6832SOL    HW132129   3.947   3.790   6.314 -0.3926 -3.1401  0.2827
 6832SOL    HW232130   3.904   3.697   6.209 -2.3673  0.4187  1.4688
 6833SOL     OW32131   4.290   3.677   2.673 -0.0261 -0.2972 -0.1557
 6833SOL    HW132132   4.302   3.583   2.685  0.0076 -0.2341  0.2878
 6833SOL    HW232133   4.282   3.715   2.760  0.2324  0.1229 -0.3175
 6834SOL     OW32134   2.272   3.078   5.272  0.0033 -0.6720 -0.2811
 6834SOL    HW132135   2.342   3.019   5.300 -0.5147 -0.4555  1.4190
 6834SOL    HW232136   2.203   3.065   5.337  0.5121  0.5588  0.4949
 6835SOL     OW32137   1.493   0.304   3.915  0.0327 -0.1196  0.9946
 6835SOL    HW132138   1.454   0.266   3.837 -1.6134  2.0430  0.7806
 6835SOL    HW232139   1.449   0.386   3.938  1.8000  0.8449  0.8933
 6836SOL     OW32140   1.162   4.041  10.146 -0.1446 -0.1152 -0.3059
 6836SOL    HW132141   1.149   4.095  10.224 -1.1144  1.3997 -1.5416
 6836SOL    HW232142   1.074   4.034  10.110 -0.6729 -0.1561  0.9975
 6837SOL     OW32143   2.292   3.500   4.936  0.4902 -0.2610  0.2000
 6837SOL    HW132144   2.228   3.485   5.005 -2.8448 -1.7052 -3.2489
 6837SOL    HW232145   2.365   3.526   4.992  0.2423 -0.6520  0.7086
 6838SOL     OW32146   3.343   1.446   5.821 -0.5732 -0.2576 -0.2297
 6838SOL    HW132147   3.267   1.414   5.868 -1.5053  1.5982 -0.4409
 6838SOL    HW232148   3.367   1.367   5.773 -0.5877 -0.1064 -0.4890
 6839SOL     OW32149   3.842   0.359   2.751 -0.6120  0.2892  0.4233
 6839SOL    HW132150   3.767   0.301   2.750 -1.5566  1.4562  2.6485
 6839SOL    HW232151   3.812   0.434   2.803 -1.1514  0.8126 -0.6302
 6840SOL     OW32152   4.647   0.571   7.125 -0.7320 -0.4562  0.6331
 6840SOL    HW132153   4.589   0.597   7.054  1.2939  1.0558 -0.4458
 6840SOL    HW232154   4.579   0.551   7.190  0.0655 -0.4743  1.4649
 6841SOL     OW32155   3.544   1.833  14.312 -0.1654 -0.6096 -0.1023
 6841SOL    HW132156   3.521   1.824  14.220 -2.6851 -2.1342  0.6987
 6841SOL    HW232157   3.461   1.819  14.357  0.2458  0.7494  1.0723
 6842SOL     OW32158   1.652   1.317   5.917  0.0875 -0.2732 -0.1240
 6842SOL    HW132159   1.618   1.237   5.958 -0.6870  0.0952 -0.0382
 6842SOL    HW232160   1.636   1.382   5.986 -2.0723 -1.0647  0.1069
 6843SOL     OW32161   1.071   3.565   8.042  0.6745  0.3034 -0.9264
 6843SOL    HW132162   1.078   3.496   7.977 -0.7862 -1.0442  0.3348
 6843SOL    HW232163   0.977   3.582   8.040  0.5720 -0.0090  0.7011
 6844SOL     OW32164   1.896   0.001  12.122  0.4888  0.4313 -0.1798
 6844SOL    HW132165   1.933   0.028  12.038  2.1651  1.3437  0.8745
 6844SOL    HW232166   1.802   0.016  12.114  0.2868 -0.6579  0.1247
 6845SOL     OW32167   0.117   0.926   9.681 -0.1772 -0.0033  0.3191
 6845SOL    HW132168   0.028   0.902   9.704 -0.5615 -0.9813 -2.2270
 6845SOL    HW232169   0.105   1.016   9.651 -1.4916 -0.4503 -0.4688
 6846SOL     OW32170   1.464   1.194   1.997 -0.2210  0.4042  0.2128
 6846SOL    HW132171   1.424   1.260   1.939  1.0305  1.0488  0.0806
 6846SOL    HW232172   1.383   1.174   2.043 -0.9362 -0.4851 -1.4217
 6847SOL     OW32173   1.854   2.932  13.362 -1.0015 -0.6997  0.4703
 6847SOL    HW132174   1.935   2.886  13.339 -0.9781  0.0032 -0.8408
 6847SOL    HW232175   1.839   3.006  13.303 -0.0614 -1.6464 -0.9567
 6848SOL     OW32176   4.729   3.328   2.454  0.1981  0.1081 -0.0618
 6848SOL    HW132177   4.675   3.360   2.525  0.3659 -0.2656  0.2389
 6848SOL    HW232178   4.687   3.242   2.447  3.2245 -1.2169 -2.1877
 6849SOL     OW32179   1.616   3.717   4.263  0.3156 -0.3430 -0.4521
 6849SOL    HW132180   1.650   3.630   4.285  3.6081  0.7454 -1.2192
 6849SOL    HW232181   1.625   3.760   4.348 -0.9596 -0.6293 -0.1683
 6850SOL     OW32182   2.396   2.843   8.073 -0.5908 -0.2058  0.0661
 6850SOL    HW132183   2.315   2.867   8.028 -0.6776  1.9004  1.3551
 6850SOL    HW232184   2.360   2.818   8.158 -0.1917 -0.6372  0.1109
 6851SOL     OW32185   3.853   1.894   4.794 -0.0420  0.0013  0.0519
 6851SOL    HW132186   3.796   1.873   4.868 -1.1292  3.0757  0.0799
 6851SOL    HW232187   3.915   1.821   4.800  0.5103  0.5121  0.5054
 6852SOL     OW32188   1.724   3.101   3.364 -0.6144 -0.2401 -0.4406
 6852SOL    HW132189   1.759   3.033   3.307 -1.3378 -0.9101 -0.0857
 6852SOL    HW232190   1.678   3.156   3.301  0.2250 -0.0737 -0.8995
 6853SOL     OW32191   2.053   3.304   7.320  0.2051  0.2459  0.3782
 6853SOL    HW132192   2.099   3.371   7.370  0.4951  0.5515 -0.2970
 6853SOL    HW232193   2.056   3.351   7.237 -1.1703  0.9016  0.7130
 6854SOL     OW32194   3.126   1.613  17.505  0.5700 -0.6500  0.7349
 6854SOL    HW132195   3.134   1.575  17.592  0.2487 -1.6178  0.3418
 6854SOL    HW232196   3.072   1.547  17.462 -0.2429 -1.1438  2.5474
 6855SOL     OW32197   3.333   2.517  15.649  0.1218 -0.6166 -0.5563
 6855SOL    HW132198   3.418   2.555  15.670 -0.7951  1.9019 -1.3894
 6855SOL    HW232199   3.291   2.589  15.602  1.1789  1.9928  2.4712
 6856SOL     OW32200   4.674   4.702   0.690  0.0263 -0.1725 -0.2151
 6856SOL    HW132201   4.677   4.681   0.596  0.4978 -2.8800  0.4178
 6856SOL    HW232202   4.681   4.609   0.713 -0.5279 -0.5286 -1.4603
 6857SOL     OW32203   4.735   1.019  15.971 -0.5949 -0.2430  0.4629
 6857SOL    HW132204   0.031   1.103  16.000 -1.2512 -0.6245  2.3534
 6857SOL    HW232205   4.648   1.047  15.941 -0.6508 -1.9994 -1.0003
 6858SOL     OW32206   0.733   4.249   6.560 -0.5738  0.1414 -0.0795
 6858SOL    HW132207   0.814   4.261   6.509 -0.0985  2.7907  1.2708
 6858SOL    HW232208   0.679   4.319   6.523  0.0860 -0.2463 -1.8039
 6859SOL     OW32209   3.370   3.390   8.483  0.0992  0.0609  0.4271
 6859SOL    HW132210   3.340   3.386   8.392  1.5789  0.9283 -0.0890
 6859SOL    HW232211   3.458   3.353   8.479  0.2493  0.3474  1.0822
 6860SOL     OW32212   3.311   1.138   1.698 -0.4394  0.3926  0.2658
 6860SOL    HW132213   3.268   1.131   1.783  0.3351  1.7675  0.7758
 6860SOL    HW232214   3.307   1.051   1.659 -1.8216 -0.2426  1.8052
 6861SOL     OW32215   2.492   2.186   5.557 -0.6674 -0.3528  0.4002
 6861SOL    HW132216   2.473   2.199   5.465 -1.3257 -0.2391  0.5527
 6861SOL    HW232217   2.572   2.134   5.550  1.6799  3.6479 -2.2571
 6862SOL     OW32218   4.441   4.485   7.342 -0.4900  0.9041 -0.6237
 6862SOL    HW132219   4.467   4.396   7.319 -1.1138  1.7759 -4.5491
 6862SOL    HW232220   4.370   4.464   7.403  0.3946 -0.7119 -0.1446
 6863SOL     OW32221   2.381   3.286   1.690  0.1326  0.1111  0.0917
 6863SOL    HW132222   2.332   3.294   1.772  1.5448  2.8504  0.7023
 6863SOL    HW232223   2.345   3.365   1.650 -0.0846 -0.0293  0.0109
 6864SOL     OW32224   2.537   3.172   2.265  0.4261  0.0822 -0.3694
 6864SOL    HW132225   2.598   3.236   2.302  1.2296 -1.9425  1.8287
 6864SOL    HW232226   2.463   3.182   2.325  0.2106  0.7323 -0.7480
 6865SOL     OW32227   1.369   1.943   5.385 -0.3020 -0.0961  0.4471
 6865SOL    HW132228   1.365   2.031   5.423  1.3327 -0.0721  0.5695
 6865SOL    HW232229   1.445   1.953   5.328 -0.2277  1.0140  0.7436
 6866SOL     OW32230   3.995   1.423   3.326 -0.4285 -0.6517 -0.2885
 6866SOL    HW132231   4.039   1.454   3.404  0.2057 -0.0572 -0.8847
 6866SOL    HW232232   3.931   1.366   3.369 -1.8515  0.6540 -0.6873
 6867SOL     OW32233   4.345   1.507   5.163 -0.0010  0.3271 -0.4704
 6867SOL    HW132234   4.427   1.490   5.209  0.2712  0.8879 -0.7500
 6867SOL    HW232235   4.380   1.505   5.074 -1.2850  0.5250 -0.9808
 6868SOL     OW32236   1.473   0.876   7.879  0.6836 -0.9397 -0.1363
 6868SOL    HW132237   1.554   0.839   7.913  0.6304  0.2994  1.3737
 6868SOL    HW232238   1.423   0.858   7.958 -0.4287  1.7230 -0.2173
 6869SOL     OW32239   4.543   4.313   3.715  0.4017 -0.0765 -0.0997
 6869SOL    HW132240   4.590   4.283   3.637  0.6610 -2.1467  0.8473
 6869SOL    HW232241   4.537   4.223   3.747 -0.1294 -0.4165 -1.1537
 6870SOL     OW32242   2.492   0.157  15.824  0.4459 -0.3205 -0.7208
 6870SOL    HW132243   2.409   0.126  15.861 -0.2756  2.3742 -0.0835
 6870SOL    HW232244   2.464   0.124  15.739 -2.8415  5.6347 -1.9690
 6871SOL     OW32245   4.350   4.307   9.994 -0.6847  0.1687 -0.1721
 6871SOL    HW132246   4.427   4.351   9.959 -0.1766 -0.0417  0.7015
 6871SOL    HW232247   4.380   4.229  10.041 -2.2711 -0.9588 -1.0336
 6872SOL     OW32248   4.297   3.723   2.950 -0.0241  0.6717  0.2401
 6872SOL    HW132249   4.309   3.818   2.954 -0.9949  0.8367 -0.7259
 6872SOL    HW232250   4.354   3.709   3.025 -0.6415 -0.2450  0.5450
 6873SOL     OW32251   1.647   4.287   1.807  0.3018 -0.0833  0.4700
 6873SOL    HW132252   1.611   4.371   1.834 -3.5687 -0.8277 -2.3680
 6873SOL    HW232253   1.598   4.225   1.862  0.0040  0.7617  1.1577
 6874SOL     OW32254   1.466   3.614   4.681  0.6187 -0.4577 -0.7340
 6874SOL    HW132255   1.379   3.652   4.695 -0.4550 -2.9086 -0.8154
 6874SOL    HW232256   1.495   3.631   4.770  0.7705 -1.4869 -0.5871
 6875SOL     OW32257   4.004   3.092   8.694 -0.2608  0.2318 -0.4166
 6875SOL    HW132258   4.096   3.110   8.674 -0.3836 -0.1474 -1.3378
 6875SOL    HW232259   3.992   3.124   8.783 -0.1423 -1.7348  0.3135
 6876SOL     OW32260   2.284   2.667   6.016  0.1797 -0.2649 -0.0007
 6876SOL    HW132261   2.280   2.751   6.062  1.2153 -0.0299 -0.3488
 6876SOL    HW232262   2.245   2.609   6.082 -0.8136  0.5223  0.1101
 6877SOL     OW32263   1.604   1.255   0.476  0.0708  0.2780  0.7611
 6877SOL    HW132264   1.673   1.312   0.510  1.6735 -0.8728 -0.5343
 6877SOL    HW232265   1.638   1.212   0.398 -1.0179 -0.7729  0.8793
 6878SOL     OW32266   2.188   1.345   8.724 -0.3961  0.1483 -0.1794
 6878SOL    HW132267   2.099   1.375   8.709 -1.0048 -0.8738  1.4679
 6878SOL    HW232268   2.190   1.372   8.815 -0.0334  1.6783 -0.6506
 6879SOL     OW32269   3.472   0.642   2.333 -0.5094  0.7968 -0.3647
 6879SOL    HW132270   3.519   0.645   2.250 -0.2299  1.5316 -0.1788
 6879SOL    HW232271   3.505   0.555   2.359 -0.0814  1.3967  1.0984
 6880SOL     OW32272   3.866   2.492   2.946 -0.0451  0.2597  0.4974
 6880SOL    HW132273   3.907   2.533   2.870 -2.5174  0.7298 -0.5817
 6880SOL    HW232274   3.777   2.471   2.917  0.4055  0.3811 -0.9960
 6881SOL     OW32275   2.987   2.399  17.544  0.1929  0.1329 -0.3141
 6881SOL    HW132276   2.979   2.484  17.501  1.7465  0.0267 -0.8017
 6881SOL    HW232277   2.920   2.414  17.611  1.8795  0.0262  1.3990
 6882SOL     OW32278   1.946   1.195  14.483 -0.0900 -0.3537 -0.0803
 6882SOL    HW132279   2.023   1.248  14.503 -0.4420  0.4816 -0.9529
 6882SOL    HW232280   1.882   1.228  14.547 -0.7249  0.6966 -1.2564
 6883SOL     OW32281   3.299   3.832   2.659  0.6652  0.0642 -0.0457
 6883SOL    HW132282   3.362   3.782   2.711  0.0438 -1.1235 -0.4561
 6883SOL    HW232283   3.356   3.890   2.607  0.6022  0.5978  0.4749
 6884SOL     OW32284   1.384   0.599  14.224 -0.0600  0.9487 -0.4117
 6884SOL    HW132285   1.344   0.654  14.157 -1.5667  0.9278  0.4699
 6884SOL    HW232286   1.466   0.581  14.178 -0.5622  0.5503 -1.1599
 6885SOL     OW32287   2.841   2.107   7.971  0.4378 -0.1564  0.2574
 6885SOL    HW132288   2.897   2.060   8.033 -2.0136 -1.1384  1.7106
 6885SOL    HW232289   2.853   2.195   8.006 -0.4558  0.3823 -0.7958
 6886SOL     OW32290   2.987   2.831   6.906  0.0180  0.7559  0.4585
 6886SOL    HW132291   2.896   2.830   6.934  0.5981  0.5237  2.3165
 6886SOL    HW232292   2.984   2.884   6.826 -1.4367 -0.3303 -0.1872
 6887SOL     OW32293   2.992   2.066   7.052  0.0808 -0.0771  0.3387
 6887SOL    HW132294   2.903   2.072   7.087  0.5737  0.9162  1.4127
 6887SOL    HW232295   2.986   2.130   6.982 -1.5439 -0.1917  0.3565
 6888SOL     OW32296   1.362   1.293   0.252  0.1174  0.1269 -0.3446
 6888SOL    HW132297   1.404   1.219   0.296 -3.8613 -0.7309  1.9611
 6888SOL    HW232298   1.271   1.263   0.246 -0.4358  1.7886 -0.1370
 6889SOL     OW32299   2.143   0.568   2.610 -0.3931 -0.0437  0.3597
 6889SOL    HW132300   2.225   0.531   2.580 -0.0732 -0.6849  2.0393
 6889SOL    HW232301   2.164   0.581   2.703  0.5427 -0.7208  0.2350
 6890SOL     OW32302   4.353   0.535  11.534  0.3419 -0.3808 -0.1902
 6890SOL    HW132303   4.398   0.467  11.484  1.4177  0.0281  0.2454
 6890SOL    HW232304   4.383   0.610  11.483  2.2901 -1.6189 -0.8488
 6891SOL     OW32305   2.773   3.904   2.761 -0.1100  0.1014 -0.2377
 6891SOL    HW132306   2.732   3.818   2.772  1.2213 -0.1216  2.7458
 6891SOL    HW232307   2.821   3.890   2.679  2.6996 -1.8728  1.7868
 6892SOL     OW32308   1.433   4.705   8.597  0.2858  0.8046 -0.5430
 6892SOL    HW132309   1.483   4.666   8.525  2.6366  1.2707  0.8102
 6892SOL    HW232310   1.443   0.061   8.588  1.5681  0.6513 -0.8201
 6893SOL     OW32311   4.318   2.862   5.116  0.0323  0.3230 -0.0965
 6893SOL    HW132312   4.351   2.780   5.079  2.7022  1.6022 -0.5120
 6893SOL    HW232313   4.232   2.840   5.154 -0.0456 -2.3003 -1.7632
 6894SOL     OW32314   0.528   3.937  11.608 -0.2703  0.3038 -0.3040
 6894SOL    HW132315   0.510   3.869  11.673  0.5260  0.2268 -0.1616
 6894SOL    HW232316   0.444   3.981  11.617 -0.6028 -0.2414 -0.7614
 6895SOL     OW32317   1.702   2.446  14.456 -0.1576  0.3957 -0.2972
 6895SOL    HW132318   1.770   2.381  14.442  0.0660  0.5985 -0.1427
 6895SOL    HW232319   1.631   2.393  14.492 -1.0828  0.0432 -2.6116
 6896SOL     OW32320   0.748   0.456  17.370  0.0316 -0.2780 -0.2290
 6896SOL    HW132321   0.683   0.445  17.301 -0.1593 -0.9124  0.0481
 6896SOL    HW232322   0.691   0.463  17.446 -0.1502  2.2709 -0.6147
 6897SOL     OW32323   2.999   3.515  16.132  0.4904  0.2394  0.3672
 6897SOL    HW132324   2.910   3.550  16.123  1.4520  2.7457  0.5014
 6897SOL    HW232325   2.991   3.449  16.063  3.0089  0.9679 -0.6208
 6898SOL     OW32326   3.663   1.115   3.762  0.3669  0.0748 -0.1119
 6898SOL    HW132327   3.748   1.130   3.802  0.5615 -1.5090  0.0766
 6898SOL    HW232328   3.651   1.190   3.704 -1.8535 -0.9644 -1.0115
 6899SOL     OW32329   0.049   3.188   5.454  0.1035 -0.7597 -0.6593
 6899SOL    HW132330   0.097   3.208   5.534  2.4362 -1.5648 -1.8779
 6899SOL    HW232331   4.696   3.207   5.474  0.5757  2.4795 -1.5314
 6900SOL     OW32332   2.649   3.680   7.671  0.2050 -0.3500 -0.5330
 6900SOL    HW132333   2.592   3.700   7.597  0.8089 -1.7212 -1.3670
 6900SOL    HW232334   2.646   3.585   7.673  0.3579 -0.3245  0.7458
 6901SOL     OW32335   2.424   1.376   5.784 -0.0115  0.5779  0.7679
 6901SOL    HW132336   2.356   1.399   5.720  0.4968 -2.5279 -0.9201
 6901SOL    HW232337   2.370   1.356   5.860 -0.3144 -0.9200  0.1680
 6902SOL     OW32338   0.615   2.223   9.160 -0.2095  0.6417  0.2052
 6902SOL    HW132339   0.544   2.211   9.223 -0.7541 -0.0904 -0.5559
 6902SOL    HW232340   0.627   2.317   9.171  0.4623  0.5872 -0.0397
 6903SOL     OW32341   0.320   1.237   0.647 -0.2254  0.3973 -0.3460
 6903SOL    HW132342   0.403   1.270   0.680 -1.2899  0.5924  2.0878
 6903SOL    HW232343   0.310   1.145   0.669 -3.0616  0.9727  0.7470
 6904SOL     OW32344   1.011   4.457  14.295  0.3004 -0.1875  0.0120
 6904SOL    HW132345   0.967   4.372  14.293  1.0458 -0.5697 -0.1795
 6904SOL    HW232346   1.080   4.454  14.228  1.8684 -1.7226  1.7016
 6905SOL     OW32347   0.734   0.921   3.863  0.0036  0.2404  0.4809
 6905SOL    HW132348   0.766   0.833   3.881 -1.1509 -0.6372 -1.7509
 6905SOL    HW232349   0.814   0.966   3.837  0.3900 -0.9974 -0.4104
 6906SOL     OW32350   4.326   0.483   1.925 -0.3090  0.1675  0.0107
 6906SOL    HW132351   4.273   0.536   1.864 -0.9928  0.7715  1.1279
 6906SOL    HW232352   4.415   0.504   1.896 -0.4238  2.3321  1.2528
 6907SOL     OW32353   0.497   3.036   3.596 -0.1290  0.1132  0.1075
 6907SOL    HW132354   0.429   3.101   3.581 -0.0273  0.3447  0.6428
 6907SOL    HW232355   0.458   2.960   3.554  0.0887  1.2164 -2.0671
 6908SOL     OW32356   1.621   0.873   4.843  1.2281 -0.2506  0.4912
 6908SOL    HW132357   1.666   0.813   4.903  1.1780  0.7768  1.5769
 6908SOL    HW232358   1.678   0.950   4.842 -0.8494  1.2854  0.1132
 6909SOL     OW32359   1.413   4.482   3.381  0.4732 -0.3094  0.2243
 6909SOL    HW132360   1.358   4.414   3.343 -1.4989  1.4658 -0.0659
 6909SOL    HW232361   1.479   4.429   3.425  1.0315  0.7176  0.6169
 6910SOL     OW32362   0.075   2.537  10.356  0.1169 -0.1350  0.0222
 6910SOL    HW132363   0.044   2.604  10.418 -0.0150 -0.7454  0.6215
 6910SOL    HW232364   0.037   2.461  10.401  1.8086 -0.0440  1.5814
 6911SOL     OW32365   2.436   2.454   0.813  0.0168  0.1046  0.0885
 6911SOL    HW132366   2.476   2.445   0.900 -0.4864  0.5348  0.3749
 6911SOL    HW232367   2.425   2.549   0.826 -2.7147 -0.0752 -0.8791
 6912SOL     OW32368   2.106   3.147   7.647 -0.3115 -0.5704 -0.5673
 6912SOL    HW132369   2.076   3.061   7.618  0.3450 -0.5265 -1.3852
 6912SOL    HW232370   2.199   3.152   7.623 -0.0991 -0.0124  0.3736
 6913SOL     OW32371   2.620   3.333   4.008  0.6687 -0.0948  0.0606
 6913SOL    HW132372   2.647   3.340   3.917 -0.3160  0.2967 -0.1945
 6913SOL    HW232373   2.530   3.316   3.983  0.5383 -1.9180  1.7532
 6914SOL     OW32374   2.752   1.816   9.095 -0.2940 -0.0799 -0.7189
 6914SOL    HW132375   2.820   1.754   9.120 -1.0898 -0.2149  1.1321
 6914SOL    HW232376   2.676   1.778   9.139  0.0533 -1.1300 -1.0151
 6915SOL     OW32377   2.202   1.671   1.733 -0.4249 -0.6705 -0.7138
 6915SOL    HW132378   2.127   1.712   1.776 -0.5254 -1.6477  0.0436
 6915SOL    HW232379   2.223   1.596   1.790  1.2875 -0.6726 -1.3494
 6916SOL     OW32380   3.326   2.224  10.428  0.2512 -0.3359  0.1929
 6916SOL    HW132381   3.378   2.201  10.505  0.3327  1.9469  0.8206
 6916SOL    HW232382   3.385   2.213  10.354 -1.6918  1.6752 -1.6617
 6917SOL     OW32383   1.334   0.564   9.340  0.1487 -0.1253 -0.2622
 6917SOL    HW132384   1.377   0.479   9.328  0.7696  0.2540 -0.7012
 6917SOL    HW232385   1.244   0.532   9.347 -0.6581  2.6870  2.0760
 6918SOL     OW32386   4.339   0.514  10.435 -0.4294  0.6190 -0.1446
 6918SOL    HW132387   4.418   0.561  10.408 -0.2460  0.7388  0.6137
 6918SOL    HW232388   4.296   0.505  10.350 -0.1171 -0.2735 -0.2089
 6919SOL     OW32389   1.799   0.740   5.736 -0.0992 -0.5899  0.2583
 6919SOL    HW132390   1.827   0.831   5.733  0.3043 -0.6941  0.8940
 6919SOL    HW232391   1.775   0.734   5.828  1.7869 -2.0865  0.6656
 6920SOL     OW32392   2.956   1.763   3.698  0.0401  0.0214  0.3834
 6920SOL    HW132393   2.959   1.804   3.784  0.3409  0.3785  0.2023
 6920SOL    HW232394   2.964   1.839   3.641 -1.1466 -0.4848 -0.4594
 6921SOL     OW32395   3.613   0.406   6.025 -0.3017 -0.0201 -0.5203
 6921SOL    HW132396   3.651   0.489   5.997 -2.1819  1.2924  0.8207
 6921SOL    HW232397   3.627   0.404   6.119 -0.1986  2.6050 -0.4838
 6922SOL     OW32398   1.540   4.000   0.218  0.1433 -0.2639  0.8549
 6922SOL    HW132399   1.476   3.930   0.232  0.3306 -0.6494 -0.2323
 6922SOL    HW232400   1.497   4.056   0.153 -2.6285  0.7861  3.6187
 6923SOL     OW32401   3.209   0.456   6.601 -0.2900  0.6372  0.2521
 6923SOL    HW132402   3.237   0.365   6.589  5.6046  2.3317  0.9962
 6923SOL    HW232403   3.188   0.480   6.511  0.1494  1.1518  0.2825
 6924SOL     OW32404   4.082   0.879  11.937 -0.7231  0.5676  0.3455
 6924SOL    HW132405   4.128   0.875  12.021  0.8375 -3.9314 -0.7087
 6924SOL    HW232406   4.010   0.818  11.956  0.0504  0.1435  1.9933
 6925SOL     OW32407   1.181   1.694   7.771  0.4411  0.6516 -0.8041
 6925SOL    HW132408   1.226   1.691   7.856 -0.2681  0.2565 -0.4441
 6925SOL    HW232409   1.224   1.624   7.722 -2.0455  1.1032 -3.6358
 6926SOL     OW32410   3.221   0.514   7.896  0.2438 -0.0337 -0.1128
 6926SOL    HW132411   3.187   0.513   7.806 -1.1031 -1.1250  0.4116
 6926SOL    HW232412   3.274   0.435   7.900 -1.2094 -1.0575 -1.0242
 6927SOL     OW32413   2.204   2.949   2.690 -1.0748  0.8660  0.1166
 6927SOL    HW132414   2.272   2.882   2.698  0.2401  2.1760 -0.3778
 6927SOL    HW232415   2.125   2.910   2.729  0.2046 -0.8915  0.9764
 6928SOL     OW32416   0.140   0.170   3.615 -0.7672  0.0420  0.3965
 6928SOL    HW132417   0.151   0.224   3.694  1.3385  0.2570 -0.0380
 6928SOL    HW232418   0.092   0.099   3.657 -2.7470  1.0424 -0.1606
 6929SOL     OW32419   2.820   2.073   9.981  0.1277 -0.7403  0.4015
 6929SOL    HW132420   2.868   2.123  10.047 -0.5557  1.1206 -0.5205
 6929SOL    HW232421   2.791   2.000  10.035  0.3411 -0.9599  0.2203
 6930SOL     OW32422   3.604   4.323   2.178 -0.3162  0.3590 -0.3908
 6930SOL    HW132423   3.585   4.356   2.266 -3.1523 -1.4747 -0.3435
 6930SOL    HW232424   3.624   4.231   2.194  1.6204  0.9428  0.5590
 6931SOL     OW32425   3.381   2.399   5.744 -0.4189 -0.1206  0.1134
 6931SOL    HW132426   3.397   2.305   5.753  0.4025  0.1724  1.7482
 6931SOL    HW232427   3.300   2.413   5.794 -0.4674 -2.4044  0.6936
 6932SOL     OW32428   2.425   1.729   0.706  0.2989  0.1940  0.2171
 6932SOL    HW132429   2.513   1.762   0.687 -0.0038  0.9311  0.0748
 6932SOL    HW232430   2.428   1.709   0.800 -0.9323 -1.0051 -0.0044
 6933SOL     OW32431   4.649   1.482  10.323  0.2435  0.6751 -0.2392
 6933SOL    HW132432   4.676   1.445  10.407  0.6194 -0.2717 -0.7810
 6933SOL    HW232433   4.569   1.530  10.347  0.3651 -0.2265  1.9790
 6934SOL     OW32434   1.698   4.128   7.032 -0.0475 -0.0921  0.1798
 6934SOL    HW132435   1.746   4.076   6.968 -2.2253 -0.7723 -0.9073
 6934SOL    HW232436   1.738   4.213   7.013  0.8621 -0.2361  1.4865
 6935SOL     OW32437   1.972   0.063   0.720  0.1816 -0.4847  0.3685
 6935SOL    HW132438   1.938   0.124   0.785  1.8133  0.8831 -0.0618
 6935SOL    HW232439   1.987   0.127   0.651 -2.0183 -1.1197 -0.6972
 6936SOL     OW32440   2.043   4.717   3.967 -0.3862  0.3536 -0.2260
 6936SOL    HW132441   2.025   0.060   3.921  1.4485  0.2147 -1.2174
 6936SOL    HW232442   1.958   4.681   3.990  0.8112 -0.5476  2.7778
 6937SOL     OW32443   2.014   2.395   1.164 -0.0627  0.7708 -0.3293
 6937SOL    HW132444   2.089   2.379   1.106 -0.4198 -0.5338 -0.4225
 6937SOL    HW232445   1.990   2.304   1.178  0.3816  0.6663 -0.2527
 6938SOL     OW32446   1.181   3.794   6.914  0.0989 -0.2583 -0.1692
 6938SOL    HW132447   1.126   3.846   6.972  0.7678  0.5728 -0.2738
 6938SOL    HW232448   1.241   3.754   6.978  0.0089 -0.1305 -0.0063
 6939SOL     OW32449   4.039   3.368   6.034  0.6275 -0.1385  0.4544
 6939SOL    HW132450   4.045   3.280   6.069  1.2936 -0.2635  0.0227
 6939SOL    HW232451   4.083   3.419   6.103  1.4202  0.4679 -0.5077
 6940SOL     OW32452   3.214   0.944   8.305  0.0683 -0.4865 -0.2790
 6940SOL    HW132453   3.264   0.907   8.233  0.7765 -1.1424  0.5434
 6940SOL    HW232454   3.123   0.930   8.280  0.4989  0.6360 -2.4493
 6941SOL     OW32455   0.047   1.379   7.353  0.6424  0.2332 -0.4100
 6941SOL    HW132456   0.052   1.345   7.264 -4.6204 -2.8736  0.4358
 6941SOL    HW232457   0.128   1.344   7.389  1.0461 -0.4900 -2.0294
 6942SOL     OW32458   0.066   3.214   5.140  0.1840  0.0215 -0.1651
 6942SOL    HW132459   0.047   3.216   5.234 -0.0085 -1.3863 -0.1744
 6942SOL    HW232460   4.725   3.169   5.112  1.6742 -2.9983  0.4431
 6943SOL     OW32461   4.519   0.784   3.156  0.3983  0.5286 -0.8585
 6943SOL    HW132462   4.522   0.765   3.249  1.6475 -2.5857 -1.5432
 6943SOL    HW232463   4.564   0.868   3.164  1.8093 -0.5164  1.8742
 6944SOL     OW32464   2.170   0.199   8.668  0.4641 -0.0995  0.2849
 6944SOL    HW132465   2.263   0.178   8.666 -0.0220 -2.1536 -0.0848
 6944SOL    HW232466   2.134   0.112   8.656  3.0494 -0.9956 -1.0037
 6945SOL     OW32467   4.663   2.342  10.521 -0.1129  0.1958 -0.3046
 6945SOL    HW132468   4.720   2.378  10.589  0.1023  0.6748 -0.7338
 6945SOL    HW232469   4.577   2.340  10.562  0.6361 -1.7755  1.1563
 6946SOL     OW32470   1.545   0.069   2.146 -0.2024  0.0040 -0.3190
 6946SOL    HW132471   1.559   0.125   2.069 -1.5242  2.1602  0.9955
 6946SOL    HW232472   1.495   0.135   2.195 -0.2543 -1.8179  2.0785
 6947SOL     OW32473   1.547   0.039  13.554  0.1071 -0.5660  0.1093
 6947SOL    HW132474   1.628   0.045  13.503 -1.0912  2.0848 -1.4360
 6947SOL    HW232475   1.529   4.684  13.558 -0.0388 -0.5348  0.2054
 6948SOL     OW32476   3.321   1.158   1.148  0.5635  0.5245 -0.0407
 6948SOL    HW132477   3.409   1.191   1.168  0.1176  1.6373  0.0638
 6948SOL    HW232478   3.284   1.182   1.233  1.2844 -2.3975  1.0840
 6949SOL     OW32479   2.633   1.528   3.932 -0.0671 -0.3046 -0.1610
 6949SOL    HW132480   2.680   1.504   3.852 -0.2574 -0.2602 -0.2860
 6949SOL    HW232481   2.629   1.623   3.924 -1.8443 -0.1376  2.9220
 6950SOL     OW32482   1.817   0.284  16.154  0.1664 -0.1081 -0.0195
 6950SOL    HW132483   1.839   0.376  16.163  4.1180 -0.9494 -0.9802
 6950SOL    HW232484   1.743   0.266  16.213  0.5940 -0.2556  0.4716
 6951SOL     OW32485   2.691   3.491   7.371  0.2107  0.4002  0.2449
 6951SOL    HW132486   2.669   3.413   7.320  1.3158  0.4017 -0.2325
 6951SOL    HW232487   2.784   3.502   7.349  0.2575 -1.7759 -0.6615
 6952SOL     OW32488   0.454   1.026   0.934 -0.1195 -0.0249 -0.4467
 6952SOL    HW132489   0.448   1.027   0.838 -0.6178 -0.0081 -0.4147
 6952SOL    HW232490   0.514   0.954   0.953  0.2268  0.4460  0.2313
 6953SOL     OW32491   4.094   0.720  15.674 -0.4176  0.0056  0.6434
 6953SOL    HW132492   4.108   0.672  15.593 -0.2085  1.1355  0.0164
 6953SOL    HW232493   4.092   0.810  15.640 -0.2738 -0.0508  0.4930
 6954SOL     OW32494   0.755   1.486   8.079  0.1823  0.1949  0.7025
 6954SOL    HW132495   0.706   1.550   8.029  1.3353  2.4147  2.4289
 6954SOL    HW232496   0.773   1.423   8.009 -0.0831 -1.7467  2.3788
 6955SOL     OW32497   1.111   3.016   6.501 -0.0938  0.5412 -0.0991
 6955SOL    HW132498   1.152   2.982   6.580 -0.3265  0.7959  0.1334
 6955SOL    HW232499   1.141   3.107   6.500  1.3236  0.0963  2.1483
 6956SOL     OW32500   4.633   0.098   6.663  0.6595  0.2329  0.6455
 6956SOL    HW132501   4.615   0.009   6.694 -0.6901  0.0474 -0.7369
 6956SOL    HW232502   4.728   0.104   6.672  0.5174  2.8825  0.3770
 6957SOL     OW32503   2.167   3.050   3.675  0.2914 -0.1160  0.1969
 6957SOL    HW132504   2.139   3.141   3.661  0.2527 -0.3868 -1.4936
 6957SOL    HW232505   2.258   3.072   3.694  0.1685  0.8656 -0.3289
 6958SOL     OW32506   1.955   2.970  14.684  0.1094  0.0869  0.6270
 6958SOL    HW132507   1.977   2.894  14.737 -1.1302 -2.9551 -3.2223
 6958SOL    HW232508   2.041   2.988  14.646 -0.1515 -1.0245 -0.4844
 6959SOL     OW32509   2.710   3.809   1.578  0.5564  0.2947  0.3179
 6959SOL    HW132510   2.752   3.810   1.492  0.7560 -0.6569  0.4049
 6959SOL    HW232511   2.770   3.865   1.627 -0.0486  1.5555 -0.3998
 6960SOL     OW32512   0.338   0.447   2.240  0.6153 -0.0844 -0.7648
 6960SOL    HW132513   0.372   0.383   2.177 -0.9631  1.1233 -2.8509
 6960SOL    HW232514   0.340   0.400   2.323  0.8782 -0.1578 -0.8132
 6961SOL     OW32515   1.814   0.343   6.012  0.4057 -0.3590  0.1667
 6961SOL    HW132516   1.745   0.281   5.988  1.0033 -0.8364 -0.3178
 6961SOL    HW232517   1.880   0.278   6.036 -2.1109 -2.3528  1.6761
 6962SOL     OW32518   2.808   1.060   9.845  0.5737 -0.2970  0.0486
 6962SOL    HW132519   2.857   1.062   9.762 -0.8004 -1.9610 -0.7946
 6962SOL    HW232520   2.866   1.027   9.913  1.2070  2.1805  0.7405
 6963SOL     OW32521   2.197   4.044   0.509 -0.1821 -0.0948 -0.2628
 6963SOL    HW132522   2.122   4.085   0.552  0.4404 -1.1211  1.8366
 6963SOL    HW232523   2.152   3.986   0.448  0.3119 -2.5145  1.6988
 6964SOL     OW32524   4.200   3.982  12.333  0.0131 -0.4334  0.5389
 6964SOL    HW132525   4.126   3.928  12.304  1.7501 -1.5804 -1.7752
 6964SOL    HW232526   4.232   3.925  12.403  1.8226 -1.4808 -1.1536
 6965SOL     OW32527   3.022   2.228   7.603  0.1082 -0.4445  0.1922
 6965SOL    HW132528   3.043   2.292   7.535 -0.1035  0.0681  0.6000
 6965SOL    HW232529   3.103   2.179   7.596  1.0129  0.9897  0.5227
 6966SOL     OW32530   3.049   1.314   1.885 -0.9211  0.0398 -0.1908
 6966SOL    HW132531   3.083   1.317   1.975 -0.0578 -0.3839 -0.5021
 6966SOL    HW232532   3.101   1.385   1.848  1.5266 -1.6853 -0.0718
 6967SOL     OW32533   1.555   3.531   2.905 -0.9168  0.6123 -0.1855
 6967SOL    HW132534   1.534   3.439   2.892 -0.4159  0.5898 -0.7978
 6967SOL    HW232535   1.491   3.580   2.853 -1.1497 -0.7474 -1.1513
 6968SOL     OW32536   3.065   1.267   6.349  0.5440 -0.3855 -0.1748
 6968SOL    HW132537   3.053   1.324   6.425 -0.4467 -1.5529  0.5392
 6968SOL    HW232538   3.081   1.178   6.379  0.7176 -0.8571 -1.6913
 6969SOL     OW32539   4.478   2.970  10.837 -0.8085  0.2250 -0.3084
 6969SOL    HW132540   4.520   3.002  10.916 -2.0916 -0.3358  0.5897
 6969SOL    HW232541   4.449   2.883  10.864 -0.7402  0.8063  1.6006
 6970SOL     OW32542   1.423   0.975  10.369 -0.3897 -0.7436  0.0842
 6970SOL    HW132543   1.492   0.986  10.304 -0.8134  0.1415 -0.2053
 6970SOL    HW232544   1.393   1.065  10.384 -0.7366 -0.5810 -1.5605
 6971SOL     OW32545   1.447   4.119   2.240  0.5158 -0.1594 -0.0140
 6971SOL    HW132546   1.432   4.059   2.314 -2.0099  1.5036  0.8099
 6971SOL    HW232547   1.401   4.080   2.165 -0.8321  0.2152  0.6220
 6972SOL     OW32548   2.515   3.126  12.968  0.4292 -0.4769  0.0002
 6972SOL    HW132549   2.563   3.073  12.903 -1.1231 -0.9321 -0.7641
 6972SOL    HW232550   2.455   3.156  12.900 -0.4839 -0.5781  0.7765
 6973SOL     OW32551   2.936   2.674  16.488 -0.0661  0.2591 -0.4283
 6973SOL    HW132552   2.983   2.710  16.413  0.5946  1.7220  0.6936
 6973SOL    HW232553   2.895   2.752  16.526 -1.6562 -1.3210  1.1253
 6974SOL     OW32554   4.056   4.085   2.669 -0.1700 -0.2229 -0.3641
 6974SOL    HW132555   3.985   4.064   2.609  0.5072 -2.5363 -0.3807
 6974SOL    HW232556   4.005   4.069   2.748  0.6995 -1.6114 -0.0831
 6975SOL     OW32557   1.464   2.581   0.275 -0.8044 -0.2772 -0.0888
 6975SOL    HW132558   1.452   2.542   0.188 -1.0187  0.5665 -0.4377
 6975SOL    HW232559   1.544   2.635   0.266 -0.6586 -0.6096 -0.7779
 6976SOL     OW32560   3.218   2.429   6.021  0.5328 -0.5589 -0.0225
 6976SOL    HW132561   3.175   2.484   6.086 -0.4431  0.4373 -1.5113
 6976SOL    HW232562   3.302   2.414   6.064 -0.7180  0.1098  2.6631
 6977SOL     OW32563   3.146   1.930  14.959 -0.3472  0.6341 -0.4141
 6977SOL    HW132564   3.081   2.000  14.948 -0.9268  0.2420  0.5374
 6977SOL    HW232565   3.179   1.919  14.870  0.1924 -2.4080  0.1583
 6978SOL     OW32566   3.426   3.604   8.107  0.1834 -0.1208  0.1205
 6978SOL    HW132567   3.389   3.675   8.053  0.1645  0.9743  1.5808
 6978SOL    HW232568   3.395   3.526   8.061  0.4004 -0.1253 -0.0165
 6979SOL     OW32569   4.187   2.784   0.977  0.4008  0.1061 -0.1610
 6979SOL    HW132570   4.245   2.858   0.995  0.7009 -0.5054  1.4131
 6979SOL    HW232571   4.215   2.766   0.887 -3.0893 -3.9526 -0.4537
 6980SOL     OW32572   2.878   1.470   5.116 -0.0649  0.5319 -0.4456
 6980SOL    HW132573   2.914   1.480   5.028  1.9827  1.5353  0.5006
 6980SOL    HW232574   2.841   1.558   5.122 -0.3456  0.4502 -0.9887
 6981SOL     OW32575   3.842   0.565   7.941 -0.4056 -0.0194  0.0180
 6981SOL    HW132576   3.759   0.605   7.914 -0.3569  0.8342  1.1359
 6981SOL    HW232577   3.905   0.614   7.888  0.0988 -0.7584 -0.0657
 6982SOL     OW32578   2.445   2.993   4.637 -0.0125  0.1896  0.2048
 6982SOL    HW132579   2.443   3.072   4.583 -0.9252  2.1545  3.1672
 6982SOL    HW232580   2.410   2.933   4.571  0.6003 -0.6000  0.5860
 6983SOL     OW32581   3.793   0.096  14.825 -0.6098  0.3743  0.3785
 6983SOL    HW132582   3.777   0.044  14.746 -0.6444  0.4971  0.3035
 6983SOL    HW232583   3.708   0.104  14.868 -0.0906 -1.3182  1.7131
 6984SOL     OW32584   0.551   2.291   2.778 -0.1097 -0.3760  0.1346
 6984SOL    HW132585   0.583   2.209   2.739 -2.3412 -1.8179  1.2807
 6984SOL    HW232586   0.624   2.340   2.742 -2.0723  2.0081 -0.5254
 6985SOL     OW32587   4.132   3.877   2.296  0.8026  1.0408 -0.4520
 6985SOL    HW132588   4.227   3.873   2.309  0.6970 -1.2425 -0.4485
 6985SOL    HW232589   4.107   3.837   2.379 -2.0611  2.9399 -0.3997
 6986SOL     OW32590   4.380   4.343  16.522 -0.2935 -0.0910 -0.4531
 6986SOL    HW132591   4.294   4.382  16.539  0.6150  1.2018  1.1734
 6986SOL    HW232592   4.360   4.251  16.538 -0.8006  0.0666 -0.1700
 6987SOL     OW32593   0.089   1.067  15.106  0.1572  0.0167  0.2335
 6987SOL    HW132594   0.134   1.146  15.136  1.4759 -0.0929 -1.4796
 6987SOL    HW232595   0.008   1.101  15.070  1.2321  1.0736 -1.1977
 6988SOL     OW32596   4.118   0.888   4.885 -0.0865  0.0919  0.5662
 6988SOL    HW132597   4.071   0.955   4.933 -1.0750  0.2197 -0.5790
 6988SOL    HW232598   4.208   0.916   4.870 -0.3720  0.9075  0.4018
 6989SOL     OW32599   4.005   0.231  10.003  0.4911 -0.4728  0.1825
 6989SOL    HW132600   4.083   0.211  10.054  0.5235 -0.5296  0.1105
 6989SOL    HW232601   4.045   0.281   9.932  2.7086  0.4774  2.0951
 6990SOL     OW32602   2.443   0.704   9.408 -0.0773  0.2735 -0.0185
 6990SOL    HW132603   2.487   0.642   9.350 -1.5481 -0.8769  0.0898
 6990SOL    HW232604   2.365   0.726   9.357  0.5966  2.0046 -0.2865
 6991SOL     OW32605   1.787   2.574   8.121  0.7169 -0.1306 -0.0711
 6991SOL    HW132606   1.823   2.662   8.114  3.1421 -1.3037 -2.3827
 6991SOL    HW232607   1.844   2.532   8.186  1.0194 -1.8493 -1.4302
 6992SOL     OW32608   1.459   2.989   3.382 -0.0161  0.3592 -0.3392
 6992SOL    HW132609   1.450   3.062   3.321  0.5393  0.1519 -0.6665
 6992SOL    HW232610   1.528   3.015   3.442  0.4846 -1.6971 -0.0335
 6993SOL     OW32611   4.055   0.129  14.881  0.0201  0.8441  0.1873
 6993SOL    HW132612   4.094   0.042  14.888 -0.0261  0.9902  2.3063
 6993SOL    HW232613   3.964   0.105  14.866  0.1278  2.3142 -2.8737
 6994SOL     OW32614   0.970   3.196  16.010 -0.3095 -0.3557 -0.2861
 6994SOL    HW132615   0.891   3.146  15.989 -1.2583  1.8058 -1.8674
 6994SOL    HW232616   0.984   3.168  16.101  0.1204  0.2533 -0.1648
 6995SOL     OW32617   2.980   2.052   4.571  0.2326  0.0692 -0.0272
 6995SOL    HW132618   3.027   2.078   4.492 -1.2108 -1.4031 -1.3769
 6995SOL    HW232619   2.930   1.979   4.534 -0.1442 -0.7113  2.0000
 6996SOL     OW32620   4.073   0.680   3.783  0.2941  0.1907  0.0751
 6996SOL    HW132621   4.067   0.589   3.811  1.5597 -0.1401 -0.6758
 6996SOL    HW232622   4.165   0.683   3.754  0.7628 -1.2879  1.4016
 6997SOL     OW32623   2.834   3.745   1.079  0.1016 -0.0786 -0.2917
 6997SOL    HW132624   2.769   3.680   1.105 -0.1674 -0.1369 -1.0990
 6997SOL    HW232625   2.834   3.742   0.983 -0.0901  0.7885 -0.3143
 6998SOL     OW32626   1.309   4.074   8.733  0.0484  0.0062  0.0964
 6998SOL    HW132627   1.280   4.009   8.668 -0.6605 -0.3504  0.7719
 6998SOL    HW232628   1.298   4.158   8.688 -3.1588  0.2596  1.3846
 6999SOL     OW32629   4.384   0.947  13.620  0.1550 -0.0380 -0.1940
 6999SOL    HW132630   4.376   0.892  13.542  3.0745 -0.6391 -0.1069
 6999SOL    HW232631   4.305   0.922  13.667  0.2267 -0.9333 -0.5488
 7000SOL     OW32632   4.209   1.275   4.817 -0.4415  0.6570 -0.1588
 7000SOL    HW132633   4.152   1.238   4.748  1.0595  1.0488 -1.6132
 7000SOL    HW232634   4.153   1.236   4.884  1.7785  2.1778  2.5480
 7001SOL     OW32635   0.072   3.829   9.381 -0.3333 -0.0142  0.6665
 7001SOL    HW132636   0.003   3.886   9.414 -2.3898  0.1657 -4.0138
 7001SOL    HW232637   0.032   3.743   9.368  0.5391 -0.3290  0.0126
 7002SOL     OW32638   1.861   0.647   4.116 -0.5974  0.0400  0.6851
 7002SOL    HW132639   1.936   0.602   4.076 -1.4295 -0.6300 -0.1290
 7002SOL    HW232640   1.797   0.583   4.084  0.5785  0.6051 -2.8204
 7003SOL     OW32641   4.169   0.088   2.326 -0.0805  0.6859 -0.5556
 7003SOL    HW132642   4.187   0.004   2.283  0.4508 -0.2455  1.4974
 7003SOL    HW232643   4.134   0.056   2.409 -3.0951  0.2908 -1.9573
 7004SOL     OW32644   0.818   4.408   7.177  0.4033 -0.3693 -0.1161
 7004SOL    HW132645   0.765   4.348   7.229  0.7524 -0.0076  0.6590
 7004SOL    HW232646   0.758   4.428   7.106 -1.6918  0.4840  1.9030
 7005SOL     OW32647   4.565   0.708  17.300 -0.2974  0.5697  0.0821
 7005SOL    HW132648   4.509   0.771  17.346 -0.5202  0.0628  0.5000
 7005SOL    HW232649   4.509   0.668  17.233 -0.9098  0.0981  0.8623
 7006SOL     OW32650   2.098   0.637   2.338  0.4824 -0.4196  0.0161
 7006SOL    HW132651   2.052   0.584   2.403 -2.2569  1.3828 -0.4429
 7006SOL    HW232652   2.087   0.593   2.254 -1.4864  3.4158 -1.7498
 7007SOL     OW32653   0.810   0.424   5.521  0.3339 -0.0608 -0.2580
 7007SOL    HW132654   0.730   0.387   5.560 -0.4000  1.3785 -0.3873
 7007SOL    HW232655   0.782   0.515   5.517  1.3810  0.3790  2.5747
 7008SOL     OW32656   1.336   2.376  14.995 -0.1296  0.2507  0.1798
 7008SOL    HW132657   1.365   2.447  15.052  1.7418  1.2169 -1.9562
 7008SOL    HW232658   1.418   2.350  14.952  0.4909  0.1410  1.4176
 7009SOL     OW32659   1.694   0.267   6.951  0.5539  0.5159  0.2686
 7009SOL    HW132660   1.632   0.307   6.891 -0.1553 -0.2992  0.4645
 7009SOL    HW232661   1.660   0.178   6.960  1.1399 -0.0602 -3.2938
 7010SOL     OW32662   3.031   0.853  10.310 -0.3894 -0.0734  0.1090
 7010SOL    HW132663   3.023   0.824  10.401 -0.0593  2.4392  0.9229
 7010SOL    HW232664   3.061   0.769  10.276  0.8431  0.2571  0.3868
 7011SOL     OW32665   2.456   3.195  15.072 -0.1494 -0.2815 -0.7781
 7011SOL    HW132666   2.433   3.230  15.158  2.1666  1.4786 -0.8723
 7011SOL    HW232667   2.537   3.149  15.091 -0.0735  0.1000 -0.1753
 7012SOL     OW32668   3.666   1.319   6.783  0.4640  0.0403 -0.2772
 7012SOL    HW132669   3.739   1.260   6.763 -0.8776 -0.9525 -2.2244
 7012SOL    HW232670   3.720   1.389   6.820 -0.3923  0.0739  0.8985
 7013SOL     OW32671   4.038   1.742   4.990  0.3426 -1.0236  0.0904
 7013SOL    HW132672   3.986   1.678   5.039  1.3152 -0.9089  1.2783
 7013SOL    HW232673   4.086   1.670   4.948  1.0190  0.7796 -2.2654
 7014SOL     OW32674   4.591   0.327   1.539 -0.5342  0.2159  0.0214
 7014SOL    HW132675   4.501   0.360   1.529  0.3134  2.3083 -0.6582
 7014SOL    HW232676   4.581   0.238   1.572 -2.0823 -0.3050 -1.8208
 7015SOL     OW32677   2.943   2.150   3.266  0.4139  0.4233 -0.4279
 7015SOL    HW132678   2.967   2.105   3.185  2.0718  1.6108 -0.5838
 7015SOL    HW232679   2.919   2.236   3.233  0.3153  0.1913 -0.9596
 7016SOL     OW32680   3.572   2.210   2.043  0.4978 -0.3587 -0.2043
 7016SOL    HW132681   3.498   2.150   2.033  0.7632 -0.7612  0.2760
 7016SOL    HW232682   3.602   2.175   2.127 -0.9744 -0.0352  0.4660
 7017SOL     OW32683   3.476   1.586   8.573  0.5487 -0.0843 -0.0028
 7017SOL    HW132684   3.563   1.548   8.588  0.1646 -0.1374  2.0866
 7017SOL    HW232685   3.448   1.527   8.503 -0.1318  1.7563 -1.2590
 7018SOL     OW32686   1.599   3.944  12.415  0.0165 -0.4857  0.1935
 7018SOL    HW132687   1.525   3.889  12.440  1.5151 -2.3007  0.6126
 7018SOL    HW232688   1.580   3.953  12.321  2.0241 -0.4778 -0.1992
 7019SOL     OW32689   2.387   2.214  11.315  0.2274 -0.7342 -0.2150
 7019SOL    HW132690   2.451   2.229  11.245  0.1082  0.1070 -0.1489
 7019SOL    HW232691   2.413   2.125  11.337  0.3810 -0.9388 -1.2375
 7020SOL     OW32692   3.212   1.505   1.458  0.1162  0.2504  0.2809
 7020SOL    HW132693   3.161   1.509   1.539 -0.5062 -0.7934 -0.0558
 7020SOL    HW232694   3.291   1.457   1.480 -0.2400  0.0243  1.0671
 7021SOL     OW32695   2.084   4.556   4.976  0.1922  0.0946 -0.1004
 7021SOL    HW132696   2.076   4.575   5.070 -1.9222 -0.6154 -0.1404
 7021SOL    HW232697   2.156   4.613   4.949  1.2012 -0.0575  2.2617
 7022SOL     OW32698   4.175   0.960   2.636  0.3415  0.3159  0.1376
 7022SOL    HW132699   4.231   1.026   2.595  2.2041 -2.8124 -2.2509
 7022SOL    HW232700   4.240   0.918   2.692 -0.3013 -0.1772  0.5162
 7023SOL     OW32701   3.495   2.365   2.857  0.0914 -0.2719 -0.0495
 7023SOL    HW132702   3.436   2.436   2.880 -0.9904 -1.3343  0.4286
 7023SOL    HW232703   3.452   2.331   2.779 -2.5420  2.0431  0.4184
 7024SOL     OW32704   0.185   3.124   4.587 -0.1634  0.0142 -0.0009
 7024SOL    HW132705   0.142   3.058   4.533  1.5941 -0.5630 -0.6877
 7024SOL    HW232706   0.139   3.126   4.671  0.4805  0.6134  0.3376
 7025SOL     OW32707   3.121   1.088   8.989 -0.4782 -0.6928 -0.0569
 7025SOL    HW132708   3.177   1.073   9.066  1.9569  1.6395 -1.3503
 7025SOL    HW232709   3.116   1.183   8.997 -1.4967 -0.9406  2.4923
 7026SOL     OW32710   0.293   3.687   1.856  0.2397  0.5938 -0.4298
 7026SOL    HW132711   0.207   3.715   1.888  0.0880 -0.6928  0.3075
 7026SOL    HW232712   0.339   3.641   1.927 -1.5435 -0.0180  0.3289
 7027SOL     OW32713   3.694   3.834   2.709  0.6519 -0.1443  0.2414
 7027SOL    HW132714   3.713   3.770   2.641 -2.4390  0.0821 -0.8419
 7027SOL    HW232715   3.634   3.894   2.665 -2.0057 -2.6755  0.4080
 7028SOL     OW32716   0.503   2.318   3.378  0.0969  0.2575 -0.3129
 7028SOL    HW132717   0.459   2.390   3.333 -0.7178 -0.8032 -1.2360
 7028SOL    HW232718   0.434   2.253   3.391 -0.5079  0.3553 -2.8503
 7029SOL     OW32719   1.559   4.436   7.070  0.2606  0.0515  0.7698
 7029SOL    HW132720   1.514   4.352   7.056  2.8620 -1.2756  0.3153
 7029SOL    HW232721   1.641   4.419   7.024 -0.2875  0.2547 -0.2687
 7030SOL     OW32722   3.820   1.973   6.306  0.4193 -0.1028 -0.8185
 7030SOL    HW132723   3.807   2.064   6.332 -0.3419 -0.7034  0.9541
 7030SOL    HW232724   3.740   1.969   6.254 -0.4915  0.3510  0.5506
 7031SOL     OW32725   3.746   3.207   4.080  0.2093  0.3808 -0.5356
 7031SOL    HW132726   3.695   3.217   4.160 -0.6758 -0.1154 -1.0438
 7031SOL    HW232727   3.770   3.299   4.066 -0.8660  0.5343 -1.4073
 7032SOL     OW32728   1.692   3.517   3.474 -0.3480  0.4070  0.0472
 7032SOL    HW132729   1.710   3.533   3.567 -1.2958  0.4526  0.2252
 7032SOL    HW232730   1.768   3.464   3.450 -0.6225  1.0130 -2.1910
 7033SOL     OW32731   1.774   3.944  13.492 -0.7179 -0.0317 -0.2559
 7033SOL    HW132732   1.809   4.032  13.479  1.0438 -0.6217  0.5171
 7033SOL    HW232733   1.842   3.899  13.441 -0.5815 -1.0788  0.8532
 7034SOL     OW32734   0.173   3.595   8.044  0.5683  0.0285  0.0427
 7034SOL    HW132735   0.091   3.644   8.034 -0.8101 -2.4080 -0.7178
 7034SOL    HW232736   0.160   3.541   8.122 -2.1684 -0.2689 -0.6062
 7035SOL     OW32737   0.056   3.158   1.203  0.1509  0.3778  0.1561
 7035SOL    HW132738   4.701   3.150   1.186  0.1312 -0.4597  0.6425
 7035SOL    HW232739   0.076   3.065   1.211 -2.0213  0.0160  1.5228
 7036SOL     OW32740   4.223   1.948  12.658 -0.5877  0.1124  0.0055
 7036SOL    HW132741   4.299   1.935  12.602  0.3789  0.6889  1.1834
 7036SOL    HW232742   4.155   1.905  12.606 -0.2440 -1.1383  0.5814
 7037SOL     OW32743   4.522   0.576   3.453 -0.1306  0.4153 -0.3325
 7037SOL    HW132744   4.542   0.511   3.520 -0.8054 -0.9346 -1.4424
 7037SOL    HW232745   4.600   0.577   3.398 -0.6552  0.4733 -1.0755
 7038SOL     OW32746   2.363   0.077  16.658  0.2122 -0.0579  0.2785
 7038SOL    HW132747   2.281   0.128  16.656 -0.3444 -1.0349 -1.8980
 7038SOL    HW232748   2.423   0.148  16.680 -1.2859  1.6869 -1.2052
 7039SOL     OW32749   1.399   3.540   9.329 -0.3340  0.3296  0.1107
 7039SOL    HW132750   1.323   3.536   9.270  0.7051  1.6268 -1.3287
 7039SOL    HW232751   1.419   3.633   9.320  0.3393 -0.0240 -2.1449
 7040SOL     OW32752   2.625   3.944   4.368  0.4769 -0.1803 -0.0762
 7040SOL    HW132753   2.554   3.903   4.318  1.9458 -0.8929 -1.5608
 7040SOL    HW232754   2.673   3.863   4.385 -0.0176 -0.4885 -0.1373
 7041SOL     OW32755   2.952   1.602   9.736  0.1525 -0.1781 -0.3891
 7041SOL    HW132756   2.931   1.535   9.800 -0.5043 -2.6451 -3.2384
 7041SOL    HW232757   2.893   1.586   9.663 -0.0079 -2.9601  0.3708
 7042SOL     OW32758   4.330   2.397   4.062 -0.0699 -0.7729  0.3927
 7042SOL    HW132759   4.313   2.318   4.114 -1.2313 -0.2056  0.8725
 7042SOL    HW232760   4.351   2.459   4.132  2.4098 -0.6531 -0.4499
 7043SOL     OW32761   4.226   3.540  10.700 -0.3028 -0.4618  0.1177
 7043SOL    HW132762   4.222   3.447  10.723 -1.7566 -0.7295 -1.1823
 7043SOL    HW232763   4.204   3.581  10.784 -0.1658 -0.4423  0.1441
 7044SOL     OW32764   1.069   3.466   4.467 -0.1398 -0.4061 -0.4829
 7044SOL    HW132765   0.981   3.430   4.468  0.6128 -2.2349 -0.5029
 7044SOL    HW232766   1.050   3.525   4.540 -1.7943 -2.3121  0.6429
 7045SOL     OW32767   1.316   2.641   8.010  0.3721 -0.5197 -0.2098
 7045SOL    HW132768   1.371   2.571   7.975 -2.3510 -2.2503 -1.0048
 7045SOL    HW232769   1.388   2.693   8.048  0.0302 -1.5020  1.7994
 7046SOL     OW32770   0.938   1.845   7.684 -0.4709  0.2879 -0.3317
 7046SOL    HW132771   0.943   1.838   7.589 -0.4601 -2.1031 -0.1534
 7046SOL    HW232772   1.009   1.784   7.706 -0.8513 -0.1279 -0.2506
 7047SOL     OW32773   4.714   2.831   2.026 -0.2879 -0.2156  0.2695
 7047SOL    HW132774   4.630   2.804   1.990 -0.8674  1.2836  0.4856
 7047SOL    HW232775   4.725   2.910   1.972 -2.8727 -0.3311 -0.4246
 7048SOL     OW32776   2.794   3.399   8.279  0.1254  0.6977 -0.4657
 7048SOL    HW132777   2.798   3.373   8.187 -1.4634  1.2318 -0.6819
 7048SOL    HW232778   2.707   3.366   8.300  0.2655 -0.8170 -2.2949
 7049SOL     OW32779   0.871   2.399  15.086  0.2603 -0.1526 -0.1335
 7049SOL    HW132780   0.899   2.364  15.171 -0.6235 -2.0313 -0.6309
 7049SOL    HW232781   0.862   2.321  15.031  0.1420 -0.7238  0.6972
 7050SOL     OW32782   2.421   0.046   6.475 -0.0173 -0.2844  0.0623
 7050SOL    HW132783   2.382   4.724   6.537 -0.6907 -0.3980 -0.4819
 7050SOL    HW232784   2.348   0.071   6.419 -0.3584  2.9804  1.9746
 7051SOL     OW32785   1.479   4.078   1.945  0.7074 -0.3755  0.3314
 7051SOL    HW132786   1.392   4.095   1.910 -0.2514 -0.7452  2.5760
 7051SOL    HW232787   1.513   4.005   1.892  0.0020 -0.0802 -0.5206
 7052SOL     OW32788   2.979   2.923  11.943 -0.1742  0.0846 -0.4055
 7052SOL    HW132789   2.989   2.898  11.851  0.1147 -0.4547 -0.2264
 7052SOL    HW232790   3.042   2.995  11.937 -0.2100  0.2399  1.1084
 7053SOL     OW32791   3.364   3.971   6.835  0.1642 -0.5967 -0.0283
 7053SOL    HW132792   3.277   4.002   6.857  0.1958 -0.8953  0.5005
 7053SOL    HW232793   3.382   4.010   6.749  0.2396  1.5146  0.9704
 7054SOL     OW32794   3.802   0.661   4.597 -0.1429 -0.1896  0.7317
 7054SOL    HW132795   3.751   0.581   4.582  2.9712 -2.0011 -0.2271
 7054SOL    HW232796   3.775   0.670   4.688  0.7472  2.6334  0.7028
 7055SOL     OW32797   2.515   4.402   5.703 -0.2592  0.1335 -0.0310
 7055SOL    HW132798   2.596   4.363   5.671  1.1584  3.4759 -0.6021
 7055SOL    HW232799   2.545   4.470   5.764 -1.4355 -0.0541  0.7493
 7056SOL     OW32800   1.906   2.642   6.025  0.3557  0.0250  0.1637
 7056SOL    HW132801   1.946   2.588   6.093 -0.2442 -0.3361  0.2321
 7056SOL    HW232802   1.960   2.615   5.951  0.4864  0.8286 -0.0303
 7057SOL     OW32803   4.027   2.269   2.253  0.3877  0.0523  0.3297
 7057SOL    HW132804   4.037   2.290   2.346 -0.6263  1.6068  0.0979
 7057SOL    HW232805   3.979   2.187   2.247 -0.8575  0.7875  0.1649
 7058SOL     OW32806   4.493   4.706   0.946 -0.0190 -0.5437 -0.2642
 7058SOL    HW132807   4.477   4.625   0.896 -0.1047 -1.3278  1.0457
 7058SOL    HW232808   4.471   0.037   0.884  0.5127  0.7168  0.9814
 7059SOL     OW32809   2.643   0.293   1.874 -0.1846 -0.0365  0.3055
 7059SOL    HW132810   2.651   0.388   1.864  0.7486 -0.2781 -1.2269
 7059SOL    HW232811   2.723   0.263   1.830 -0.8014  1.5344 -1.8766
 7060SOL     OW32812   0.519   1.699  15.207 -1.0117 -0.0210 -0.4295
 7060SOL    HW132813   0.595   1.739  15.248 -0.5856  2.0606 -3.3179
 7060SOL    HW232814   0.545   1.612  15.178  1.0189 -0.1182  1.6731
 7061SOL     OW32815   1.251   2.401   2.010  0.4505  0.0196  0.0820
 7061SOL    HW132816   1.313   2.470   2.032 -0.0000  0.2812  0.5342
 7061SOL    HW232817   1.224   2.423   1.921  1.9088  1.1436 -0.0856
 7062SOL     OW32818   4.063   3.449  11.705  0.3024  0.7830  0.3177
 7062SOL    HW132819   4.062   3.535  11.663  0.1059  1.4494  1.7137
 7062SOL    HW232820   4.149   3.452  11.746  0.5702  0.8708 -0.2469
 7063SOL     OW32821   2.480   2.331   2.338  0.2690  0.3299  0.6341
 7063SOL    HW132822   2.556   2.274   2.331 -0.6247 -0.7450 -0.3592
 7063SOL    HW232823   2.467   2.380   2.257 -1.3455  1.7699  1.7311
 7064SOL     OW32824   3.772   4.592   4.880  0.2651 -0.1262  0.0005
 7064SOL    HW132825   3.680   4.619   4.889 -0.2605 -1.6374 -0.9073
 7064SOL    HW232826   3.818   4.676   4.873  0.5804 -0.4294 -1.4196
 7065SOL     OW32827   0.193   1.618   5.550  0.3904 -0.3829 -1.0708
 7065SOL    HW132828   0.196   1.711   5.575  0.5921 -0.7957  0.4101
 7065SOL    HW232829   0.221   1.637   5.460 -1.1959  2.0789 -1.0629
 7066SOL     OW32830   1.755   0.430   7.922  0.4904 -0.3661  0.0506
 7066SOL    HW132831   1.743   0.336   7.911 -0.1537 -0.2545 -0.2076
 7066SOL    HW232832   1.837   0.435   7.872  0.1281 -0.3902 -0.5418
 7067SOL     OW32833   0.052   2.534   5.596 -0.0436  0.4631  0.2592
 7067SOL    HW132834   0.098   2.460   5.636 -0.1436  0.9980  1.3769
 7067SOL    HW232835   0.048   2.599   5.666  0.2310  0.1361  0.5834
 7068SOL     OW32836   3.610   3.344   6.753 -0.3834 -0.8044  0.6822
 7068SOL    HW132837   3.661   3.266   6.775  0.8120 -0.3896 -0.6880
 7068SOL    HW232838   3.626   3.399   6.830 -2.7005  2.9401 -1.4709
 7069SOL     OW32839   3.249   2.751   1.358 -0.7069 -0.1368 -0.0913
 7069SOL    HW132840   3.245   2.841   1.325 -0.6556 -1.1482 -2.8769
 7069SOL    HW232841   3.156   2.730   1.367 -0.9102  1.0221  0.5284
 7070SOL     OW32842   1.969   2.566   6.664  0.0022 -0.4699  0.7271
 7070SOL    HW132843   1.998   2.568   6.755 -2.1582 -0.7009  1.4083
 7070SOL    HW232844   1.881   2.530   6.673 -0.1576 -0.5936 -1.2525
 7071SOL     OW32845   0.815   2.109   4.229 -0.0608  0.0250 -0.2778
 7071SOL    HW132846   0.813   2.161   4.148  1.0587 -1.3317 -1.1800
 7071SOL    HW232847   0.724   2.110   4.258  0.7772 -1.0835  2.3461
 7072SOL     OW32848   0.570   0.664  13.253  0.1942  0.4504  0.3655
 7072SOL    HW132849   0.629   0.722  13.301 -1.1193  0.6797  1.6855
 7072SOL    HW232850   0.489   0.656  13.303 -0.3698 -1.1669 -0.7839
 7073SOL     OW32851   1.984   3.856   2.227  0.6495  0.7969  0.7294
 7073SOL    HW132852   1.986   3.941   2.182 -1.5305 -0.2294 -1.3437
 7073SOL    HW232853   1.892   3.851   2.255  1.0542  0.0790  1.8827
 7074SOL     OW32854   1.299   0.393  10.767 -0.6374 -0.3395  0.4118
 7074SOL    HW132855   1.319   0.299  10.769  0.1852 -0.1822 -0.1357
 7074SOL    HW232856   1.304   0.408  10.672  0.4065  3.3154  1.0601
 7075SOL     OW32857   4.725   3.648   3.944  0.6349 -0.0282  0.0237
 7075SOL    HW132858   0.014   3.653   4.036 -0.0390 -0.5308  0.2564
 7075SOL    HW232859   4.696   3.737   3.928 -1.3528 -0.8150 -0.6620
 7076SOL     OW32860   2.767   4.258  13.243  0.4038 -0.0065 -0.0161
 7076SOL    HW132861   2.771   4.330  13.306  0.1959  1.1270 -1.3040
 7076SOL    HW232862   2.752   4.307  13.162  0.4752 -0.3401 -0.2296
 7077SOL     OW32863   2.012   1.490   1.597  0.6588 -0.2567  0.0431
 7077SOL    HW132864   1.997   1.585   1.590 -2.3156 -0.7524 -0.3364
 7077SOL    HW232865   2.079   1.483   1.665  0.9579  1.0155 -0.1088
 7078SOL     OW32866   1.806   3.194   7.274 -0.0708  0.2220 -0.5245
 7078SOL    HW132867   1.764   3.236   7.348  2.2137 -0.2483  1.0444
 7078SOL    HW232868   1.895   3.227   7.287  0.6717 -1.1121 -2.2179
 7079SOL     OW32869   0.331   4.017   7.726 -0.2737  0.5024 -0.3968
 7079SOL    HW132870   0.353   3.933   7.686  0.6403  0.2257  0.6912
 7079SOL    HW232871   0.275   3.994   7.800  2.0728 -1.9543  0.6066
 7080SOL     OW32872   0.606   3.857   3.688 -0.1491 -0.2423  0.0479
 7080SOL    HW132873   0.538   3.866   3.620  0.8311  0.0435 -0.8921
 7080SOL    HW232874   0.605   3.764   3.710  0.0398 -0.7173 -1.9862
 7081SOL     OW32875   4.197   1.364   7.392 -0.1958 -0.0881  0.3972
 7081SOL    HW132876   4.103   1.382   7.382  0.3290  2.9950  1.3290
 7081SOL    HW232877   4.242   1.424   7.333  0.1393 -1.8664 -1.1594
 7082SOL     OW32878   1.279   3.698   6.074  0.8139  0.4212 -0.3840
 7082SOL    HW132879   1.228   3.688   5.994  0.7334  1.4733 -0.4666
 7082SOL    HW232880   1.233   3.645   6.139  0.9106 -2.2084 -2.4932
 7083SOL     OW32881   1.280   1.839   1.070 -0.7170 -0.4217 -0.2581
 7083SOL    HW132882   1.346   1.813   1.006  1.1920  0.6712  1.2659
 7083SOL    HW232883   1.324   1.917   1.105 -0.3962 -1.3010  1.3064
 7084SOL     OW32884   3.792   1.300   8.431 -0.0030 -0.2411  0.1800
 7084SOL    HW132885   3.742   1.256   8.363 -0.2226  2.5818 -1.5157
 7084SOL    HW232886   3.819   1.225   8.484 -4.1351 -0.8186  1.5042
 7085SOL     OW32887   0.723   2.324   8.373 -0.5740  0.6479 -0.6329
 7085SOL    HW132888   0.650   2.303   8.431 -1.0631 -0.4264 -1.6446
 7085SOL    HW232889   0.802   2.321   8.427 -1.4273 -2.4004  0.4383
 7086SOL     OW32890   1.222   2.605   4.540 -0.0646  0.3020  0.1970
 7086SOL    HW132891   1.231   2.548   4.616 -0.9245  0.8982  0.7528
 7086SOL    HW232892   1.131   2.631   4.553 -0.5420  0.3508 -3.1632
 7087SOL     OW32893   1.223   3.204   0.211 -0.3191  0.2550 -0.5975
 7087SOL    HW132894   1.315   3.178   0.209 -0.5761 -0.6410 -0.9263
 7087SOL    HW232895   1.221   3.262   0.287 -1.6472  0.5747 -0.8757
 7088SOL     OW32896   1.873   0.844   1.400 -0.3203  0.1942  0.5969
 7088SOL    HW132897   1.967   0.834   1.414  0.3828  3.6190 -1.8234
 7088SOL    HW232898   1.841   0.873   1.486 -1.3696 -1.2316  0.6814
 7089SOL     OW32899   1.554   4.314   2.421 -0.8255 -0.4471  0.2190
 7089SOL    HW132900   1.539   4.235   2.369  0.0548 -0.7028  0.3561
 7089SOL    HW232901   1.530   4.281   2.507 -1.1589 -0.3209  0.1742
 7090SOL     OW32902   2.875   3.684  16.935 -0.0260  0.1604 -0.1716
 7090SOL    HW132903   2.907   3.594  16.922  0.3017  0.0615  1.3664
 7090SOL    HW232904   2.780   3.677  16.923 -0.0001 -0.3564 -0.0728
 7091SOL     OW32905   4.489   0.613   1.630  0.1717 -0.4782 -0.3884
 7091SOL    HW132906   4.466   0.696   1.589 -1.9470 -1.9370 -2.1557
 7091SOL    HW232907   4.427   0.553   1.590  0.6182 -1.9104  1.0756
 7092SOL     OW32908   0.949   2.022   3.198  0.0401  0.0971 -0.0840
 7092SOL    HW132909   0.949   2.029   3.103 -0.6335 -2.0844 -0.2264
 7092SOL    HW232910   1.034   2.058   3.223  0.7996 -0.8212 -1.3953
 7093SOL     OW32911   0.188   2.657   6.209  0.4099 -0.3847  0.0990
 7093SOL    HW132912   0.175   2.567   6.181  0.6573 -0.4200  0.1023
 7093SOL    HW232913   0.102   2.663   6.252 -0.2313 -0.3895 -1.1734
 7094SOL     OW32914   4.656   1.385   8.521  0.0442  0.4437 -0.2869
 7094SOL    HW132915   4.636   1.291   8.521  0.1214  0.4290  0.3004
 7094SOL    HW232916   4.737   1.381   8.572  0.3256 -0.3384 -0.7946
 7095SOL     OW32917   0.031   1.635   2.324  0.6919 -0.2166 -0.4728
 7095SOL    HW132918   4.691   1.598   2.285  0.1486  1.4907 -0.9724
 7095SOL    HW232919   4.725   1.669   2.401  0.0405 -0.7611 -0.6202
 7096SOL     OW32920   2.374   2.042   8.223  0.0432 -0.9803 -0.1666
 7096SOL    HW132921   2.434   2.066   8.293 -1.6310  1.8001  0.3121
 7096SOL    HW232922   2.421   2.075   8.147  0.4492 -0.1860  0.4238
 7097SOL     OW32923   0.476   2.490   2.367  0.3107  0.1333 -0.8799
 7097SOL    HW132924   0.427   2.449   2.296 -0.8600 -0.6170  0.3568
 7097SOL    HW232925   0.544   2.427   2.388  0.4997  0.2543 -1.1345
 7098SOL     OW32926   0.382   3.933   3.092 -0.0384 -0.2414 -0.9181
 7098SOL    HW132927   0.423   3.980   3.019  1.1132 -1.4812 -1.0748
 7098SOL    HW232928   0.323   4.002   3.122 -0.2788 -1.3376  1.1280
 7099SOL     OW32929   2.306   3.332   4.229 -0.3554  0.2028 -0.4216
 7099SOL    HW132930   2.249   3.372   4.294 -1.4907  2.8742 -3.0487
 7099SOL    HW232931   2.334   3.255   4.279  1.5605  0.6305 -0.8445
 7100SOL     OW32932   3.963   2.010   4.119  0.3135 -0.1343 -0.2050
 7100SOL    HW132933   4.026   1.972   4.182  1.6883 -0.2760 -1.6707
 7100SOL    HW232934   3.894   2.032   4.182  0.7210  0.7260 -0.0607
 7101SOL     OW32935   0.537   2.499   4.205  0.0754  0.1448  0.3420
 7101SOL    HW132936   0.582   2.503   4.121  1.3497 -1.3213  0.9647
 7101SOL    HW232937   0.468   2.565   4.204 -1.0043 -0.9894  1.0775
 7102SOL     OW32938   0.284   1.182   4.825  0.4950  0.0840  0.0876
 7102SOL    HW132939   0.305   1.276   4.820  2.5785 -0.2894  1.3967
 7102SOL    HW232940   0.285   1.167   4.920  1.2875  0.5569  0.1557
 7103SOL     OW32941   0.181   1.272  14.785  0.0613  0.1593 -0.1437
 7103SOL    HW132942   0.255   1.232  14.830 -0.9469  0.4550  1.7662
 7103SOL    HW232943   0.210   1.361  14.763  1.0181 -0.0414  0.2956
 7104SOL     OW32944   3.994   4.549  16.664 -0.0036  0.3052 -0.4556
 7104SOL    HW132945   4.012   4.607  16.739 -1.6150  0.0619  0.1070
 7104SOL    HW232946   3.899   4.558  16.654 -0.2585  2.7028  3.8276
 7105SOL     OW32947   2.356   2.264   3.793  0.0671 -0.7169  0.4471
 7105SOL    HW132948   2.359   2.322   3.869 -1.2837  0.4637 -0.4187
 7105SOL    HW232949   2.261   2.251   3.789  0.0452 -0.2302 -0.4031
 7106SOL     OW32950   0.127   3.693   6.003  0.3056  0.1241  0.0947
 7106SOL    HW132951   0.161   3.733   6.083 -0.0006  0.7254 -0.0772
 7106SOL    HW232952   0.108   3.607   6.041  1.9669 -0.4866 -0.4677
 7107SOL     OW32953   1.257   1.599   8.755  0.5495 -0.3115 -0.4897
 7107SOL    HW132954   1.205   1.625   8.679  0.4994 -1.7277 -0.9423
 7107SOL    HW232955   1.270   1.680   8.804  0.2864 -1.1986  1.0625
 7108SOL     OW32956   0.015   2.677   8.892 -0.3563  0.8352  0.3165
 7108SOL    HW132957   0.035   2.745   8.828 -0.9069  0.0753 -0.6502
 7108SOL    HW232958   0.065   2.604   8.855 -0.2216  2.3107 -2.3874
 7109SOL     OW32959   4.576   1.853   4.864 -0.2670  0.2477 -0.5966
 7109SOL    HW132960   4.493   1.840   4.909  0.7134 -1.2818  0.7489
 7109SOL    HW232961   4.627   1.797   4.922 -1.0750  1.7319  1.5587
 7110SOL     OW32962   4.535   1.402   7.656 -0.0621 -0.2125 -0.4187
 7110SOL    HW132963   4.549   1.343   7.730  1.6708  0.1236 -0.4608
 7110SOL    HW232964   4.576   1.483   7.687  0.7031 -0.2598 -1.2932
 7111SOL     OW32965   1.809   3.536  14.844  0.1147  0.3968  0.1212
 7111SOL    HW132966   1.903   3.522  14.851  0.3438  1.2935 -1.3080
 7111SOL    HW232967   1.790   3.522  14.752  1.2719 -0.4545  0.0255
 7112SOL     OW32968   1.551   2.791   8.184 -0.4614 -0.0247 -0.0014
 7112SOL    HW132969   1.624   2.729   8.186 -1.4708 -1.1720  1.5199
 7112SOL    HW232970   1.580   2.855   8.120  1.1803 -1.8640 -1.0767
 7113SOL     OW32971   2.185   2.046   3.568  0.1427  0.2529  0.2148
 7113SOL    HW132972   2.188   2.133   3.608  0.0612 -0.8441  2.6541
 7113SOL    HW232973   2.092   2.025   3.558  0.2997 -0.9519  1.2825
 7114SOL     OW32974   2.779   3.472   5.002  0.0618  0.8580 -0.0607
 7114SOL    HW132975   2.776   3.391   5.053  4.1566  1.1141  0.6347
 7114SOL    HW232976   2.707   3.460   4.941 -1.4894  1.3943  1.6657
 7115SOL     OW32977   3.722   4.568   7.434  0.3082  0.9455 -0.3435
 7115SOL    HW132978   3.630   4.551   7.453  0.2639  1.1105 -0.4032
 7115SOL    HW232979   3.726   4.552   7.339  3.5223  0.6040 -0.1637
 7116SOL     OW32980   4.708   2.177  10.283  0.1116  0.3086  0.2583
 7116SOL    HW132981   4.735   2.101  10.335  0.7899  0.5144  0.2026
 7116SOL    HW232982   4.689   2.240  10.353  0.2228  1.8320 -1.1040
 7117SOL     OW32983   1.205   4.223  15.806  0.2556 -0.0545 -0.1988
 7117SOL    HW132984   1.114   4.205  15.784  0.3595 -1.9349  0.8749
 7117SOL    HW232985   1.215   4.319  15.811 -4.0825  0.4109 -1.1856
 7118SOL     OW32986   3.843   0.705   9.561  0.5081 -0.2228 -0.0433
 7118SOL    HW132987   3.809   0.744   9.642  1.2217 -0.3716  0.3319
 7118SOL    HW232988   3.805   0.617   9.558 -1.6479  0.6293  1.7537
 7119SOL     OW32989   2.076   0.528   6.545 -0.1977 -0.4700  0.3610
 7119SOL    HW132990   1.988   0.500   6.571  0.5958 -3.3521 -0.0608
 7119SOL    HW232991   2.070   0.623   6.559  1.7642 -0.3362  0.3002
 7120SOL     OW32992   1.348   3.098   5.836  0.0994  0.2569  0.4981
 7120SOL    HW132993   1.300   3.142   5.907  0.5704  1.0740  0.3089
 7120SOL    HW232994   1.430   3.071   5.877  0.8542 -1.5241 -2.2457
 7121SOL     OW32995   1.097   4.182  14.014  0.4084 -0.3033  0.1354
 7121SOL    HW132996   1.032   4.219  13.953  1.2790  1.8530  0.5286
 7121SOL    HW232997   1.136   4.266  14.035  1.5723 -0.8103 -0.0033
 7122SOL     OW32998   0.709   0.549   9.335  0.4473 -0.3861  0.0988
 7122SOL    HW132999   0.659   0.471   9.357 -0.2632  0.0728  0.1189
 7122SOL    HW233000   0.767   0.561   9.410  0.8000  0.9928 -0.3865
 7123SOL     OW33001   3.821   0.097   5.414 -0.7239 -0.4171  0.1736
 7123SOL    HW133002   3.828   0.076   5.320 -0.8757  2.0401 -0.3901
 7123SOL    HW233003   3.806   0.008   5.447  1.3921 -0.2257  1.6127
 7124SOL     OW33004   2.700   2.180   8.665  0.5579 -0.3038  0.1065
 7124SOL    HW133005   2.655   2.156   8.746 -0.1329  0.1029 -0.1466
 7124SOL    HW233006   2.732   2.269   8.680 -2.1751  0.9061 -1.0498
 7125SOL     OW33007   0.647   1.221   7.052 -0.4180  0.2578 -0.2467
 7125SOL    HW133008   0.579   1.208   6.986  0.4050 -0.1178 -1.0342
 7125SOL    HW233009   0.628   1.153   7.116  2.7107  0.6792  1.1308
 7126SOL     OW33010   4.413   4.452   0.727  0.1150  0.6527 -0.4247
 7126SOL    HW133011   4.359   4.510   0.674  0.5633  0.5331 -1.0120
 7126SOL    HW233012   4.457   4.393   0.666 -1.3648  1.0776 -1.8672
 7127SOL     OW33013   1.453   1.936   6.545 -0.2489 -0.4363  0.7901
 7127SOL    HW133014   1.458   1.939   6.641  0.3589  0.8807  0.7073
 7127SOL    HW233015   1.421   2.024   6.525 -1.2701 -0.9871 -0.0126
 7128SOL     OW33016   1.423   4.220  10.700 -0.4075  0.9648 -0.8300
 7128SOL    HW133017   1.339   4.223  10.655  0.0790  0.1961 -1.7799
 7128SOL    HW233018   1.465   4.143  10.662  1.1659  1.5358 -0.2769
 7129SOL     OW33019   0.785   2.389   2.704 -0.0232  0.0083 -0.1856
 7129SOL    HW133020   0.764   2.372   2.612 -0.8112 -0.7044  0.1333
 7129SOL    HW233021   0.871   2.432   2.698  0.2103 -0.3634  0.5026
 7130SOL     OW33022   1.081   4.504   4.849  0.2135  0.0921 -0.3521
 7130SOL    HW133023   1.114   4.592   4.868 -1.3992  0.3231  1.3484
 7130SOL    HW233024   0.998   4.498   4.896 -0.2333  0.5270 -1.0881
 7131SOL     OW33025   1.003   2.551   0.936  0.2827  0.0813 -0.2966
 7131SOL    HW133026   0.981   2.561   0.844 -0.4214  2.4619  0.1303
 7131SOL    HW233027   1.071   2.483   0.939 -0.6021 -0.8044 -0.5376
 7132SOL     OW33028   0.005   3.225   3.086  0.7957 -0.6288 -0.2445
 7132SOL    HW133029   4.730   3.149   3.030  1.0925  0.7315 -2.1459
 7132SOL    HW233030   4.699   3.195   3.165 -0.2808  2.0962  0.2063
 7133SOL     OW33031   1.734   3.929   4.065 -0.3353  0.4271 -0.1324
 7133SOL    HW133032   1.673   3.920   4.138 -0.8323 -1.0880 -0.7344
 7133SOL    HW233033   1.775   3.843   4.055  1.7776  1.8222 -3.8471
 7134SOL     OW33034   1.017   3.735   9.789  0.4192 -0.5476 -0.2662
 7134SOL    HW133035   0.929   3.750   9.754  0.1766 -1.6145 -0.1215
 7134SOL    HW233036   1.061   3.820   9.793  2.7943 -1.7889 -0.5489
 7135SOL     OW33037   3.681   0.160   2.658 -0.0360  0.5561  0.6746
 7135SOL    HW133038   3.739   0.084   2.656  0.4829  0.9767 -0.9375
 7135SOL    HW233039   3.655   0.152   2.749 -2.3383 -0.1814 -0.0465
 7136SOL     OW33040   4.242   0.666   3.151  0.0705 -0.2372  0.0736
 7136SOL    HW133041   4.262   0.589   3.205 -3.1793  0.3421  2.1006
 7136SOL    HW233042   4.328   0.707   3.158  0.6731 -1.2312 -1.3312
 7137SOL     OW33043   2.217   0.308  16.556  0.0429  0.0200 -0.6413
 7137SOL    HW133044   2.139   0.289  16.504 -2.2004 -0.8169  3.0703
 7137SOL    HW233045   2.292   0.294  16.498 -0.0290 -1.4382 -0.3809
 7138SOL     OW33046   2.934   2.830   5.676  0.5745  0.4291 -0.1363
 7138SOL    HW133047   2.880   2.883   5.734 -1.5552 -0.0609 -1.6772
 7138SOL    HW233048   2.963   2.761   5.736 -1.2452 -0.5344 -0.3675
 7139SOL     OW33049   1.260   2.863   5.480  0.5665 -0.3924 -0.5980
 7139SOL    HW133050   1.278   2.918   5.404  0.5962  0.8577  0.3188
 7139SOL    HW233051   1.201   2.916   5.533  1.3425 -0.7934  0.6871
 7140SOL     OW33052   4.382   0.917   6.840 -0.5028  0.2693 -0.4838
 7140SOL    HW133053   4.459   0.940   6.891 -0.0606  1.4284 -1.6810
 7140SOL    HW233054   4.322   0.936   6.912  1.0532 -0.9803  1.1302
 7141SOL     OW33055   1.473   3.299   0.995 -0.3634  0.0374  0.0509
 7141SOL    HW133056   1.400   3.362   0.990  0.3026  0.6127 -2.3005
 7141SOL    HW233057   1.551   3.337   0.955  0.2181 -1.3826 -0.1579
 7142SOL     OW33058   0.109   2.859   3.367 -0.3646 -0.4190 -0.1404
 7142SOL    HW133059   0.022   2.820   3.375 -1.3200  1.4862 -1.2411
 7142SOL    HW233060   0.098   2.953   3.383 -0.2048 -0.7817  2.1583
 7143SOL     OW33061   1.219   0.136   6.081 -0.4499 -0.6854  0.5698
 7143SOL    HW133062   1.128   0.164   6.090 -0.0734  0.7637  0.0076
 7143SOL    HW233063   1.216   0.096   5.994  0.7115  1.6606 -0.5722
 7144SOL     OW33064   4.498   1.051   2.212  0.1748  0.1106 -0.0722
 7144SOL    HW133065   4.518   1.014   2.298 -1.4607  0.4360  0.4556
 7144SOL    HW233066   4.490   0.974   2.156  3.5243 -1.2732  1.3624
 7145SOL     OW33067   4.010   1.774   0.737 -0.2917 -0.1252 -0.2616
 7145SOL    HW133068   4.014   1.711   0.809 -1.4845 -1.0036 -0.9518
 7145SOL    HW233069   4.010   1.860   0.780  0.4249 -0.4564  0.3905
 7146SOL     OW33070   3.914   2.875   6.460 -0.5299 -0.3908  0.2089
 7146SOL    HW133071   3.979   2.944   6.447 -0.9404  0.1891  1.2755
 7146SOL    HW233072   3.835   2.898   6.412 -0.7166 -2.5533 -0.5415
 7147SOL     OW33073   1.166   2.973  17.302 -0.2466  0.0091 -0.1675
 7147SOL    HW133074   1.219   2.905  17.344  0.6810  0.9188  0.1262
 7147SOL    HW233075   1.090   2.972  17.360 -2.0312 -0.6759 -2.5221
 7148SOL     OW33076   3.842   2.157   4.334  0.1133 -0.0959  0.4342
 7148SOL    HW133077   3.769   2.213   4.357 -0.7154 -1.1307  0.3056
 7148SOL    HW233078   3.841   2.097   4.409  0.6977 -1.5317 -0.6931
 7149SOL     OW33079   4.259   1.514   6.390  0.4370 -0.0333  0.5294
 7149SOL    HW133080   4.254   1.607   6.412  0.6929  0.0317  0.3030
 7149SOL    HW233081   4.296   1.513   6.302 -0.9843 -2.2965 -0.0404
 7150SOL     OW33082   0.585   1.222   7.925  0.1711  0.9225  0.1484
 7150SOL    HW133083   0.506   1.181   7.888  1.2416 -0.6492 -0.3797
 7150SOL    HW233084   0.555   1.312   7.937 -0.8251  0.4233  1.3942
 7151SOL     OW33085   3.971   3.096  17.241 -0.0985 -0.4265 -0.6660
 7151SOL    HW133086   3.938   3.046  17.315 -0.0409  0.9365  0.2880
 7151SOL    HW233087   3.951   3.183  17.274  2.8599 -0.5097  1.3508
 7152SOL     OW33088   0.247   0.297   6.136 -0.0208  0.1582  0.2720
 7152SOL    HW133089   0.291   0.305   6.220  2.0835  0.7031 -0.8902
 7152SOL    HW233090   0.268   0.375   6.083 -1.1512  0.9452  0.9688
 7153SOL     OW33091   0.568   0.478   8.081 -0.4462 -0.1522  0.1865
 7153SOL    HW133092   0.639   0.497   8.143 -0.7901  1.4384  0.0957
 7153SOL    HW233093   0.556   0.384   8.092  1.2989 -0.5121 -0.9906
 7154SOL     OW33094   1.881   0.130   8.409 -0.4898  0.2292  0.5006
 7154SOL    HW133095   1.945   0.059   8.407 -0.5350  0.1738  1.3157
 7154SOL    HW233096   1.918   0.177   8.334 -1.0679 -1.4511 -0.8459
 7155SOL     OW33097   2.644   3.351   3.729 -0.0853  0.1226 -0.6320
 7155SOL    HW133098   2.673   3.319   3.644 -0.1751 -0.4043 -0.4604
 7155SOL    HW233099   2.616   3.440   3.707  0.9019  0.8016  0.8325
 7156SOL     OW33100   4.735   0.199  11.248 -0.0809 -0.2300 -0.1140
 7156SOL    HW133101   4.699   0.248  11.174  0.4332 -0.6406 -0.6386
 7156SOL    HW233102   4.703   0.114  11.218 -0.1414  0.5170 -2.1951
 7157SOL     OW33103   3.895   1.064   8.497  0.2431  0.4355 -0.9324
 7157SOL    HW133104   3.908   0.977   8.458  0.9403  0.0654  0.1079
 7157SOL    HW233105   3.833   1.038   8.565 -0.0222 -0.4024 -1.4962
 7158SOL     OW33106   4.249   2.289   6.172 -0.0526 -0.3896  0.3934
 7158SOL    HW133107   4.328   2.320   6.127  0.9195 -0.9304  1.7368
 7158SOL    HW233108   4.229   2.221   6.107 -0.8419 -0.9998  1.2779
 7159SOL     OW33109   4.292   2.240   8.601 -0.6119  0.1571  0.1409
 7159SOL    HW133110   4.339   2.174   8.652  2.1440  1.3391 -0.9017
 7159SOL    HW233111   4.273   2.293   8.678  0.1955  0.5355  0.0834
 7160SOL     OW33112   3.600   0.301   3.150 -0.0137  0.4586 -0.0690
 7160SOL    HW133113   3.590   0.314   3.244 -1.9932 -1.9041  0.0368
 7160SOL    HW233114   3.571   0.386   3.116 -0.0272  1.0240  1.3363
 7161SOL     OW33115   2.096   1.890   7.285  0.2601  0.2812 -0.4579
 7161SOL    HW133116   2.111   1.799   7.260  0.8322 -0.1157  1.3583
 7161SOL    HW233117   2.143   1.891   7.368 -0.5411 -1.0569  0.0146
 7162SOL     OW33118   1.239   2.570   8.331  0.3415  0.0393  0.2046
 7162SOL    HW133119   1.155   2.556   8.288  0.8936  1.4443 -1.3238
 7162SOL    HW233120   1.229   2.502   8.397 -0.3222 -0.4686 -0.4196
 7163SOL     OW33121   1.500   1.722   0.096 -0.1309  0.8349  0.1424
 7163SOL    HW133122   1.470   1.783   0.028  0.4974 -0.7760 -1.5948
 7163SOL    HW233123   1.423   1.666   0.108  2.3025 -2.1453  1.7381
 7164SOL     OW33124   0.629   2.813   7.872  0.1506  0.1890  0.4182
 7164SOL    HW133125   0.608   2.880   7.936  1.6402  0.0946  1.0055
 7164SOL    HW233126   0.551   2.810   7.816  1.3044 -1.3523 -1.0913
 7165SOL     OW33127   1.197   4.393   6.871  0.0087 -0.6387  0.5662
 7165SOL    HW133128   1.232   4.312   6.908  0.3070 -1.7362 -2.1133
 7165SOL    HW233129   1.122   4.357   6.823  1.4212 -1.3148 -1.1304
 7166SOL     OW33130   4.093   3.109   8.095 -0.1651  0.0252  0.1255
 7166SOL    HW133131   4.057   3.023   8.114  1.6300 -0.7568  0.0007
 7166SOL    HW233132   4.115   3.129   8.186 -1.9045  2.0260  0.1132
 7167SOL     OW33133   0.100   3.574  16.950 -0.6134  0.2387  0.0138
 7167SOL    HW133134   0.187   3.597  16.915 -0.0301  1.2388  2.1563
 7167SOL    HW233135   0.045   3.652  16.949 -0.7845  0.1170 -0.0015
 7168SOL     OW33136   3.329   4.439   5.878  0.3704  0.0419  0.5110
 7168SOL    HW133137   3.412   4.402   5.847  1.2216  0.9877  1.6982
 7168SOL    HW233138   3.361   4.502   5.942 -1.9278  1.8380 -0.1026
 7169SOL     OW33139   2.879   2.976   8.138 -0.0178  0.3379  0.1192
 7169SOL    HW133140   2.784   2.976   8.151 -0.2268 -0.1468 -1.4400
 7169SOL    HW233141   2.892   2.970   8.044  0.4285  1.2479  0.1205
 7170SOL     OW33142   2.048   1.781   8.353 -0.0776 -0.2282 -0.6452
 7170SOL    HW133143   2.108   1.790   8.279  0.2479 -0.2503 -0.3816
 7170SOL    HW233144   2.105   1.759   8.426 -2.6753 -1.3804  1.0222
 7171SOL     OW33145   4.495   0.790   9.663  0.0634  0.0993 -0.5085
 7171SOL    HW133146   4.531   0.878   9.653 -0.2261  0.3599  0.6766
 7171SOL    HW233147   4.400   0.794   9.654 -0.1103 -1.7632  0.5252
 7172SOL     OW33148   3.613   1.303   8.030  0.0407 -0.2111  0.5360
 7172SOL    HW133149   3.632   1.268   8.117  0.1074  1.8891  1.3729
 7172SOL    HW233150   3.672   1.251   7.976 -1.6643 -2.2477  0.6128
 7173SOL     OW33151   1.933   2.026   3.500  0.3450  0.2306 -0.5768
 7173SOL    HW133152   1.892   2.105   3.464  2.1667  1.2934 -0.3235
 7173SOL    HW233153   1.925   1.961   3.430  0.9502  0.8238 -1.1905
 7174SOL     OW33154   3.624   3.874   6.478 -0.0923 -0.1496  0.4605
 7174SOL    HW133155   3.636   3.785   6.446  4.3005 -0.0707  1.8800
 7174SOL    HW233156   3.649   3.916   6.396  0.8676 -1.7764 -0.0782
 7175SOL     OW33157   3.937   4.638   8.663  0.5737  0.7015  0.1831
 7175SOL    HW133158   3.846   4.621   8.688  0.9712 -1.7511 -0.0048
 7175SOL    HW233159   3.951   4.561   8.608 -1.8953  1.9712 -2.2472
 7176SOL     OW33160   0.329   4.409  16.511  0.2447 -0.0596 -0.1169
 7176SOL    HW133161   0.404   4.468  16.519  0.3871 -0.2957  0.3538
 7176SOL    HW233162   0.348   4.366  16.428  1.9042 -0.4161  0.4341
 7177SOL     OW33163   2.886   2.233   1.198  0.2609  0.3734  0.1089
 7177SOL    HW133164   2.943   2.161   1.223  0.3832 -0.0776 -1.4434
 7177SOL    HW233165   2.953   2.295   1.170 -0.7229  0.4008 -2.2508
 7178SOL     OW33166   0.698   3.078   8.526 -0.2303  0.1269 -0.3157
 7178SOL    HW133167   0.672   3.092   8.617 -0.6782  0.7495 -0.5419
 7178SOL    HW233168   0.778   3.131   8.520 -1.0924  1.3738 -0.7487
 7179SOL     OW33169   3.478   4.317   6.520  0.2402 -0.5175 -0.4332
 7179SOL    HW133170   3.554   4.308   6.577  0.6674 -1.6044 -1.1748
 7179SOL    HW233171   3.499   4.402   6.480 -1.6063  0.4366  0.6116
 7180SOL     OW33172   1.368   2.804  17.731 -0.7504  0.6966 -0.1292
 7180SOL    HW133173   1.329   2.886   0.007 -0.1691  0.2800  1.7488
 7180SOL    HW233174   1.461   2.819  17.752 -0.1260 -0.1148 -2.3991
 7181SOL     OW33175   0.020   1.952   7.069 -0.0517  0.0951 -0.6240
 7181SOL    HW133176   0.007   1.857   7.064 -1.4276  0.2621 -0.1932
 7181SOL    HW233177   4.675   1.992   7.090  1.0804  1.2181  1.6803
 7182SOL     OW33178   1.749   3.258  10.969  0.6428 -0.6134 -0.2205
 7182SOL    HW133179   1.804   3.270  11.046 -1.3258  1.3981  0.8699
 7182SOL    HW233180   1.807   3.281  10.896 -2.1924 -1.1168 -2.6160
 7183SOL     OW33181   3.713   4.112  10.523 -0.1470  0.3345  0.1653
 7183SOL    HW133182   3.656   4.161  10.464 -1.5444 -0.8782  0.4922
 7183SOL    HW233183   3.687   4.023  10.500  2.0193 -0.0878 -0.6218
 7184SOL     OW33184   2.089   4.649  10.058 -0.2933 -0.7997  0.0870
 7184SOL    HW133185   2.043   4.654   9.974  0.5827 -0.9117 -0.4042
 7184SOL    HW233186   2.025   4.618  10.122 -0.3400 -2.8909 -0.9760
 7185SOL     OW33187   0.504   4.113   5.541 -0.4500 -0.0944  0.2613
 7185SOL    HW133188   0.474   4.200   5.568  1.4522  0.7075 -0.2361
 7185SOL    HW233189   0.488   4.065   5.623 -1.4104 -0.7919 -0.3337
 7186SOL     OW33190   4.488   3.089   0.261 -0.0538  0.3538  0.3492
 7186SOL    HW133191   4.562   3.123   0.311  0.8883 -0.5988 -0.3925
 7186SOL    HW233192   4.520   3.105   0.173 -1.5503  2.6139  0.2060
 7187SOL     OW33193   1.978   1.475  17.461  0.5720 -0.2953 -0.4073
 7187SOL    HW133194   2.039   1.549  17.462 -0.9782  0.9718 -0.2382
 7187SOL    HW233195   2.036   1.411  17.419  0.0344 -0.7020 -0.5402
 7188SOL     OW33196   4.047   2.278   2.635 -0.5605  0.2428  0.3704
 7188SOL    HW133197   3.962   2.240   2.657  0.3114 -2.6268 -1.2228
 7188SOL    HW233198   4.035   2.364   2.677  0.3996 -0.5171  2.1582
 7189SOL     OW33199   4.533   3.764   6.153  0.1063 -0.2557  0.3159
 7189SOL    HW133200   4.624   3.777   6.180  0.4652 -1.0819 -0.4709
 7189SOL    HW233201   4.534   3.698   6.084  0.1118 -1.5040  1.5274
 7190SOL     OW33202   1.751   1.155   0.250 -0.2957  0.1421 -0.0554
 7190SOL    HW133203   1.836   1.110   0.250 -0.6002 -0.4208  0.4257
 7190SOL    HW233204   1.714   1.116   0.170 -0.5974  2.4852 -1.0468
 7191SOL     OW33205   2.868   3.566   6.239 -0.2595  0.5865 -0.3003
 7191SOL    HW133206   2.932   3.515   6.288 -1.4918  0.0122  0.7136
 7191SOL    HW233207   2.905   3.654   6.249  0.1304  0.1931  1.5436
 7192SOL     OW33208   3.634   1.578   4.875 -0.1948  1.1527  0.2594
 7192SOL    HW133209   3.595   1.577   4.788  2.0029 -1.8305 -0.6847
 7192SOL    HW233210   3.701   1.512   4.859 -0.0383  1.6347 -1.0913
 7193SOL     OW33211   3.256   1.125   7.041  0.1793  0.8605 -0.6536
 7193SOL    HW133212   3.231   1.055   7.102  1.2962  2.2896  1.4285
 7193SOL    HW233213   3.253   1.075   6.959  0.5620  0.7934 -0.6273
 7194SOL     OW33214   1.453   3.384   3.449  0.5159 -1.0915  0.5369
 7194SOL    HW133215   1.514   3.456   3.433 -1.0086 -0.6182 -2.9756
 7194SOL    HW233216   1.438   3.353   3.360 -1.7747 -0.3546  0.6750
 7195SOL     OW33217   4.732   1.444   4.794  0.4618  0.3414  0.1083
 7195SOL    HW133218   0.058   1.388   4.836  1.5738  0.5632 -1.3501
 7195SOL    HW233219   0.045   1.521   4.771  2.3803 -0.8350  0.5141
 7196SOL     OW33220   0.742   1.029   8.082  0.0253 -0.0855  0.1011
 7196SOL    HW133221   0.755   1.059   8.172  0.7996 -0.7243  0.2048
 7196SOL    HW233222   0.687   1.099   8.048 -3.0160 -1.5934  1.9389
 7197SOL     OW33223   1.411   1.573   5.384  1.1861 -0.3612 -0.3561
 7197SOL    HW133224   1.436   1.482   5.401  0.5601 -0.5763 -0.5970
 7197SOL    HW233225   1.451   1.623   5.455 -1.6892 -0.8327  1.6155
 7198SOL     OW33226   0.196   3.751  16.351 -0.1005 -0.3755  0.1397
 7198SOL    HW133227   0.205   3.661  16.383  1.3727  0.3080  1.6059
 7198SOL    HW233228   0.286   3.781  16.354 -0.1489 -0.1330 -0.7278
 7199SOL     OW33229   3.061   4.657   8.090  0.3405  0.1965  0.1199
 7199SOL    HW133230   3.006   4.579   8.100 -0.0037  0.5456  0.9325
 7199SOL    HW233231   3.104   4.668   8.175  0.9262  0.5994 -0.2307
 7200SOL     OW33232   0.193   0.614   8.198  0.4385  0.1252 -0.2358
 7200SOL    HW133233   0.165   0.697   8.236  1.8751  0.7730 -0.5716
 7200SOL    HW233234   0.260   0.597   8.264  2.4537 -1.1441 -2.5833
 7201SOL     OW33235   4.172   1.463   3.897  0.6173  0.0402 -0.1588
 7201SOL    HW133236   4.193   1.369   3.898 -0.7989 -0.2673  1.1458
 7201SOL    HW233237   4.257   1.507   3.892  0.0209  1.1517 -0.5386
 7202SOL     OW33238   3.119   2.157   2.035 -0.3078  0.4960  0.0042
 7202SOL    HW133239   3.109   2.102   2.113 -1.0347  1.7155  0.7634
 7202SOL    HW233240   3.206   2.126   2.009 -1.1728 -1.5028 -0.5058
 7203SOL     OW33241   0.307   4.302   2.482 -0.3676  0.2100  0.0296
 7203SOL    HW133242   0.276   4.212   2.474  1.1171 -0.3460  0.4580
 7203SOL    HW233243   0.290   4.330   2.572 -0.5034 -1.4608  0.5260
 7204SOL     OW33244   4.305   2.688  13.401  0.2944  0.0255 -0.4658
 7204SOL    HW133245   4.292   2.783  13.406  1.6254  0.1048  1.5410
 7204SOL    HW233246   4.218   2.657  13.378  1.1196 -2.9572  0.5198
 7205SOL     OW33247   0.042   3.595   7.082  0.4346  0.0881 -0.3395
 7205SOL    HW133248   0.041   3.663   7.014 -0.7902 -0.0869 -0.4835
 7205SOL    HW233249   0.056   3.510   7.041  0.8824  0.7376 -1.5678
 7206SOL     OW33250   3.823   2.559  17.231 -0.6443  0.2058  0.4566
 7206SOL    HW133251   3.818   2.549  17.136 -0.7007 -2.2980  0.7332
 7206SOL    HW233252   3.880   2.489  17.261 -0.5200  0.6180  1.1745
 7207SOL     OW33253   4.043   1.074   7.569 -0.5586  0.1291  0.1346
 7207SOL    HW133254   4.133   1.100   7.585  0.0012 -1.2446 -0.8077
 7207SOL    HW233255   4.039   1.084   7.474 -0.5331 -2.3828 -0.1416
 7208SOL     OW33256   4.192   1.653   5.346  0.1009  0.4287  0.4170
 7208SOL    HW133257   4.238   1.630   5.265  0.3503  2.9352 -0.1738
 7208SOL    HW233258   4.260   1.647   5.413  3.6061  1.6772 -3.0226
 7209SOL     OW33259   0.135   2.194   5.043 -0.1496 -0.2321 -0.2067
 7209SOL    HW133260   0.136   2.153   5.129  0.5533  0.4266  0.0980
 7209SOL    HW233261   0.182   2.276   5.051  0.1976 -0.3927 -0.5813
 7210SOL     OW33262   0.045   2.798   7.110 -0.0683 -0.2109  0.3265
 7210SOL    HW133263   0.061   2.892   7.102 -1.0346 -0.0972 -0.2283
 7210SOL    HW233264   0.129   2.761   7.137  0.1400 -0.5469 -0.8045
 7211SOL     OW33265   0.189   3.052  16.915  0.0707 -0.0477  0.3472
 7211SOL    HW133266   0.097   3.033  16.899  0.1616 -1.3038  1.3002
 7211SOL    HW233267   0.184   3.136  16.868  1.0277  1.3822  2.8190
 7212SOL     OW33268   3.231   1.884   3.861  0.4284 -0.0841 -0.6217
 7212SOL    HW133269   3.228   1.810   3.800 -0.5723 -0.1221 -0.5314
 7212SOL    HW233270   3.238   1.841   3.946 -0.3640  1.8306  0.4187
 7213SOL     OW33271   0.021   1.784   6.091 -0.1412 -0.1691  0.0072
 7213SOL    HW133272   4.666   1.766   6.096 -0.1021 -0.1424  0.7400
 7213SOL    HW233273   0.047   1.691   6.091  0.5751  0.0401  0.9938
 7214SOL     OW33274   2.936   3.102   2.795  0.7315 -0.3578 -0.2507
 7214SOL    HW133275   2.867   3.047   2.757  1.2050  0.2468 -1.9873
 7214SOL    HW233276   2.948   3.061   2.880 -1.3631 -2.1949 -0.8293
 7215SOL     OW33277   3.887   2.517  16.177  0.0234 -0.2607 -0.4109
 7215SOL    HW133278   3.970   2.538  16.220 -1.3523  2.3193  1.0656
 7215SOL    HW233279   3.828   2.552  16.244 -0.0179 -2.8729  0.9064
 7216SOL     OW33280   2.267   2.935   0.578  0.4865 -0.0676  0.2054
 7216SOL    HW133281   2.309   2.994   0.641  0.4419 -0.8891  1.0045
 7216SOL    HW233282   2.337   2.870   0.574 -0.7096 -1.3402  0.0978
 7217SOL     OW33283   4.266   1.562   7.231 -0.3122 -0.1847  0.1382
 7217SOL    HW133284   4.237   1.644   7.270  2.3288  0.6091  0.3874
 7217SOL    HW233285   4.357   1.563   7.261  0.1854  0.4350 -1.3950
 7218SOL     OW33286   3.111   0.457  15.354  0.8038  0.1376  0.7468
 7218SOL    HW133287   3.195   0.481  15.314  0.8614  0.7714  1.2441
 7218SOL    HW233288   3.148   0.447  15.441  1.0319 -1.7918  0.4211
 7219SOL     OW33289   3.047   2.449   8.648  0.1879 -0.3186  0.9661
 7219SOL    HW133290   3.048   2.366   8.600  1.0687  0.0617  0.3217
 7219SOL    HW233291   2.960   2.447   8.688 -0.3862 -2.0504 -0.3658
 7220SOL     OW33292   4.290   4.241   0.480 -0.0584  0.4522 -0.5945
 7220SOL    HW133293   4.374   4.280   0.503 -0.2428  0.9588 -0.7869
 7220SOL    HW233294   4.319   4.174   0.418  0.4553  1.0366 -0.9881
 7221SOL     OW33295   3.663   0.706   6.293 -0.7537  0.0255 -0.6092
 7221SOL    HW133296   3.629   0.617   6.290  1.6630 -0.9111 -0.3248
 7221SOL    HW233297   3.591   0.752   6.335 -0.7420 -0.1836 -0.3622
 7222SOL     OW33298   1.676   3.306   5.755 -1.0571 -0.9244 -0.6222
 7222SOL    HW133299   1.667   3.320   5.850 -1.7386  2.2935 -1.1401
 7222SOL    HW233300   1.741   3.375   5.740 -3.5816  1.0371 -2.5243
 7223SOL     OW33301   0.904   2.053   4.638 -0.2578 -0.2616 -0.1247
 7223SOL    HW133302   0.944   2.029   4.722 -2.0927 -0.1987  0.7604
 7223SOL    HW233303   0.896   1.969   4.592  1.1893 -0.6239  0.2826
 7224SOL     OW33304   0.987   2.551   0.663 -0.5383  0.2796 -0.0693
 7224SOL    HW133305   0.915   2.494   0.635  0.7645 -1.2857 -0.2978
 7224SOL    HW233306   1.068   2.504   0.642 -0.8993  0.2913 -1.4916
 7225SOL     OW33307   2.582   0.873   6.531  0.2299  0.1316 -0.2535
 7225SOL    HW133308   2.594   0.927   6.453  2.9108 -3.3255 -2.2252
 7225SOL    HW233309   2.669   0.865   6.570 -0.4003 -1.2407  0.8926
 7226SOL     OW33310   0.948   0.265  11.351  0.0409  1.2036 -0.4240
 7226SOL    HW133311   0.872   0.317  11.380  0.3640  0.6480  1.4537
 7226SOL    HW233312   1.017   0.331  11.352  1.4386 -0.3122  2.3351
 7227SOL     OW33313   4.160   1.731   8.221 -0.4081 -0.1456 -0.0729
 7227SOL    HW133314   4.170   1.681   8.140 -0.3650 -1.0160  0.4679
 7227SOL    HW233315   4.085   1.790   8.210  0.3384  0.7486 -0.3664
 7228SOL     OW33316   0.468   3.609   5.003  0.0856  0.5173  0.0800
 7228SOL    HW133317   0.544   3.565   5.040 -2.2561 -3.1719  0.5271
 7228SOL    HW233318   0.401   3.582   5.065  0.1228  1.5516  0.5716
 7229SOL     OW33319   2.570   1.316  16.027  0.2986  0.2265 -0.0921
 7229SOL    HW133320   2.637   1.253  16.001  0.1702 -0.5005  1.2966
 7229SOL    HW233321   2.493   1.274  15.988  1.1485  0.0263 -1.5432
 7230SOL     OW33322   3.396   3.443   7.600 -0.8394  0.4032 -1.3364
 7230SOL    HW133323   3.404   3.537   7.585 -0.8574  0.6297  0.1631
 7230SOL    HW233324   3.467   3.417   7.659 -2.6740 -1.8241 -0.0869
 7231SOL     OW33325   1.130   4.316   8.965 -0.1118  0.0148  0.2997
 7231SOL    HW133326   1.203   4.372   8.940 -0.6575  0.0887 -1.1508
 7231SOL    HW233327   1.190   4.247   8.993  0.2390  0.7730  1.3979
 7232SOL     OW33328   1.885   3.402   3.315  0.2808  0.2270  1.0133
 7232SOL    HW133329   1.897   3.468   3.246 -0.7079 -0.7688 -0.1073
 7232SOL    HW233330   1.960   3.343   3.309  0.7355  0.7024  2.1476
 7233SOL     OW33331   4.611   0.143   8.582  0.1962  0.4980 -0.3183
 7233SOL    HW133332   4.640   0.094   8.505  2.1155 -0.6757  1.1429
 7233SOL    HW233333   4.582   0.072   8.639  1.8800  0.2833  0.2627
 7234SOL     OW33334   3.825   1.828  14.041 -0.4886 -0.3135 -0.3071
 7234SOL    HW133335   3.909   1.796  14.074 -0.4076  0.2426  0.0309
 7234SOL    HW233336   3.810   1.909  14.089 -1.6182  0.2850 -1.6628
 7235SOL     OW33337   4.671   4.243   5.004  0.6342  0.3506  0.1987
 7235SOL    HW133338   4.700   4.172   4.947 -3.9653 -0.0596 -1.6247
 7235SOL    HW233339   4.605   4.197   5.056  0.6174  1.1200  0.8642
 7236SOL     OW33340   0.364   0.056   8.135  0.1431  0.1521  0.7858
 7236SOL    HW133341   0.390   4.705   8.151 -1.5278 -0.3089  0.9607
 7236SOL    HW233342   0.422   0.102   8.196  1.4970 -1.4189  0.6776
 7237SOL     OW33343   1.025   4.738  11.392 -0.0301 -0.0613  0.0656
 7237SOL    HW133344   1.020   0.012  11.486 -1.5217  1.8394 -0.2712
 7237SOL    HW233345   1.008   0.082  11.348  3.3703  0.1244 -0.8708
 7238SOL     OW33346   1.724   4.043   4.436  0.1503  0.3954  0.1534
 7238SOL    HW133347   1.654   3.985   4.466  0.5093 -0.0261  0.1707
 7238SOL    HW233348   1.808   4.008   4.467  0.3714 -0.0372 -0.9147
 7239SOL     OW33349   3.901   4.221  11.096  0.1283 -0.1250  0.1178
 7239SOL    HW133350   3.827   4.182  11.049  1.2871 -2.3250  0.0691
 7239SOL    HW233351   3.902   4.299  11.042 -0.9317 -1.0007 -1.1610
 7240SOL     OW33352   0.110   1.536   3.450 -0.0352 -0.4366 -0.0258
 7240SOL    HW133353   0.026   1.494   3.467 -0.4062 -0.0987 -1.0037
 7240SOL    HW233354   0.152   1.521   3.535  1.1717  1.2326 -0.3314
 7241SOL     OW33355   0.699   4.688   2.038 -0.0423  0.9950  0.1724
 7241SOL    HW133356   0.653   0.013   2.093 -0.5734 -0.4043  1.3638
 7241SOL    HW233357   0.788   4.708   2.066 -0.2419  0.2064  1.4034
 7242SOL     OW33358   2.985   3.679   8.892 -0.2004  0.2192  0.8438
 7242SOL    HW133359   2.935   3.610   8.936  0.2728  0.3878  1.6394
 7242SOL    HW233360   3.058   3.697   8.951 -0.9501 -0.0738  1.8642
 7243SOL     OW33361   1.646   0.114   4.430  0.4032  0.0916 -0.4133
 7243SOL    HW133362   1.676   0.026   4.455 -0.2181 -0.1100 -0.3632
 7243SOL    HW233363   1.554   0.097   4.408  0.6212 -2.7862  0.7839
 7244SOL     OW33364   3.566   3.202   6.093 -0.3415  0.6490  0.4568
 7244SOL    HW133365   3.537   3.218   6.003  1.9375  0.3699 -0.3162
 7244SOL    HW233366   3.507   3.129   6.112  0.2951 -0.3290 -1.2800
 7245SOL     OW33367   0.269   1.912   0.740  0.1414  0.1957 -0.1032
 7245SOL    HW133368   0.185   1.917   0.695  1.4963 -0.1258 -2.6436
 7245SOL    HW233369   0.265   1.817   0.748 -2.1413  0.2546 -0.4114
 7246SOL     OW33370   3.496   1.092   3.992  0.6134 -0.0622  0.1752
 7246SOL    HW133371   3.547   1.092   3.911  0.6184 -0.5791  0.1778
 7246SOL    HW233372   3.511   1.179   4.028 -0.0450 -0.6357  1.8229
 7247SOL     OW33373   2.266   4.189   6.857 -0.0084  0.0491  0.2256
 7247SOL    HW133374   2.346   4.234   6.883 -0.0640  0.4194 -0.2394
 7247SOL    HW233375   2.270   4.196   6.762 -1.0191 -2.0450  0.0215
 7248SOL     OW33376   0.887   2.333   4.031  0.3801 -0.0416 -0.1890
 7248SOL    HW133377   0.811   2.368   3.983 -0.1038 -1.1058 -0.1922
 7248SOL    HW233378   0.934   2.284   3.963 -1.1983  1.0357 -2.0630
 7249SOL     OW33379   2.322   4.287   0.512 -0.4936  0.1665 -0.0581
 7249SOL    HW133380   2.252   4.291   0.446 -1.0175 -0.8465  0.4232
 7249SOL    HW233381   2.332   4.192   0.512  0.2255  0.2485 -1.4031
 7250SOL     OW33382   0.925   2.570  17.051 -0.1543 -0.6430  0.9305
 7250SOL    HW133383   0.879   2.554  17.134 -0.8412 -0.9017  0.5006
 7250SOL    HW233384   1.015   2.547  17.071  0.2123 -0.6785 -0.7868
 7251SOL     OW33385   1.210   3.776   8.297 -0.8510 -0.9146  0.1419
 7251SOL    HW133386   1.273   3.805   8.363  0.0880 -2.4717 -0.0881
 7251SOL    HW233387   1.226   3.847   8.235 -1.7588  0.7569  1.8145
 7252SOL     OW33388   0.124   4.399   1.991 -0.5119  0.1670 -0.3527
 7252SOL    HW133389   0.156   4.365   1.908 -0.1169 -0.4784  0.0669
 7252SOL    HW233390   0.197   4.372   2.047 -0.1901  0.0567 -0.8236
 7253SOL     OW33391   1.834   2.278   3.463 -0.5400  0.7115 -0.0656
 7253SOL    HW133392   1.890   2.341   3.417  0.0526  0.0167 -0.2966
 7253SOL    HW233393   1.810   2.331   3.539 -0.1965  0.7366  0.0253
 7254SOL     OW33394   3.734   0.539   2.938  0.0421 -0.0287 -0.7380
 7254SOL    HW133395   3.747   0.553   3.031 -0.7005  3.3557 -1.1370
 7254SOL    HW233396   3.638   0.535   2.937 -0.0097  1.2616 -0.2543
 7255SOL     OW33397   3.433   0.915   4.660  0.4651  0.3211 -0.3628
 7255SOL    HW133398   3.520   0.955   4.662 -0.1107  1.5646 -0.0684
 7255SOL    HW233399   3.453   0.859   4.585  1.7961 -0.4522  0.5766
 7256SOL     OW33400   2.529   2.414   1.081  1.0746  0.1796  0.2244
 7256SOL    HW133401   2.608   2.456   1.112  1.0377 -0.9062  1.7948
 7256SOL    HW233402   2.472   2.400   1.157 -0.4676  0.6199 -0.8298
 7257SOL     OW33403   2.847   3.109  10.205  0.1921 -0.3468 -0.1950
 7257SOL    HW133404   2.891   3.194  10.198 -0.4110 -0.1820 -2.0941
 7257SOL    HW233405   2.787   3.126  10.133  1.0534  1.4582 -0.4877
 7258SOL     OW33406   1.138   3.297   6.733 -0.1916 -0.0700  0.7270
 7258SOL    HW133407   1.162   3.252   6.814 -0.5645 -1.2926  0.1652
 7258SOL    HW233408   1.094   3.377   6.762 -3.0412 -0.4475 -2.5498
 7259SOL     OW33409   0.413   3.874  12.589  0.3214  0.1715  0.6562
 7259SOL    HW133410   0.320   3.889  12.571  0.1111 -0.9746  0.7936
 7259SOL    HW233411   0.433   3.803  12.527  3.3821  0.5629  1.2027
 7260SOL     OW33412   3.397   0.907  13.585  0.3463  0.3160 -0.4631
 7260SOL    HW133413   3.362   0.857  13.659 -1.1308 -0.9749 -2.0492
 7260SOL    HW233414   3.420   0.837  13.525  0.9808  0.3384 -0.2492
 7261SOL     OW33415   2.678   1.952   4.654 -0.3315  0.0692  0.3632
 7261SOL    HW133416   2.598   1.915   4.692 -1.7674  0.4013 -2.3172
 7261SOL    HW233417   2.732   1.970   4.730 -0.4349 -0.6708  0.6177
 7262SOL     OW33418   4.164   3.977   3.257 -0.1131  0.1788  0.2995
 7262SOL    HW133419   4.169   3.882   3.264  0.0573  0.1578 -0.0842
 7262SOL    HW233420   4.072   3.989   3.233  0.5703  2.1853 -1.3381
 7263SOL     OW33421   2.357   4.358   5.258 -0.2080 -0.2676  0.0636
 7263SOL    HW133422   2.307   4.290   5.303 -0.8725 -0.8984 -1.6418
 7263SOL    HW233423   2.410   4.299   5.204  0.3387 -0.1665  0.4947
 7264SOL     OW33424   2.613   1.339   4.163 -0.2936  0.1155 -0.6245
 7264SOL    HW133425   2.540   1.282   4.143 -0.4101 -0.4397  1.3446
 7264SOL    HW233426   2.641   1.369   4.077 -1.3816  0.9609 -0.6848
 7265SOL     OW33427   0.782   1.416   9.445 -0.4175 -0.6477  0.0400
 7265SOL    HW133428   0.876   1.426   9.459 -0.5597  1.5362 -0.5518
 7265SOL    HW233429   0.770   1.433   9.351 -0.5003 -1.6088 -0.1190
 7266SOL     OW33430   2.436   2.969  15.286  0.2258 -0.2041  0.0927
 7266SOL    HW133431   2.499   3.037  15.307 -2.1427  1.5607  1.4473
 7266SOL    HW233432   2.377   2.980  15.361 -0.1970  0.4957 -0.3462
 7267SOL     OW33433   4.353   2.653   8.375  0.0935 -0.0219 -0.0037
 7267SOL    HW133434   4.369   2.745   8.394 -0.5012  0.5246 -2.0767
 7267SOL    HW233435   4.415   2.632   8.305 -0.4243  0.4189 -0.6039
 7268SOL     OW33436   3.236   2.154   5.933  0.5454 -0.6322 -0.3873
 7268SOL    HW133437   3.216   2.116   6.019  1.6889  3.3644  1.6550
 7268SOL    HW233438   3.248   2.244   5.962  3.7750 -1.4974  1.0093
 7269SOL     OW33439   2.956   0.579  14.507 -0.1753 -0.8509 -0.6029
 7269SOL    HW133440   2.986   0.567  14.597 -0.0206  1.2246 -0.3751
 7269SOL    HW233441   2.908   0.497  14.493 -0.6535 -0.8720  1.0557
 7270SOL     OW33442   2.606   2.287   6.728  0.5166  0.7432  0.5081
 7270SOL    HW133443   2.695   2.282   6.693  0.7032  0.5527  1.0097
 7270SOL    HW233444   2.605   2.220   6.797  0.3389  2.0089  1.7310
 7271SOL     OW33445   4.723   2.120   7.449 -0.1668  0.3818  0.1663
 7271SOL    HW133446   4.711   2.215   7.455  0.0586  0.4804 -0.8838
 7271SOL    HW233447   4.658   2.077   7.504  1.1406 -3.0121 -0.9382
 7272SOL     OW33448   0.211   3.282   0.393 -0.1955  1.3377  0.0491
 7272SOL    HW133449   0.177   3.324   0.313  0.8249 -1.9709 -2.1183
 7272SOL    HW233450   0.267   3.349   0.432 -0.9662  1.8416  0.2932
 7273SOL     OW33451   2.728   1.264   9.005 -0.0159  0.1775 -0.4623
 7273SOL    HW133452   2.700   1.212   9.081  0.7240 -0.8209 -0.8670
 7273SOL    HW233453   2.648   1.309   8.978  0.1159  0.8725  0.2939
 7274SOL     OW33454   2.470   2.994   6.869 -0.8377 -0.3401 -0.1313
 7274SOL    HW133455   2.405   2.924   6.865 -1.4088  0.1979 -0.2515
 7274SOL    HW233456   2.411   3.065   6.845  1.3050  1.3457 -0.4001
 7275SOL     OW33457   4.532   3.989  16.742 -0.3419 -0.5552  0.0080
 7275SOL    HW133458   4.462   4.000  16.678  0.3279  1.2974 -0.3950
 7275SOL    HW233459   4.604   4.019  16.687 -1.2163  0.1797 -0.7467
 7276SOL     OW33460   3.439   0.069   9.251  0.0541 -0.2616 -0.0454
 7276SOL    HW133461   3.478   4.733   9.205  2.4803 -0.4677  2.3043
 7276SOL    HW233462   3.376   0.105   9.189  1.4054  1.0944 -0.6143
 7277SOL     OW33463   0.414   0.860  12.542  0.0177  0.6057  0.1715
 7277SOL    HW133464   0.342   0.880  12.482 -1.3182 -0.0506  1.5391
 7277SOL    HW233465   0.361   0.848  12.621  0.3634 -1.0615  0.1478
 7278SOL     OW33466   1.628   1.853   4.795  0.1731  0.0152 -0.2778
 7278SOL    HW133467   1.698   1.916   4.812 -2.1083  2.7593 -1.0722
 7278SOL    HW233468   1.666   1.786   4.852 -0.1457 -2.1156 -2.5470
 7279SOL     OW33469   4.307   2.629  13.119  0.0650 -0.2178 -0.0536
 7279SOL    HW133470   4.221   2.671  13.127  0.6357  0.7686  0.9357
 7279SOL    HW233471   4.353   2.664  13.196 -3.4404 -0.3620  2.0978
 7280SOL     OW33472   2.063   3.540  12.766  0.2034  0.5032 -0.2560
 7280SOL    HW133473   2.014   3.622  12.776 -1.6169 -0.5056 -0.8029
 7280SOL    HW233474   2.003   3.466  12.758  0.7098 -0.0282  0.8287
 7281SOL     OW33475   3.813   0.992   1.341  0.1982 -0.6910 -0.4951
 7281SOL    HW133476   3.863   0.912   1.323  1.7084  0.0850  0.2599
 7281SOL    HW233477   3.854   1.061   1.289 -0.4719 -0.3329 -0.5492
 7282SOL     OW33478   2.563   4.517  14.402  0.0939  0.0779  0.4858
 7282SOL    HW133479   2.645   4.564  14.416 -0.0581  0.2880  0.6670
 7282SOL    HW233480   2.526   4.556  14.481  0.8620  0.8699  0.4541
 7283SOL     OW33481   3.290   2.968   5.670  0.2287 -0.0519  0.0987
 7283SOL    HW133482   3.235   2.947   5.745 -0.9760  0.6895 -0.5771
 7283SOL    HW233483   3.222   2.998   5.610  0.1706  1.2022  0.7949
 7284SOL     OW33484   0.102   4.531   3.467  0.5877  0.1332  0.0957
 7284SOL    HW133485   0.017   4.572   3.454  0.4353 -0.4692 -0.8344
 7284SOL    HW233486   0.099   4.478   3.387  0.4731 -0.3129  0.3993
 7285SOL     OW33487   1.783   2.508  17.343  0.0488  0.3182 -0.2225
 7285SOL    HW133488   1.843   2.464  17.403 -1.1256 -0.1892  0.5631
 7285SOL    HW233489   1.837   2.584  17.321 -0.7569  0.8237 -0.4260
 7286SOL     OW33490   2.283   1.285   1.131  0.4902 -0.3128 -0.0533
 7286SOL    HW133491   2.312   1.323   1.048  1.6230 -2.3167 -0.5722
 7286SOL    HW233492   2.303   1.195   1.105 -0.6912 -0.9121  1.1115
 7287SOL     OW33493   3.233   4.271   2.247  0.2680 -0.1290 -0.0169
 7287SOL    HW133494   3.273   4.196   2.291 -0.4467  0.3640  1.4686
 7287SOL    HW233495   3.276   4.261   2.162  1.8772 -2.9110  1.0936
 7288SOL     OW33496   0.852   3.294   8.109 -0.1870  0.0721  0.3963
 7288SOL    HW133497   0.880   3.327   8.024 -0.2253  0.1014  0.3951
 7288SOL    HW233498   0.940   3.276   8.143 -1.1180 -4.6871  0.2803
 7289SOL     OW33499   3.570   3.664   8.344  0.1142  0.1930 -0.0439
 7289SOL    HW133500   3.565   3.634   8.253  0.0607 -2.5032  0.8703
 7289SOL    HW233501   3.478   3.662   8.372  1.0255  0.6960  2.9312
 7290SOL     OW33502   0.168   0.124   2.581 -0.1210  0.6748 -0.1552
 7290SOL    HW133503   0.146   0.163   2.666  0.9207  0.6199  0.1317
 7290SOL    HW233504   0.212   0.045   2.613  0.2398 -0.3919 -3.2751
 7291SOL     OW33505   3.012   1.184  14.723  0.0569 -0.1708  0.0050
 7291SOL    HW133506   3.096   1.141  14.739  0.9590  1.6438  0.0731
 7291SOL    HW233507   3.021   1.271  14.761 -1.2591  1.0644 -2.5184
 7292SOL     OW33508   2.081   0.459   4.614  0.7710  0.1928 -0.1411
 7292SOL    HW133509   2.009   0.404   4.646  0.6241 -0.3484 -1.4391
 7292SOL    HW233510   2.118   0.500   4.692  1.3238 -1.4203  0.4386
 7293SOL     OW33511   0.326   1.879   2.661 -0.4323  0.5145  0.4716
 7293SOL    HW133512   0.266   1.917   2.597 -0.1617 -0.3850 -0.3213
 7293SOL    HW233513   0.369   1.958   2.692  1.1609 -0.4529  0.7323
 7294SOL     OW33514   0.893   3.781   6.160  0.1347  0.2913 -0.2992
 7294SOL    HW133515   0.957   3.742   6.220 -0.9011 -0.3913  0.3641
 7294SOL    HW233516   0.932   3.750   6.078  1.1782 -0.1743  0.3794
 7295SOL     OW33517   4.189   2.634   1.986  0.9342  0.0723 -0.4183
 7295SOL    HW133518   4.150   2.698   1.927  1.7769 -0.6195 -1.7307
 7295SOL    HW233519   4.123   2.566   1.999  0.9028  0.4358  1.2298
 7296SOL     OW33520   1.087   3.889   8.572 -0.1734  0.3211 -0.8607
 7296SOL    HW133521   1.110   3.797   8.585  0.6939  0.5530 -0.7445
 7296SOL    HW233522   1.041   3.923   8.648 -2.9129 -3.2177 -0.9262
 7297SOL     OW33523   1.909   2.437   4.695  0.6395 -0.5483 -0.0290
 7297SOL    HW133524   1.824   2.459   4.656  1.2074 -1.4733 -1.8182
 7297SOL    HW233525   1.936   2.525   4.669  0.9766 -0.7685 -0.4276
 7298SOL     OW33526   3.770   2.836   6.717  0.7850 -0.1362  0.2035
 7298SOL    HW133527   3.825   2.894   6.666  0.7004  1.0976  1.5256
 7298SOL    HW233528   3.839   2.780   6.754  1.8934  0.4926 -0.9150
 7299SOL     OW33529   1.044   4.393   4.174 -0.2874 -0.0809  0.4961
 7299SOL    HW133530   1.124   4.371   4.223 -0.7853 -0.8580  0.9523
 7299SOL    HW233531   1.069   4.389   4.082 -0.4161  0.7787  0.4238
 7300SOL     OW33532   1.115   0.038  13.421  0.4978  0.1884  0.1851
 7300SOL    HW133533   1.089   0.019  13.331 -1.6159  3.0049  0.2048
 7300SOL    HW233534   1.143   0.128  13.404 -1.1870  1.0295  1.9042
 7301SOL     OW33535   2.221   0.416   9.663 -0.0025  0.0674 -0.0915
 7301SOL    HW133536   2.195   0.507   9.649 -0.5930  0.3344  2.6155
 7301SOL    HW233537   2.172   0.379   9.590 -0.1839  1.6852 -0.7736
 7302SOL     OW33538   1.641   1.042  14.310  0.4774 -0.1537 -0.0536
 7302SOL    HW133539   1.572   1.096  14.350  1.1544  1.2764 -0.7993
 7302SOL    HW233540   1.640   0.975  14.378 -0.3545 -0.5869 -0.4859
 7303SOL     OW33541   3.591   2.204   6.221  0.1300 -0.0619 -0.0523
 7303SOL    HW133542   3.587   2.264   6.146  2.1533  1.0742  0.7417
 7303SOL    HW233543   3.672   2.235   6.262 -0.8375  3.1904 -0.5561
 7304SOL     OW33544   0.899   0.442   5.780  0.1773 -0.9856 -0.9662
 7304SOL    HW133545   0.909   0.453   5.685 -0.9333  0.0818 -0.9579
 7304SOL    HW233546   0.843   0.517   5.802 -0.4276 -1.3275 -1.3524
 7305SOL     OW33547   0.243   1.659  15.009 -0.4529 -0.7639  0.6025
 7305SOL    HW133548   0.269   1.589  14.949  0.5019 -0.4658  0.6676
 7305SOL    HW233549   0.157   1.631  15.040 -1.4608  0.8928 -0.6872
 7306SOL     OW33550   4.462   1.709   4.298  0.2518 -0.1964 -0.2271
 7306SOL    HW133551   4.372   1.704   4.267  0.7490 -0.5246 -1.5954
 7306SOL    HW233552   4.492   1.624   4.267 -0.8848 -0.2505 -1.1896
 7307SOL     OW33553   3.085   1.467   4.591  0.0967  0.0766 -0.2636
 7307SOL    HW133554   3.066   1.559   4.612  0.0050  0.2137 -0.9697
 7307SOL    HW233555   3.029   1.439   4.519  0.2097 -0.7562 -0.0282
 7308SOL     OW33556   2.148   4.179   1.864 -0.4230  0.6256 -1.0740
 7308SOL    HW133557   2.063   4.199   1.824 -1.1757 -1.3736 -0.5043
 7308SOL    HW233558   2.134   4.187   1.959 -2.6580 -1.6188 -1.2252
 7309SOL     OW33559   0.292   4.555   6.133 -0.4056 -0.1889  0.2432
 7309SOL    HW133560   0.329   4.469   6.113  3.0894  0.7873  2.6640
 7309SOL    HW233561   0.362   4.610   6.099 -1.4207  1.3113  0.6074
 7310SOL     OW33562   4.389   3.269   3.247  0.4688  0.8867  0.4628
 7310SOL    HW133563   4.461   3.209   3.268 -1.0810 -0.8550  0.7732
 7310SOL    HW233564   4.385   3.316   3.330 -0.9348 -0.5712  1.2073
 7311SOL     OW33565   1.827   3.894   2.566 -0.3532 -0.1051  0.1980
 7311SOL    HW133566   1.813   3.984   2.594  1.3270  0.4196 -0.6354
 7311SOL    HW233567   1.769   3.905   2.491 -1.5086  0.1493  1.1257
 7312SOL     OW33568   2.915   3.905  16.039  0.1744  0.3598 -0.3155
 7312SOL    HW133569   2.881   3.991  16.011 -0.3852  0.3418  0.2920
 7312SOL    HW233570   2.862   3.840  15.993 -1.0387  1.3475 -0.3137
 7313SOL     OW33571   4.699   2.210   5.670 -0.8948 -0.1647 -0.2666
 7313SOL    HW133572   4.672   2.212   5.761 -2.3832  0.4609 -0.7223
 7313SOL    HW233573   0.049   2.246   5.673 -1.4221  0.9645  1.4746
 7314SOL     OW33574   1.174   4.118   4.207  0.1959  0.0706  0.5707
 7314SOL    HW133575   1.198   4.194   4.261 -0.4221 -1.0577  2.4192
 7314SOL    HW233576   1.246   4.100   4.147  0.1738  0.7724  0.3286
 7315SOL     OW33577   2.208   1.008   4.102 -0.0514  0.0285 -0.0777
 7315SOL    HW133578   2.180   0.935   4.046  0.3174  1.0098 -1.5579
 7315SOL    HW233579   2.125   1.031   4.143  1.1803  1.0143  1.8535
 7316SOL     OW33580   3.859   3.341  10.207  0.1349 -0.2949  0.3590
 7316SOL    HW133581   3.913   3.398  10.153  0.5065 -0.5123  0.5015
 7316SOL    HW233582   3.770   3.378  10.206  1.1149  1.9850 -1.5548
 7317SOL     OW33583   1.971   1.436   4.386  0.0616  0.2242 -0.4139
 7317SOL    HW133584   2.033   1.486   4.439 -0.0891  0.7790 -0.7701
 7317SOL    HW233585   1.897   1.495   4.377 -0.3375 -0.1740  0.2476
 7318SOL     OW33586   1.237   2.370   2.587  0.5797  0.1836 -0.4501
 7318SOL    HW133587   1.266   2.287   2.551  0.6153 -0.9248  2.1452
 7318SOL    HW233588   1.309   2.388   2.648 -0.3476  0.0574  0.6770
 7319SOL     OW33589   0.947   1.137   6.931  0.5112 -0.0401  0.2094
 7319SOL    HW133590   1.029   1.109   6.890  1.2755 -2.0985  3.1509
 7319SOL    HW233591   0.918   1.205   6.871  0.1824 -1.7516 -1.5690
 7320SOL     OW33592   4.667   4.215   9.595  0.6324  0.5281 -0.7108
 7320SOL    HW133593   0.015   4.193   9.563  0.5446  1.0737 -1.3253
 7320SOL    HW233594   4.686   4.221   9.689  0.4986  0.2397 -0.6627
 7321SOL     OW33595   2.763   2.060   5.583  0.2674 -0.7486  0.5059
 7321SOL    HW133596   2.838   2.027   5.633 -0.9659 -0.2197  2.6735
 7321SOL    HW233597   2.789   2.150   5.562  0.3526 -1.1815 -1.2399
 7322SOL     OW33598   3.488   1.688   7.240 -0.2538  0.1432 -0.1076
 7322SOL    HW133599   3.469   1.781   7.255  2.5636  0.9878 -1.8350
 7322SOL    HW233600   3.582   1.696   7.221 -0.6188 -1.1686 -2.3953
 7323SOL     OW33601   0.301   3.818   8.134  0.3444 -0.0346 -0.0659
 7323SOL    HW133602   0.246   3.741   8.119  0.0961  0.1095  0.1078
 7323SOL    HW233603   0.377   3.790   8.184 -0.1693  0.7419  1.1525
 7324SOL     OW33604   4.513   3.711   9.033 -0.2867 -1.2319  0.3399
 7324SOL    HW133605   4.554   3.795   9.051 -1.6278 -0.5553  0.2201
 7324SOL    HW233606   4.592   3.673   8.994  0.5221  0.4492  0.3850
 7325SOL     OW33607   3.454   0.697  12.297 -0.0265 -0.0953 -0.1701
 7325SOL    HW133608   3.509   0.622  12.319  0.4144  0.1766 -0.3458
 7325SOL    HW233609   3.511   0.774  12.301 -1.8338  1.2619 -0.1413
 7326SOL     OW33610   2.966   1.746   2.694  0.2947 -0.0977 -0.0251
 7326SOL    HW133611   2.950   1.759   2.787  0.7718 -2.2731  0.3455
 7326SOL    HW233612   2.881   1.724   2.656  0.3446 -0.8129  0.2845
 7327SOL     OW33613   2.032   3.282   0.874  0.2141 -0.0553  0.1838
 7327SOL    HW133614   2.034   3.199   0.921 -2.3482  0.2421  0.8218
 7327SOL    HW233615   2.123   3.306   0.895 -0.8152  1.4120  2.9745
 7328SOL     OW33616   0.875   1.744   5.778  0.2240 -0.0123 -0.0256
 7328SOL    HW133617   0.950   1.723   5.722 -0.8202 -0.4741 -1.2693
 7328SOL    HW233618   0.873   1.662   5.826 -0.3588  0.9655  1.6282
 7329SOL     OW33619   3.716   4.550  16.619 -0.3674  0.0303 -0.2823
 7329SOL    HW133620   3.707   4.626  16.677 -2.3970  0.5575 -1.2936
 7329SOL    HW233621   3.668   4.482  16.666 -1.3964  0.7721 -0.2549
 7330SOL     OW33622   0.383   4.545   3.511  0.4799  0.3840  0.4032
 7330SOL    HW133623   0.295   4.522   3.482  0.1317  0.4489  1.4284
 7330SOL    HW233624   0.413   4.608   3.446 -2.1240  0.8474 -0.3322
 7331SOL     OW33625   4.648   4.070   8.398  0.5582  0.1864  0.2408
 7331SOL    HW133626   4.631   4.003   8.332 -0.5187  0.7359 -0.0410
 7331SOL    HW233627   4.571   4.126   8.386 -0.1014 -0.9890 -1.0593
 7332SOL     OW33628   0.186   3.835   0.516 -0.2022 -0.2999 -0.2360
 7332SOL    HW133629   0.175   3.742   0.493  1.8129 -0.7415  0.5294
 7332SOL    HW233630   0.135   3.838   0.597 -1.2453 -0.3988 -0.8901
 7333SOL     OW33631   2.347   3.883   4.791 -0.1019 -0.2146  0.1543
 7333SOL    HW133632   2.348   3.951   4.724  1.6134  1.7029  2.0887
 7333SOL    HW233633   2.433   3.885   4.834 -0.0470 -1.2066  0.1022
 7334SOL     OW33634   2.580   2.558   3.033  0.4268 -0.2538  0.6087
 7334SOL    HW133635   2.597   2.472   2.996  0.9266  0.0170  0.2022
 7334SOL    HW233636   2.495   2.535   3.071 -1.1790  2.8109 -1.0866
 7335SOL     OW33637   3.721   4.667   9.426 -0.1638  0.6585 -0.0260
 7335SOL    HW133638   3.731   4.627   9.512 -0.4174  1.5470  0.4182
 7335SOL    HW233639   3.642   4.625   9.391 -0.5478  1.2942  0.0877
 7336SOL     OW33640   0.247   2.962   4.989 -0.3025 -0.3783 -0.3980
 7336SOL    HW133641   0.268   2.920   5.072 -0.7666 -2.1682 -1.1875
 7336SOL    HW233642   0.322   2.933   4.937 -0.2329 -1.6771  0.4369
 7337SOL     OW33643   0.172   4.197   6.889  0.7408 -0.0980 -0.5634
 7337SOL    HW133644   0.160   4.288   6.917  0.4419  0.3202 -2.0175
 7337SOL    HW233645   0.195   4.156   6.972  0.6401  0.6403 -0.1674
 7338SOL     OW33646   4.311   0.474  17.428  0.3111  0.2834  0.3485
 7338SOL    HW133647   4.272   0.552  17.389 -2.1090 -0.9114  0.3747
 7338SOL    HW233648   4.289   0.492  17.520 -1.8166 -3.9763  0.6676
 7339SOL     OW33649   2.826   0.368  16.179  0.0802  0.1591  0.4533
 7339SOL    HW133650   2.822   0.294  16.118  0.3773  0.4845  0.0361
 7339SOL    HW233651   2.832   0.318  16.260  0.0586 -0.7901 -0.1359
 7340SOL     OW33652   3.898   1.903   9.296 -0.8941 -0.1757 -0.2029
 7340SOL    HW133653   3.812   1.940   9.317 -1.6682 -1.6629 -0.7364
 7340SOL    HW233654   3.910   1.866   9.383 -1.9474 -1.8148 -0.7523
 7341SOL     OW33655   0.771   2.033   9.296 -0.0703  0.0899 -0.1161
 7341SOL    HW133656   0.737   2.108   9.247  0.5343  0.6483  0.3236
 7341SOL    HW233657   0.700   1.971   9.283 -0.2711 -0.0619  1.6923
 7342SOL     OW33658   2.499   2.508  10.891 -0.3889  0.2304 -0.0587
 7342SOL    HW133659   2.594   2.501  10.889 -0.3491  0.7424 -0.0149
 7342SOL    HW233660   2.470   2.469  10.809 -2.3584 -0.9428  1.1739
 7343SOL     OW33661   3.224   1.480   9.874  0.0017  0.4154 -0.2439
 7343SOL    HW133662   3.186   1.535   9.944 -1.1686  0.5579 -0.9826
 7343SOL    HW233663   3.143   1.467   9.824 -0.2745  0.3972  0.1985
 7344SOL     OW33664   1.294   4.255   6.438  0.1115  0.0784 -0.0841
 7344SOL    HW133665   1.385   4.229   6.455  1.0429  2.8189 -0.9077
 7344SOL    HW233666   1.295   4.225   6.347  0.8398  1.8544 -0.6512
 7345SOL     OW33667   2.323   2.045   6.276 -0.0573  0.2196 -0.3972
 7345SOL    HW133668   2.370   2.082   6.202  0.3686  0.0913 -0.1881
 7345SOL    HW233669   2.232   2.044   6.245  0.0628 -0.0561 -0.7390
 7346SOL     OW33670   2.066   2.465   6.173  0.5744  0.3179  0.1491
 7346SOL    HW133671   2.096   2.415   6.097 -0.4841 -0.7327  0.4249
 7346SOL    HW233672   2.143   2.461   6.230 -0.2914 -2.1129  1.1062
 7347SOL     OW33673   3.836   1.011   3.370  0.3815 -0.1678 -0.1957
 7347SOL    HW133674   3.865   0.923   3.343  1.0081 -0.2148  0.6572
 7347SOL    HW233675   3.826   1.039   3.279  0.2689  0.4070 -0.0064
 7348SOL     OW33676   3.374   4.061   8.993 -0.3356 -0.1622 -0.3834
 7348SOL    HW133677   3.426   4.066   9.074 -1.0934  1.1704  0.0318
 7348SOL    HW233678   3.372   3.967   8.974 -0.3026  0.2776 -2.5617
 7349SOL     OW33679   1.792   4.651   6.956 -0.0013  0.0529 -0.2747
 7349SOL    HW133680   1.727   4.704   6.911  0.5335  0.0759 -1.0115
 7349SOL    HW233681   1.744   4.568   6.947  0.0195  0.1560 -1.2995
 7350SOL     OW33682   0.919   0.468   3.751  0.3891 -0.3814 -0.5112
 7350SOL    HW133683   0.929   0.443   3.659 -0.7898 -1.1610 -0.4245
 7350SOL    HW233684   0.965   0.392   3.787 -0.1885 -0.5433 -0.1181
 7351SOL     OW33685   3.568   2.397   0.911 -0.2067 -0.8971 -0.1564
 7351SOL    HW133686   3.509   2.418   0.839 -1.5946  0.6709  1.4625
 7351SOL    HW233687   3.627   2.471   0.922  0.9973 -2.1379  1.7834
 7352SOL     OW33688   2.370   2.912   2.363  0.0158 -0.6619 -0.3369
 7352SOL    HW133689   2.448   2.857   2.370  0.3741 -0.0004  0.8802
 7352SOL    HW233690   2.385   2.982   2.426 -0.4475 -0.8398 -0.0312
 7353SOL     OW33691   1.887   0.808   2.606 -0.3505 -0.2561 -0.1232
 7353SOL    HW133692   1.852   0.751   2.537 -1.7720  1.2121 -0.6118
 7353SOL    HW233693   1.824   0.787   2.675  0.1276  0.3629  0.5042
 7354SOL     OW33694   2.573   2.812   8.498 -0.0816  0.2099 -0.4235
 7354SOL    HW133695   2.633   2.878   8.532 -1.6050  2.5317 -2.2188
 7354SOL    HW233696   2.624   2.732   8.513 -1.1640 -0.4508 -0.2652
 7355SOL     OW33697   1.619   2.141  16.919  0.3821  0.3187  0.2072
 7355SOL    HW133698   1.599   2.097  17.001 -0.8719  1.5021  0.5274
 7355SOL    HW233699   1.715   2.133  16.917  0.4082  0.6574  0.2222
 7356SOL     OW33700   1.529   4.738   5.945 -0.2354  0.4000  0.1301
 7356SOL    HW133701   1.444   4.715   5.906 -0.5472 -0.7675  1.4904
 7356SOL    HW233702   1.556   4.662   5.997  0.2563  0.5985  0.1614
 7357SOL     OW33703   0.291   1.575   4.061  0.3426 -0.2496  0.5266
 7357SOL    HW133704   0.283   1.484   4.033  0.6365 -0.0024 -0.3275
 7357SOL    HW233705   0.320   1.569   4.152  1.2123 -2.1738  0.1327
 7358SOL     OW33706   0.058   3.811   0.734 -0.8975  0.0664  0.5950
 7358SOL    HW133707   4.710   3.771   0.743 -0.5107 -0.9399 -0.1581
 7358SOL    HW233708   0.092   3.815   0.823  1.3605  0.6921 -0.2818
 7359SOL     OW33709   0.593   1.079  16.569 -0.2939 -0.7182  0.2924
 7359SOL    HW133710   0.657   1.150  16.574 -2.0554  0.6981  2.8982
 7359SOL    HW233711   0.648   1.001  16.566  3.2236  1.7328  1.0630
 7360SOL     OW33712   0.714   3.812   5.439  0.8563  0.4462 -0.0216
 7360SOL    HW133713   0.764   3.781   5.363  1.3591 -0.5306  0.7133
 7360SOL    HW233714   0.676   3.735   5.481  1.8650 -0.6105 -1.0268
 7361SOL     OW33715   1.070   1.333   8.144 -0.1105 -0.0210  0.0359
 7361SOL    HW133716   1.024   1.336   8.060 -0.1551 -0.1799  0.0548
 7361SOL    HW233717   1.157   1.356   8.111  0.2154 -1.1591  0.1344
 7362SOL     OW33718   0.242   2.461   3.951 -0.4195  0.3273  0.1695
 7362SOL    HW133719   0.162   2.457   4.003 -1.2353  0.0681 -1.1195
 7362SOL    HW233720   0.265   2.370   3.934 -1.1110  0.4800 -1.5396
 7363SOL     OW33721   4.378   1.732   8.398 -0.2073 -0.2491 -0.5274
 7363SOL    HW133722   4.306   1.744   8.336 -0.2756 -0.2173 -0.4411
 7363SOL    HW233723   4.348   1.658   8.450  0.8976 -1.3192 -1.4190
 7364SOL     OW33724   2.112   4.731   8.335 -0.4266  0.0074  0.4472
 7364SOL    HW133725   2.182   0.057   8.321  1.7003 -2.2648  0.4861
 7364SOL    HW233726   2.101   4.705   8.243 -0.2066  0.3393  0.3222
 7365SOL     OW33727   3.571   0.599   8.769 -0.0490  0.1485 -0.1533
 7365SOL    HW133728   3.550   0.522   8.717  0.4937  0.8358 -1.4266
 7365SOL    HW233729   3.618   0.560   8.843  0.8688 -2.4316 -2.1050
 7366SOL     OW33730   2.971   0.098   8.683  0.1925  0.0250  0.2040
 7366SOL    HW133731   2.964   0.167   8.617 -1.5828 -0.9473 -0.6148
 7366SOL    HW233732   2.891   0.124   8.728 -1.7859 -1.5577 -2.3968
 7367SOL     OW33733   4.701   0.222   4.578  0.3853  0.4078  0.4452
 7367SOL    HW133734   0.055   0.238   4.559  0.1705 -0.1207 -1.0176
 7367SOL    HW233735   4.661   0.296   4.534 -0.1020 -0.2925 -0.2733
 7368SOL     OW33736   0.752   0.614   6.429 -0.0772  0.0617  1.0102
 7368SOL    HW133737   0.827   0.654   6.474  0.4775 -1.1895  1.2011
 7368SOL    HW233738   0.697   0.578   6.498 -1.1018 -0.8721 -0.2907
 7369SOL     OW33739   4.231   2.607   8.115 -0.0060  0.0427  0.1124
 7369SOL    HW133740   4.280   2.529   8.089  0.3442 -1.1447  4.3517
 7369SOL    HW233741   4.231   2.603   8.211 -2.9419  0.7306  0.1306
 7370SOL     OW33742   4.693   0.062   6.240 -0.6899 -0.3525  0.3424
 7370SOL    HW133743   4.728   0.017   6.162 -1.2554  1.0959 -0.7297
 7370SOL    HW233744   0.036   0.079   6.287  0.8440  0.4301 -2.6299
 7371SOL     OW33745   2.860   4.213  17.360 -0.4839 -0.4313  0.0522
 7371SOL    HW133746   2.915   4.210  17.438  1.3334 -1.2196 -1.2741
 7371SOL    HW233747   2.892   4.138  17.311 -1.6958 -0.0488 -1.3199
 7372SOL     OW33748   3.194   4.304   2.919  0.0073  0.1459 -0.5875
 7372SOL    HW133749   3.099   4.294   2.915 -0.2202  1.9256  0.3678
 7372SOL    HW233750   3.209   4.376   2.857 -1.0843 -0.3204 -1.4040
 7373SOL     OW33751   1.992   3.263  11.528 -0.3485 -0.0942  0.4890
 7373SOL    HW133752   1.926   3.201  11.496  1.6629 -0.6763 -2.5562
 7373SOL    HW233753   2.076   3.222  11.507 -1.1047  0.1327 -3.0288
 7374SOL     OW33754   2.414   3.336  12.089  0.0298  0.0648 -0.1613
 7374SOL    HW133755   2.388   3.358  12.178  0.3641 -0.8279  0.1552
 7374SOL    HW233756   2.509   3.346  12.103  0.2389  1.9577 -2.9174
 7375SOL     OW33757   4.499   3.727   0.456 -0.1793 -0.7458 -0.4543
 7375SOL    HW133758   4.584   3.692   0.480  0.3816  1.4186  0.6327
 7375SOL    HW233759   4.507   3.731   0.360  0.7816  0.2053 -0.3202
 7376SOL     OW33760   1.504   3.616   4.950  0.0972  0.2751 -0.2566
 7376SOL    HW133761   1.450   3.557   5.003 -0.5214  0.5862 -0.5351
 7376SOL    HW233762   1.510   3.698   4.999  0.7608 -0.3213  0.6513
 7377SOL     OW33763   0.839   0.603  14.680  0.6091  0.1727  0.3060
 7377SOL    HW133764   0.809   0.601  14.589  0.0794 -1.0233  0.5015
 7377SOL    HW233765   0.864   0.512  14.696 -1.7044 -0.3109  1.2393
 7378SOL     OW33766   0.892   2.046   8.675 -0.3083 -0.0564 -0.9597
 7378SOL    HW133767   0.943   2.118   8.638  1.6449 -0.3047  1.3009
 7378SOL    HW233768   0.844   2.017   8.597 -1.0255  1.2747 -1.0089
 7379SOL     OW33769   1.354   2.936  15.589  0.1312  0.2397 -0.3925
 7379SOL    HW133770   1.415   2.963  15.520 -0.7025 -0.0584 -1.2532
 7379SOL    HW233771   1.412   2.883  15.645 -2.9774 -0.9214  1.6830
 7380SOL     OW33772   2.926   1.114   8.710  0.3362  0.3371  0.3865
 7380SOL    HW133773   2.940   1.182   8.777 -0.4469 -1.0478  1.9729
 7380SOL    HW233774   2.995   1.050   8.729 -0.7912 -0.6651  1.1615
 7381SOL     OW33775   3.335   1.772   4.191  0.1447  0.0432  1.0123
 7381SOL    HW133776   3.382   1.742   4.113  1.5296  0.5652  1.6592
 7381SOL    HW233777   3.359   1.863   4.207  1.2284  0.0058 -0.3515
 7382SOL     OW33778   2.239   1.780  16.987  0.2162 -0.4330 -0.1185
 7382SOL    HW133779   2.315   1.757  16.935  1.4279  1.3742  0.8572
 7382SOL    HW233780   2.249   1.713  17.055 -2.2766 -3.1801 -2.4449
 7383SOL     OW33781   2.524   1.601  17.128  0.3435  0.1196 -0.2092
 7383SOL    HW133782   2.545   1.586  17.220 -0.6835  1.5018  0.2487
 7383SOL    HW233783   2.520   1.696  17.134 -3.0933 -0.0417  0.0730
 7384SOL     OW33784   3.681   1.373   0.262  0.0811  0.0511 -0.5830
 7384SOL    HW133785   3.709   1.447   0.209 -0.9510  2.3052  2.0442
 7384SOL    HW233786   3.764   1.324   0.262 -0.3527 -0.6807 -1.5419
 7385SOL     OW33787   1.391   0.894   8.995 -0.5464  0.0618 -0.4198
 7385SOL    HW133788   1.337   0.964   8.959  1.6373  2.1747  0.4015
 7385SOL    HW233789   1.484   0.909   8.974  0.1326  0.4717  2.7647
 7386SOL     OW33790   1.204   1.564   3.707  0.0072 -0.3002 -0.5229
 7386SOL    HW133791   1.276   1.575   3.770  0.4534 -1.3515 -0.8466
 7386SOL    HW233792   1.189   1.473   3.735  1.5430 -0.0432  1.1711
 7387SOL     OW33793   0.199   2.237   4.157  0.1870 -0.2401  0.0881
 7387SOL    HW133794   0.250   2.211   4.081 -0.2082 -0.7429 -0.0091
 7387SOL    HW233795   0.138   2.163   4.152  2.0557 -1.8727  1.1396
 7388SOL     OW33796   2.551   0.232   9.040 -0.4766 -0.3237  0.1021
 7388SOL    HW133797   2.540   0.303   8.977 -1.4670  0.8690  1.6369
 7388SOL    HW233798   2.498   0.262   9.114 -0.8207 -1.0057  0.1347
 7389SOL     OW33799   1.476   2.363  14.652 -0.5153 -0.3814  0.0959
 7389SOL    HW133800   1.429   2.443  14.678 -1.4877 -0.1527 -2.4188
 7389SOL    HW233801   1.554   2.364  14.707 -0.7062 -0.9835  0.3730
 7390SOL     OW33802   0.020   2.765   3.734  0.3428  0.2032 -0.1316
 7390SOL    HW133803   0.099   2.713   3.747  1.1083  1.5455  0.6278
 7390SOL    HW233804   0.042   2.848   3.777  1.1698  0.9750 -2.0777
 7391SOL     OW33805   3.576   1.942   5.328 -0.7109 -0.1085 -0.0883
 7391SOL    HW133806   3.553   1.858   5.287  0.5143 -0.4503 -0.0763
 7391SOL    HW233807   3.658   1.952   5.280 -0.8801  0.7968 -0.1939
 7392SOL     OW33808   0.004   0.572   3.716 -0.1136  0.2655  0.0461
 7392SOL    HW133809   4.703   0.493   3.679  2.3190 -1.0506  0.2079
 7392SOL    HW233810   0.095   0.575   3.686 -0.7650  0.6508 -1.8726
 7393SOL     OW33811   0.291   1.756   7.841  0.0319 -0.0690 -0.0248
 7393SOL    HW133812   0.257   1.845   7.837  0.9990  0.3836  1.6382
 7393SOL    HW233813   0.381   1.769   7.873  0.1674 -0.5459 -0.2149
 7394SOL     OW33814   1.073   4.129   3.676 -0.0073  0.0065 -0.1880
 7394SOL    HW133815   1.130   4.184   3.622  1.5954 -1.5706 -0.1097
 7394SOL    HW233816   1.130   4.056   3.699  0.4609  0.9048  1.4944
 7395SOL     OW33817   3.082   4.458   6.429  0.0743  0.0963 -0.0830
 7395SOL    HW133818   3.023   4.383   6.429  0.3667 -0.1231 -1.0438
 7395SOL    HW233819   3.072   4.486   6.338  0.0438  0.3915  0.0106
 7396SOL     OW33820   4.245   3.380   9.918  0.1101  0.2459  0.4696
 7396SOL    HW133821   4.254   3.475   9.913 -0.2936  0.1894 -1.1831
 7396SOL    HW233822   4.292   3.362   9.999 -1.3340 -3.3501  0.5573
 7397SOL     OW33823   3.774   1.372  11.479 -0.4535 -0.3554  0.1365
 7397SOL    HW133824   3.744   1.458  11.451 -2.6858 -1.0736  0.3764
 7397SOL    HW233825   3.867   1.388  11.496 -1.3929  1.0132  3.9286
 7398SOL     OW33826   2.072   2.561   6.918 -0.7379  0.0143  0.0680
 7398SOL    HW133827   2.152   2.546   6.868  0.2683 -0.0895  1.7231
 7398SOL    HW233828   2.093   2.639   6.968  1.1644 -1.2473  1.2173
 7399SOL     OW33829   1.176   0.805   7.053  0.0298  0.0894 -0.1520
 7399SOL    HW133830   1.195   0.877   7.113 -0.5235 -0.6006  0.8443
 7399SOL    HW233831   1.262   0.776   7.022  0.5205  0.8582  0.5085
 7400SOL     OW33832   3.456   2.326   7.994 -0.4202  0.5475  0.0539
 7400SOL    HW133833   3.400   2.252   7.974  0.7424 -0.4075  0.2876
 7400SOL    HW233834   3.472   2.354   7.904 -1.2884 -2.0441 -0.8752
 7401SOL     OW33835   4.170   2.756   3.213 -0.2163 -0.1725  0.3330
 7401SOL    HW133836   4.078   2.761   3.187 -0.6141 -1.3252  1.5265
 7401SOL    HW233837   4.167   2.663   3.234  1.0786 -0.4213 -0.5958
 7402SOL     OW33838   0.348   3.771   9.343  0.2385 -0.0264  0.2373
 7402SOL    HW133839   0.254   3.783   9.355  0.1342 -0.8336  0.2682
 7402SOL    HW233840   0.358   3.735   9.254  0.6619 -0.1839  0.3464
 7403SOL     OW33841   0.269   2.109  12.961  0.7109  0.1487  0.6426
 7403SOL    HW133842   0.210   2.171  12.917  0.7382 -0.6993 -0.5996
 7403SOL    HW233843   0.203   2.040  12.973  1.7483 -1.1900 -1.3092
 7404SOL     OW33844   1.045   1.284   6.571 -0.3876  0.2132 -0.1652
 7404SOL    HW133845   1.017   1.201   6.533 -0.8168 -0.8709  2.5252
 7404SOL    HW233846   0.991   1.291   6.650  0.3206  0.1477  0.3255
 7405SOL     OW33847   3.826   0.689   2.285 -0.3576 -0.1228 -0.0233
 7405SOL    HW133848   3.893   0.649   2.341 -0.4982 -0.7796 -0.3274
 7405SOL    HW233849   3.785   0.613   2.243  1.1028 -1.2913  0.6305
 7406SOL     OW33850   4.734   3.104   0.376  0.0121 -0.3284 -0.6878
 7406SOL    HW133851   0.037   3.037   0.429  0.3864 -0.4153 -1.0954
 7406SOL    HW233852   0.072   3.154   0.352 -1.2747  1.0340 -2.0529
 7407SOL     OW33853   4.192   0.876   9.353 -0.2703 -0.8999  1.0365
 7407SOL    HW133854   4.101   0.860   9.330 -0.9787  0.5689  2.8578
 7407SOL    HW233855   4.214   0.852   9.262  0.2559 -0.5148  1.0634
 7408SOL     OW33856   4.058   4.148   9.771 -1.0141  0.1104 -0.5401
 7408SOL    HW133857   3.998   4.221   9.785 -1.1758 -0.3512  1.0930
 7408SOL    HW233858   4.065   4.149   9.675  2.0049 -0.4561 -0.3335
 7409SOL     OW33859   2.599   1.888   2.733 -0.5725 -0.2276 -0.4786
 7409SOL    HW133860   2.515   1.924   2.705  0.4831  1.9450 -0.8236
 7409SOL    HW233861   2.579   1.861   2.822  0.0121  0.0986 -0.2522
 7410SOL     OW33862   0.830   3.686   8.583 -0.1455 -0.0433  0.1373
 7410SOL    HW133863   0.889   3.712   8.654 -0.4582 -1.5518  0.9471
 7410SOL    HW233864   0.756   3.683   8.643  0.5349 -0.7461  0.9334
 7411SOL     OW33865   1.895   3.954   5.230  0.4184  0.1484  0.0428
 7411SOL    HW133866   1.837   3.966   5.305  1.7961 -0.5291  1.1856
 7411SOL    HW233867   1.866   3.864   5.217  1.6585 -0.6307  2.7228
 7412SOL     OW33868   0.880   0.222   8.192 -0.2826  0.7202  0.1843
 7412SOL    HW133869   0.820   0.294   8.175 -1.8262 -1.2677 -2.5972
 7412SOL    HW233870   0.954   0.252   8.246 -2.8395  1.2879  3.3364
 7413SOL     OW33871   2.947   0.160   6.649 -0.0529  0.0900  0.3810
 7413SOL    HW133872   2.998   0.100   6.703 -1.1006  1.1148  2.4970
 7413SOL    HW233873   2.920   0.099   6.579 -2.6953 -1.0669  2.4077
 7414SOL     OW33874   0.200   0.927   3.745 -0.2477 -0.5127 -0.0151
 7414SOL    HW133875   0.243   0.950   3.662 -0.1940  1.6684  0.6122
 7414SOL    HW233876   0.272   0.884   3.791  0.5535 -0.9244 -1.6412
 7415SOL     OW33877   1.441   0.651   1.487  0.3999 -0.0194 -0.0256
 7415SOL    HW133878   1.429   0.743   1.462  3.0185  0.1433 -0.6838
 7415SOL    HW233879   1.477   0.619   1.405  1.2494 -0.0990  0.3770
 7416SOL     OW33880   0.199   4.701   4.895  0.0831  0.1045  0.1259
 7416SOL    HW133881   0.171   4.610   4.910 -0.8750  0.9730  3.7826
 7416SOL    HW233882   0.251   4.689   4.816  0.2138  3.0674 -0.2352
 7417SOL     OW33883   1.166   0.427  13.626  0.1205  0.8511  0.0161
 7417SOL    HW133884   1.131   0.461  13.543  0.3403  0.2296 -0.3350
 7417SOL    HW233885   1.217   0.353  13.593  0.3019  0.2675  1.6137
 7418SOL     OW33886   2.517   2.054   6.533  0.3347  0.7672 -0.2437
 7418SOL    HW133887   2.442   1.998   6.514  0.2750  0.8760 -0.3310
 7418SOL    HW233888   2.551   2.076   6.446  0.2262  0.0252 -0.4681
 7419SOL     OW33889   3.415   3.088   3.296  0.0183  0.0577 -0.1563
 7419SOL    HW133890   3.372   3.038   3.227  1.0538  1.4817 -1.8099
 7419SOL    HW233891   3.502   3.093   3.257 -0.3555  0.3774 -0.9363
 7420SOL     OW33892   2.762   3.247  11.237 -0.2246  0.2235 -0.1430
 7420SOL    HW133893   2.838   3.194  11.258 -1.9316 -1.8840  0.7665
 7420SOL    HW233894   2.708   3.222  11.312 -0.6009 -0.8126 -0.7546
 7421SOL     OW33895   1.886   2.713  11.395  0.4007 -0.5527 -0.3106
 7421SOL    HW133896   1.878   2.655  11.471  0.1621  0.4853  0.4666
 7421SOL    HW233897   1.798   2.709  11.357  0.1609  1.4972  0.0544
 7422SOL     OW33898   1.364   1.219   6.257 -0.2409  0.3740  0.0389
 7422SOL    HW133899   1.320   1.300   6.234  0.7691  0.6733 -0.8561
 7422SOL    HW233900   1.341   1.214   6.350 -2.2479  0.3832 -0.4653
 7423SOL     OW33901   0.786   4.287  11.716 -0.2184 -0.3352 -0.0996
 7423SOL    HW133902   0.708   4.322  11.760 -0.0306 -1.4188  1.0825
 7423SOL    HW233903   0.746   4.247  11.638  1.2050 -0.4580 -0.7693
 7424SOL     OW33904   1.009   0.350   7.518 -0.2768  0.1738  0.2299
 7424SOL    HW133905   1.076   0.316   7.458 -1.1537 -0.5742 -0.3326
 7424SOL    HW233906   0.994   0.274   7.574  0.2718  0.9069  1.3683
 7425SOL     OW33907   3.378   0.278   1.733  0.7089  1.0841 -0.5888
 7425SOL    HW133908   3.315   0.285   1.661 -0.1564  1.5309  0.2086
 7425SOL    HW233909   3.320   0.265   1.808  1.3396 -2.0108 -0.6556
 7426SOL     OW33910   2.375   1.151   9.547  0.2482 -0.0198 -0.8297
 7426SOL    HW133911   2.431   1.226   9.526 -1.0980  1.8405  2.1884
 7426SOL    HW233912   2.429   1.072   9.547 -0.3018 -0.3784  2.9437
 7427SOL     OW33913   0.166   3.830   7.394  0.1298 -0.0821 -0.0231
 7427SOL    HW133914   0.133   3.827   7.304 -0.8711  1.2483  0.2948
 7427SOL    HW233915   0.243   3.886   7.382 -0.6006  0.4952 -1.9931
 7428SOL     OW33916   1.104   0.746   5.732  0.2150 -0.6821 -0.0524
 7428SOL    HW133917   1.018   0.785   5.743  0.1670 -0.4964 -1.0915
 7428SOL    HW233918   1.090   0.682   5.803 -1.5969  0.5687  0.7056
 7429SOL     OW33919   0.220   0.865   6.465 -0.7672  0.2910  0.1658
 7429SOL    HW133920   0.238   0.786   6.412 -0.0225  0.0431  0.7820
 7429SOL    HW233921   0.126   0.872   6.453 -0.7135  3.5611  1.7997
 7430SOL     OW33922   3.598   1.210   5.320  0.5405  0.0720 -0.1626
 7430SOL    HW133923   3.510   1.172   5.330  0.7886 -0.6450 -0.7338
 7430SOL    HW233924   3.659   1.136   5.329  0.4134  0.0548  0.5869
 7431SOL     OW33925   2.397   0.028   3.509 -0.1170  0.7305 -0.1128
 7431SOL    HW133926   2.478   0.011   3.558  1.4273  1.2618 -2.4835
 7431SOL    HW233927   2.421   0.092   3.442  0.0043  1.6141  0.7717
 7432SOL     OW33928   4.489   2.474  12.332 -0.0704 -0.8364  0.2563
 7432SOL    HW133929   4.416   2.517  12.378 -0.7238  0.2111 -1.7041
 7432SOL    HW233930   4.493   2.534  12.257  2.2071 -0.2064  0.8834
 7433SOL     OW33931   1.611   0.136   8.314 -0.5878 -0.3343  0.0161
 7433SOL    HW133932   1.684   0.134   8.251 -2.1367 -3.3393 -1.6778
 7433SOL    HW233933   1.621   0.046   8.346  3.2243  0.3981  0.8828
 7434SOL     OW33934   0.348   0.939   4.720  0.2086 -0.5405 -0.0708
 7434SOL    HW133935   0.258   0.906   4.716  0.3236 -0.4430 -3.0365
 7434SOL    HW233936   0.335   1.028   4.752  0.0427 -0.5949  0.0125
 7435SOL     OW33937   2.933   1.872   4.252  0.2795 -0.1397 -0.2527
 7435SOL    HW133938   2.851   1.909   4.283  1.5055  0.0792  2.7901
 7435SOL    HW233939   2.986   1.952   4.255  1.9205 -1.3047  1.9960
 7436SOL     OW33940   0.205   3.529  10.756 -0.1012 -0.0464 -0.1034
 7436SOL    HW133941   0.286   3.495  10.717  0.3461  2.3443 -1.2273
 7436SOL    HW233942   0.227   3.524  10.849 -0.4459  2.8499  0.1108
 7437SOL     OW33943   0.686   3.739   9.143 -0.1869  0.1541 -0.1927
 7437SOL    HW133944   0.625   3.794   9.092 -0.9590 -1.1620 -0.6869
 7437SOL    HW233945   0.640   3.728   9.226 -1.3303  0.4189 -0.7779
 7438SOL     OW33946   3.736   1.493  11.763  0.4853  0.3712 -0.0961
 7438SOL    HW133947   3.781   1.576  11.776  0.8972 -0.2974  2.8397
 7438SOL    HW233948   3.806   1.434  11.791  2.8994  2.8959 -0.7713
 7439SOL     OW33949   3.580   4.689   4.030 -0.2403 -0.1582 -0.1531
 7439SOL    HW133950   3.572   4.729   3.944  0.9611 -0.3110 -0.3307
 7439SOL    HW233951   3.507   4.734   4.074 -0.1209  1.0463 -1.1797
 7440SOL     OW33952   2.887   3.108   3.590 -0.2955 -0.6459 -0.0447
 7440SOL    HW133953   2.963   3.114   3.647  0.8098  1.6019 -1.7092
 7440SOL    HW233954   2.905   3.187   3.538  1.3616 -0.8690  0.1780
 7441SOL     OW33955   0.784   4.551   3.228  0.1198  0.0917  0.4690
 7441SOL    HW133956   0.733   4.484   3.183  0.1937 -0.7014  1.5868
 7441SOL    HW233957   0.870   4.528   3.195 -0.3554 -1.5832  0.4252
 7442SOL     OW33958   3.911   1.690  11.819  0.3352  0.6608  0.7514
 7442SOL    HW133959   3.996   1.649  11.835  0.0649 -0.4733 -0.6645
 7442SOL    HW233960   3.919   1.784  11.804 -0.6016  0.7028  0.5231
 7443SOL     OW33961   1.447   1.894   2.729 -0.2317  0.1400  1.0935
 7443SOL    HW133962   1.487   1.930   2.650 -0.5776  1.8590  1.7068
 7443SOL    HW233963   1.515   1.885   2.796  1.4357  2.4572 -0.2779
 7444SOL     OW33964   1.377   4.530   5.252  0.3378  0.2989  0.5846
 7444SOL    HW133965   1.306   4.474   5.222 -0.5104  0.6219  1.9624
 7444SOL    HW233966   1.435   4.514   5.177  2.3657  3.3791  1.4661
 7445SOL     OW33967   1.377   1.130  13.491  0.1358  0.4615 -0.5601
 7445SOL    HW133968   1.394   1.223  13.482 -0.7385  0.4140 -2.6644
 7445SOL    HW233969   1.444   1.096  13.550  1.6379  0.7335 -2.1474
 7446SOL     OW33970   2.012   2.884   0.668 -0.3844 -0.5367 -0.3982
 7446SOL    HW133971   2.055   2.851   0.747 -0.8202  1.4114  0.6642
 7446SOL    HW233972   2.079   2.906   0.603 -0.1756  0.9078  0.3061
 7447SOL     OW33973   3.968   3.748   0.323 -0.0704  0.3588 -0.4730
 7447SOL    HW133974   3.969   3.704   0.408  2.8401  0.3981 -0.4709
 7447SOL    HW233975   4.053   3.711   0.298 -0.2693 -0.6755  0.3526
 7448SOL     OW33976   1.775   2.646  16.529 -0.3436  0.4922  0.3562
 7448SOL    HW133977   1.816   2.571  16.574 -0.5022 -0.3378 -0.8893
 7448SOL    HW233978   1.684   2.631  16.555 -0.3462 -1.1139 -0.5979
 7449SOL     OW33979   2.171   0.477   1.127  0.2993 -0.0277  0.2195
 7449SOL    HW133980   2.191   0.437   1.211  3.3126  1.6878  0.3223
 7449SOL    HW233981   2.171   0.570   1.148  1.4260 -0.3100  1.4734
 7450SOL     OW33982   2.269   4.295   2.380  0.1126 -0.0538  0.2403
 7450SOL    HW133983   2.314   4.253   2.455 -0.4044  0.1485  0.6635
 7450SOL    HW233984   2.270   4.221   2.319  0.6163 -0.3365  0.5854
 7451SOL     OW33985   1.300   1.860   8.050  0.1992 -0.0684  0.4425
 7451SOL    HW133986   1.381   1.881   8.002  0.3749  0.0289  0.7836
 7451SOL    HW233987   1.262   1.948   8.042  0.7483  0.2490  1.3780
 7452SOL     OW33988   2.606   1.621   4.818  0.4419  0.1914  0.3347
 7452SOL    HW133989   2.579   1.699   4.868  1.8066  0.5300  0.5445
 7452SOL    HW233990   2.577   1.646   4.730 -1.3699 -0.5614  0.7112
 7453SOL     OW33991   3.831   4.082  13.488 -0.2580  0.6014 -0.4270
 7453SOL    HW133992   3.925   4.068  13.475 -0.0664 -0.1098  1.5872
 7453SOL    HW233993   3.833   4.135  13.568 -1.0918 -0.2359  0.1456
 7454SOL     OW33994   2.567   2.404  13.892  0.4731 -0.4066 -0.4943
 7454SOL    HW133995   2.530   2.418  13.979 -0.2996  0.8969 -1.0377
 7454SOL    HW233996   2.527   2.473  13.839  0.5822  1.8254  2.3356
 7455SOL     OW33997   1.279   4.005  11.040  0.9176  0.6620  0.0570
 7455SOL    HW133998   1.332   3.963  10.972  0.5697  1.2835 -0.6105
 7455SOL    HW233999   1.348   4.024  11.103  1.8021 -1.3663 -0.3265
 7456SOL     OW34000   1.573   2.891  14.481  0.6021  0.6729  0.1385
 7456SOL    HW134001   1.565   2.841  14.400  0.9659 -1.2961  1.2936
 7456SOL    HW234002   1.483   2.896  14.514 -0.3640  1.0239 -2.5826
 7457SOL     OW34003   0.496   2.123   4.983  0.1090  0.4281  0.1745
 7457SOL    HW134004   0.447   2.084   5.055  0.2183  1.4735  0.8067
 7457SOL    HW234005   0.424   2.153   4.929  0.4638 -0.1039 -0.5995
 7458SOL     OW34006   2.359   1.379  17.447 -0.5136 -0.3043  0.3936
 7458SOL    HW134007   2.386   1.287  17.458 -1.0350 -0.8063 -2.5243
 7458SOL    HW234008   2.299   1.381  17.372  0.5255 -2.7299 -0.5182
 7459SOL     OW34009   1.715   2.886   5.007  0.0117  0.0491  0.4988
 7459SOL    HW134010   1.767   2.915   4.932  1.8557 -1.7288  1.0886
 7459SOL    HW234011   1.705   2.966   5.058  1.9254  0.5063  0.1613
 7460SOL     OW34012   3.308   4.450   9.118  0.1913 -0.1638 -0.6974
 7460SOL    HW134013   3.215   4.474   9.113  0.2440  0.8887  2.9662
 7460SOL    HW234014   3.314   4.356   9.102  2.2187 -0.4682  1.8048
 7461SOL     OW34015   3.305   4.730   4.561 -0.2617  0.1460 -0.0587
 7461SOL    HW134016   3.390   4.716   4.602 -0.2124 -0.8400 -0.5086
 7461SOL    HW234017   3.261   4.647   4.579 -0.2651  0.3528  0.9233
 7462SOL     OW34018   0.599   3.752  14.810  0.0784 -0.2076  0.3427
 7462SOL    HW134019   0.690   3.784  14.811 -0.1648  0.5122 -0.1849
 7462SOL    HW234020   0.582   3.745  14.904 -0.5385  1.0114  0.3270
 7463SOL     OW34021   2.514   2.511   6.912  0.0715  0.3842  0.5740
 7463SOL    HW134022   2.564   2.486   6.834 -0.9772  1.6465 -0.5071
 7463SOL    HW234023   2.526   2.434   6.967 -1.2692  1.0501  1.7779
 7464SOL     OW34024   0.678   2.700   8.510  0.1803 -0.2968  0.1321
 7464SOL    HW134025   0.600   2.718   8.563  0.6708 -0.4856  0.9249
 7464SOL    HW234026   0.728   2.632   8.555  1.8722  1.1964  0.4930
 7465SOL     OW34027   0.050   4.327  11.895  0.0912  0.6338  0.4473
 7465SOL    HW134028   0.003   4.244  11.883  0.7324 -0.1554  3.1751
 7465SOL    HW234029   4.722   4.393  11.878  0.0084  0.0825 -1.3798
 7466SOL     OW34030   0.513   3.602   0.503 -0.3333 -0.0908  0.9277
 7466SOL    HW134031   0.574   3.668   0.470 -1.9910 -0.0990 -2.2206
 7466SOL    HW234032   0.518   3.631   0.594 -0.6737 -0.3138  1.0177
 7467SOL     OW34033   0.694   4.517   1.646  0.2496  0.0031 -0.0121
 7467SOL    HW134034   0.635   4.507   1.721 -1.6763  0.6307 -1.4782
 7467SOL    HW234035   0.666   4.595   1.598 -1.0850 -0.8135 -0.5512
 7468SOL     OW34036   1.596   2.919   8.590  0.1451  0.1938  0.3256
 7468SOL    HW134037   1.642   2.843   8.625  0.7245  1.7800  3.0302
 7468SOL    HW234038   1.508   2.919   8.628 -0.4133  1.8833 -0.9238
 7469SOL     OW34039   0.073   0.152   7.829 -0.2833 -0.7444  0.0163
 7469SOL    HW134040   4.729   0.107   7.840 -0.2050 -1.1907 -1.2685
 7469SOL    HW234041   0.082   0.160   7.734  0.7831  1.3581  0.2965
 7470SOL     OW34042   0.224   3.627  14.092 -0.7414  0.0794  0.0757
 7470SOL    HW134043   0.289   3.564  14.062  0.1875  0.5478  1.1074
 7470SOL    HW234044   0.232   3.617  14.186 -1.4109  1.5019  0.2842
 7471SOL     OW34045   1.527   1.843   9.312 -0.0709 -0.5599  0.2893
 7471SOL    HW134046   1.469   1.894   9.368  0.1227 -1.0154  0.9035
 7471SOL    HW234047   1.498   1.755   9.336  1.5752 -0.6450  1.9833
 7472SOL     OW34048   0.167   3.474   2.621 -0.3468  0.3573  0.2843
 7472SOL    HW134049   0.148   3.405   2.557  2.6405 -0.8349  0.6853
 7472SOL    HW234050   0.120   3.443   2.699 -1.2445 -2.0561 -1.1943
 7473SOL     OW34051   1.872   4.039   7.977 -0.4093  0.0923 -0.6109
 7473SOL    HW134052   1.900   4.041   7.886 -0.5272 -1.4046 -0.6745
 7473SOL    HW234053   1.940   3.977   8.003 -0.2522  0.9965  1.1219
 7474SOL     OW34054   2.195   3.743  11.095 -0.6217  0.6328  0.1165
 7474SOL    HW134055   2.183   3.825  11.142  0.4635 -0.5137  2.3792
 7474SOL    HW234056   2.107   3.707  11.081  0.5341 -1.8553 -0.8301
 7475SOL     OW34057   2.437   3.716  12.640 -0.4051  0.1216 -0.3015
 7475SOL    HW134058   2.351   3.758  12.645 -0.6901 -0.5974  0.6650
 7475SOL    HW234059   2.404   3.629  12.620 -0.4721  0.1267 -0.2100
 7476SOL     OW34060   3.837   1.016  15.042 -0.4035  0.3894  0.1905
 7476SOL    HW134061   3.810   0.997  15.132 -1.1253 -0.7993 -0.2768
 7476SOL    HW234062   3.754   1.018  14.995 -1.1218 -2.0771  1.3848
 7477SOL     OW34063   3.747   0.447   9.570 -0.0834 -0.4369 -0.2861
 7477SOL    HW134064   3.770   0.361   9.536 -0.4843 -1.2818  1.5280
 7477SOL    HW234065   3.653   0.449   9.549  0.3940 -0.1237 -2.3739
 7478SOL     OW34066   4.695   4.159   5.526 -0.0312 -0.1673  0.2645
 7478SOL    HW134067   4.648   4.242   5.522  0.4199  0.2056  2.8516
 7478SOL    HW234068   4.710   4.148   5.620  2.0278 -0.5240 -0.0954
 7479SOL     OW34069   1.435   1.674  10.548  0.2273 -0.0735  0.1848
 7479SOL    HW134070   1.445   1.689  10.454 -0.1176  1.4560  0.3827
 7479SOL    HW234071   1.344   1.702  10.558 -0.1739 -0.4754 -2.2677
 7480SOL     OW34072   4.013   0.138   3.988  0.0065 -0.3664 -0.2374
 7480SOL    HW134073   4.012   0.227   4.022 -0.2814 -1.5246  2.8683
 7480SOL    HW234074   3.958   0.095   4.055  0.0082  0.2491  0.1611
 7481SOL     OW34075   1.082   4.712  11.643  0.1960  0.5110  0.4232
 7481SOL    HW134076   1.165   4.725  11.690  0.8290 -1.5786 -0.0982
 7481SOL    HW234077   1.057   4.621  11.659  0.2252  0.7088  1.5499
 7482SOL     OW34078   2.800   1.389   3.120  0.1962 -0.1239  0.2128
 7482SOL    HW134079   2.783   1.447   3.046 -0.3281  1.5563  1.6467
 7482SOL    HW234080   2.772   1.448   3.189 -1.4231 -0.4156 -0.2118
 7483SOL     OW34081   3.812   4.169  10.780  0.2953  0.0683  0.5940
 7483SOL    HW134082   3.734   4.217  10.809  0.3991 -0.4910  1.7810
 7483SOL    HW234083   3.783   4.128  10.698 -0.4443  0.2120  0.7781
 7484SOL     OW34084   2.346   3.955   3.652  0.4921 -0.4167 -0.8147
 7484SOL    HW134085   2.328   3.861   3.658  0.9615 -0.4845 -0.4236
 7484SOL    HW234086   2.440   3.967   3.634  1.3452 -0.5918  3.3692
 7485SOL     OW34087   2.567   0.521   3.629  0.4400 -0.5108 -0.3014
 7485SOL    HW134088   2.660   0.542   3.632  0.3211  0.0895 -0.7834
 7485SOL    HW234089   2.567   0.434   3.588  0.0839 -0.0825 -1.2171
 7486SOL     OW34090   1.812   0.661   3.337  0.0821 -0.0036  0.0562
 7486SOL    HW134091   1.784   0.617   3.417 -1.5674  3.0666  1.1578
 7486SOL    HW234092   1.732   0.692   3.296  0.8360  1.4172 -0.3759
 7487SOL     OW34093   0.932   3.856  12.432  0.3028 -0.4622 -0.0089
 7487SOL    HW134094   0.926   3.952  12.430 -2.1277 -0.5614  2.1621
 7487SOL    HW234095   0.844   3.836  12.462  0.9368 -0.5060  1.8132
 7488SOL     OW34096   2.598   0.894   4.844 -0.2026 -0.1587  0.0104
 7488SOL    HW134097   2.665   0.839   4.885 -0.8917 -1.6750 -0.9095
 7488SOL    HW234098   2.597   0.966   4.908 -0.5631 -0.3803  0.2559
 7489SOL     OW34099   0.265   2.566   7.050  0.3947 -0.5216  0.3110
 7489SOL    HW134100   0.257   2.533   7.139 -0.5334 -2.7575 -0.5920
 7489SOL    HW234101   0.361   2.564   7.052  0.3585 -1.5956  0.9946
 7490SOL     OW34102   3.935   2.800   2.532 -0.1941 -0.3862 -0.3225
 7490SOL    HW134103   3.853   2.804   2.482 -0.9429  0.1174  0.9619
 7490SOL    HW234104   3.983   2.874   2.494 -1.2421  0.1100 -0.6860
 7491SOL     OW34105   1.725   3.201   6.714  0.1142 -0.7931 -0.0174
 7491SOL    HW134106   1.802   3.144   6.706  1.7590  1.3889  0.0423
 7491SOL    HW234107   1.672   3.167   6.643  3.7553 -2.8310 -1.7650
 7492SOL     OW34108   0.251   0.986   7.430 -0.1292  0.3300 -0.0989
 7492SOL    HW134109   0.187   0.917   7.448 -2.7037  2.1687 -2.1989
 7492SOL    HW234110   0.235   0.993   7.336  1.9481  0.0689 -0.4743
 7493SOL     OW34111   0.309   0.513   5.964 -0.0132  0.3187  0.3072
 7493SOL    HW134112   0.239   0.566   5.927  1.2837  0.9517 -1.2456
 7493SOL    HW234113   0.376   0.517   5.895  0.6099 -0.5087  0.8528
 7494SOL     OW34114   0.336   2.977   5.785  0.2894 -0.1315 -0.1994
 7494SOL    HW134115   0.403   2.909   5.778 -0.8243 -1.4178  1.6771
 7494SOL    HW234116   0.302   2.953   5.871  1.9961  2.7608  1.2732
 7495SOL     OW34117   3.893   2.221   4.835 -0.5457 -0.1992  0.4852
 7495SOL    HW134118   3.810   2.221   4.787  1.0459 -1.8672 -2.2640
 7495SOL    HW234119   3.914   2.130   4.814 -1.2313 -0.3735  0.5230
 7496SOL     OW34120   3.172   0.144   8.018  0.0090  0.1999  0.2766
 7496SOL    HW134121   3.177   0.123   7.925  1.8418  0.6225  0.2652
 7496SOL    HW234122   3.155   0.060   8.060 -0.5698  0.3771  0.3959
 7497SOL     OW34123   4.285   1.232   3.974 -0.7330  0.3012 -0.2513
 7497SOL    HW134124   4.292   1.211   4.067  3.6168 -1.2245 -0.9369
 7497SOL    HW234125   4.329   1.158   3.933 -0.0482  0.7278 -0.2845
 7498SOL     OW34126   3.051   3.894   8.221 -0.0030 -0.2737  0.0059
 7498SOL    HW134127   3.100   3.873   8.300 -0.8024  0.2930  0.6459
 7498SOL    HW234128   2.991   3.820   8.225 -1.7512  1.0517 -1.4647
 7499SOL     OW34129   0.425   0.289   1.621  0.3063  0.5243 -0.2059
 7499SOL    HW134130   0.357   0.339   1.667 -0.5181 -1.5231  0.8022
 7499SOL    HW234131   0.419   0.351   1.548 -2.1824  0.5961  0.0522
 7500SOL     OW34132   3.506   2.067   4.492 -0.3815 -0.1144 -0.3054
 7500SOL    HW134133   3.461   2.044   4.410 -0.4514  0.5168 -0.4442
 7500SOL    HW234134   3.442   2.043   4.559  1.7052  0.1857  1.7926
 7501SOL     OW34135   0.277   4.377   7.255 -0.5779  0.2642 -0.4110
 7501SOL    HW134136   0.330   4.391   7.333  1.0014 -0.0619 -1.4298
 7501SOL    HW234137   0.225   4.457   7.252  1.2122  1.3940 -1.7623
 7502SOL     OW34138   2.734   1.778   0.035  0.1347  0.2398 -0.4380
 7502SOL    HW134139   2.702   1.689   0.046 -0.6829  0.8026  1.7779
 7502SOL    HW234140   2.677   1.812  17.721 -1.1003 -1.2178 -0.1423
 7503SOL     OW34141   0.362   4.036  15.415  0.1291 -0.5467 -0.0888
 7503SOL    HW134142   0.268   4.028  15.433 -0.1079 -0.1769 -1.1632
 7503SOL    HW234143   0.354   4.079  15.330 -0.7995  1.0330  0.8088
 7504SOL     OW34144   3.522   2.755   3.232  0.0537 -0.0997 -0.1397
 7504SOL    HW134145   3.604   2.706   3.244  1.4725  2.0355 -1.1121
 7504SOL    HW234146   3.547   2.826   3.173  2.2477  0.9229  2.0299
 7505SOL     OW34147   2.982   2.553   2.509  0.2291 -0.1342  0.3881
 7505SOL    HW134148   3.015   2.473   2.550  2.1922  0.2271 -0.4864
 7505SOL    HW234149   2.920   2.507   2.451  2.2175 -0.4413 -1.5025
 7506SOL     OW34150   0.114   4.046   3.469 -0.0365 -0.1477 -0.4499
 7506SOL    HW134151   0.101   4.079   3.558  0.1348  2.1746 -1.2696
 7506SOL    HW234152   0.187   4.103   3.442 -0.0333 -0.3672 -0.8984
 7507SOL     OW34153   0.767   0.928   4.352  0.0680  0.0264 -0.1009
 7507SOL    HW134154   0.807   0.908   4.436 -0.9641  0.5204  0.5120
 7507SOL    HW234155   0.738   1.016   4.378  0.6919  0.5701 -1.1829
 7508SOL     OW34156   0.942   3.288   2.740 -0.4333 -0.3806  0.1730
 7508SOL    HW134157   0.852   3.287   2.708 -0.8059 -0.8641  1.2615
 7508SOL    HW234158   0.929   3.263   2.831  0.5008  0.6421  0.5973
 7509SOL     OW34159   3.569   3.252   5.525  0.0505 -0.5726 -0.0108
 7509SOL    HW134160   3.593   3.343   5.542  0.1353 -0.7693  0.9562
 7509SOL    HW234161   3.518   3.268   5.446  0.4217  0.3842 -0.0594
 7510SOL     OW34162   3.538   2.566   5.853  0.4081 -0.3700  0.1730
 7510SOL    HW134163   3.567   2.490   5.903 -0.1285 -0.3172  0.5682
 7510SOL    HW234164   3.480   2.525   5.789 -1.0092 -1.3913  2.1123
 7511SOL     OW34165   4.639   4.616   4.232  0.4173  0.7673 -0.1671
 7511SOL    HW134166   4.692   4.559   4.176 -1.1350 -1.9572  1.1596
 7511SOL    HW234167   4.694   4.692   4.251  0.4924  1.3385 -2.6540
 7512SOL     OW34168   4.629   4.243  17.515 -0.2575 -0.5913  0.6573
 7512SOL    HW134169   4.542   4.244  17.475  0.2661 -2.1449 -0.5362
 7512SOL    HW234170   4.617   4.270  17.606 -1.6418  0.4139  0.1742
 7513SOL     OW34171   1.559   0.291   8.555  0.5259 -0.6052  0.4072
 7513SOL    HW134172   1.633   0.274   8.613  2.3126  0.9247 -1.4128
 7513SOL    HW234173   1.592   0.268   8.468 -0.0711  1.0284 -0.2574
 7514SOL     OW34174   1.903   4.099   9.435 -0.0806 -0.2425  0.1131
 7514SOL    HW134175   1.896   4.039   9.361  2.3001  1.5207 -1.5714
 7514SOL    HW234176   1.810   4.121   9.438 -0.5338 -2.3470  0.9867
 7515SOL     OW34177   0.691   2.235  17.645 -0.3950  0.1102  0.8211
 7515SOL    HW134178   0.721   2.263  17.558 -3.5121  1.6462  0.2718
 7515SOL    HW234179   0.674   2.144  17.619  0.3612 -0.5756  2.7600
 7516SOL     OW34180   2.443   1.435   4.976 -0.5164 -0.2847  0.2170
 7516SOL    HW134181   2.486   1.401   5.054 -1.4615 -0.7980  0.5168
 7516SOL    HW234182   2.523   1.467   4.934 -0.0599 -1.1980  0.3904
 7517SOL     OW34183   0.123   3.438   6.112  0.0831 -0.0385 -0.2365
 7517SOL    HW134184   0.107   3.349   6.082  1.7834 -0.6865  0.7702
 7517SOL    HW234185   0.212   3.429   6.144  0.4876  0.0544 -1.3447
 7518SOL     OW34186   3.830   1.563   8.319  0.3880 -0.1225 -0.0579
 7518SOL    HW134187   3.794   1.487   8.366  0.0258  1.1274  1.6525
 7518SOL    HW234188   3.904   1.524   8.272  0.1744  1.6477 -1.8440
 7519SOL     OW34189   1.309   1.558   4.767  0.2931  0.1889  0.1289
 7519SOL    HW134190   1.310   1.497   4.693 -1.1978  1.3869 -0.8939
 7519SOL    HW234191   1.216   1.582   4.765 -0.2882 -1.9008  2.1282
 7520SOL     OW34192   3.232   0.026   7.730  0.3625 -0.0714  0.0722
 7520SOL    HW134193   3.213   4.672   7.716 -1.0344  0.6241 -2.6841
 7520SOL    HW234194   3.246   0.056   7.640 -1.6112 -0.1233 -0.2461
 7521SOL     OW34195   0.745   1.469   0.220  0.2640 -0.5733  0.0765
 7521SOL    HW134196   0.840   1.465   0.210  0.3900  0.8479  0.6361
 7521SOL    HW234197   0.717   1.473   0.128  0.1574  0.1270  0.1384
 7522SOL     OW34198   0.334   4.285   6.069  0.0483  0.2700 -0.1180
 7522SOL    HW134199   0.320   4.230   6.146 -1.0728  0.3146 -0.2888
 7522SOL    HW234200   0.245   4.277   6.035 -0.5498 -0.5714  1.6493
 7523SOL     OW34201   0.502   4.220   3.374  0.2797 -0.5650 -0.1928
 7523SOL    HW134202   0.496   4.126   3.389  2.1407 -1.0799 -2.5205
 7523SOL    HW234203   0.432   4.238   3.312  0.7751  3.2525  0.3741
 7524SOL     OW34204   1.164   0.894   1.180  0.1395 -0.3368 -0.2879
 7524SOL    HW134205   1.212   0.963   1.225 -0.2139 -1.8443  2.4126
 7524SOL    HW234206   1.230   0.828   1.160 -1.5022 -1.8910 -0.5910
 7525SOL     OW34207   4.592   1.142   7.537 -0.6943 -0.1601 -0.0667
 7525SOL    HW134208   4.578   1.115   7.628 -2.6615  0.0163 -0.3150
 7525SOL    HW234209   4.621   1.231   7.554  0.7565 -0.5501 -0.4834
 7526SOL     OW34210   4.517   3.327   9.714  0.0796 -0.5153 -0.0280
 7526SOL    HW134211   4.518   3.419   9.690 -0.8240 -0.0790  1.5444
 7526SOL    HW234212   4.457   3.328   9.789 -1.0198  1.5820 -0.9430
 7527SOL     OW34213   1.664   0.156  13.814  0.1313 -0.0957  0.2219
 7527SOL    HW134214   1.574   0.175  13.787  0.0170 -0.3710  0.4137
 7527SOL    HW234215   1.703   0.172  13.728 -2.0224  1.1797 -0.5309
 7528SOL     OW34216   0.869   3.302  17.338  0.9606 -0.1205  0.0718
 7528SOL    HW134217   0.962   3.281  17.340  0.9218 -0.2629  0.3831
 7528SOL    HW234218   0.839   3.231  17.281  1.1280 -1.1432  1.2548
 7529SOL     OW34219   2.653   1.236   8.598  0.3544  0.4600 -0.1462
 7529SOL    HW134220   2.746   1.240   8.620 -0.2248 -2.9314  2.8872
 7529SOL    HW234221   2.616   1.175   8.661  2.7152 -0.5778  0.2488
 7530SOL     OW34222   1.141   1.781   4.542  0.1889  0.4191  0.2041
 7530SOL    HW134223   1.058   1.792   4.589  0.5947 -0.3237  1.0868
 7530SOL    HW234224   1.123   1.856   4.485  0.9968  1.5483  1.4336
 7531SOL     OW34225   1.469   4.405   7.329  0.0511  0.0625 -0.2433
 7531SOL    HW134226   1.536   4.398   7.261 -0.0467 -2.5358 -0.0689
 7531SOL    HW234227   1.489   4.325   7.377  1.7839 -0.4061 -1.7586
 7532SOL     OW34228   2.199   0.640   8.388 -0.0001  0.0514  0.1231
 7532SOL    HW134229   2.107   0.659   8.409  0.4904  2.2809  0.3057
 7532SOL    HW234230   2.202   0.551   8.422  1.9023  0.9384  2.2899
 7533SOL     OW34231   3.387   3.980   5.343 -0.0767 -0.1440 -0.1990
 7533SOL    HW134232   3.426   4.030   5.271 -0.7332 -0.6385 -0.8970
 7533SOL    HW234233   3.425   3.894   5.328 -0.1653 -0.2496  0.1857
 7534SOL     OW34234   1.894   1.289   7.601 -0.3177  0.3693  0.2331
 7534SOL    HW134235   1.808   1.259   7.631  0.3529 -2.8462 -1.0329
 7534SOL    HW234236   1.954   1.219   7.627 -1.8366 -1.0435 -0.0482
 7535SOL     OW34237   3.949   0.804   8.401  0.2438 -0.0261  0.1877
 7535SOL    HW134238   3.948   0.737   8.470  0.8024  1.0353  1.2319
 7535SOL    HW234239   3.956   0.741   8.330  0.3386  0.5719 -0.3322
 7536SOL     OW34240   1.298   2.042   7.339  0.6009  0.0449 -0.1976
 7536SOL    HW134241   1.348   2.090   7.405 -0.2681 -1.2939  1.4311
 7536SOL    HW234242   1.371   2.010   7.285 -1.0626  0.7066 -2.8404
 7537SOL     OW34243   2.455   3.177  11.719 -0.7222  0.0336 -0.3130
 7537SOL    HW134244   2.448   3.101  11.776  1.4300 -1.4528 -2.0755
 7537SOL    HW234245   2.526   3.152  11.661 -0.6952  1.4464 -0.8877
 7538SOL     OW34246   4.112   0.335   3.411  0.3113  0.0111 -0.1773
 7538SOL    HW134247   4.044   0.309   3.349 -0.8967  0.3287  0.9967
 7538SOL    HW234248   4.095   0.282   3.489  0.9020 -0.7373 -0.5580
 7539SOL     OW34249   3.023   0.358   9.224 -0.2004 -0.2095  0.0922
 7539SOL    HW134250   3.031   0.269   9.259 -1.4452 -0.0519  0.8017
 7539SOL    HW234251   3.105   0.358   9.174 -0.2940  0.5460 -0.0567
 7540SOL     OW34252   2.400   0.505  10.209  0.2667 -0.4466  0.0988
 7540SOL    HW134253   2.318   0.468  10.178 -0.3718  2.0463 -1.1833
 7540SOL    HW234254   2.434   0.431  10.260 -1.2685 -0.7020  0.7289
 7541SOL     OW34255   4.229   1.965  14.858  0.4361  0.8397 -0.2690
 7541SOL    HW134256   4.298   1.975  14.923  1.3015 -1.2563 -0.8730
 7541SOL    HW234257   4.216   2.058  14.839  0.3478  0.3343 -2.6573
 7542SOL     OW34258   3.589   3.709   7.701  0.1033 -0.0734 -0.2272
 7542SOL    HW134259   3.672   3.750   7.677 -0.1795  0.3865 -0.4169
 7542SOL    HW234260   3.583   3.735   7.793 -1.6627  0.8719 -0.6239
 7543SOL     OW34261   0.840   4.498  10.224  0.1474 -0.7461 -0.2746
 7543SOL    HW134262   0.839   4.414  10.268  0.9063 -1.1697 -1.0454
 7543SOL    HW234263   0.929   4.503  10.189  0.0700  2.5509  0.0121
 7544SOL     OW34264   4.499   3.169   1.617 -0.2493  0.1272 -0.1531
 7544SOL    HW134265   4.577   3.191   1.567  0.0652  0.1001  0.3293
 7544SOL    HW234266   4.514   3.074   1.617 -0.5410  0.0771  1.0079
 7545SOL     OW34267   0.444   1.441   7.952 -0.0840  0.1189  0.5310
 7545SOL    HW134268   0.389   1.461   7.876 -0.0339 -4.4354 -0.7224
 7545SOL    HW234269   0.372   1.449   8.015 -2.5482 -0.3412 -2.1603
 7546SOL     OW34270   4.364   2.581   4.256  0.4829  0.7166 -0.1110
 7546SOL    HW134271   4.448   2.617   4.286  0.2243  0.0532  1.3971
 7546SOL    HW234272   4.315   2.573   4.338 -2.3453  3.3410 -1.5629
 7547SOL     OW34273   0.834   2.774  17.620 -0.0451  0.0068  0.0961
 7547SOL    HW134274   0.775   2.699  17.633 -0.3104  0.2081  0.0680
 7547SOL    HW234275   0.919   2.730  17.615  0.9324  2.0143 -1.0535
 7548SOL     OW34276   0.464   1.786   4.991 -0.0416  0.3795 -0.2190
 7548SOL    HW134277   0.476   1.873   5.028 -3.6007  0.2195  1.2524
 7548SOL    HW234278   0.487   1.729   5.064  1.1064 -1.2085 -1.8082
 7549SOL     OW34279   0.519   2.757   8.709  0.1850 -0.2659 -0.5221
 7549SOL    HW134280   0.600   2.772   8.757 -0.6080 -0.4503  0.8533
 7549SOL    HW234281   0.454   2.796   8.767  0.4502  1.8383 -1.6663
 7550SOL     OW34282   2.293   4.612   4.093 -0.2025 -0.2830  0.6459
 7550SOL    HW134283   2.222   4.654   4.044  0.3380 -0.8339 -0.6045
 7550SOL    HW234284   2.254   4.541   4.145 -1.2403  0.7285  1.2437
 7551SOL     OW34285   4.539   2.954   5.541  0.2609  0.2764  0.0800
 7551SOL    HW134286   4.551   2.862   5.517 -1.3080  0.4999 -1.5747
 7551SOL    HW234287   4.475   2.988   5.479 -0.5263 -0.7980  0.3057
 7552SOL     OW34288   2.803   4.220   2.042 -0.2372  0.1634 -0.0529
 7552SOL    HW134289   2.808   4.230   1.947 -2.1302  1.0609 -0.0529
 7552SOL    HW234290   2.851   4.138   2.055 -0.5172  0.1045  0.6052
 7553SOL     OW34291   0.983   3.645   4.646  0.6965  0.1873  0.2259
 7553SOL    HW134292   0.953   3.733   4.668  0.1835  0.0343  0.1439
 7553SOL    HW234293   0.892   3.616   4.646  0.9295 -0.6772 -5.5134
 7554SOL     OW34294   3.092   4.346   4.912 -0.4704  0.1029  0.0618
 7554SOL    HW134295   3.085   4.398   4.992 -0.6508 -2.6756  1.8791
 7554SOL    HW234296   3.001   4.357   4.885 -0.5560  2.1344  1.2349
 7555SOL     OW34297   2.351   1.840   3.640  0.0988  0.7392 -1.2296
 7555SOL    HW134298   2.382   1.917   3.688 -0.8054  1.5094 -1.8792
 7555SOL    HW234299   2.275   1.882   3.599 -0.2852  0.5721 -0.6971
 7556SOL     OW34300   3.307   1.339  17.173  0.1927  0.0523 -0.4033
 7556SOL    HW134301   3.331   1.394  17.248 -1.3956  0.2014 -0.0118
 7556SOL    HW234302   3.375   1.348  17.106  1.2448 -0.1349  0.6310
 7557SOL     OW34303   3.717   0.897   2.483  0.7711  0.0075  0.0326
 7557SOL    HW134304   3.730   0.834   2.412 -2.8063 -2.0128  1.1540
 7557SOL    HW234305   3.664   0.846   2.545 -1.4708  1.1278 -0.9762
 7558SOL     OW34306   1.309   3.115   8.926 -0.2353  0.3599  0.6786
 7558SOL    HW134307   1.375   3.181   8.906  0.2256  0.0860  1.2723
 7558SOL    HW234308   1.231   3.169   8.926 -1.3153 -1.2119  0.4266
 7559SOL     OW34309   4.585   1.604   6.303 -0.3181  0.6315  0.3110
 7559SOL    HW134310   4.541   1.662   6.365 -1.7106 -0.1501  0.0315
 7559SOL    HW234311   4.547   1.523   6.336  0.5316  1.0361  2.3155
 7560SOL     OW34312   2.376   3.613   5.933  0.1635  0.1354 -0.4232
 7560SOL    HW134313   2.318   3.689   5.935 -1.6434 -1.2017 -2.3926
 7560SOL    HW234314   2.332   3.566   5.863 -1.9831 -0.5328  1.3574
 7561SOL     OW34315   3.735   1.922   3.587  0.7328 -0.1150 -0.0802
 7561SOL    HW134316   3.648   1.961   3.579  0.6923 -0.0223  0.7719
 7561SOL    HW234317   3.763   1.948   3.675 -1.4822  0.5604  0.4163
 7562SOL     OW34318   1.280   4.329   4.362 -0.2142  0.0861  0.3529
 7562SOL    HW134319   1.249   4.320   4.452  0.8331  0.8049  0.7809
 7562SOL    HW234320   1.374   4.344   4.370 -0.2244  0.9057 -1.1863
 7563SOL     OW34321   2.408   0.984   5.899 -0.1514 -0.0686  0.3264
 7563SOL    HW134322   2.410   1.078   5.920  0.7225 -0.0563  0.1891
 7563SOL    HW234323   2.494   0.952   5.925  0.0451 -0.0004 -0.2421
 7564SOL     OW34324   3.091   0.300   1.605  0.3501  0.2883 -0.3243
 7564SOL    HW134325   3.135   0.373   1.562  0.0043  1.6390  1.5773
 7564SOL    HW234326   3.071   0.239   1.535  0.4777  1.3120 -1.2478
 7565SOL     OW34327   3.885   3.052  10.266 -0.3657 -0.0639 -0.3728
 7565SOL    HW134328   3.795   3.058  10.297  0.7979  4.3304  2.0247
 7565SOL    HW234329   3.903   3.144  10.251 -0.3046  0.1961  1.3138
 7566SOL     OW34330   1.574   2.126   3.646  0.1441 -0.4456 -0.1563
 7566SOL    HW134331   1.630   2.050   3.631 -0.8051 -1.3696  0.9729
 7566SOL    HW234332   1.559   2.151   3.555  1.4164  2.3848  0.4270
 7567SOL     OW34333   2.477   1.103  16.723  0.4318 -0.4443 -0.7561
 7567SOL    HW134334   2.438   1.030  16.676 -0.7149  0.8327 -1.7963
 7567SOL    HW234335   2.483   1.170  16.655  2.6378  0.4622  0.3293
 7568SOL     OW34336   2.342   2.262   0.084 -0.0488  0.2258 -0.3520
 7568SOL    HW134337   2.395   2.342   0.086  0.4113 -0.0475 -1.3372
 7568SOL    HW234338   2.307   2.265  17.749  1.5210 -1.0561 -1.0198
 7569SOL     OW34339   3.611   1.430   9.939 -0.8048  0.0323  0.0246
 7569SOL    HW134340   3.664   1.507   9.920 -1.3364  0.5254  0.5367
 7569SOL    HW234341   3.677   1.368   9.970  0.2912  0.0774 -2.2262
 7570SOL     OW34342   3.819   3.699   7.303  0.0677 -0.1098  0.1669
 7570SOL    HW134343   3.779   3.623   7.346  3.1105 -1.3603  0.7483
 7570SOL    HW234344   3.803   3.768   7.368 -0.6454  0.2923 -0.4279
 7571SOL     OW34345   4.339   1.613   2.956 -0.1069  0.6437  0.8870
 7571SOL    HW134346   4.289   1.558   3.016 -0.6171 -0.3652 -0.4798
 7571SOL    HW234347   4.415   1.635   3.009  0.4862  0.0501  0.2870
 7572SOL     OW34348   2.849   1.231  14.349  0.5261  0.0859  0.2282
 7572SOL    HW134349   2.924   1.258  14.296  0.0387 -1.4125 -1.2158
 7572SOL    HW234350   2.784   1.285  14.304  0.1180 -1.3661 -0.8956
 7573SOL     OW34351   1.448   1.971   6.861 -0.3460  0.1730 -0.7328
 7573SOL    HW134352   1.513   2.013   6.917  0.1029 -0.8462 -0.5129
 7573SOL    HW234353   1.381   1.945   6.924  0.3453  0.8828  0.2872
 7574SOL     OW34354   0.288   3.118  11.679  0.2571  0.0543  0.4763
 7574SOL    HW134355   0.261   3.100  11.589 -1.5154 -1.2641  1.2814
 7574SOL    HW234356   0.354   3.048  11.683 -0.2747 -0.4332  0.6850
 7575SOL     OW34357   1.358   1.569  12.124  0.0631 -0.2675 -0.7890
 7575SOL    HW134358   1.292   1.598  12.060  1.1313  2.0288 -0.8562
 7575SOL    HW234359   1.428   1.630  12.100 -0.2032 -0.1609 -1.3128
 7576SOL     OW34360   0.745   3.172   6.258 -0.4731 -0.5353  0.1666
 7576SOL    HW134361   0.777   3.091   6.299  0.7354  0.1665  0.6027
 7576SOL    HW234362   0.654   3.155   6.280 -0.4874  0.0873  0.5839
 7577SOL     OW34363   2.361   4.476   2.051  0.0066 -0.0313  0.3468
 7577SOL    HW134364   2.340   4.536   1.979  0.6196  0.6672  0.7586
 7577SOL    HW234365   2.383   4.395   2.005  2.0848  0.6840  0.0822
 7578SOL     OW34366   1.524   1.358   4.199 -1.0441 -0.2459  0.7019
 7578SOL    HW134367   1.575   1.324   4.272  2.4519  0.3898 -1.4815
 7578SOL    HW234368   1.501   1.443   4.237 -1.1099  0.0228  0.0540
 7579SOL     OW34369   1.786   3.499   3.968 -0.0074  0.2454  0.1413
 7579SOL    HW134370   1.840   3.554   4.024  0.7186 -1.5610  1.2228
 7579SOL    HW234371   1.732   3.455   4.033  2.1855 -1.6314  0.7095
 7580SOL     OW34372   4.490   3.529   0.694  0.2640  0.0941 -0.0399
 7580SOL    HW134373   4.582   3.528   0.667  0.2542  2.8419 -0.1651
 7580SOL    HW234374   4.470   3.622   0.706  0.2177  0.0759  0.0211
 7581SOL     OW34375   3.926   1.258   0.269  0.6210 -0.0965 -0.5108
 7581SOL    HW134376   4.003   1.301   0.307  0.9557 -1.5227  0.4025
 7581SOL    HW234377   3.903   1.204   0.344  0.8510 -1.8247 -1.6956
 7582SOL     OW34378   2.492   2.290  11.085  0.1735 -0.0045  0.3703
 7582SOL    HW134379   2.587   2.280  11.077  0.3925  0.2046  2.8360
 7582SOL    HW234380   2.485   2.378  11.049 -0.4337 -0.1863  0.0373
 7583SOL     OW34381   1.654   2.436   1.111 -0.6958  0.3700  0.1259
 7583SOL    HW134382   1.690   2.522   1.131 -0.3880  1.4514 -5.0455
 7583SOL    HW234383   1.634   2.449   1.018  1.1364  1.6035 -0.0797
 7584SOL     OW34384   1.615   2.532   2.335  0.0889  0.1381  0.1830
 7584SOL    HW134385   1.639   2.440   2.323 -0.7644 -0.2051  1.2014
 7584SOL    HW234386   1.643   2.556   2.423  2.1318  1.1237 -0.7100
 7585SOL     OW34387   2.433   2.158   4.403  0.2286 -0.0709 -0.0484
 7585SOL    HW134388   2.423   2.064   4.385  1.1460  0.1563 -1.7437
 7585SOL    HW234389   2.376   2.196   4.336  0.6765 -0.5163 -0.6903
 7586SOL     OW34390   4.110   4.193   2.396 -0.0116 -0.4653  0.9298
 7586SOL    HW134391   4.121   4.162   2.486 -0.0214 -1.8471  0.4671
 7586SOL    HW234392   4.044   4.138   2.355  0.5324 -0.3011 -0.1742
 7587SOL     OW34393   1.839   3.366  10.712 -0.9084 -0.0220 -0.1222
 7587SOL    HW134394   1.876   3.351  10.625 -0.8502  1.8691 -0.4382
 7587SOL    HW234395   1.917   3.397  10.758 -0.9541  2.1024 -1.4728
 7588SOL     OW34396   2.872   1.673  12.100 -0.4772  0.3493  0.6877
 7588SOL    HW134397   2.936   1.732  12.141 -0.5785  0.6167  0.4689
 7588SOL    HW234398   2.924   1.624  12.037 -0.1906 -0.2517  1.3952
 7589SOL     OW34399   4.528   2.743   8.169 -0.2795 -1.1148  0.0468
 7589SOL    HW134400   4.453   2.754   8.110 -0.0912  0.8718  0.1774
 7589SOL    HW234401   4.595   2.782   8.114 -1.9140  3.5174  1.3187
 7590SOL     OW34402   4.595   3.141   8.670 -0.0736 -0.1313 -0.6455
 7590SOL    HW134403   4.533   3.200   8.713  1.1496  0.7226 -0.0387
 7590SOL    HW234404   4.648   3.190   8.607  0.2765 -1.2356 -1.2180
 7591SOL     OW34405   1.372   3.424   1.275  0.6755 -0.8594  0.1516
 7591SOL    HW134406   1.445   3.362   1.270  1.7823  0.7519 -3.2364
 7591SOL    HW234407   1.295   3.373   1.301 -0.3604  0.6060 -0.0389
 7592SOL     OW34408   0.720   3.602  13.270 -0.2128  0.1834  0.0175
 7592SOL    HW134409   0.762   3.523  13.238  0.6603  0.7913 -0.3475
 7592SOL    HW234410   0.780   3.672  13.241  0.0882 -0.8636 -1.8516
 7593SOL     OW34411   0.262   1.246  14.050  0.4606  0.0848  0.3562
 7593SOL    HW134412   0.196   1.177  14.048  1.2995 -0.7722  2.8490
 7593SOL    HW234413   0.334   1.216  13.995  0.0896 -1.3774  0.6690
 7594SOL     OW34414   2.968   3.015   2.308  0.0236 -0.4747  0.2062
 7594SOL    HW134415   2.963   3.106   2.335  0.2243 -0.3170 -0.2984
 7594SOL    HW234416   3.037   2.982   2.367 -1.3086  0.2953  2.1846
 7595SOL     OW34417   1.915   4.582   0.344 -0.5479  0.2638  0.0209
 7595SOL    HW134418   1.952   4.547   0.263 -2.0985  1.2976 -1.1313
 7595SOL    HW234419   1.967   4.661   0.351  0.9671 -0.6137 -1.2131
 7596SOL     OW34420   0.185   2.253   4.701 -0.0698  0.2767  0.5612
 7596SOL    HW134421   0.274   2.264   4.733  0.1565 -2.2185  0.7839
 7596SOL    HW234422   0.157   2.342   4.679  1.1744  0.4720 -0.2226
 7597SOL     OW34423   2.951   2.154   2.551 -0.1360 -0.2583 -0.2514
 7597SOL    HW134424   2.957   2.100   2.629  3.0334  0.9380  0.3351
 7597SOL    HW234425   2.867   2.129   2.512 -0.6288  0.0785  0.6191
 7598SOL     OW34426   0.197   4.402  14.071 -0.5005  0.1583 -0.2065
 7598SOL    HW134427   0.105   4.410  14.046 -0.7767  0.5101  0.9097
 7598SOL    HW234428   0.234   4.470  14.015  0.0562 -0.0132 -0.0410
 7599SOL     OW34429   0.241   1.294   2.459  0.4448 -0.0565  0.0631
 7599SOL    HW134430   0.221   1.242   2.381 -0.9172 -1.6562  1.4807
 7599SOL    HW234431   0.336   1.284   2.468  0.5800  2.0148  0.8261
 7600SOL     OW34432   0.469   0.026   1.589 -0.5961  0.6049 -0.2159
 7600SOL    HW134433   0.444   0.115   1.613  0.1338  1.2785 -1.9870
 7600SOL    HW234434   0.411   4.720   1.651  0.4243  0.3153  0.5360
 7601SOL     OW34435   1.067   3.936   4.360  0.4995 -0.2757 -0.0117
 7601SOL    HW134436   0.999   3.959   4.424 -1.1563  0.5608 -2.0558
 7601SOL    HW234437   1.096   4.022   4.329  1.1749 -0.1984  0.8629
 7602SOL     OW34438   2.477   1.755   9.212 -0.2190 -0.4356  0.2174
 7602SOL    HW134439   2.467   1.789   9.300  1.1778  0.7663 -0.0917
 7602SOL    HW234440   2.406   1.692   9.200 -0.3710 -0.6134  2.0326
 7603SOL     OW34441   0.637   1.333   5.727  0.3501 -0.0760 -0.1805
 7603SOL    HW134442   0.550   1.312   5.693  0.5067  2.3289 -2.1228
 7603SOL    HW234443   0.681   1.351   5.644  1.4939 -2.2893 -0.0405
 7604SOL     OW34444   1.423   1.115   0.642 -0.1397  0.0636 -0.0046
 7604SOL    HW134445   1.497   1.157   0.598  0.6846  1.8467  3.0767
 7604SOL    HW234446   1.400   1.185   0.704  4.3799  2.0162 -0.5389
 7605SOL     OW34447   2.743   4.636   5.000 -0.0129  0.6827 -0.2140
 7605SOL    HW134448   2.701   4.710   4.956 -2.8250  1.0058  3.0237
 7605SOL    HW234449   2.688   4.638   5.078  1.3450 -0.0898  0.7506
 7606SOL     OW34450   1.292   0.053   3.451 -1.4331  0.5476  0.1914
 7606SOL    HW134451   1.269   0.022   3.363 -0.7710 -0.9130  0.5394
 7606SOL    HW234452   1.208   0.039   3.494 -0.7393 -1.6192  0.8315
 7607SOL     OW34453   3.256   3.874   7.177 -0.1588 -0.2137 -0.3748
 7607SOL    HW134454   3.176   3.845   7.220  0.4176 -0.1330  0.7563
 7607SOL    HW234455   3.273   3.788   7.138  0.3254 -0.3059  0.0402
 7608SOL     OW34456   3.772   4.592  12.474 -0.5729 -0.3813 -0.0991
 7608SOL    HW134457   3.699   4.538  12.443  2.4885 -3.2407 -2.3068
 7608SOL    HW234458   3.818   4.593  12.390 -0.2478  1.3313  0.0924
 7609SOL     OW34459   4.014   4.497   5.765  0.1459 -0.2056  0.1065
 7609SOL    HW134460   4.051   4.584   5.750  1.0783 -0.6556 -0.2363
 7609SOL    HW234461   3.937   4.519   5.818  0.4934 -1.0621  0.9675
 7610SOL     OW34462   3.635   3.833  10.379  0.7155  0.0942  0.4280
 7610SOL    HW134463   3.573   3.899  10.349  1.2910  0.7116  0.6165
 7610SOL    HW234464   3.653   3.789  10.295 -0.8405 -1.0636  0.7000
 7611SOL     OW34465   2.561   1.337   9.434  0.4038  0.5368  0.2810
 7611SOL    HW134466   2.580   1.430   9.442  1.1678  0.5111 -1.3008
 7611SOL    HW234467   2.647   1.310   9.466  0.4451 -0.4610 -0.6611
 7612SOL     OW34468   0.586   0.786   9.304 -0.6197 -0.3385 -0.0832
 7612SOL    HW134469   0.592   0.838   9.384  1.0966 -0.1549 -0.3163
 7612SOL    HW234470   0.602   0.694   9.324  2.0845 -0.0467 -0.8205
 7613SOL     OW34471   4.126   0.783  12.217  0.0588  0.0329  0.1635
 7613SOL    HW134472   4.069   0.713  12.250  0.1793 -0.1213  0.0432
 7613SOL    HW234473   4.212   0.745  12.238 -1.0193 -2.2377  0.5012
 7614SOL     OW34474   3.391   0.665   4.925  0.4681 -0.4232 -0.5595
 7614SOL    HW134475   3.358   0.576   4.939  1.3460 -0.8163 -1.0213
 7614SOL    HW234476   3.326   0.688   4.858  0.0579 -0.8569 -0.3142
 7615SOL     OW34477   2.798   3.255  17.335  0.5638  0.0209 -0.1948
 7615SOL    HW134478   2.735   3.326  17.323  1.2110  0.2621 -2.1548
 7615SOL    HW234479   2.736   3.199  17.383 -0.2682 -0.6505 -2.0392
 7616SOL     OW34480   4.460   3.301   4.149 -0.3912  0.1533  0.1796
 7616SOL    HW134481   4.432   3.263   4.232 -1.2519 -0.0717 -0.2132
 7616SOL    HW234482   4.496   3.226   4.101 -1.8637  0.6265 -1.6899
 7617SOL     OW34483   0.945   3.833   8.820 -0.4314  0.4910  0.5797
 7617SOL    HW134484   0.998   3.771   8.870 -0.8342  0.2026  0.6487
 7617SOL    HW234485   0.982   3.916   8.850  2.1373 -0.3117 -0.4090
 7618SOL     OW34486   2.707   1.921   0.993 -0.6377 -0.1036  0.1039
 7618SOL    HW134487   2.682   1.906   1.084  0.1330  1.1386  0.5096
 7618SOL    HW234488   2.686   2.014   0.986 -2.8426 -0.6597 -0.5728
 7619SOL     OW34489   1.415   2.752   2.508 -0.6945  0.4080  0.5826
 7619SOL    HW134490   1.336   2.735   2.457  0.7548 -2.7564 -0.5957
 7619SOL    HW234491   1.473   2.687   2.468 -0.8214  1.1088 -0.7224
 7620SOL     OW34492   2.765   0.584   6.985 -0.0027  0.3124 -0.2033
 7620SOL    HW134493   2.729   0.565   6.898 -1.4754 -2.6647  1.0494
 7620SOL    HW234494   2.680   0.595   7.026  0.4183  1.3647  0.3710
 7621SOL     OW34495   3.502   1.346   7.595 -0.4246  0.2726  0.7326
 7621SOL    HW134496   3.535   1.261   7.623  1.2495  1.2308  1.6654
 7621SOL    HW234497   3.412   1.315   7.589 -0.8127  1.4229  0.6731
 7622SOL     OW34498   1.844   3.070   0.522  0.2879  0.5090  0.1931
 7622SOL    HW134499   1.893   3.018   0.586 -0.4001  0.9509  1.0654
 7622SOL    HW234500   1.900   3.054   0.446 -0.9100  3.6951 -1.3213
 7623SOL     OW34501   0.654   4.547   6.986  0.3639 -0.2056 -0.1676
 7623SOL    HW134502   0.593   4.606   7.029  0.3592 -0.2559 -0.1049
 7623SOL    HW234503   0.602   4.525   6.909 -1.6244 -1.3748  1.4777
 7624SOL     OW34504   3.243   4.123   7.884  0.0825  1.4725  0.0090
 7624SOL    HW134505   3.314   4.162   7.935  2.0706 -0.4471 -1.2537
 7624SOL    HW234506   3.226   4.043   7.935  0.0698  1.2791 -0.2987
 7625SOL     OW34507   0.569   3.173   8.758  0.1792 -0.3404 -0.3233
 7625SOL    HW134508   0.538   3.144   8.843 -1.7143  0.5076 -0.7199
 7625SOL    HW234509   0.497   3.142   8.703 -1.1902 -0.3708  1.4879
 7626SOL     OW34510   0.181   0.841  13.208  0.5007 -0.6972 -0.5969
 7626SOL    HW134511   0.196   0.771  13.271 -0.3685 -0.2596  0.0829
 7626SOL    HW234512   0.260   0.842  13.154  1.0392  1.2452  0.2248
 7627SOL     OW34513   4.260   1.499   3.475  0.3382 -0.1664 -0.5507
 7627SOL    HW134514   4.234   1.440   3.545  0.4227  0.5690  0.0991
 7627SOL    HW234515   4.330   1.450   3.431  1.1902  1.7633 -1.3514
 7628SOL     OW34516   1.575   3.105   4.303 -0.1003 -0.2934  0.0922
 7628SOL    HW134517   1.495   3.077   4.348  1.1086 -0.7132  1.9573
 7628SOL    HW234518   1.624   3.135   4.379 -3.8924 -0.0603  2.4550
 7629SOL     OW34519   3.172   1.345   9.063 -0.0637  0.1529 -0.9028
 7629SOL    HW134520   3.216   1.426   9.091 -1.0183 -0.1472  1.5054
 7629SOL    HW234521   3.083   1.360   9.093  0.2786 -0.9420  0.6430
 7630SOL     OW34522   3.320   1.614   7.854  0.7100  0.0032 -0.2470
 7630SOL    HW134523   3.400   1.570   7.882 -0.2134 -0.5328  1.5107
 7630SOL    HW234524   3.288   1.639   7.941 -2.7977 -0.3131 -1.4229
 7631SOL     OW34525   4.120   1.750  11.602  0.5357  0.1688 -0.1506
 7631SOL    HW134526   4.215   1.759  11.609  0.5560  1.6521 -2.1735
 7631SOL    HW234527   4.079   1.829  11.637  0.8156 -0.1331  0.8530
 7632SOL     OW34528   1.994   4.551   1.851 -0.0682  0.1112 -0.2312
 7632SOL    HW134529   1.976   4.460   1.831  0.2927 -0.7928  3.5020
 7632SOL    HW234530   1.960   4.549   1.941  1.7034  1.0967  0.4793
 7633SOL     OW34531   3.100   0.623   3.963  0.5276 -0.0020 -0.0275
 7633SOL    HW134532   3.128   0.573   3.887 -0.8876  1.0637 -1.2493
 7633SOL    HW234533   3.023   0.577   3.997  0.8344 -0.5707 -0.1070
 7634SOL     OW34534   0.525   0.248   8.297  0.3102 -0.0732 -0.6537
 7634SOL    HW134535   0.567   0.276   8.379  0.0757  0.0292 -0.5684
 7634SOL    HW234536   0.463   0.320   8.287 -0.7601 -0.9249 -0.0586
 7635SOL     OW34537   4.148   0.042   3.759  0.0960  0.1383  0.7566
 7635SOL    HW134538   4.102   0.092   3.826  0.5372  1.0382  0.3909
 7635SOL    HW234539   4.110   4.694   3.759  0.9193 -0.2167  1.8866
 7636SOL     OW34540   4.610   0.552   0.725 -0.3367 -0.1901 -0.7953
 7636SOL    HW134541   4.627   0.466   0.763  0.3800  0.3291  0.0720
 7636SOL    HW234542   4.685   0.608   0.746  0.4028 -1.4096 -0.2582
 7637SOL     OW34543   1.997   1.901   0.738 -0.0674 -0.1917 -0.7622
 7637SOL    HW134544   2.043   1.824   0.705  0.8394  0.7540 -1.7108
 7637SOL    HW234545   2.054   1.966   0.698  0.0733  0.9807  1.3540
 7638SOL     OW34546   4.292   3.370   8.538  0.0833 -0.7023 -0.3415
 7638SOL    HW134547   4.279   3.464   8.538 -1.6610 -0.9370 -0.9980
 7638SOL    HW234548   4.360   3.357   8.473 -1.0310  0.0303 -1.6401
 7639SOL     OW34549   0.820   4.242   5.354 -0.0175  0.2215  0.4045
 7639SOL    HW134550   0.829   4.169   5.415  1.7200  0.6516  0.6345
 7639SOL    HW234551   0.744   4.206   5.307  0.1099 -0.9756  1.1140
 7640SOL     OW34552   1.981   1.696   2.432  0.4751 -0.8983 -0.1491
 7640SOL    HW134553   2.009   1.661   2.348  0.2270 -0.4429 -0.4213
 7640SOL    HW234554   2.063   1.699   2.481 -0.3333  1.1789  1.0523
 7641SOL     OW34555   4.592   1.882   8.194 -0.1123 -0.1643  0.0255
 7641SOL    HW134556   4.500   1.873   8.219 -0.5256 -0.3882 -1.5271
 7641SOL    HW234557   4.624   1.903   8.281 -2.4256  1.1440  0.5782
 7642SOL     OW34558   4.544   3.185   9.234 -0.4928 -0.0457 -0.4545
 7642SOL    HW134559   4.533   3.277   9.212 -1.1063  0.8093  3.4472
 7642SOL    HW234560   4.541   3.195   9.329 -0.1362  0.0326 -0.4524
 7643SOL     OW34561   3.616   0.947   0.294  0.3721  0.9792 -0.4853
 7643SOL    HW134562   3.565   1.021   0.261 -0.6041 -0.7120 -2.7959
 7643SOL    HW234563   3.688   0.941   0.231  2.0964 -0.3952  1.6368
 7644SOL     OW34564   4.545   3.475   6.451  0.6609  0.4211 -0.0560
 7644SOL    HW134565   4.563   3.381   6.449 -2.1402 -0.1875  3.5284
 7644SOL    HW234566   4.622   3.510   6.406 -0.3850  1.3677 -1.1415
 7645SOL     OW34567   1.599   3.063   6.520  0.2503  0.4013  0.1124
 7645SOL    HW134568   1.570   3.041   6.431  0.3992 -2.8332  0.8901
 7645SOL    HW234569   1.662   2.995   6.543 -1.7660 -1.6750 -0.4347
 7646SOL     OW34570   3.184   3.102  10.105 -0.1880 -0.1496  0.9843
 7646SOL    HW134571   3.274   3.075  10.089  0.5227  0.8921  3.2450
 7646SOL    HW234572   3.141   3.059  10.031  3.5156  0.1083 -1.3176
 7647SOL     OW34573   3.752   1.595   3.262 -1.2874  0.3866 -0.2431
 7647SOL    HW134574   3.808   1.648   3.319 -0.2893 -0.8083 -0.1091
 7647SOL    HW234575   3.816   1.530   3.234 -2.6965 -0.7055 -0.9467
 7648SOL     OW34576   3.489   3.842  17.485 -0.4790 -0.5151  0.1321
 7648SOL    HW134577   3.461   3.871  17.399 -0.9793  1.5625  0.9936
 7648SOL    HW234578   3.583   3.829  17.473 -0.5798  1.2984 -2.4900
 7649SOL     OW34579   2.665   3.845   8.138  0.4294  0.0483  0.0244
 7649SOL    HW134580   2.593   3.786   8.160  0.2990 -0.4415 -1.6711
 7649SOL    HW234581   2.685   3.886   8.222 -0.8381 -1.5785  1.1335
 7650SOL     OW34582   3.590   4.066   0.643 -0.0976 -0.4065  0.3785
 7650SOL    HW134583   3.538   4.031   0.715 -2.7934  1.9954 -0.3978
 7650SOL    HW234584   3.676   4.061   0.685 -0.2301  0.0053  0.7074
 7651SOL     OW34585   3.094   4.463   8.490  0.3580 -0.3090  0.1167
 7651SOL    HW134586   3.106   4.369   8.475  0.5287 -0.7842  3.2473
 7651SOL    HW234587   3.020   4.467   8.551  1.8862  0.6542  1.9066
 7652SOL     OW34588   1.054   0.765  16.740  0.3950  0.6772  0.0108
 7652SOL    HW134589   1.077   0.672  16.737  1.7993  1.0551 -0.7956
 7652SOL    HW234590   1.116   0.795  16.674  0.4986  1.6571  0.5502
 7653SOL     OW34591   3.198   1.617   9.536  0.2900 -0.1974 -0.0206
 7653SOL    HW134592   3.286   1.630   9.503  0.2022  0.5097  0.0231
 7653SOL    HW234593   3.205   1.676   9.611 -2.9468 -0.2244  0.2916
 7654SOL     OW34594   1.661   2.158   7.934  0.3832 -0.3153 -0.6518
 7654SOL    HW134595   1.645   2.241   7.980 -0.8206 -2.0764  2.0849
 7654SOL    HW234596   1.688   2.102   8.007 -1.9263  1.5224  1.6356
 7655SOL     OW34597   4.249   4.437   3.895 -0.5358  0.1740  0.2801
 7655SOL    HW134598   4.225   4.344   3.892  0.9334 -0.1736 -0.6488
 7655SOL    HW234599   4.303   4.433   3.974  1.4846  1.3404 -1.0483
 7656SOL     OW34600   3.916   2.139   6.972 -0.1051 -0.4849 -0.2140
 7656SOL    HW134601   3.901   2.086   6.894 -0.0373  0.3495 -0.7977
 7656SOL    HW234602   4.010   2.128   6.985  0.3103 -1.8656 -4.5525
 7657SOL     OW34603   0.747   3.842   1.030 -0.2377  0.4230  0.6193
 7657SOL    HW134604   0.746   3.933   1.059  0.2578 -0.0399  2.0528
 7657SOL    HW234605   0.700   3.799   1.101  0.6171  0.8725  1.4660
 7658SOL     OW34606   3.070   1.589   8.847 -0.2630  0.0630  0.4655
 7658SOL    HW134607   3.094   1.671   8.804  0.6177  0.3156  1.4442
 7658SOL    HW234608   3.137   1.537   8.805 -0.3790  0.5220 -0.2824
 7659SOL     OW34609   0.525   3.126   9.028  0.1002  0.4388 -0.2822
 7659SOL    HW134610   0.453   3.134   9.090 -0.2733 -2.6042 -0.2932
 7659SOL    HW234611   0.602   3.157   9.076 -1.0072  1.9589  0.4948
 7660SOL     OW34612   3.338   1.905  16.725 -0.4098  0.0301 -0.4471
 7660SOL    HW134613   3.250   1.872  16.705 -0.6248 -1.1365  2.3126
 7660SOL    HW234614   3.326   1.964  16.800  0.9428  0.4323 -0.5441
 7661SOL     OW34615   2.620   2.723  12.478 -0.5979 -0.6504  0.1217
 7661SOL    HW134616   2.630   2.762  12.391  1.0795  1.2541  1.1360
 7661SOL    HW234617   2.665   2.641  12.461  2.1444  1.0085 -0.7386
 7662SOL     OW34618   2.322   3.513  11.184 -0.0039  0.0991 -0.4396
 7662SOL    HW134619   2.274   3.504  11.266 -0.9095  0.1806 -0.9631
 7662SOL    HW234620   2.295   3.594  11.140 -1.2410  0.4267  0.9374
 7663SOL     OW34621   1.669   1.293  13.664  0.1561  0.1519  0.3418
 7663SOL    HW134622   1.714   1.221  13.619 -3.0592 -1.4657 -0.2697
 7663SOL    HW234623   1.684   1.276  13.757 -1.5148  0.4978  0.6622
 7664SOL     OW34624   4.468   0.387   2.580 -0.4836 -0.0928  0.1602
 7664SOL    HW134625   4.443   0.429   2.662  1.0302 -3.1099  2.1561
 7664SOL    HW234626   4.384   0.369   2.538 -1.8751  4.3416  1.0772
 7665SOL     OW34627   3.044   1.076   7.988  0.4865  0.0924 -0.1360
 7665SOL    HW134628   3.122   1.096   8.040  1.1866  0.3690 -1.2854
 7665SOL    HW234629   3.069   0.991   7.949  0.4002 -0.0815  0.1914
 7666SOL     OW34630   1.176   0.722   3.797  0.4432  0.1258 -0.1654
 7666SOL    HW134631   1.210   0.807   3.825  0.4917 -0.4956  1.6726
 7666SOL    HW234632   1.119   0.715   3.874  0.5153  2.0151  0.0662
 7667SOL     OW34633   2.141   4.077   8.162  0.1158  0.1857 -0.4511
 7667SOL    HW134634   2.212   4.086   8.099 -1.4427  0.1007 -2.2159
 7667SOL    HW234635   2.066   4.111   8.113 -0.2307  1.7687  1.1495
 7668SOL     OW34636   0.751   4.041  10.860 -0.3269  0.4678 -0.8942
 7668SOL    HW134637   0.749   3.946  10.870 -2.3103  0.5917 -0.2080
 7668SOL    HW234638   0.681   4.059  10.922  0.3830 -1.2584  0.3964
 7669SOL     OW34639   2.384   3.228  12.490  0.7518 -0.5071 -0.3072
 7669SOL    HW134640   2.410   3.316  12.462 -1.2553  0.0038 -0.6089
 7669SOL    HW234641   2.433   3.175  12.427  1.9127  2.4163 -1.8451
 7670SOL     OW34642   1.617   2.345   8.113  0.4520 -0.2868  0.0777
 7670SOL    HW134643   1.534   2.369   8.072  0.1407  1.2666  1.6331
 7670SOL    HW234644   1.653   2.432   8.096 -0.0616 -0.1516 -0.3356
 7671SOL     OW34645   3.620   1.188  10.886  0.1004 -0.1267 -0.0925
 7671SOL    HW134646   3.554   1.138  10.935 -1.3257  1.7328 -0.0917
 7671SOL    HW234647   3.604   1.147  10.800  1.4454 -1.4185  0.2772
 7672SOL     OW34648   3.109   3.640   5.716  0.4910  0.2089  0.1495
 7672SOL    HW134649   3.154   3.674   5.639 -0.0116 -0.4166 -0.4179
 7672SOL    HW234650   3.160   3.560   5.728  0.8169  0.4562  0.3929
 7673SOL     OW34651   4.035   2.985   4.690  0.1273  0.3018  0.2512
 7673SOL    HW134652   4.098   2.935   4.742  1.2887 -0.2745 -1.7237
 7673SOL    HW234653   4.006   2.920   4.626  0.4770  2.1959 -1.8689
 7674SOL     OW34654   3.363   2.283   1.740  0.2171 -0.1273  0.1619
 7674SOL    HW134655   3.401   2.209   1.787  1.0665 -0.9031 -1.7419
 7674SOL    HW234656   3.444   2.330   1.720 -1.1258  1.3342 -1.8437
 7675SOL     OW34657   3.222   0.951   6.137  0.2368 -0.4766 -0.5631
 7675SOL    HW134658   3.257   0.991   6.217 -3.6298 -1.1589  1.4747
 7675SOL    HW234659   3.276   0.872   6.128 -0.8968 -1.4842  1.5241
 7676SOL     OW34660   2.562   0.445   6.818 -0.3769  1.1397 -0.5629
 7676SOL    HW134661   2.516   0.446   6.734 -1.0445 -1.3637 -0.2397
 7676SOL    HW234662   2.605   0.362   6.797 -1.6942  0.5697 -0.9903
 7677SOL     OW34663   2.460   0.220   7.167 -0.1360 -0.1442 -0.1397
 7677SOL    HW134664   2.479   0.197   7.076 -2.0074 -2.5965  0.0899
 7677SOL    HW234665   2.374   0.259   7.154 -0.2699 -1.2341 -2.5395
 7678SOL     OW34666   4.485   2.223  12.236  0.4218  0.1712  0.1574
 7678SOL    HW134667   4.504   2.303  12.285 -0.9014 -1.2167  2.9147
 7678SOL    HW234668   4.390   2.219  12.237  0.2782  3.3412 -0.2778
 7679SOL     OW34669   2.780   3.370   3.433 -0.2686 -0.1569  0.6759
 7679SOL    HW134670   2.723   3.419   3.374  0.7017 -1.0699 -1.0209
 7679SOL    HW234671   2.862   3.420   3.429  1.1467 -2.4068  1.8546
 7680SOL     OW34672   2.845   0.640   8.221  0.1033  0.2685 -0.2599
 7680SOL    HW134673   2.849   0.734   8.204  0.3493  0.1060 -1.0863
 7680SOL    HW234674   2.763   0.633   8.271 -0.0653  1.5259 -0.3525
 7681SOL     OW34675   1.836   0.287   9.355  0.3377 -0.4032 -0.1741
 7681SOL    HW134676   1.924   0.274   9.391 -0.3859 -2.2076  0.9574
 7681SOL    HW234677   1.843   0.356   9.290 -0.7392 -0.6194 -0.5270
 7682SOL     OW34678   3.756   3.298   4.721 -0.1530 -0.4352  0.5855
 7682SOL    HW134679   3.762   3.305   4.625 -0.5338 -0.9975  0.5201
 7682SOL    HW234680   3.671   3.256   4.729  0.5547 -1.7684  1.0434
 7683SOL     OW34681   3.283   1.457   1.841  0.2942  0.0159 -0.2420
 7683SOL    HW134682   3.310   1.409   1.762  1.2359  1.6502 -0.9138
 7683SOL    HW234683   3.343   1.531   1.852  1.2981 -0.8089 -0.2436
 7684SOL     OW34684   1.803   0.526   9.122 -0.3869 -0.3901  0.2545
 7684SOL    HW134685   1.708   0.538   9.111 -0.3470 -0.1279  0.1873
 7684SOL    HW234686   1.825   0.584   9.195 -0.0966 -0.4060  0.1789
 7685SOL     OW34687   0.406   2.789   2.382  0.2410  0.6796  0.1720
 7685SOL    HW134688   0.430   2.697   2.393  3.6261  1.2511 -2.0864
 7685SOL    HW234689   0.349   2.782   2.305 -0.9656 -2.9129  1.4156
 7686SOL     OW34690   0.521   1.641   9.436 -0.3913 -0.1857  0.5928
 7686SOL    HW134691   0.493   1.709   9.376  1.4782 -0.3764 -0.4591
 7686SOL    HW234692   0.616   1.638   9.429 -0.3345  1.2878  0.8364
 7687SOL     OW34693   4.528   4.692   8.778  0.0154 -0.2566  0.2990
 7687SOL    HW134694   4.449   4.721   8.824  0.7787  2.3574 -0.0383
 7687SOL    HW234695   4.598   4.706   8.842 -0.7085 -0.3973  1.1310
 7688SOL     OW34696   3.394   4.002   4.089 -0.6477 -0.0105 -0.4498
 7688SOL    HW134697   3.424   3.946   4.161 -0.7732  1.9332  1.1258
 7688SOL    HW234698   3.310   3.962   4.065 -0.1148 -0.6750 -1.1790
 7689SOL     OW34699   4.538   1.493   7.383  0.7543 -0.1056  0.0647
 7689SOL    HW134700   4.532   1.475   7.477 -0.0798  0.1633  0.0646
 7689SOL    HW234701   4.615   1.443   7.356 -0.3518 -1.5399 -0.4503
 7690SOL     OW34702   4.168   3.255   4.298 -0.0059  0.1946 -0.0989
 7690SOL    HW134703   4.145   3.270   4.389 -0.5556 -1.0554 -0.0202
 7690SOL    HW234704   4.131   3.327   4.247  0.2933 -0.4939 -1.2970
 7691SOL     OW34705   1.186   2.463   3.951 -0.5097 -0.3319 -0.0737
 7691SOL    HW134706   1.207   2.516   3.874 -0.2276 -1.7842 -1.0061
 7691SOL    HW234707   1.109   2.416   3.919  0.5146 -2.8807  1.1803
 7692SOL     OW34708   1.385   3.098   4.530  0.3332 -0.0057 -0.0630
 7692SOL    HW134709   1.480   3.096   4.542  0.1055 -2.5358  1.3052
 7692SOL    HW234710   1.372   3.033   4.600  0.8656 -0.5772 -0.4916
 7693SOL     OW34711   3.489   1.822   1.989 -0.0975 -0.0891 -0.2612
 7693SOL    HW134712   3.544   1.743   1.989 -0.0046 -0.0268  1.4622
 7693SOL    HW234713   3.458   1.806   1.900  2.4752  0.9664 -1.3383
 7694SOL     OW34714   4.024   3.629  13.495 -0.0247  0.1562  0.3277
 7694SOL    HW134715   4.064   3.610  13.579  0.5225  0.4009  0.1240
 7694SOL    HW234716   4.078   3.582  13.431  1.2327  0.6832  1.0097
 7695SOL     OW34717   0.668   1.760  16.145 -0.4699  0.1758  0.2543
 7695SOL    HW134718   0.607   1.818  16.100  1.4257  1.8024 -0.1802
 7695SOL    HW234719   0.681   1.817  16.221 -0.3014 -0.1581  0.4793
 7696SOL     OW34720   3.441   4.179   9.255 -0.3793 -0.2592 -0.7234
 7696SOL    HW134721   3.424   4.227   9.336 -1.4922 -2.3263  0.2702
 7696SOL    HW234722   3.486   4.106   9.297 -0.7103  0.1812  0.3961
 7697SOL     OW34723   2.826   1.386   7.836 -0.4883 -0.1419 -0.7163
 7697SOL    HW134724   2.797   1.467   7.878  0.7286 -0.3738  0.5721
 7697SOL    HW234725   2.821   1.317   7.902 -1.5564  0.6491  0.0148
 7698SOL     OW34726   2.101   0.358   1.601  0.1477 -0.3341  0.1419
 7698SOL    HW134727   2.029   0.401   1.555  2.0600  0.8732 -1.6907
 7698SOL    HW234728   2.163   0.430   1.589 -0.2570 -0.0642 -0.3234
 7699SOL     OW34729   2.578   0.901  14.818  0.2902 -0.2070  0.2287
 7699SOL    HW134730   2.612   0.898  14.908 -2.7294 -2.0536  1.3196
 7699SOL    HW234731   2.653   0.934  14.769  0.3693 -1.7610 -0.6752
 7700SOL     OW34732   4.169   2.068   6.612  0.1804 -0.6612  0.1721
 7700SOL    HW134733   4.207   1.994   6.659  0.5957 -0.0541  0.7881
 7700SOL    HW234734   4.081   2.034   6.598  0.9549 -2.5595 -0.1610
 7701SOL     OW34735   0.654   4.466   8.694  0.0778  0.0978  0.3354
 7701SOL    HW134736   0.642   4.426   8.608  1.3125  0.2011  0.1126
 7701SOL    HW234737   0.722   4.416   8.740 -0.2531  1.2099  2.0470
 7702SOL     OW34738   2.947   0.065   0.568  0.0679  0.2937 -0.1777
 7702SOL    HW134739   2.892   0.097   0.640  0.6272  0.7172  0.0664
 7702SOL    HW234740   2.997   0.142   0.542  0.8055 -0.2742 -0.4668
 7703SOL     OW34741   4.702   2.541   7.754  0.0343 -0.4046  0.0792
 7703SOL    HW134742   4.662   2.596   7.688  1.4939  0.9353  0.2966
 7703SOL    HW234743   4.694   2.462   7.701  0.7357 -1.2532  1.2309
 7704SOL     OW34744   1.472   1.962  16.737  0.5954 -0.2915  0.7032
 7704SOL    HW134745   1.442   2.033  16.680 -0.7141 -1.6523 -0.2736
 7704SOL    HW234746   1.503   2.019  16.808 -0.0240 -1.7410  2.1181
 7705SOL     OW34747   3.239   3.404   5.737 -0.5090  0.3320  0.1186
 7705SOL    HW134748   3.324   3.368   5.761 -1.0128 -0.9033  0.0636
 7705SOL    HW234749   3.179   3.351   5.790 -0.8510  0.9592  0.3641
 7706SOL     OW34750   2.909   4.437   8.180  0.2736 -0.0218  0.0070
 7706SOL    HW134751   2.889   4.360   8.128 -0.3443  0.1979 -0.0729
 7706SOL    HW234752   2.913   4.395   8.267 -0.2271  0.8592  0.4534
 7707SOL     OW34753   0.433   1.707   8.216  0.0887 -0.0259 -0.3013
 7707SOL    HW134754   0.363   1.757   8.258 -0.2310 -0.4735 -0.3061
 7707SOL    HW234755   0.407   1.714   8.124 -1.5876  0.4152  0.2043
 7708SOL     OW34756   1.697   2.794   4.615 -0.4593 -0.4528 -0.1715
 7708SOL    HW134757   1.704   2.726   4.681  1.4317 -0.2544 -0.1488
 7708SOL    HW234758   1.694   2.735   4.540  2.4075  0.0857 -0.7221
 7709SOL     OW34759   3.642   4.336   9.180  0.2061  0.1507  0.0771
 7709SOL    HW134760   3.697   4.306   9.108  0.7610  0.5225  0.3521
 7709SOL    HW234761   3.567   4.278   9.164  0.4255 -0.1817  0.2739
 7710SOL     OW34762   3.333   0.287  10.853 -0.2986 -0.0169 -0.5063
 7710SOL    HW134763   3.361   0.348  10.784 -1.1957 -0.8301 -1.5899
 7710SOL    HW234764   3.398   0.305  10.920  0.2381  1.5199 -1.4392
 7711SOL     OW34765   1.943   4.135   4.829 -0.0291 -0.0818  0.1701
 7711SOL    HW134766   1.893   4.114   4.907  0.4987 -0.8575  0.2979
 7711SOL    HW234767   1.911   4.225   4.816  2.3320  0.7741  0.2243
 7712SOL     OW34768   2.803   1.000   4.470  0.3185  0.7979 -0.0790
 7712SOL    HW134769   2.783   1.056   4.395 -0.7675  1.7134  0.9070
 7712SOL    HW234770   2.785   1.071   4.532 -0.8350  0.0433  0.4537
 7713SOL     OW34771   3.978   3.824   8.165 -0.2715  0.4287  0.0254
 7713SOL    HW134772   3.947   3.852   8.251  1.0277  0.8085  0.3698
 7713SOL    HW234773   3.901   3.853   8.115 -1.8310 -1.9345  1.0391
 7714SOL     OW34774   2.006   1.903   5.696  0.7149  0.2347 -0.2577
 7714SOL    HW134775   1.932   1.961   5.712  0.7232  0.1013  0.2521
 7714SOL    HW234776   1.974   1.829   5.746 -1.8916  1.8263  0.4347
 7715SOL     OW34777   1.474   3.169  17.734  0.1515  0.0916  0.0842
 7715SOL    HW134778   1.512   3.081  17.735 -0.7751 -0.3087 -0.2759
 7715SOL    HW234779   1.459   3.196   0.070  1.0948  1.2994 -0.1276
 7716SOL     OW34780   0.929   4.727   4.505  0.2281  0.6334  0.0877
 7716SOL    HW134781   0.871   0.039   4.560  1.7819  2.1832  0.2889
 7716SOL    HW234782   1.013   0.031   4.523  0.1869  1.3527 -1.4231
 7717SOL     OW34783   0.257   4.179  16.690  0.1739  0.0432  0.4659
 7717SOL    HW134784   0.271   4.263  16.646  1.0354  0.3571  1.3568
 7717SOL    HW234785   0.242   4.220  16.775 -1.5243 -3.7144  1.9687
 7718SOL     OW34786   1.659   0.324  13.286 -0.3635 -0.3287  0.0349
 7718SOL    HW134787   1.682   0.234  13.260  2.2573 -0.1157  1.6925
 7718SOL    HW234788   1.739   0.374  13.269 -0.6641  0.4243  0.8720
 7719SOL     OW34789   0.592   1.314   8.226 -0.1804  0.1507  0.1292
 7719SOL    HW134790   0.648   1.372   8.175 -1.3088  2.2935  1.2920
 7719SOL    HW234791   0.649   1.240   8.246 -1.3892 -1.3203 -1.7785
 7720SOL     OW34792   1.226   3.218   6.043 -0.2304 -0.4129  0.4563
 7720SOL    HW134793   1.163   3.170   6.097 -0.8824  2.0970  1.9301
 7720SOL    HW234794   1.236   3.298   6.095 -0.9298 -0.5170  0.7496
 7721SOL     OW34795   2.481   4.051  15.065  0.4340  0.0516 -0.3021
 7721SOL    HW134796   2.434   4.071  15.146  0.8620 -0.2448  0.0208
 7721SOL    HW234797   2.433   4.103  15.001 -3.1422 -0.2313  2.1717
 7722SOL     OW34798   4.246   3.707   9.018 -0.5002 -0.0063 -0.1062
 7722SOL    HW134799   4.247   3.666   9.104  0.5414  1.3220  0.5005
 7722SOL    HW234800   4.337   3.706   8.990 -0.4952 -0.0127 -0.0897
 7723SOL     OW34801   4.498   3.404   0.126 -0.4024  0.0751  0.2490
 7723SOL    HW134802   4.507   3.320   0.081  1.9384 -0.2806  1.3620
 7723SOL    HW234803   4.420   3.439   0.085  0.6158  1.4568 -0.4689
 7724SOL     OW34804   3.304   2.981   3.080 -0.9252 -0.4862 -0.1952
 7724SOL    HW134805   3.238   2.913   3.065 -0.9479 -0.8194  1.3791
 7724SOL    HW234806   3.312   3.016   2.992 -1.6931 -0.5333 -0.2914
 7725SOL     OW34807   2.811   4.446   7.843 -0.6097 -0.1671 -0.0267
 7725SOL    HW134808   2.781   4.478   7.758 -0.8570  0.2896  0.2314
 7725SOL    HW234809   2.852   4.361   7.828  1.3965  0.5696  1.2564
 7726SOL     OW34810   1.915   4.330   3.065 -0.0858  0.3842 -0.9591
 7726SOL    HW134811   1.994   4.333   3.118  0.5316  0.9055 -1.8975
 7726SOL    HW234812   1.944   4.392   2.998 -0.3311 -0.3794 -1.7637
 7727SOL     OW34813   0.803   1.530   9.187  0.2155  0.0806  0.5318
 7727SOL    HW134814   0.785   1.608   9.238  0.9328  0.2908  0.4719
 7727SOL    HW234815   0.899   1.521   9.191  0.0464 -2.4012 -0.7376
 7728SOL     OW34816   0.278   0.995   3.143  0.1326 -0.5941  0.3467
 7728SOL    HW134817   0.291   1.001   3.238 -1.0507 -0.8538  0.5254
 7728SOL    HW234818   0.289   1.085   3.112  1.7061 -0.3108  1.7045
 7729SOL     OW34819   0.380   3.065   7.822  0.1437  0.2481 -0.0947
 7729SOL    HW134820   0.407   3.011   7.896 -1.5246 -1.5412 -0.7873
 7729SOL    HW234821   0.335   2.995   7.775 -0.8726  1.1090 -0.4052
 7730SOL     OW34822   3.023   0.800   7.670 -0.5601 -0.2253  0.6833
 7730SOL    HW134823   2.955   0.736   7.693 -0.1987 -1.1236 -0.7816
 7730SOL    HW234824   2.962   0.870   7.649 -1.4923 -1.6927 -1.5047
 7731SOL     OW34825   1.334   3.756   9.806 -0.7523  0.1225  0.2779
 7731SOL    HW134826   1.257   3.796   9.765 -0.5014  1.0338  0.6996
 7731SOL    HW234827   1.338   3.812   9.884  2.2708 -0.3170  0.4488
 7732SOL     OW34828   4.550   3.378  16.241 -0.0346 -0.5615  0.2173
 7732SOL    HW134829   4.566   3.446  16.307 -1.3080 -1.1116  1.0884
 7732SOL    HW234830   4.521   3.306  16.297 -2.1264 -0.1965 -0.3887
 7733SOL     OW34831   1.954   3.700  13.392  0.0724 -0.1669  0.5375
 7733SOL    HW134832   1.886   3.673  13.454  0.7837  1.0167  1.8038
 7733SOL    HW234833   1.909   3.655  13.320 -0.5121  0.3129  0.6035
 7734SOL     OW34834   3.365   2.092   5.087  0.7468 -0.0491  0.1891
 7734SOL    HW134835   3.270   2.099   5.076  1.0499 -0.2125 -2.5282
 7734SOL    HW234836   3.380   2.002   5.059  0.8171  1.5660 -4.8641
 7735SOL     OW34837   0.402   2.662   5.631 -0.0667 -0.5186  0.5157
 7735SOL    HW134838   0.463   2.733   5.649  1.0521 -0.5788 -2.9936
 7735SOL    HW234839   0.347   2.700   5.562  0.9293  2.3171  1.2907
 7736SOL     OW34840   3.466   0.730   2.864 -0.3761  0.1953 -0.3695
 7736SOL    HW134841   3.523   0.707   2.791  0.5117  1.6119 -0.1289
 7736SOL    HW234842   3.410   0.780   2.804 -0.0076 -1.6263 -2.2217
 7737SOL     OW34843   2.187   0.505   7.201 -0.0272  0.1718  0.0042
 7737SOL    HW134844   2.203   0.599   7.197  1.2897 -0.0965 -0.9154
 7737SOL    HW234845   2.247   0.476   7.132 -1.9485  0.7979 -1.8975
 7738SOL     OW34846   2.778   1.622   5.554 -0.1036  0.1118 -0.1548
 7738SOL    HW134847   2.756   1.576   5.634  0.5033  0.5311  0.2491
 7738SOL    HW234848   2.688   1.635   5.523 -0.0791 -1.1081 -0.7250
 7739SOL     OW34849   0.457   1.767  12.273 -0.3325 -0.1903 -0.1271
 7739SOL    HW134850   0.541   1.795  12.308 -1.2460  2.7181 -0.2391
 7739SOL    HW234851   0.482   1.683  12.236 -2.4166 -0.0602 -1.8686
 7740SOL     OW34852   3.092   3.155   3.172 -0.4966  0.3992  0.0109
 7740SOL    HW134853   3.158   3.101   3.128 -0.2240  0.3688  0.4573
 7740SOL    HW234854   3.017   3.098   3.188 -1.5456  0.4833 -4.6136
 7741SOL     OW34855   3.195   0.228   4.513 -0.4200 -0.3954  0.6617
 7741SOL    HW134856   3.120   0.222   4.572 -0.1431 -0.8494  0.9659
 7741SOL    HW234857   3.248   0.153   4.540 -0.6134 -0.3164  1.2527
 7742SOL     OW34858   4.272   4.004  10.169 -0.9748 -0.0506 -0.2961
 7742SOL    HW134859   4.267   3.939  10.238 -1.3973  0.2577 -0.0373
 7742SOL    HW234860   4.252   4.083  10.219  1.5031 -0.3693  1.1761
 7743SOL     OW34861   0.780   1.547  15.470  0.3821 -0.0889 -0.2024
 7743SOL    HW134862   0.801   1.533  15.562  1.8391 -0.8883 -0.6545
 7743SOL    HW234863   0.867   1.565  15.435  1.0162 -1.8652  0.4879
 7744SOL     OW34864   0.399   1.391  17.493  0.0227 -0.3521  0.1572
 7744SOL    HW134865   0.359   1.469  17.454  0.0073 -1.0842 -1.3214
 7744SOL    HW234866   0.471   1.426  17.545 -0.5314  2.5810 -1.0525
 7745SOL     OW34867   1.292   4.735  13.987 -0.1241 -0.4248 -0.1488
 7745SOL    HW134868   1.235   4.663  13.959  0.9137 -0.6037 -1.7776
 7745SOL    HW234869   1.338   4.693  14.061 -1.2520  0.6664  1.1632
 7746SOL     OW34870   4.305   4.253   7.778  0.3552  0.4517 -0.2601
 7746SOL    HW134871   4.294   4.232   7.871  0.5079  3.6882  0.4769
 7746SOL    HW234872   4.302   4.165   7.739 -0.6078 -0.6327  2.2792
 7747SOL     OW34873   4.618   0.088   3.944 -0.0403 -0.3245  0.6120
 7747SOL    HW134874   4.616   0.093   3.849  0.6424  0.9881  0.6693
 7747SOL    HW234875   4.549   0.148   3.974  0.1270  1.1579 -2.0133
 7748SOL     OW34876   1.254   3.660  17.248  0.4475 -0.1131 -0.3071
 7748SOL    HW134877   1.297   3.580  17.217 -0.2787 -0.6459  0.0525
 7748SOL    HW234878   1.194   3.624  17.314 -1.5676  0.0286 -2.0885
 7749SOL     OW34879   1.824   3.080   1.498 -0.1976  0.4359  0.2669
 7749SOL    HW134880   1.807   3.110   1.409 -0.4090 -0.6821 -0.0629
 7749SOL    HW234881   1.842   3.159   1.549 -2.0729  1.2188 -0.3226
 7750SOL     OW34882   3.915   3.035   5.414  0.3332 -0.4266 -0.3159
 7750SOL    HW134883   3.946   3.018   5.503  1.8788 -0.4376 -0.8509
 7750SOL    HW234884   3.863   3.115   5.424  0.8320 -0.1851  0.4060
 7751SOL     OW34885   3.261   1.073  14.732 -0.0279 -0.1071 -0.1584
 7751SOL    HW134886   3.342   1.039  14.694  0.4768 -0.0892  0.8908
 7751SOL    HW234887   3.301   1.123  14.803  0.2932  1.2621 -1.3196
 7752SOL     OW34888   1.520   3.150  16.054 -0.2195  0.2570 -0.2244
 7752SOL    HW134889   1.447   3.115  16.003  0.8298  0.1190 -1.6080
 7752SOL    HW234890   1.545   3.070  16.100 -2.3336  0.5717  1.5339
 7753SOL     OW34891   3.524   2.279   1.316  0.5546  0.7567 -0.7243
 7753SOL    HW134892   3.601   2.244   1.271  0.1488  1.3303 -1.8615
 7753SOL    HW234893   3.452   2.278   1.254  0.8343 -0.5746 -1.0227
 7754SOL     OW34894   1.622   0.242   5.853 -0.4776 -0.0621 -0.4943
 7754SOL    HW134895   1.559   0.310   5.826  0.4739  0.0879 -2.3165
 7754SOL    HW234896   1.564   0.170   5.878  1.2137 -1.2139  0.0159
 7755SOL     OW34897   0.573   3.844  12.193 -0.5633  0.4102  0.4295
 7755SOL    HW134898   0.553   3.887  12.109 -0.9083  1.4839  1.0579
 7755SOL    HW234899   0.667   3.853  12.206 -0.9698  0.9078  3.0576
 7756SOL     OW34900   3.251   4.009  10.052  0.5218 -0.1366 -0.2039
 7756SOL    HW134901   3.228   3.990  10.143 -0.1207 -0.3819 -0.4121
 7756SOL    HW234902   3.164   4.024  10.014  0.5358  1.5901  0.4824
 7757SOL     OW34903   0.451   2.204   7.782 -0.2232 -0.3760 -0.1760
 7757SOL    HW134904   0.473   2.182   7.692 -3.0823 -1.2304 -0.6807
 7757SOL    HW234905   0.403   2.285   7.763  0.0472  0.7384  3.8841
 7758SOL     OW34906   1.068   0.539   3.260 -0.8064  0.4481 -0.2478
 7758SOL    HW134907   1.010   0.560   3.187 -0.8382 -0.0384 -0.3609
 7758SOL    HW234908   1.143   0.502   3.214  0.2557 -1.3301  2.9368
 7759SOL     OW34909   0.841   1.667   4.281 -0.5464 -0.4324  0.1678
 7759SOL    HW134910   0.867   1.717   4.203 -1.6077  0.3795  0.3321
 7759SOL    HW234911   0.928   1.640   4.308 -0.0277 -0.2371 -1.3019
 7760SOL     OW34912   3.250   3.347   2.496  0.7522 -0.1944  0.0505
 7760SOL    HW134913   3.233   3.380   2.408  0.9766 -1.6079 -0.5306
 7760SOL    HW234914   3.164   3.307   2.510  0.0339  1.1778 -0.4398
 7761SOL     OW34915   1.056   1.811   2.647  0.0070 -0.4019  0.9273
 7761SOL    HW134916   1.052   1.905   2.633  0.2043 -0.6027 -0.5002
 7761SOL    HW234917   1.044   1.781   2.557 -0.2287  1.2139  0.4198
 7762SOL     OW34918   1.202   1.275  12.823  0.2886 -0.0564 -0.2499
 7762SOL    HW134919   1.294   1.247  12.820  0.3913  0.2105  0.4490
 7762SOL    HW234920   1.201   1.300  12.731 -0.5700  1.9460  0.3084
 7763SOL     OW34921   0.608   4.602  10.406  0.0044 -1.0731 -0.6336
 7763SOL    HW134922   0.680   4.585  10.346  0.0367  3.3028 -1.8730
 7763SOL    HW234923   0.661   4.586  10.484  0.5601 -2.8144 -1.3795
 7764SOL     OW34924   1.625   0.761   4.513  0.1152 -0.8382 -0.0246
 7764SOL    HW134925   1.676   0.756   4.432  2.3944  1.3270  1.3016
 7764SOL    HW234926   1.684   0.728   4.580 -0.0833 -0.9856  0.0776
 7765SOL     OW34927   3.183   3.685   4.936 -0.2802  0.0297  0.1180
 7765SOL    HW134928   3.179   3.631   4.857 -1.3166  2.8271 -1.7431
 7765SOL    HW234929   3.160   3.620   5.002 -0.2381 -0.8988 -0.7784
 7766SOL     OW34930   4.171   0.218   6.000  0.1585 -0.1083  0.3198
 7766SOL    HW134931   4.108   0.255   6.062  1.4776  2.0122  0.4040
 7766SOL    HW234932   4.216   0.302   5.990  0.1986 -0.2783 -0.9105
 7767SOL     OW34933   0.302   4.028   9.841  0.1459  0.1858  0.0421
 7767SOL    HW134934   0.344   4.048   9.757  0.3612  3.9679  1.0482
 7767SOL    HW234935   0.295   3.933   9.834  0.6321  0.2727 -1.6663
 7768SOL     OW34936   1.002   2.090   7.773  0.7579 -0.5790 -0.1716
 7768SOL    HW134937   0.979   2.005   7.736 -0.1708 -1.1054  1.6029
 7768SOL    HW234938   0.975   2.077   7.864  0.6659 -0.1685 -0.1377
 7769SOL     OW34939   1.462   3.264  11.748  0.4673 -0.3601 -0.0436
 7769SOL    HW134940   1.477   3.171  11.730  0.0566 -0.2459 -0.9867
 7769SOL    HW234941   1.418   3.265  11.833 -0.9494  0.2766 -0.7754
 7770SOL     OW34942   3.209   2.612   4.438 -0.0241  0.2232 -0.0434
 7770SOL    HW134943   3.198   2.659   4.356  3.1214  3.0062  1.1294
 7770SOL    HW234944   3.157   2.664   4.499 -0.6275  0.0034 -0.3722
 7771SOL     OW34945   0.838   3.701  10.066 -0.1233  0.0771  0.2060
 7771SOL    HW134946   0.865   3.666   9.981  0.4174  0.0120  0.4059
 7771SOL    HW234947   0.764   3.644  10.087  0.6172 -0.8802  0.2295
 7772SOL     OW34948   1.784   2.174   5.479 -0.3689 -0.0544  0.2586
 7772SOL    HW134949   1.721   2.244   5.463 -2.4173 -1.7055  1.1960
 7772SOL    HW234950   1.733   2.093   5.488  0.2557 -0.8296 -3.1032
 7773SOL     OW34951   4.294   0.711   5.845 -0.5210 -0.0446  0.1228
 7773SOL    HW134952   4.254   0.706   5.758 -1.1664  0.6351  0.3754
 7773SOL    HW234953   4.245   0.790   5.870 -2.7954 -1.7380  1.0030
 7774SOL     OW34954   4.431   2.230   2.622  0.0042  0.0226 -0.8263
 7774SOL    HW134955   4.425   2.279   2.704 -1.5934 -0.1331 -0.8492
 7774SOL    HW234956   4.364   2.164   2.644  0.6387  0.1451  1.5379
 7775SOL     OW34957   3.821   2.491  13.432 -0.1647  0.8954  0.1381
 7775SOL    HW134958   3.834   2.432  13.506 -0.2866  2.1284  1.1441
 7775SOL    HW234959   3.801   2.576  13.472  0.6086  0.1882  2.0010
 7776SOL     OW34960   2.849   0.330   4.404 -0.5604 -0.4602  0.3796
 7776SOL    HW134961   2.822   0.279   4.480 -2.6873  0.3351  0.1471
 7776SOL    HW234962   2.905   0.255   4.383  1.5748  0.6042  2.2640
 7777SOL     OW34963   1.214   3.733   5.550  0.1535  0.0124  0.4444
 7777SOL    HW134964   1.126   3.771   5.541 -0.7970 -1.8283  1.8158
 7777SOL    HW234965   1.263   3.815   5.546 -0.9200  0.5943 -0.7551
 7778SOL     OW34966   0.220   4.190   7.543  0.5139 -0.5643  0.5070
 7778SOL    HW134967   0.261   4.140   7.614  1.1015 -0.5159  0.2044
 7778SOL    HW234968   0.152   4.234   7.593 -0.2500  0.6950 -1.6423
 7779SOL     OW34969   3.193   3.534   7.397  0.3556 -0.1258  0.3649
 7779SOL    HW134970   3.272   3.585   7.416 -0.2258  1.1624 -0.6439
 7779SOL    HW234971   3.228   3.480   7.327 -2.3685  1.0944 -1.9332
 7780SOL     OW34972   2.341   2.411   3.010  0.1624 -0.4771  0.1664
 7780SOL    HW134973   2.324   2.450   2.924  1.0201 -0.5755 -0.0443
 7780SOL    HW234974   2.294   2.328   3.002 -0.4926 -0.2109  1.2518
 7781SOL     OW34975   0.534   4.046  16.663  0.6864 -0.5626 -0.1753
 7781SOL    HW134976   0.582   4.084  16.736  0.6014 -1.8057  0.5340
 7781SOL    HW234977   0.448   4.084  16.680  0.7325 -0.8215  0.6761
 7782SOL     OW34978   1.824   2.066   2.124 -0.2375 -0.9780  0.1008
 7782SOL    HW134979   1.809   2.062   2.030 -1.0526 -0.0290  0.1940
 7782SOL    HW234980   1.916   2.091   2.133 -0.9058  1.6933 -0.7326
 7783SOL     OW34981   3.617   1.399  13.599  0.7240  0.4838 -0.4214
 7783SOL    HW134982   3.646   1.439  13.681 -1.1285  0.4968  0.2294
 7783SOL    HW234983   3.547   1.462  13.579  1.4045  1.1605 -0.6522
 7784SOL     OW34984   3.143   2.281   5.526  0.1940  0.2456  0.0601
 7784SOL    HW134985   3.068   2.285   5.466  1.3988  2.5595 -1.3084
 7784SOL    HW234986   3.213   2.305   5.465 -0.5840  2.1465 -0.0936
 7785SOL     OW34987   1.595   4.493  15.135  0.5382  0.1896  0.1204
 7785SOL    HW134988   1.556   4.552  15.071 -0.0194 -1.7595 -1.3600
 7785SOL    HW234989   1.688   4.513  15.120  0.5620  0.5725  0.7948
 7786SOL     OW34990   3.558   2.724   7.905  0.5051 -0.6406 -0.2333
 7786SOL    HW134991   3.476   2.736   7.952  0.6458 -0.5059 -0.0248
 7786SOL    HW234992   3.622   2.695   7.970  0.7818 -0.1636 -0.2946
 7787SOL     OW34993   3.019   4.042   1.324  0.1699  0.2849 -0.0142
 7787SOL    HW134994   3.031   4.137   1.332 -1.9934  0.4680  1.0641
 7787SOL    HW234995   2.979   4.025   1.410  1.2064 -1.3395  0.1315
 7788SOL     OW34996   2.745   1.361  14.132 -0.2791 -0.3418  0.8240
 7788SOL    HW134997   2.737   1.384  14.040 -1.8150  0.4095  1.1491
 7788SOL    HW234998   2.734   1.444  14.179  0.6654 -0.0289  0.4794
 7789SOL     OW34999   4.588   3.969   0.013 -0.3734  0.2623 -0.0186
 7789SOL    HW135000   4.572   4.045  17.712  2.1628  2.2042  1.9050
 7789SOL    HW235001   4.653   3.915  17.723 -1.1504 -0.9852  0.3439
 7790SOL     OW35002   2.491   2.516   7.350 -0.1833  0.1856 -0.6663
 7790SOL    HW135003   2.427   2.512   7.421  0.8237  0.4290  0.2604
 7790SOL    HW235004   2.523   2.606   7.358 -1.0484  0.5983 -1.8714
 7791SOL     OW35005   1.921   2.100   4.455  0.0061  0.0790 -0.3481
 7791SOL    HW135006   1.855   2.166   4.432 -0.3267 -0.6138 -1.3631
 7791SOL    HW235007   1.883   2.014   4.436 -2.1913  0.6290  1.4927
 7792SOL     OW35008   1.779   1.851   8.882  0.0398  0.4190 -0.3455
 7792SOL    HW135009   1.825   1.770   8.860 -0.3386  0.1852 -0.2815
 7792SOL    HW235010   1.778   1.864   8.977  0.0058 -0.9684 -0.1613
 7793SOL     OW35011   0.403   3.137   9.384  0.6670 -0.7549 -0.1930
 7793SOL    HW135012   0.479   3.079   9.377  0.7573 -0.8742  1.6666
 7793SOL    HW235013   0.336   3.076   9.355 -0.2383  1.2343 -2.2770
 7794SOL     OW35014   2.952   3.769   2.131 -0.5747 -0.5165 -0.4484
 7794SOL    HW135015   2.880   3.783   2.070  0.1747 -1.1410 -1.4693
 7794SOL    HW235016   2.990   3.856   2.143  0.1694 -1.2915  2.8794
 7795SOL     OW35017   0.787   1.813   6.777 -0.5674  0.5210  0.2423
 7795SOL    HW135018   0.822   1.858   6.854  2.2944  2.1341 -2.0131
 7795SOL    HW235019   0.750   1.738   6.823  0.9411  0.2773  1.0551
 7796SOL     OW35020   4.129   1.382   1.820  0.2160  0.0314  0.7945
 7796SOL    HW135021   4.224   1.374   1.825  0.1089 -1.1639  0.9149
 7796SOL    HW235022   4.090   1.316   1.877 -1.1090  1.1975  1.2356
 7797SOL     OW35023   1.052   2.269   7.092 -0.4857 -0.5902  0.7402
 7797SOL    HW135024   0.997   2.219   7.032 -0.1726  0.5966 -0.5293
 7797SOL    HW235025   0.998   2.253   7.170 -1.6295 -5.2427 -0.9859
 7798SOL     OW35026   3.404   2.156   5.609  0.0674 -0.0073 -0.5549
 7798SOL    HW135027   3.313   2.180   5.592 -0.2272 -0.0425  0.9808
 7798SOL    HW235028   3.447   2.177   5.526  1.2353  2.5449  0.6960
 7799SOL     OW35029   3.524   4.078  13.983  0.2722  0.3463 -0.8141
 7799SOL    HW135030   3.462   4.025  14.035  1.0068  0.6804  0.4129
 7799SOL    HW235031   3.463   4.127  13.928 -1.9013 -1.0815  0.3307
 7800SOL     OW35032   0.557   2.956   4.258 -0.0063  0.1293 -0.2602
 7800SOL    HW135033   0.640   3.000   4.276 -0.4088 -0.5898  3.4943
 7800SOL    HW235034   0.546   2.972   4.164 -1.4742  3.1585  0.4203
 7801SOL     OW35035   3.551   1.275   3.563  0.0245 -0.1981  0.5650
 7801SOL    HW135036   3.525   1.361   3.532  2.0016 -0.8184 -2.8359
 7801SOL    HW235037   3.467   1.245   3.597  0.3548 -1.2363  0.4787
 7802SOL     OW35038   3.993   3.361   2.268 -0.4055  0.1787  0.3905
 7802SOL    HW135039   3.963   3.308   2.342 -0.3928  1.2768  1.1830
 7802SOL    HW235040   4.065   3.408   2.310  0.3104  0.5201 -1.2012
 7803SOL     OW35041   1.854   1.412   0.506  0.6721  0.1828  0.1495
 7803SOL    HW135042   1.870   1.401   0.412  2.2544  2.5231  0.1424
 7803SOL    HW235043   1.926   1.474   0.515  1.0619 -0.5972  2.3115
 7804SOL     OW35044   1.083   1.092   7.486  0.2551 -0.1284 -0.9546
 7804SOL    HW135045   1.036   1.169   7.454  0.8208  0.5737 -0.0903
 7804SOL    HW235046   1.018   1.027   7.460  1.0015 -2.4336  2.9020
 7805SOL     OW35047   4.320   2.778   1.320 -0.1346 -0.3162 -0.0700
 7805SOL    HW135048   4.372   2.699   1.329 -1.3503 -1.0295  0.7034
 7805SOL    HW235049   4.229   2.756   1.341  0.6833 -1.8957  1.8300
 7806SOL     OW35050   0.539   3.838   2.675 -0.2965  0.3034  0.1784
 7806SOL    HW135051   0.587   3.755   2.671  0.4733  0.7594  0.0135
 7806SOL    HW235052   0.448   3.811   2.692 -0.4872  1.0947  0.4231
 7807SOL     OW35053   3.992   1.467   6.155  0.2132 -0.6469 -0.5939
 7807SOL    HW135054   3.987   1.549   6.204  0.4715  0.0030 -1.6630
 7807SOL    HW235055   3.902   1.436   6.166 -0.1101  0.7360  0.6802
 7808SOL     OW35056   0.513   1.100   2.006  0.3678 -0.1835 -0.4189
 7808SOL    HW135057   0.594   1.082   1.959  1.5127 -1.0888  1.9027
 7808SOL    HW235058   0.482   1.176   1.957 -0.4834 -0.5771 -0.4860
 7809SOL     OW35059   2.949   3.838  15.445 -0.4403  0.3250  0.7627
 7809SOL    HW135060   2.985   3.875  15.526  0.0619 -0.8011  1.0588
 7809SOL    HW235061   2.921   3.924  15.412  1.2502  0.5116 -0.1487
 7810SOL     OW35062   0.390   2.295   9.308  0.1124 -0.1714 -0.4608
 7810SOL    HW135063   0.428   2.275   9.393 -1.4288 -2.0989 -0.2367
 7810SOL    HW235064   0.296   2.296   9.325  0.1512 -0.7354 -0.2138
 7811SOL     OW35065   2.660   2.885   1.729  0.4530 -0.1645  0.3070
 7811SOL    HW135066   2.580   2.935   1.742  0.8474  0.0857  1.6931
 7811SOL    HW235067   2.621   2.798   1.730  1.1455 -0.4487  2.1416
 7812SOL     OW35068   3.414   3.829  10.145 -0.2977  0.1390  0.2576
 7812SOL    HW135069   3.409   3.747  10.096  2.9973 -1.8671  3.2097
 7812SOL    HW235070   3.362   3.881  10.084 -2.6114 -2.0952  0.3228
 7813SOL     OW35071   3.515   4.166   6.099  0.6688 -0.3747  0.2192
 7813SOL    HW135072   3.584   4.122   6.148  0.1081 -3.7749 -1.9520
 7813SOL    HW235073   3.566   4.234   6.054 -2.0920  0.9789 -0.8712
 7814SOL     OW35074   0.414   0.705   1.655 -0.1734 -0.1585  0.3057
 7814SOL    HW135075   0.366   0.641   1.708  0.0548 -0.6593 -0.0961
 7814SOL    HW235076   0.346   0.724   1.590 -1.5188  0.7515  1.9453
 7815SOL     OW35077   4.326   2.354   5.157 -0.4012  0.3389  0.0170
 7815SOL    HW135078   4.234   2.363   5.182 -1.0642  1.7425 -2.9565
 7815SOL    HW235079   4.328   2.270   5.111 -0.0289 -0.8732  2.1972
 7816SOL     OW35080   2.150   2.165   6.919  0.4970  0.4068 -0.0852
 7816SOL    HW135081   2.158   2.070   6.906  1.8444  0.3834  0.8350
 7816SOL    HW235082   2.212   2.198   6.854  0.5257  3.8927  1.7601
 7817SOL     OW35083   0.898   0.830   1.116 -0.2474 -0.0330  0.1525
 7817SOL    HW135084   0.920   0.755   1.060 -0.0143  0.4092 -0.3384
 7817SOL    HW235085   0.989   0.848   1.137 -0.4604  0.4440  0.6693
 7818SOL     OW35086   1.658   4.621   3.675  0.2411 -0.2720  0.4179
 7818SOL    HW135087   1.700   4.701   3.646  0.3241 -0.6298 -0.4625
 7818SOL    HW235088   1.633   4.638   3.766  1.0905  1.6051  0.3015
 7819SOL     OW35089   3.593   2.146   2.308 -0.0260  0.5516  0.3524
 7819SOL    HW135090   3.516   2.090   2.310  0.1692  0.2156 -1.5652
 7819SOL    HW235091   3.657   2.097   2.360 -1.0780 -1.4118 -0.2025
 7820SOL     OW35092   0.837   3.874  12.173 -0.6146 -0.0620  0.1239
 7820SOL    HW135093   0.890   3.847  12.248  0.7908  0.9129 -0.5178
 7820SOL    HW235094   0.909   3.909  12.120 -1.4468 -2.5338 -2.6388
 7821SOL     OW35095   3.565   3.667   8.691 -0.2915 -0.2129 -0.2756
 7821SOL    HW135096   3.640   3.625   8.732  0.0562  1.2280  0.5591
 7821SOL    HW235097   3.602   3.742   8.646 -0.6364 -0.1752 -0.4992
 7822SOL     OW35098   4.382   1.109   3.574  0.2108 -0.2089  0.1265
 7822SOL    HW135099   4.375   1.201   3.599  1.3288  0.2513 -1.2551
 7822SOL    HW235100   4.294   1.083   3.543  0.0344  1.2111 -0.5466
 7823SOL     OW35101   4.126   1.324   9.649 -0.1601  0.0814  0.4753
 7823SOL    HW135102   4.126   1.419   9.645 -1.4062  0.0597  0.0316
 7823SOL    HW235103   4.181   1.310   9.572  0.3280  1.1036  0.6389
 7824SOL     OW35104   1.000   1.587   4.976  0.0902 -0.9387 -0.3318
 7824SOL    HW135105   1.078   1.535   4.999 -0.0767  0.1351  2.6820
 7824SOL    HW235106   0.995   1.554   4.886  2.4079 -0.3492 -0.6937
 7825SOL     OW35107   3.434   2.071   8.615  0.0386 -0.1588 -0.4499
 7825SOL    HW135108   3.428   2.003   8.682 -1.8526  1.1390  0.6937
 7825SOL    HW235109   3.413   2.147   8.668  2.1876  0.7921 -0.9845
 7826SOL     OW35110   0.876   1.963  11.722  0.2966 -0.1002 -0.2639
 7826SOL    HW135111   0.962   2.003  11.734  0.3419 -0.3259  0.1224
 7826SOL    HW235112   0.827   1.999  11.795 -0.4448  0.6373 -1.1206
 7827SOL     OW35113   1.597   3.233   3.625 -0.0040  0.1737 -0.0644
 7827SOL    HW135114   1.646   3.223   3.543  1.0219 -0.7026  0.6521
 7827SOL    HW235115   1.533   3.295   3.590  0.7330  0.2683 -1.2352
 7828SOL     OW35116   3.644   2.746   1.439  0.7151 -0.1702  0.1803
 7828SOL    HW135117   3.625   2.684   1.509  1.1881  1.3993  1.7089
 7828SOL    HW235118   3.643   2.681   1.368  0.4762  0.2164 -0.1745
 7829SOL     OW35119   3.464   1.366   3.299 -0.1469  0.4045 -0.6043
 7829SOL    HW135120   3.489   1.381   3.208 -1.2363  0.9469 -0.8102
 7829SOL    HW235121   3.458   1.270   3.304  0.9003  0.3087 -0.9942
 7830SOL     OW35122   2.483   3.533   4.297 -0.0247  0.7360 -0.0288
 7830SOL    HW135123   2.514   3.586   4.223 -0.2742  0.5362 -0.2764
 7830SOL    HW235124   2.400   3.505   4.260 -0.9523  1.0685  1.8202
 7831SOL     OW35125   4.320   0.406   1.533  0.2826 -0.6857  0.5080
 7831SOL    HW135126   4.236   0.379   1.568 -1.1634  0.6390 -1.8979
 7831SOL    HW235127   4.344   0.332   1.478  0.4463 -0.9876  0.9906
 7832SOL     OW35128   2.469   1.941   7.614  0.1522  0.4032 -0.1522
 7832SOL    HW135129   2.475   1.868   7.675 -1.1222 -0.9910 -1.7008
 7832SOL    HW235130   2.527   2.009   7.649 -0.8557  0.3296  1.6335
 7833SOL     OW35131   3.628   2.364   7.059 -1.0482  0.6641 -0.5860
 7833SOL    HW135132   3.558   2.430   7.064 -0.2824  1.2651  2.1834
 7833SOL    HW235133   3.583   2.292   7.015 -0.5945 -0.7313  1.2831
 7834SOL     OW35134   3.264   2.877   2.722  0.1436 -0.0886  0.0295
 7834SOL    HW135135   3.199   2.871   2.792  0.0080 -1.2162 -0.1829
 7834SOL    HW235136   3.331   2.935   2.758 -0.2091 -0.0283  0.5929
 7835SOL     OW35137   2.638   2.343  12.055  0.0576  0.2739  0.5162
 7835SOL    HW135138   2.643   2.432  12.017 -1.5639  1.3087  2.7689
 7835SOL    HW235139   2.731   2.320  12.057 -0.1694 -0.7532 -0.7851
 7836SOL     OW35140   2.903   3.354   7.770 -0.6230 -0.0009 -0.0948
 7836SOL    HW135141   2.820   3.372   7.724 -0.8814 -2.2619 -0.5253
 7836SOL    HW235142   2.959   3.359   7.693 -2.4905  1.1880 -1.3973
 7837SOL     OW35143   2.216   0.585  16.918  0.5736 -0.5891  0.7182
 7837SOL    HW135144   2.240   0.493  16.929  0.9669 -0.4569  0.9547
 7837SOL    HW235145   2.219   0.590  16.823  0.0734  0.9069  0.7891
 7838SOL     OW35146   3.842   0.380  15.623 -0.0473 -0.4993 -0.0881
 7838SOL    HW135147   3.912   0.387  15.559  1.6335  1.1537  1.9408
 7838SOL    HW235148   3.885   0.415  15.701 -1.4409  2.5288 -0.6658
 7839SOL     OW35149   0.364   4.007   7.361  0.0042  0.0527  0.3892
 7839SOL    HW135150   0.455   4.001   7.389  0.3270 -3.5615 -1.3878
 7839SOL    HW235151   0.335   4.082   7.411 -0.8838  1.1400 -1.7448
 7840SOL     OW35152   2.176   0.226   7.166 -0.4848 -0.0312 -0.0632
 7840SOL    HW135153   2.120   0.303   7.161  2.7493  2.0265 -4.8313
 7840SOL    HW235154   2.102   0.168   7.150  1.6176 -1.6081 -4.0216
 7841SOL     OW35155   2.488   1.136  16.258  0.6170 -0.6596  0.2803
 7841SOL    HW135156   2.418   1.115  16.196 -2.6825  1.3445  3.3169
 7841SOL    HW235157   2.533   1.203  16.207  0.2175  0.0641  0.8949
 7842SOL     OW35158   0.884   1.551   1.918 -0.1854  0.7636  0.1938
 7842SOL    HW135159   0.878   1.472   1.863  0.0838  1.8619 -1.3961
 7842SOL    HW235160   0.791   1.559   1.935 -0.2502  1.5659 -0.5875
 7843SOL     OW35161   1.085   1.149   4.037  0.3734 -0.5829 -0.6141
 7843SOL    HW135162   1.143   1.186   4.103  1.4719 -1.4156 -1.1201
 7843SOL    HW235163   1.048   1.234   4.013  1.5649  0.2864  0.6442
 7844SOL     OW35164   0.824   4.608   9.606  0.3266 -0.0415 -0.3652
 7844SOL    HW135165   0.765   4.533   9.612 -1.1010  1.1109  0.1387
 7844SOL    HW235166   0.779   4.662   9.541 -1.6755  1.0908  1.9659
 7845SOL     OW35167   1.232   4.693   3.990 -0.3957  0.0752 -1.1264
 7845SOL    HW135168   1.232   4.605   3.953  0.8021 -1.4518  2.5315
 7845SOL    HW235169   1.138   4.713   3.995 -0.7792 -1.8282 -0.8518
 7846SOL     OW35170   4.262   4.006   5.087  0.0374  0.1916  0.4137
 7846SOL    HW135171   4.239   3.926   5.133 -0.0116 -0.4853 -0.8190
 7846SOL    HW235172   4.189   4.065   5.108 -1.8856 -1.7260 -1.0448
 7847SOL     OW35173   2.527   2.254   7.613 -0.4062 -0.2297 -0.1042
 7847SOL    HW135174   2.437   2.269   7.585 -0.2227  0.0284 -0.5739
 7847SOL    HW235175   2.579   2.288   7.539  1.5716 -0.2589  1.2765
 7848SOL     OW35176   2.717   4.689   5.517 -0.5158 -0.2049 -0.4789
 7848SOL    HW135177   2.698   4.595   5.514 -0.3379 -0.2103 -1.4668
 7848SOL    HW235178   2.635   4.729   5.489  0.2849  2.2877  0.7651
 7849SOL     OW35179   1.597   3.296  14.383  0.3049 -0.1046 -0.0216
 7849SOL    HW135180   1.559   3.243  14.313  0.5614 -1.4449  0.8513
 7849SOL    HW235181   1.539   3.372  14.379  0.1308 -0.2227  0.2919
 7850SOL     OW35182   2.101   1.176   5.935 -0.5812  0.5626 -0.5677
 7850SOL    HW135183   2.143   1.242   5.991  0.4661 -0.7593  0.1845
 7850SOL    HW235184   2.112   1.093   5.981  1.1441  1.2926  0.3128
 7851SOL     OW35185   1.156   1.580   4.087  0.2754  0.1906 -0.3556
 7851SOL    HW135186   1.114   1.606   4.169  3.7620  4.0271  0.2066
 7851SOL    HW235187   1.196   1.495   4.106  0.4373  0.7421  1.7615
 7852SOL     OW35188   1.274   0.697   8.383 -0.1611 -0.5208 -0.3647
 7852SOL    HW135189   1.283   0.792   8.382  1.6611 -0.7030 -0.3370
 7852SOL    HW235190   1.203   0.683   8.321  0.2314  0.4164 -1.0177
 7853SOL     OW35191   0.533   4.341   2.821 -0.5970  0.2342 -0.0311
 7853SOL    HW135192   0.485   4.278   2.767 -0.0725 -1.1380  1.0981
 7853SOL    HW235193   0.599   4.376   2.761  0.4047 -0.8441  0.4505
 7854SOL     OW35194   2.857   0.079  16.139 -0.4110 -0.4689 -0.1137
 7854SOL    HW135195   2.902   0.100  16.220  2.0120 -1.5002 -1.1956
 7854SOL    HW235196   2.840   4.725  16.153  1.6869 -0.4216  2.7917
 7855SOL     OW35197   3.593   0.074   4.494 -0.0327  0.7762  0.4254
 7855SOL    HW135198   3.673   0.045   4.450  0.9979  2.3228  1.3198
 7855SOL    HW235199   3.586   0.161   4.454 -0.6460  1.2156  1.5026
 7856SOL     OW35200   4.459   4.307  17.296  0.3904  0.7935  0.3672
 7856SOL    HW135201   4.438   4.311  17.202 -0.7204  0.4052  0.5883
 7856SOL    HW235202   4.554   4.314  17.290  0.4248  0.8490  1.0423
 7857SOL     OW35203   0.471   0.397  15.678  0.1575  0.9843 -0.1192
 7857SOL    HW135204   0.556   0.387  15.637  0.1542 -1.4391  0.4528
 7857SOL    HW235205   0.413   0.437  15.613 -1.0683 -0.7538 -0.0993
 7858SOL     OW35206   1.687   4.281  10.793 -0.3110  0.4317  0.1465
 7858SOL    HW135207   1.604   4.298  10.748 -0.8100 -0.8396  0.6170
 7858SOL    HW235208   1.662   4.245  10.878 -1.1661 -1.4510 -0.9227
 7859SOL     OW35209   1.013   3.084   4.922  0.4064 -0.4356  0.0624
 7859SOL    HW135210   1.092   3.032   4.912  0.5732 -0.1035 -0.3128
 7859SOL    HW235211   1.011   3.117   4.833 -0.2697 -0.1083  0.1946
 7860SOL     OW35212   0.061   1.497  13.847  0.0657  0.4478  0.0743
 7860SOL    HW135213   0.139   1.538  13.807  0.5298 -1.1530 -0.6688
 7860SOL    HW235214   0.028   1.443  13.776  0.5383  0.2726 -0.0115
 7861SOL     OW35215   4.229   1.447   4.534  0.0128 -0.1750  0.0093
 7861SOL    HW135216   4.273   1.375   4.581  0.7965 -0.9477 -1.9109
 7861SOL    HW235217   4.239   1.426   4.441 -1.1011  1.6967 -0.5214
 7862SOL     OW35218   0.213   3.214   5.667 -0.2056  0.0585  0.7311
 7862SOL    HW135219   0.291   3.269   5.663  0.3116 -0.6764  0.7246
 7862SOL    HW235220   0.247   3.138   5.715  2.7384 -0.3766 -2.0897
 7863SOL     OW35221   4.122   0.289   3.070 -0.0721  0.0134 -0.2070
 7863SOL    HW135222   4.036   0.283   3.111 -0.6790  0.5773 -1.3865
 7863SOL    HW235223   4.111   0.338   2.989  2.2673  1.0156  0.0903
 7864SOL     OW35224   1.416   4.545  11.509 -0.6948  0.0783  0.5144
 7864SOL    HW135225   1.345   4.484  11.487  0.4362 -0.3379 -1.9389
 7864SOL    HW235226   1.383   4.572  11.595 -1.8650  0.5970 -0.1016
 7865SOL     OW35227   0.122   3.778   6.588  0.1988 -0.0354 -0.1943
 7865SOL    HW135228   0.194   3.791   6.526 -1.1712  1.2470 -1.5291
 7865SOL    HW235229   0.080   3.864   6.580 -0.3009 -0.5597 -3.3673
 7866SOL     OW35230   2.373   4.309   1.817  0.4046 -0.1391  0.0156
 7866SOL    HW135231   2.296   4.254   1.828  1.3816 -1.2911  1.0476
 7866SOL    HW235232   2.346   4.401   1.821 -1.0143 -0.4341 -3.3669
 7867SOL     OW35233   4.378   1.590   1.707  0.1754  0.1969  0.4142
 7867SOL    HW135234   4.289   1.624   1.698 -0.3477 -1.1666  0.5031
 7867SOL    HW235235   4.380   1.529   1.634  1.9925  0.4291  0.2723
 7868SOL     OW35236   3.401   2.257   3.286  0.5484  0.2483  0.0629
 7868SOL    HW135237   3.470   2.240   3.351 -1.0973 -0.5120  1.6050
 7868SOL    HW235238   3.423   2.346   3.258  0.6312  0.4250  0.6960
 7869SOL     OW35239   2.336   0.136   5.896  0.1570 -0.7436 -0.8483
 7869SOL    HW135240   2.273   0.152   5.826 -0.6696  0.7297  0.2343
 7869SOL    HW235241   2.414   0.186   5.871 -1.4490  2.3406  0.2861
 7870SOL     OW35242   2.011   3.118   8.384  0.0418 -0.1718  1.0396
 7870SOL    HW135243   1.927   3.163   8.399 -1.3240 -2.7185  1.0330
 7870SOL    HW235244   2.079   3.177   8.417 -0.8606  1.1083  0.6287
 7871SOL     OW35245   3.303   2.556   8.298 -0.1967 -0.8428  0.4596
 7871SOL    HW135246   3.361   2.631   8.313 -0.9443 -0.0549 -0.6055
 7871SOL    HW235247   3.351   2.487   8.344 -0.5907 -1.1332  0.4364
 7872SOL     OW35248   1.588   0.038   6.834  0.2578  0.4122  0.5444
 7872SOL    HW135249   1.612   0.090   6.757 -1.4662  0.2753 -0.0915
 7872SOL    HW235250   1.544   4.701   6.795  1.0031  0.4285 -0.3197
 7873SOL     OW35251   2.922   0.941   9.076  0.3065 -0.2449 -0.0557
 7873SOL    HW135252   2.990   0.989   9.029  1.2851 -0.7819  0.8204
 7873SOL    HW235253   2.871   1.006   9.124 -1.8569 -2.5202  0.7149
 7874SOL     OW35254   0.816   0.510   5.023 -0.0592  0.1852  0.2695
 7874SOL    HW135255   0.800   0.593   5.069 -0.4314  0.4867 -0.4015
 7874SOL    HW235256   0.890   0.531   4.966  0.2470  2.1535  1.4015
 7875SOL     OW35257   2.570   2.556  11.213 -0.4608 -0.3911 -0.1280
 7875SOL    HW135258   2.617   2.540  11.131  2.4929 -0.0210  1.4829
 7875SOL    HW235259   2.505   2.613  11.173  1.0683  0.5876 -1.2595
 7876SOL     OW35260   0.547   4.463   7.934  0.2775 -0.2890 -0.3168
 7876SOL    HW135261   0.601   4.535   7.903 -0.2758  0.7499  1.1706
 7876SOL    HW235262   0.555   4.396   7.866  1.0153  2.0064 -2.4420
 7877SOL     OW35263   2.824   0.998  12.995  0.5600 -0.2516 -0.5569
 7877SOL    HW135264   2.849   1.056  13.068  1.2843 -0.9071 -0.2741
 7877SOL    HW235265   2.911   0.957  12.988  0.0762 -1.6091  1.2935
 7878SOL     OW35266   3.071   4.689  14.409  0.0860  0.5227  0.2643
 7878SOL    HW135267   3.050   4.690  14.316  0.1432 -2.7889  0.2075
 7878SOL    HW235268   2.981   4.665  14.435  0.6909 -1.2704  0.7395
 7879SOL     OW35269   4.670   3.158  11.992  0.2089  0.1305 -0.4184
 7879SOL    HW135270   4.720   3.110  11.926 -0.1258 -1.2757  0.3540
 7879SOL    HW235271   4.639   3.237  11.948 -2.0767 -0.1944  0.6543
 7880SOL     OW35272   2.078   4.022   8.546  0.0768  0.0127 -0.5863
 7880SOL    HW135273   2.038   3.953   8.598 -0.7379  3.2195  3.0265
 7880SOL    HW235274   2.157   3.974   8.524  1.6773  2.4742 -0.1937
 7881SOL     OW35275   0.848   3.197   2.372 -0.1635 -0.3146  0.2631
 7881SOL    HW135276   0.916   3.216   2.436  1.2213  1.5796 -1.7871
 7881SOL    HW235277   0.781   3.200   2.440  0.1795  2.9332  0.4608
 7882SOL     OW35278   4.733   3.040   3.835  0.0716 -0.0025  0.8992
 7882SOL    HW135279   4.671   3.074   3.770 -0.4603 -0.4086  1.1966
 7882SOL    HW235280   4.672   3.052   3.908  1.5434 -0.0136  2.1450
 7883SOL     OW35281   2.524   0.382   7.490  0.6951  0.2620  0.1383
 7883SOL    HW135282   2.435   0.409   7.466  0.9464  1.3515  0.3968
 7883SOL    HW235283   2.536   0.433   7.570  1.6713 -0.0950  0.2082
 7884SOL     OW35284   1.008   1.373   2.584 -0.0883 -0.2498 -0.2911
 7884SOL    HW135285   1.063   1.375   2.662 -1.9322  1.4514  0.9704
 7884SOL    HW235286   1.071   1.327   2.529 -1.2063  0.0300 -1.8416
 7885SOL     OW35287   3.505   4.295   9.714 -0.6299  0.4342  0.8013
 7885SOL    HW135288   3.466   4.261   9.794 -0.7288 -0.5222  0.3432
 7885SOL    HW235289   3.480   4.386   9.730 -2.0132 -0.0729  1.4851
 7886SOL     OW35290   2.056   4.276   2.138  0.6125 -0.5626  0.2616
 7886SOL    HW135291   2.011   4.355   2.107  1.1458 -0.8104 -1.1451
 7886SOL    HW235292   2.114   4.313   2.205  0.6303 -0.8354  0.3937
 7887SOL     OW35293   0.636   4.451   1.927 -0.0268  0.2679 -0.0566
 7887SOL    HW135294   0.558   4.503   1.907 -0.0587 -0.2163 -1.1791
 7887SOL    HW235295   0.692   4.522   1.958  0.1192  0.5405 -0.9311
 7888SOL     OW35296   1.491   3.358  10.979 -0.4208 -0.2316 -0.5873
 7888SOL    HW135297   1.576   3.317  10.959 -0.1363  0.4051 -0.7039
 7888SOL    HW235298   1.439   3.282  10.955  0.6936 -0.8187 -1.1606
 7889SOL     OW35299   1.006   1.265   7.888  0.3275  0.1749  0.5928
 7889SOL    HW135300   1.024   1.338   7.830  2.7096 -2.2346 -1.7090
 7889SOL    HW235301   1.073   1.203   7.860  0.5159  0.7463 -0.2077
 7890SOL     OW35302   2.674   1.533  13.902  0.0114  0.0229 -0.6157
 7890SOL    HW135303   2.712   1.478  13.834 -0.3318 -2.2601  1.0384
 7890SOL    HW235304   2.582   1.506  13.901 -0.4562  1.6103 -0.4791
 7891SOL     OW35305   3.608   3.792   2.962 -0.0017  0.0597  0.2642
 7891SOL    HW135306   3.538   3.855   2.980  0.2657  0.3947  0.1171
 7891SOL    HW235307   3.635   3.820   2.875 -1.8203  1.4067  0.1179
 7892SOL     OW35308   3.317   2.070   3.686 -0.2046  0.4435  0.4138
 7892SOL    HW135309   3.279   2.012   3.751 -1.4365 -0.2753 -0.9326
 7892SOL    HW235310   3.368   2.009   3.632 -2.0670 -1.7395  1.1355
 7893SOL     OW35311   4.290   0.215   1.919  0.0513 -0.0645 -0.2589
 7893SOL    HW135312   4.376   0.176   1.935 -1.2597 -0.7012  5.1728
 7893SOL    HW235313   4.302   0.306   1.947 -0.9792 -0.2721  0.8531
 7894SOL     OW35314   3.063   1.897   9.239 -0.3220 -0.2316 -0.1197
 7894SOL    HW135315   3.037   1.968   9.180  1.0197 -0.2053 -0.6732
 7894SOL    HW235316   3.074   1.822   9.181 -0.6456 -2.7993  3.0924
 7895SOL     OW35317   1.660   4.698   5.327 -0.0615 -0.3023  0.3241
 7895SOL    HW135318   1.699   4.697   5.414 -0.5970 -1.6430  0.5442
 7895SOL    HW235319   1.602   4.622   5.333 -1.5600  0.5680 -2.7580
 7896SOL     OW35320   0.816   1.561  16.286  0.1019 -0.6376 -0.4745
 7896SOL    HW135321   0.755   1.615  16.236 -2.5392 -0.6269  2.7676
 7896SOL    HW235322   0.899   1.603  16.263 -0.8124  1.6218  0.4298
 7897SOL     OW35323   1.612   3.066   0.828  0.6461  0.1642 -0.1169
 7897SOL    HW135324   1.686   3.030   0.877  0.9736 -0.4406 -1.0579
 7897SOL    HW235325   1.567   3.119   0.893  0.1457 -0.8189  0.3395
 7898SOL     OW35326   2.785   0.554   0.320 -0.4220 -0.0510 -0.3203
 7898SOL    HW135327   2.827   0.468   0.312  1.0020  0.5044  1.2388
 7898SOL    HW235328   2.783   0.582   0.229 -1.6952 -1.9694 -0.9027
 7899SOL     OW35329   4.483   4.702   3.178  0.2045  0.1044 -0.1773
 7899SOL    HW135330   4.436   0.044   3.192  0.4899  0.6194 -2.2069
 7899SOL    HW235331   4.412   4.644   3.153  2.5765 -2.6994 -0.4878
 7900SOL     OW35332   4.165   2.630  11.081 -0.1658 -0.0080  0.3659
 7900SOL    HW135333   4.250   2.666  11.107  0.5615 -2.7065  1.7178
 7900SOL    HW235334   4.136   2.689  11.011  0.8405 -1.2396 -1.0722
 7901SOL     OW35335   1.077   1.034   2.862 -0.1901  0.6403 -0.0329
 7901SOL    HW135336   1.081   1.088   2.941  1.2415 -1.0213  1.0290
 7901SOL    HW235337   1.148   0.973   2.884  0.7919  1.4948 -0.8370
 7902SOL     OW35338   2.176   2.108   4.933 -0.4523 -0.2294  0.6956
 7902SOL    HW135339   2.149   2.152   4.852  1.5058  0.2296  0.2824
 7902SOL    HW235340   2.136   2.024   4.910  0.9157 -0.6165 -0.2890
 7903SOL     OW35341   3.737   2.812   4.453 -0.3811  0.1065 -0.8361
 7903SOL    HW135342   3.778   2.732   4.419 -1.2537 -0.3445 -0.8362
 7903SOL    HW235343   3.810   2.863   4.487 -2.4549  1.8529  0.9256
 7904SOL     OW35344   1.208   1.957   0.104 -0.1017  0.0286 -0.3635
 7904SOL    HW135345   1.260   1.911   0.038 -1.5088 -0.6053 -1.0296
 7904SOL    HW235346   1.118   1.955   0.072 -0.2962  1.3799  0.1016
 7905SOL     OW35347   0.313   3.696   3.903 -0.6307  0.0991 -0.3084
 7905SOL    HW135348   0.312   3.765   3.837  0.2874 -0.3882 -0.8307
 7905SOL    HW235349   0.286   3.619   3.852  0.6166 -0.6841  0.2152
 7906SOL     OW35350   3.990   0.573   8.555  0.0093 -0.3162  0.4626
 7906SOL    HW135351   3.950   0.494   8.517  3.3938 -1.4889 -0.6819
 7906SOL    HW235352   3.940   0.573   8.636  0.0015  1.3191  0.4509
 7907SOL     OW35353   0.090   3.286  10.963 -0.0375  0.1007  0.0618
 7907SOL    HW135354   0.106   3.366  11.013  1.2638 -0.2753  0.2492
 7907SOL    HW235355   0.182   3.260  10.960 -0.2088 -0.7222  2.1064
 7908SOL     OW35356   1.437   0.164   9.633 -0.0019  0.1166  0.0897
 7908SOL    HW135357   1.531   0.172   9.646 -0.0959 -0.7761  1.3059
 7908SOL    HW235358   1.426   0.134   9.542  1.8684 -1.8350  0.5137
 7909SOL     OW35359   3.952   3.295  11.328  1.0153 -0.1536 -0.1290
 7909SOL    HW135360   4.016   3.367  11.321  1.7995 -0.9164 -0.8706
 7909SOL    HW235361   3.868   3.341  11.326  1.3025  0.3855  0.0524
 7910SOL     OW35362   3.458   1.479   8.974  0.3733 -0.2239 -0.2497
 7910SOL    HW135363   3.400   1.500   9.048 -1.1542 -0.6497 -1.3348
 7910SOL    HW235364   3.539   1.521   9.003  0.5311  1.7651 -3.6105
 7911SOL     OW35365   1.962   2.492   4.339  0.1654 -0.1734  0.6866
 7911SOL    HW135366   1.905   2.500   4.416 -1.3821 -2.0424 -0.2837
 7911SOL    HW235367   1.917   2.542   4.272 -1.9040  1.7956  3.5128
 7912SOL     OW35368   2.695   1.479   0.730  0.2831 -0.3230  0.3166
 7912SOL    HW135369   2.771   1.533   0.752 -0.0554  0.6297 -0.8156
 7912SOL    HW235370   2.625   1.545   0.724  0.5674 -0.2243 -1.7869
 7913SOL     OW35371   4.538   1.197   5.184 -0.0737 -0.0370 -0.5219
 7913SOL    HW135372   4.570   1.181   5.095 -1.7475  1.8517 -1.4610
 7913SOL    HW235373   4.547   1.111   5.225  0.3483 -0.6263 -1.8375
 7914SOL     OW35374   3.119   4.262  13.557 -0.1860  0.0006 -0.0552
 7914SOL    HW135375   3.118   4.180  13.507 -0.2735 -0.5192  0.7958
 7914SOL    HW235376   3.025   4.281  13.561  0.2707  2.1625  0.3687
 7915SOL     OW35377   3.931   0.780   0.290 -0.3615 -0.2763  0.7857
 7915SOL    HW135378   3.890   0.754   0.207 -0.9080  1.9720  0.3413
 7915SOL    HW235379   3.943   0.874   0.275  0.5460 -0.6455 -0.8839
 7916SOL     OW35380   0.834   4.044   0.186  0.0347  0.2536  0.1847
 7916SOL    HW135381   0.758   4.102   0.185 -0.8574 -0.9538 -1.3369
 7916SOL    HW235382   0.850   4.041   0.092  4.9550  0.8142  0.9563
 7917SOL     OW35383   0.127   1.542   7.771  0.4390  0.1868 -0.0926
 7917SOL    HW135384   0.191   1.477   7.742  0.1352  0.5230 -1.5412
 7917SOL    HW235385   0.179   1.609   7.815 -1.0412  1.2865 -0.0252
 7918SOL     OW35386   0.490   3.018   6.329 -0.1933  0.8106 -0.3522
 7918SOL    HW135387   0.398   3.014   6.353 -0.2590  0.0364 -0.7312
 7918SOL    HW235388   0.501   2.925   6.310 -0.0287  0.5096  1.2033
 7919SOL     OW35389   4.475   1.435  12.480  0.0691  0.5265  0.2072
 7919SOL    HW135390   4.462   1.350  12.523  0.8992 -0.2071 -0.9859
 7919SOL    HW235391   4.411   1.490  12.527 -0.2683  0.1689  0.1706
 7920SOL     OW35392   4.189   4.180   7.297  0.2921 -0.3615 -0.8342
 7920SOL    HW135393   4.094   4.186   7.296  0.2653 -0.9173 -1.4242
 7920SOL    HW235394   4.205   4.248   7.363 -1.3947 -1.1867  0.4408
 7921SOL     OW35395   3.523   4.228  13.642 -0.2992 -0.0043  0.2649
 7921SOL    HW135396   3.445   4.210  13.695  0.5896  1.4748  2.0522
 7921SOL    HW235397   3.589   4.218  13.710  1.1165 -1.5780 -1.3092
 7922SOL     OW35398   2.476   0.071  15.581 -0.1158 -0.2072 -0.0606
 7922SOL    HW135399   2.442   4.738  15.529  0.7634 -1.2627  0.8360
 7922SOL    HW235400   2.565   0.081  15.547  0.1396 -0.3060  0.5862
 7923SOL     OW35401   0.604   0.450   2.643  0.2436 -0.1051  0.2441
 7923SOL    HW135402   0.607   0.405   2.727 -1.7630  0.8175  0.8182
 7923SOL    HW235403   0.576   0.370   2.598  0.9986  0.3836 -1.1071
 7924SOL     OW35404   0.624   1.164   4.859 -0.6962 -0.0123  0.0405
 7924SOL    HW135405   0.599   1.100   4.792  1.3705  1.2481 -1.9269
 7924SOL    HW235406   0.719   1.161   4.846 -0.5561 -0.6715  1.2489
 7925SOL     OW35407   2.582   1.636  16.496 -0.7058 -0.4053  0.3746
 7925SOL    HW135408   2.632   1.563  16.533  0.2512  0.2401  0.3494
 7925SOL    HW235409   2.548   1.592  16.418  0.9718 -2.2114  0.6448
 7926SOL     OW35410   1.843   3.255   6.950  0.2532  0.4166 -0.3549
 7926SOL    HW135411   1.844   3.347   6.978  2.3152  0.2875  0.0278
 7926SOL    HW235412   1.788   3.265   6.872  2.4029 -0.7806 -2.0296
 7927SOL     OW35413   0.945   3.193   3.585  0.3123 -0.5575 -0.0162
 7927SOL    HW135414   1.002   3.265   3.559  0.9375 -0.5363  1.4487
 7927SOL    HW235415   0.860   3.221   3.549  1.0364  0.4370 -0.9509
 7928SOL     OW35416   1.076   2.359   8.131  0.4091  0.1381 -0.4161
 7928SOL    HW135417   1.071   2.421   8.058  1.6339  0.6398 -0.0788
 7928SOL    HW235418   1.020   2.406   8.193  2.7215 -0.2165  1.8872
 7929SOL     OW35419   1.331   4.671   4.547  0.1769 -0.3899 -0.7465
 7929SOL    HW135420   1.335   4.663   4.451 -1.5218  0.3575 -0.8836
 7929SOL    HW235421   1.283   0.014   4.552 -0.3322 -0.7403  0.0588
 7930SOL     OW35422   0.050   3.075   2.208 -0.3825 -0.0989  0.0047
 7930SOL    HW135423   0.016   3.155   2.168  0.8614  1.2606  1.7224
 7930SOL    HW235424   4.714   3.046   2.259 -1.0498 -0.9078 -1.4254
 7931SOL     OW35425   0.902   1.752   8.455  0.4703 -0.4970  0.1320
 7931SOL    HW135426   0.884   1.846   8.455  1.2633 -0.3482 -1.2137
 7931SOL    HW235427   0.831   1.714   8.404  1.3154 -0.1352 -1.3257
 7932SOL     OW35428   2.254   3.220   4.842  0.0380 -0.1998  0.7349
 7932SOL    HW135429   2.209   3.218   4.758  0.3789  2.3063  0.4838
 7932SOL    HW235430   2.233   3.310   4.869  1.6094 -0.1824  1.9297
 7933SOL     OW35431   4.292   3.021  16.652  0.4888  0.5068  0.4984
 7933SOL    HW135432   4.289   3.117  16.643  0.3912  0.5874  1.4763
 7933SOL    HW235433   4.275   3.018  16.746  1.5053  2.0682  0.7403
 7934SOL     OW35434   2.629   1.289   0.554  0.3199 -0.5559  0.6250
 7934SOL    HW135435   2.663   1.325   0.636  2.9395  1.9689 -1.5934
 7934SOL    HW235436   2.587   1.208   0.585  2.2857 -2.1015 -0.7250
 7935SOL     OW35437   3.965   4.478  10.937 -0.6791  0.0790  0.0178
 7935SOL    HW135438   4.014   4.558  10.919 -1.5457  0.5810 -0.1206
 7935SOL    HW235439   3.873   4.505  10.932  0.1122  3.3561  2.5870
 7936SOL     OW35440   4.195   3.989  16.101  0.3571  0.1646  0.0754
 7936SOL    HW135441   4.152   4.053  16.158  0.0330 -1.1213  1.2856
 7936SOL    HW235442   4.251   3.956  16.172 -0.9268  0.5644  1.2668
 7937SOL     OW35443   3.171   0.639  10.182  0.3098 -0.2594 -0.1502
 7937SOL    HW135444   3.201   0.708  10.123  0.6154 -0.9064 -0.7673
 7937SOL    HW235445   3.252   0.624  10.231 -0.4198 -0.2599  1.0478
 7938SOL     OW35446   3.404   4.070  14.363 -0.2362  0.0250 -0.2568
 7938SOL    HW135447   3.454   4.144  14.329 -0.0758 -0.4839 -1.1414
 7938SOL    HW235448   3.421   4.000  14.299  3.3099  0.5275  0.1452
 7939SOL     OW35449   0.930   1.124   9.295 -0.5785  0.5536 -0.4795
 7939SOL    HW135450   0.858   1.062   9.280 -0.3156  0.2726 -0.5748
 7939SOL    HW235451   0.996   1.091   9.233 -0.8151  1.2928 -1.1219
 7940SOL     OW35452   0.413   4.327   4.127 -0.1948 -0.0152  0.3941
 7940SOL    HW135453   0.334   4.309   4.075 -0.6178 -0.3606  1.1548
 7940SOL    HW235454   0.471   4.267   4.080  1.3552  0.6490  1.4709
 7941SOL     OW35455   1.619   0.867   0.281 -0.5742  0.0293  0.1611
 7941SOL    HW135456   1.551   0.920   0.324 -0.0550 -0.7602  1.9628
 7941SOL    HW235457   1.635   0.922   0.204 -0.0907 -0.4692 -0.0935
 7942SOL     OW35458   0.657   4.127   2.281 -0.3339  0.6090  0.3565
 7942SOL    HW135459   0.567   4.100   2.266  0.1101 -0.5246 -0.3269
 7942SOL    HW235460   0.704   4.043   2.283  0.9572  1.3448  0.9123
 7943SOL     OW35461   4.683   0.196   8.128  0.0033 -0.0303  0.0638
 7943SOL    HW135462   4.720   0.116   8.090  1.3267 -0.2802  1.8552
 7943SOL    HW235463   4.614   0.166   8.186  1.0687 -0.9762  0.8324
 7944SOL     OW35464   1.960   2.704  17.350  0.2921  0.2517  0.6013
 7944SOL    HW135465   2.055   2.712  17.349  0.3802 -1.1732 -1.2132
 7944SOL    HW235466   1.930   2.781  17.302  1.0092  0.0445 -0.1738
 7945SOL     OW35467   2.479   2.134   7.990  0.4192 -0.5960  0.8350
 7945SOL    HW135468   2.526   2.055   7.962 -2.0528 -1.4614 -0.8675
 7945SOL    HW235469   2.535   2.204   7.958  2.1401 -1.9595  0.8970
 7946SOL     OW35470   4.563   3.029   6.892  0.3531  0.0806 -1.0618
 7946SOL    HW135471   4.658   3.016   6.900  0.3107 -0.3431 -1.2064
 7946SOL    HW235472   4.529   2.939   6.892 -0.7139  0.4947  0.6565
 7947SOL     OW35473   1.216   1.380   7.241  0.5602 -0.0829 -0.2433
 7947SOL    HW135474   1.273   1.316   7.282 -0.3087 -0.4836  0.3338
 7947SOL    HW235475   1.238   1.459   7.290  0.7847  0.4591 -1.2022
 7948SOL     OW35476   0.320   1.779   9.214 -0.2282 -0.1493 -0.0836
 7948SOL    HW135477   0.309   1.688   9.242  3.1751 -0.9725 -1.4429
 7948SOL    HW235478   0.252   1.820   9.267 -1.5579  0.0863 -1.9889
 7949SOL     OW35479   3.646   1.730  15.527 -0.1706 -0.2968  0.1651
 7949SOL    HW135480   3.693   1.744  15.609  0.2339  0.1664 -0.1506
 7949SOL    HW235481   3.557   1.752  15.555 -1.0893 -0.2757 -2.8166
 7950SOL     OW35482   0.213   1.027   7.167 -0.1954 -0.0250  0.1651
 7950SOL    HW135483   0.172   1.109   7.139 -2.1612 -1.4498 -1.1076
 7950SOL    HW235484   0.250   0.992   7.086  0.9712  0.7122  0.3779
 7951SOL     OW35485   3.897   3.138   3.160 -0.0845 -0.0258  0.1047
 7951SOL    HW135486   3.974   3.189   3.184 -0.0718 -1.2945  2.7203
 7951SOL    HW235487   3.883   3.077   3.232 -0.9837  0.4658  0.3530
 7952SOL     OW35488   3.846   1.740   8.664 -0.5207 -0.3676 -0.0418
 7952SOL    HW135489   3.808   1.822   8.633  0.8514  0.0610 -0.5816
 7952SOL    HW235490   3.784   1.669   8.643 -1.9676  1.1044 -0.7387
 7953SOL     OW35491   3.668   3.950   9.507 -0.4625 -0.6023 -0.2234
 7953SOL    HW135492   3.609   3.874   9.503 -2.8844  1.1239  2.2716
 7953SOL    HW235493   3.722   3.930   9.431  2.0862  0.9597  1.1925
 7954SOL     OW35494   0.325   3.156  10.935  0.1074  0.3264  0.3981
 7954SOL    HW135495   0.378   3.202  10.871  2.1831 -0.8231  1.2975
 7954SOL    HW235496   0.375   3.153  11.016  0.2159 -0.5357  0.3059
 7955SOL     OW35497   0.603   4.354   2.500 -0.0247 -0.1829 -0.0412
 7955SOL    HW135498   0.528   4.346   2.441 -0.6914 -2.8966  1.2034
 7955SOL    HW235499   0.658   4.279   2.481  1.8774  0.6233  2.2316
 7956SOL     OW35500   2.731   2.256  10.820 -0.0371 -0.0046  0.0617
 7956SOL    HW135501   2.795   2.230  10.754 -1.6295  1.9027 -2.2678
 7956SOL    HW235502   2.777   2.237  10.902 -0.3977  0.8398  0.4617
 7957SOL     OW35503   1.570   0.302  16.367 -0.1597  0.2695  0.3363
 7957SOL    HW135504   1.601   0.247  16.439 -1.3204 -1.7333 -0.7166
 7957SOL    HW235505   1.501   0.354  16.407 -0.1745 -1.0595  2.0311
 7958SOL     OW35506   1.554   1.087   6.030  0.5297 -0.1852 -0.0750
 7958SOL    HW135507   1.480   1.089   6.091 -1.7550  0.8782 -2.8939
 7958SOL    HW235508   1.592   0.999   6.033 -0.7037 -0.7116 -0.0500
 7959SOL     OW35509   0.210   1.961   2.273  0.4109  0.4052  0.3343
 7959SOL    HW135510   0.159   2.027   2.226 -2.5103 -1.0231  1.4754
 7959SOL    HW235511   0.151   1.947   2.347 -1.6084  1.2773 -1.0934
 7960SOL     OW35512   3.486   4.212   7.369  0.1610  0.2887  0.4129
 7960SOL    HW135513   3.564   4.234   7.420  1.2990 -2.9098  0.0634
 7960SOL    HW235514   3.528   4.155   7.305 -1.9634 -1.3437  0.4692
 7961SOL     OW35515   0.242   1.621   8.778 -0.3132 -0.0524 -0.5330
 7961SOL    HW135516   0.319   1.627   8.835 -0.5188 -0.8160 -0.1737
 7961SOL    HW235517   0.260   1.682   8.707  0.2686 -0.5865 -0.8468
 7962SOL     OW35518   1.991   2.663   3.411  0.2499  0.5289  0.0441
 7962SOL    HW135519   2.055   2.726   3.444  0.2620  0.1242  0.7955
 7962SOL    HW235520   1.911   2.715   3.412 -0.1872 -0.0635 -2.6222
 7963SOL     OW35521   1.372   3.848   1.373 -0.1922 -0.3231  0.2987
 7963SOL    HW135522   1.426   3.890   1.439  2.0400  0.2215 -1.8649
 7963SOL    HW235523   1.301   3.909   1.356  0.0162 -0.4542 -1.0576
 7964SOL     OW35524   2.541   0.818  16.123 -0.5096  0.4598  0.2362
 7964SOL    HW135525   2.526   0.839  16.215 -0.5648  2.4052 -0.2134
 7964SOL    HW235526   2.585   0.734  16.132 -2.3620 -0.5061  0.3986
 7965SOL     OW35527   3.814   1.288   9.397  0.0329 -0.1613 -0.2489
 7965SOL    HW135528   3.739   1.291   9.338  1.0701 -1.0326 -1.6227
 7965SOL    HW235529   3.844   1.379   9.385 -1.6937  0.5570  0.8794
 7966SOL     OW35530   3.817   2.966   3.362  0.0979 -0.0288  0.2089
 7966SOL    HW135531   3.787   2.891   3.414 -0.9755 -0.0358 -0.4288
 7966SOL    HW235532   3.756   2.958   3.289  0.6814 -2.4597 -0.0225
 7967SOL     OW35533   1.230   0.521   7.884  0.1076 -0.1415 -0.2543
 7967SOL    HW135534   1.301   0.458   7.876  1.1654  1.3142 -2.3623
 7967SOL    HW235535   1.215   0.564   7.799 -0.4286 -0.0283 -0.1060
 7968SOL     OW35536   1.380   4.635  13.054  0.1510 -0.1076 -0.6013
 7968SOL    HW135537   1.360   4.546  13.025  1.9295 -1.4543  2.3593
 7968SOL    HW235538   1.303   4.681  13.022  0.0535  0.8725  1.0535
 7969SOL     OW35539   4.580   4.429   2.066  0.0375 -0.4596 -0.3651
 7969SOL    HW135540   4.665   4.414   2.025  0.6514  1.0503  0.3538
 7969SOL    HW235541   4.585   4.523   2.083  1.4756 -0.8125  1.1695
 7970SOL     OW35542   3.090   4.130   2.573 -0.4766  0.0692 -0.2597
 7970SOL    HW135543   3.022   4.197   2.563 -1.0196 -0.1723  1.9072
 7970SOL    HW235544   3.036   4.051   2.577 -0.6551  0.2428  0.7312
 7971SOL     OW35545   2.125   0.872   3.798 -0.0235 -0.0377  0.2270
 7971SOL    HW135546   2.213   0.842   3.775  0.1404 -0.3724  1.2972
 7971SOL    HW235547   2.077   0.796   3.765  1.7339 -0.2430 -1.8995
 7972SOL     OW35548   2.559   0.734   9.042 -0.4262  0.4859 -0.3558
 7972SOL    HW135549   2.590   0.683   9.116 -3.5322 -1.6051 -0.4915
 7972SOL    HW235550   2.480   0.692   9.008 -1.1182  3.1494 -2.0184
 7973SOL     OW35551   4.165   3.433  16.870  0.1338 -0.4265  0.1689
 7973SOL    HW135552   4.143   3.526  16.873  0.8117 -0.2560 -0.2125
 7973SOL    HW235553   4.084   3.386  16.892  0.4912 -0.6003  1.1097
 7974SOL     OW35554   1.252   1.386   1.193  0.3528 -0.1184  0.1358
 7974SOL    HW135555   1.161   1.410   1.214  1.0015  1.8601  0.6618
 7974SOL    HW235556   1.244   1.426   1.107 -1.3281 -0.1709  0.2571
 7975SOL     OW35557   4.231   1.523  14.745 -0.6052  0.1123 -0.2791
 7975SOL    HW135558   4.313   1.531  14.697  0.1134 -0.0788  0.9213
 7975SOL    HW235559   4.164   1.527  14.676  1.8574 -0.0684 -2.7124
 7976SOL     OW35560   4.329   2.904   6.260 -0.4635  0.0692  0.3545
 7976SOL    HW135561   4.282   2.867   6.186  1.0518 -2.2763  0.5816
 7976SOL    HW235562   4.258   2.904   6.325 -0.6445 -0.6044  0.1589
 7977SOL     OW35563   1.445   2.903  16.611 -0.2931  0.5873 -0.0616
 7977SOL    HW135564   1.459   2.997  16.601 -0.2036  0.6860  0.9752
 7977SOL    HW235565   1.415   2.882  16.522 -1.8212  3.2033 -0.1532
 7978SOL     OW35566   4.374   4.457   8.385  0.0328 -0.6550 -0.0898
 7978SOL    HW135567   4.465   4.451   8.355  0.4936  1.4356  0.8861
 7978SOL    HW235568   4.325   4.446   8.303  0.0428  1.4239 -0.3837
 7979SOL     OW35569   0.729   0.195   3.806 -0.3519  0.4100 -0.2154
 7979SOL    HW135570   0.662   0.255   3.773  1.3141  1.1168 -2.3139
 7979SOL    HW235571   0.686   0.111   3.790  0.3970 -0.3669  1.8426
 7980SOL     OW35572   1.723   3.800   5.398  0.1455  0.0868 -0.2590
 7980SOL    HW135573   1.643   3.768   5.355  1.2417 -0.7943 -1.6348
 7980SOL    HW235574   1.792   3.737   5.379  0.9098  0.5649  0.9587
 7981SOL     OW35575   3.884   2.980  17.456 -0.7142 -0.2522  0.1330
 7981SOL    HW135576   3.905   3.001  17.547 -1.6192 -0.1224  0.3140
 7981SOL    HW235577   3.856   2.889  17.450 -3.1324  0.7281 -3.2611
 7982SOL     OW35578   3.456   1.598   6.009  0.2299  0.6982 -0.1125
 7982SOL    HW135579   3.442   1.548   6.090 -2.5670  1.3257 -0.2233
 7982SOL    HW235580   3.405   1.550   5.944 -0.4802 -0.1410  1.0682
 7983SOL     OW35581   1.519   1.360   5.141  0.1466  0.1140 -0.4675
 7983SOL    HW135582   1.515   1.265   5.126 -0.3143 -0.1933  1.5986
 7983SOL    HW235583   1.512   1.359   5.236 -2.5065 -0.3003 -0.6548
 7984SOL     OW35584   0.788   4.479   3.917  0.4588 -0.0158 -0.2406
 7984SOL    HW135585   0.818   4.414   3.853  0.2700 -0.4434  0.1095
 7984SOL    HW235586   0.761   4.420   3.988  0.3104 -1.6520 -1.6563
 7985SOL     OW35587   0.873   0.436  13.737 -0.3447  0.2095 -0.1385
 7985SOL    HW135588   0.810   0.456  13.668  2.3758  0.4262 -2.5283
 7985SOL    HW235589   0.936   0.378  13.694 -1.7152  1.1424 -3.3330
 7986SOL     OW35590   4.510   2.704  12.950 -0.1691  0.0253  0.2045
 7986SOL    HW135591   4.465   2.659  13.021 -0.2918  0.5518  0.4639
 7986SOL    HW235592   4.602   2.685  12.966 -0.3373 -0.2870  0.7976
 7987SOL     OW35593   0.882   4.644   8.562  1.1469 -0.6622 -0.2575
 7987SOL    HW135594   0.814   4.669   8.499 -0.7139 -1.5123  1.4290
 7987SOL    HW235595   0.855   4.692   8.641  0.8252  0.7500 -1.2133
 7988SOL     OW35596   1.509   1.024   9.627 -0.1670 -0.3009  0.1509
 7988SOL    HW135597   1.423   0.986   9.646 -0.2598 -0.3432 -0.3333
 7988SOL    HW235598   1.540   0.948   9.577  0.1995 -0.7006  0.9859
 7989SOL     OW35599   1.691   0.164   7.877  0.5948  0.5142  0.6806
 7989SOL    HW135600   1.666   0.148   7.786 -1.2956  1.9257  0.9609
 7989SOL    HW235601   1.612   0.129   7.918  0.2307 -0.4858 -0.8857
 7990SOL     OW35602   4.316   0.155   3.223  0.2906 -0.6300 -0.1450
 7990SOL    HW135603   4.287   0.216   3.156  2.7067 -1.1268 -1.6405
 7990SOL    HW235604   4.237   0.150   3.277  1.9331 -1.0376  2.2491
 7991SOL     OW35605   1.907   2.229   7.024 -0.3907  0.4437 -0.3366
 7991SOL    HW135606   1.989   2.210   6.978 -0.9374  0.1450 -1.1887
 7991SOL    HW235607   1.916   2.323   7.038  0.1722  0.4941 -1.0310
 7992SOL     OW35608   4.308   0.006   8.906 -0.1291 -0.7372  0.1173
 7992SOL    HW135609   4.365   0.050   8.969  1.3014 -2.9130  0.3648
 7992SOL    HW235610   4.259   4.683   8.960 -0.0567  0.3472  1.4350
 7993SOL     OW35611   4.086   2.783  13.122 -0.1920 -0.6100 -0.6360
 7993SOL    HW135612   4.016   2.743  13.173  0.4378  3.1592  3.2118
 7993SOL    HW235613   4.066   2.751  13.034 -0.3204 -2.3391  0.0271
 7994SOL     OW35614   2.164   1.121   1.815  0.6434  0.3228  0.3435
 7994SOL    HW135615   2.069   1.114   1.824  0.7453 -1.2674  0.1285
 7994SOL    HW235616   2.174   1.153   1.725  2.5160 -0.5800  0.2322
 7995SOL     OW35617   0.036   4.374   3.238 -0.3748  0.5539  0.4342
 7995SOL    HW135618   0.033   4.453   3.184 -0.1221  2.7712  3.6631
 7995SOL    HW235619   4.684   4.345   3.228 -0.1517 -0.8000  2.3028
 7996SOL     OW35620   1.467   1.567   9.833  0.2519 -0.5735  0.0351
 7996SOL    HW135621   1.447   1.612   9.916 -1.5598  0.6475 -1.0684
 7996SOL    HW235622   1.469   1.475   9.858  1.6938 -0.6911 -0.5396
 7997SOL     OW35623   3.306   4.249   5.117 -0.1373  0.2042  0.5146
 7997SOL    HW135624   3.232   4.258   5.056  0.1991 -0.5327 -0.0099
 7997SOL    HW235625   3.339   4.339   5.108 -0.7172  0.2521 -1.3593
 7998SOL     OW35626   4.335   4.046   8.690  0.0435 -0.7443  0.2399
 7998SOL    HW135627   4.315   4.135   8.718  1.7529 -0.6704  1.1831
 7998SOL    HW235628   4.315   4.061   8.597  0.0227 -0.7791  0.2387
 7999SOL     OW35629   1.262   1.626   3.307  0.4408 -0.0411 -0.0384
 7999SOL    HW135630   1.204   1.616   3.231  1.4620  0.6478 -0.9107
 7999SOL    HW235631   1.319   1.550   3.312  0.3230 -0.2599 -2.0308
 8000SOL     OW35632   1.482   2.109   0.144  1.0803 -0.3705  0.5756
 8000SOL    HW135633   1.388   2.092   0.140  0.9437  0.1252  1.5879
 8000SOL    HW235634   1.481   2.136   0.236 -0.3527 -2.0156  1.0444
 8001SOL     OW35635   0.394   0.573   8.378  0.0617 -0.0179  0.5303
 8001SOL    HW135636   0.475   0.622   8.389  0.7839 -0.9220 -0.7729
 8001SOL    HW235637   0.403   0.520   8.457 -2.7496 -0.2761  0.6839
 8002SOL     OW35638   0.573   0.290   9.295  0.3214 -0.2866 -1.0544
 8002SOL    HW135639   0.565   0.271   9.202  1.5153 -0.3326 -1.1481
 8002SOL    HW235640   0.486   0.270   9.328  0.9059 -0.5097  0.3447
 8003SOL     OW35641   2.157   1.892   9.080  0.1724 -0.2040  0.2132
 8003SOL    HW135642   2.156   1.820   9.017 -1.1998 -3.1092  3.5757
 8003SOL    HW235643   2.105   1.856   9.152 -1.6645 -0.0488 -1.0272
 8004SOL     OW35644   4.277   0.729   3.556  0.0000  0.0164  0.0171
 8004SOL    HW135645   4.308   0.816   3.581 -1.4215 -0.0877  2.1772
 8004SOL    HW235646   4.359   0.690   3.525  0.0604 -0.2257  0.4768
 8005SOL     OW35647   0.812   0.690   9.992  0.3959  0.2110 -0.5801
 8005SOL    HW135648   0.738   0.744   9.965  0.4877 -0.1421 -1.5499
 8005SOL    HW235649   0.792   0.668  10.082  0.8518  0.1052 -0.5019
 8006SOL     OW35650   3.459   2.847   4.259 -0.3016 -1.0605 -0.4408
 8006SOL    HW135651   3.491   2.757   4.258  1.9725 -0.2493  0.1244
 8006SOL    HW235652   3.544   2.889   4.273 -0.5854 -0.2745 -1.0550
 8007SOL     OW35653   3.181   2.760   4.189  0.2649 -0.6405 -0.3165
 8007SOL    HW135654   3.275   2.766   4.206 -0.3835  2.4933  2.1424
 8007SOL    HW235655   3.175   2.805   4.105  1.1942  1.1834  0.6092
 8008SOL     OW35656   0.607   0.700   9.625 -0.1997 -0.0255 -0.4080
 8008SOL    HW135657   0.591   0.749   9.705 -1.2457 -0.4538 -0.3591
 8008SOL    HW235658   0.562   0.618   9.644  1.3440 -0.7050  0.3285
 8009SOL     OW35659   0.342   0.830   3.508  0.2776  0.2821 -1.0452
 8009SOL    HW135660   0.403   0.843   3.580 -0.8755 -0.2104  0.0289
 8009SOL    HW235661   0.388   0.889   3.448 -0.2806  0.2078 -1.5446
 8010SOL     OW35662   3.730   2.752   2.285  0.0632 -0.2444 -0.3384
 8010SOL    HW135663   3.676   2.691   2.334 -0.7316 -0.8260 -1.9410
 8010SOL    HW235664   3.666   2.798   2.232 -0.8017 -0.1813  0.7827
 8011SOL     OW35665   4.664   3.448  14.404 -0.3409 -0.4841  0.3593
 8011SOL    HW135666   4.720   3.388  14.355 -1.1771 -1.3116  0.4077
 8011SOL    HW235667   4.597   3.459  14.337 -0.9613 -0.5430  0.9614
 8012SOL     OW35668   4.316   2.007   8.960 -0.4895  0.0749  0.2158
 8012SOL    HW135669   4.259   1.951   8.907 -0.0126  0.5548 -0.8229
 8012SOL    HW235670   4.370   1.943   9.007 -0.4019  0.8237  1.1238
 8013SOL     OW35671   2.578   0.371   8.004 -0.0008  0.5216 -0.0046
 8013SOL    HW135672   2.581   0.276   8.002  1.3786  0.5256  3.1060
 8013SOL    HW235673   2.486   0.381   8.028 -0.0898 -0.0047 -0.1331
 8014SOL     OW35674   0.162   2.465  14.403  0.2811 -0.0883  0.4934
 8014SOL    HW135675   0.218   2.456  14.481  2.6308  2.2043 -0.9672
 8014SOL    HW235676   0.142   2.558  14.407  1.0681  0.1926 -2.4506
 8015SOL     OW35677   1.707   0.801   4.258  0.0014 -0.2319  0.3836
 8015SOL    HW135678   1.756   0.762   4.186  0.4617  0.4967  0.3005
 8015SOL    HW235679   1.722   0.890   4.226  1.3353  0.0329  1.7357
 8016SOL     OW35680   1.330   3.686  12.283  0.3531  0.4858  0.5492
 8016SOL    HW135681   1.372   3.683  12.369 -0.0094  2.7335  0.8055
 8016SOL    HW235682   1.403   3.662  12.227  0.7937  0.1181  1.2762
 8017SOL     OW35683   3.585   3.399  14.969  0.7532 -0.6697 -0.6345
 8017SOL    HW135684   3.667   3.435  14.935  0.1215 -0.2370 -1.7175
 8017SOL    HW235685   3.522   3.436  14.907  0.3479 -0.4746 -0.1063
 8018SOL     OW35686   1.459   1.680   2.981 -0.3853 -0.3095 -0.4903
 8018SOL    HW135687   1.524   1.640   2.924 -1.5405  0.7097 -2.5400
 8018SOL    HW235688   1.375   1.664   2.937 -0.8916  0.5662  0.1512
 8019SOL     OW35689   4.092   1.439   1.568  0.5155  0.3694  0.3053
 8019SOL    HW135690   4.121   1.524   1.600  3.5135 -0.7820  0.5890
 8019SOL    HW235691   4.102   1.393   1.651  0.6605  2.2255  1.3088
 8020SOL     OW35692   1.776   0.633   1.009 -0.4730  0.6885  0.4096
 8020SOL    HW135693   1.697   0.617   0.957 -0.4421  1.4938  0.1268
 8020SOL    HW235694   1.771   0.727   1.021  1.3333  0.7254  0.8453
 8021SOL     OW35695   2.616   3.624   4.048 -0.2055  0.3190 -0.0516
 8021SOL    HW135696   2.538   3.631   3.993 -0.3297  1.8588  0.3143
 8021SOL    HW235697   2.619   3.529   4.049  2.6825  0.4112  0.9433
 8022SOL     OW35698   1.041   4.138   2.867  0.2234 -0.0889  0.0655
 8022SOL    HW135699   1.126   4.104   2.838 -1.8228 -2.6234 -2.9178
 8022SOL    HW235700   1.078   4.205   2.925  0.4372 -0.9031  0.8671
 8023SOL     OW35701   4.099   0.536   5.034 -0.5476  0.2727 -0.0043
 8023SOL    HW135702   4.184   0.562   4.997 -0.3249  0.4489  0.6171
 8023SOL    HW235703   4.076   0.613   5.087  1.7294  0.2852  0.9861
 8024SOL     OW35704   0.962   1.797  12.419  0.2927 -0.4037  0.1043
 8024SOL    HW135705   1.023   1.747  12.364  1.8606  1.2960  0.3167
 8024SOL    HW235706   1.024   1.823  12.488 -2.3208  0.0787  2.2518
 8025SOL     OW35707   1.681   0.966  17.367 -0.5049 -0.5397  0.0134
 8025SOL    HW135708   1.752   0.927  17.316 -0.2572  1.1821 -0.9751
 8025SOL    HW235709   1.679   1.058  17.341  0.7167 -0.8819 -1.2794
 8026SOL     OW35710   1.584   1.217  17.132  0.4808 -0.1222 -0.8297
 8026SOL    HW135711   1.489   1.222  17.122  0.2611 -0.5254  0.9551
 8026SOL    HW235712   1.610   1.199  17.042 -0.0069  2.3878 -1.4511
 8027SOL     OW35713   0.774   2.257   4.969 -0.7158 -0.0632  0.1129
 8027SOL    HW135714   0.825   2.179   4.993  2.1667  2.6789  2.9890
 8027SOL    HW235715   0.684   2.227   4.959 -0.6660  0.3406 -1.5681
 8028SOL     OW35716   0.519   4.162   3.839 -0.4736 -0.4245 -0.1819
 8028SOL    HW135717   0.526   4.246   3.794  0.1681  0.0516  0.8179
 8028SOL    HW235718   0.542   4.108   3.763 -0.5706  0.2990 -0.7269
 8029SOL     OW35719   2.253   2.272   1.369  0.6123 -0.2067  0.7007
 8029SOL    HW135720   2.316   2.344   1.379  0.0166  0.4481 -0.2437
 8029SOL    HW235721   2.230   2.271   1.461  0.7522  0.1869  0.7407
 8030SOL     OW35722   0.049   1.612  14.377 -0.3012 -0.4465 -0.0196
 8030SOL    HW135723   0.034   1.587  14.286 -1.4979  0.6101 -0.1219
 8030SOL    HW235724   4.727   1.685  14.386 -0.1763 -0.6478  2.4744
 8031SOL     OW35725   1.720   2.396   5.877  0.5056  0.1384  0.2493
 8031SOL    HW135726   1.694   2.479   5.837 -0.3125 -1.1851 -2.0041
 8031SOL    HW235727   1.814   2.414   5.877  0.6862 -0.7932  0.2756
 8032SOL     OW35728   3.815   3.854   7.644 -0.4505 -0.0276  0.2965
 8032SOL    HW135729   3.862   3.927   7.683  0.3054 -0.4987  0.2732
 8032SOL    HW235730   3.768   3.887   7.567  0.8430 -0.6542 -0.7767
 8033SOL     OW35731   0.370   4.455  10.012 -0.0924  0.1067  0.0842
 8033SOL    HW135732   0.461   4.476  10.032 -0.6715  0.7992  1.9727
 8033SOL    HW235733   0.384   4.387   9.946  0.4237 -0.1534  0.4617
 8034SOL     OW35734   0.142   3.202  15.942 -0.2322 -0.1939 -0.4173
 8034SOL    HW135735   0.050   3.223  15.953 -0.0522  0.2417  0.2548
 8034SOL    HW235736   0.188   3.285  15.930  0.4774 -0.2890  1.5721
 8035SOL     OW35737   4.278   4.082   6.279 -0.2206  0.2175  0.1166
 8035SOL    HW135738   4.303   4.122   6.196  0.0099 -1.1390 -0.4576
 8035SOL    HW235739   4.295   3.989   6.266  1.1097  0.4162  0.4706
 8036SOL     OW35740   0.050   4.251   3.917 -0.1130 -0.1287 -0.2373
 8036SOL    HW135741   0.139   4.221   3.936 -0.4781 -0.5563  0.8319
 8036SOL    HW235742   0.064   4.311   3.844 -0.6097 -0.2362 -0.4260
 8037SOL     OW35743   1.927   2.698  11.857  0.0281  0.0933 -0.5643
 8037SOL    HW135744   1.880   2.707  11.940 -0.0815  1.6062 -0.7895
 8037SOL    HW235745   1.986   2.631  11.890  1.4014  0.4485 -2.3146
 8038SOL     OW35746   1.452   1.275  17.550  0.1274  0.3009  0.6580
 8038SOL    HW135747   1.406   1.339  17.604  0.7332  1.1035  0.2237
 8038SOL    HW235748   1.472   1.338  17.482  1.7030 -1.0819 -0.1642
 8039SOL     OW35749   3.618   0.093   5.096  0.3091 -0.1923 -0.1281
 8039SOL    HW135750   3.606   0.130   5.183  0.4339 -3.0252  1.0831
 8039SOL    HW235751   3.696   0.039   5.109  0.2687 -0.5870 -1.5282
 8040SOL     OW35752   1.150   2.484  14.639 -0.1033 -0.5937  0.0596
 8040SOL    HW135753   1.077   2.478  14.577  0.2401 -0.9475 -0.3104
 8040SOL    HW235754   1.113   2.435  14.713  0.4526 -1.5842 -0.3178
 8041SOL     OW35755   0.084   2.890   1.201 -0.4063 -0.5328  0.1529
 8041SOL    HW135756   0.141   2.865   1.129 -0.9156 -0.2229 -0.3549
 8041SOL    HW235757   0.140   2.877   1.277  0.7115 -0.3701 -0.6500
 8042SOL     OW35758   1.437   2.043   1.171  0.3685  0.3193 -0.3044
 8042SOL    HW135759   1.526   2.074   1.186  0.4850 -0.6962  1.0587
 8042SOL    HW235760   1.414   2.115   1.112 -0.2520 -1.1715 -1.8925
 8043SOL     OW35761   0.555   3.131   5.958  0.0599  0.6214 -0.1391
 8043SOL    HW135762   0.484   3.146   6.022  0.1665  0.2498  0.0639
 8043SOL    HW235763   0.567   3.221   5.928 -2.7566  1.5676  1.5078
 8044SOL     OW35764   4.114   0.747   2.931 -0.1769 -0.3058  0.1893
 8044SOL    HW135765   4.160   0.721   3.011 -2.4357 -1.0441  1.2292
 8044SOL    HW235766   4.123   0.842   2.943  0.1647 -0.3607  0.3953
 8045SOL     OW35767   4.596   0.323   2.151 -0.7233 -0.2390  0.3770
 8045SOL    HW135768   4.616   0.302   2.242 -1.3804  0.6836  0.7320
 8045SOL    HW235769   4.586   0.418   2.148 -1.6494 -0.4228 -2.2697
 8046SOL     OW35770   3.290   3.833   3.577 -0.2625 -0.1709 -0.0012
 8046SOL    HW135771   3.367   3.873   3.618 -1.6549  3.5431 -1.0126
 8046SOL    HW235772   3.267   3.910   3.526 -1.5301 -0.0338  0.7648
 8047SOL     OW35773   2.193   4.496   4.681  0.2635 -0.0364  0.5135
 8047SOL    HW135774   2.191   4.409   4.720 -1.2669 -0.0310  0.4515
 8047SOL    HW235775   2.101   4.519   4.674  0.5511  0.0259 -3.1488
 8048SOL     OW35776   1.585   0.345  10.652  0.4806 -0.1671 -0.4062
 8048SOL    HW135777   1.576   0.257  10.615  0.3048 -0.2194 -0.2403
 8048SOL    HW235778   1.670   0.334  10.694 -0.7071  0.6812  2.1872
 8049SOL     OW35779   2.983   3.663   2.381  0.7575 -0.5793  0.4810
 8049SOL    HW135780   2.998   3.569   2.367 -0.7687 -0.2582 -3.3010
 8049SOL    HW235781   2.991   3.705   2.296 -1.8518 -1.4743 -0.2109
 8050SOL     OW35782   0.084   3.126   4.848 -0.0087  0.3936 -0.1132
 8050SOL    HW135783   0.158   3.079   4.887  0.7341  1.0642 -0.7145
 8050SOL    HW235784   0.009   3.107   4.904  1.0657  2.1437  1.9107
 8051SOL     OW35785   3.694   4.490   6.520  0.4299  0.7598  0.0908
 8051SOL    HW135786   3.763   4.552   6.544  1.1596 -0.3877  0.9670
 8051SOL    HW235787   3.733   4.410   6.556  0.3655  1.0738  0.8571
 8052SOL     OW35788   0.137   2.568  17.418 -0.7856 -0.1295 -0.4869
 8052SOL    HW135789   0.113   2.486  17.375 -0.9890  0.6292 -1.8159
 8052SOL    HW235790   0.126   2.629  17.344  0.9318 -0.4225 -0.9841
 8053SOL     OW35791   4.181   0.864   0.966  0.0392 -0.7640 -0.3507
 8053SOL    HW135792   4.148   0.878   0.877 -0.6188  0.9744  0.1675
 8053SOL    HW235793   4.131   0.787   0.990 -0.1252 -0.0237  1.6626
 8054SOL     OW35794   0.141   1.272   5.844 -0.0836  0.5993 -0.0982
 8054SOL    HW135795   0.073   1.297   5.907  0.9755 -2.5996  2.3165
 8054SOL    HW235796   0.218   1.285   5.900 -0.1027  1.0603 -0.1809
 8055SOL     OW35797   2.305   1.157   7.485 -0.6497 -0.5829 -0.6418
 8055SOL    HW135798   2.307   1.225   7.552 -0.6732  1.6529 -2.8864
 8055SOL    HW235799   2.398   1.131   7.484 -0.4517  0.1164 -0.0613
 8056SOL     OW35800   2.946   3.808  13.234 -0.2130  0.4469 -0.3071
 8056SOL    HW135801   3.022   3.854  13.268 -2.0453  1.4785  2.3739
 8056SOL    HW235802   2.886   3.876  13.203  1.4159  0.4974 -3.3143
 8057SOL     OW35803   2.027   0.717  12.565  0.0488 -0.3459  0.2626
 8057SOL    HW135804   2.063   0.645  12.513  0.4469 -0.0272  0.0888
 8057SOL    HW235805   1.934   0.726  12.543  0.6956 -2.7004 -3.4834
 8058SOL     OW35806   4.576   1.963   7.728 -0.0901  0.3124 -0.2195
 8058SOL    HW135807   4.484   1.965   7.755 -0.7453  0.6325 -2.4609
 8058SOL    HW235808   4.623   1.930   7.805  0.3397  1.2349 -0.0737
 8059SOL     OW35809   3.131   1.169   0.954  0.3660  0.2743  0.1469
 8059SOL    HW135810   3.194   1.194   1.021  0.1649  2.5306 -0.4824
 8059SOL    HW235811   3.054   1.225   0.965 -0.5070 -0.3395 -2.7477
 8060SOL     OW35812   4.425   2.002   6.031  1.1153  0.5193  0.4360
 8060SOL    HW135813   4.451   2.035   5.945  2.3622 -0.3705  0.4695
 8060SOL    HW235814   4.335   2.035   6.036 -0.1980 -3.0639  0.2188
 8061SOL     OW35815   3.540   1.090   7.704 -0.8481  0.2586 -0.4096
 8061SOL    HW135816   3.572   1.015   7.655 -0.4793 -0.4390  0.9127
 8061SOL    HW235817   3.514   1.036   7.778  4.2948 -2.6787 -0.7751
 8062SOL     OW35818   2.250   4.605   4.411  0.5969 -0.2315 -0.1296
 8062SOL    HW135819   2.158   4.586   4.389  0.0464  2.0024  0.1977
 8062SOL    HW235820   2.257   4.588   4.505  2.2571 -1.0210 -0.4082
 8063SOL     OW35821   3.511   1.108  11.872 -0.0897 -0.0925  0.4445
 8063SOL    HW135822   3.420   1.079  11.877 -0.5854  1.5082  0.5403
 8063SOL    HW235823   3.539   1.119  11.781 -1.8426 -0.4877 -0.1449
 8064SOL     OW35824   4.525   2.864   4.187  1.2045  0.0637 -0.1761
 8064SOL    HW135825   4.538   2.785   4.134  0.5192  0.4994 -1.0050
 8064SOL    HW235826   4.566   2.846   4.271  0.6483  2.0259  0.5131
 8065SOL     OW35827   1.483   4.617   8.343  0.1482  0.4187  0.1932
 8065SOL    HW135828   1.391   4.632   8.364 -0.4821 -1.1631 -1.4157
 8065SOL    HW235829   1.482   4.537   8.291 -1.9332  0.2546  0.4984
 8066SOL     OW35830   4.603   2.374   4.023  0.3226  0.3488 -0.4273
 8066SOL    HW135831   4.510   2.354   4.037  0.3548  1.9335  2.0073
 8066SOL    HW235832   4.632   2.290   3.988  0.4501  0.1666  0.1082
 8067SOL     OW35833   1.889   1.374   4.772  0.3656 -0.0926 -0.0628
 8067SOL    HW135834   1.970   1.349   4.817 -0.1320 -1.3073  0.1602
 8067SOL    HW235835   1.912   1.450   4.718 -0.7775 -0.8438 -1.5946
 8068SOL     OW35836   1.035   0.516  12.751 -0.4972  0.1682 -0.1020
 8068SOL    HW135837   1.025   0.577  12.824  0.1693  2.5635 -2.0413
 8068SOL    HW235838   0.988   0.557  12.679  0.8215  1.4080 -0.2429
 8069SOL     OW35839   0.544   1.526  12.195 -0.3125  0.0788 -0.1459
 8069SOL    HW135840   0.467   1.471  12.183 -0.2651  0.0165 -0.1618
 8069SOL    HW235841   0.612   1.466  12.165  0.5726  0.8308  0.3551
 8070SOL     OW35842   0.495   0.349  15.332  0.0791 -0.4036 -0.1309
 8070SOL    HW135843   0.416   0.386  15.371 -1.7604 -2.2319 -2.1276
 8070SOL    HW235844   0.502   0.397  15.249  0.6949 -1.0209 -0.4415
 8071SOL     OW35845   0.448   4.198  15.625 -0.1183  0.5235  0.0386
 8071SOL    HW135846   0.413   4.137  15.689 -0.4045  1.1976  0.5255
 8071SOL    HW235847   0.423   4.159  15.541  1.6118 -0.9836  0.2071
 8072SOL     OW35848   0.044   3.241   8.474 -0.3651 -0.1192  0.3881
 8072SOL    HW135849   0.098   3.319   8.459  0.8944 -0.9690  0.4049
 8072SOL    HW235850   0.109   3.171   8.464 -1.1040 -0.7024 -0.3924
 8073SOL     OW35851   4.430   0.409   6.249 -0.4342  0.1807 -0.2931
 8073SOL    HW135852   4.474   0.349   6.310  1.6009  1.5409 -0.4235
 8073SOL    HW235853   4.488   0.406   6.173  1.4593 -1.6777  1.2228
 8074SOL     OW35854   2.191   0.445   8.940 -0.2453  0.4585 -0.5047
 8074SOL    HW135855   2.267   0.476   8.890  1.0743 -1.5057  0.2946
 8074SOL    HW235856   2.154   0.374   8.887  0.2812  0.0275 -0.2993
 8075SOL     OW35857   0.755   4.721   8.222  0.3077 -0.1310 -0.2408
 8075SOL    HW135858   0.801   0.065   8.211  1.3871 -0.8787 -1.3794
 8075SOL    HW235859   0.723   4.723   8.312  1.1476  0.3718  0.0421
 8076SOL     OW35860   3.729   4.168   3.232  0.6808 -0.1574  0.0672
 8076SOL    HW135861   3.723   4.210   3.318 -3.2407 -1.7372  0.5579
 8076SOL    HW235862   3.638   4.157   3.205  0.8675 -0.7516 -0.3128
 8077SOL     OW35863   2.478   2.971   3.269  0.0755 -0.4244  0.2256
 8077SOL    HW135864   2.389   2.985   3.235  0.9633  0.6539 -1.6362
 8077SOL    HW235865   2.540   3.002   3.203  1.3726 -1.7162  0.8431
 8078SOL     OW35866   2.312   2.814   0.019 -0.9264  0.3973 -0.1914
 8078SOL    HW135867   2.218   2.805   0.004 -0.8371  0.0056 -0.5254
 8078SOL    HW235868   2.316   2.798   0.114  0.7083 -1.9213 -0.6541
 8079SOL     OW35869   2.210   1.857   7.799 -0.3543 -0.7721 -0.1858
 8079SOL    HW135870   2.117   1.855   7.778 -1.3352  2.6513  3.9446
 8079SOL    HW235871   2.219   1.953   7.797 -1.7893 -0.6232  1.1693
 8080SOL     OW35872   4.682   0.803   8.994 -0.4254 -0.5690  0.4365
 8080SOL    HW135873   4.703   0.886   9.036 -1.4707  0.1031 -0.3635
 8080SOL    HW235874   4.720   0.750   9.064 -1.5500 -0.1028  1.3875
 8081SOL     OW35875   2.165   3.680   8.075  0.2063  0.3991 -0.3847
 8081SOL    HW135876   2.109   3.678   7.998 -0.3588  1.4809 -0.0056
 8081SOL    HW235877   2.228   3.739   8.034 -0.2000 -0.0281 -1.6216
 8082SOL     OW35878   4.545   1.344   5.658 -0.2041  0.4448  0.0176
 8082SOL    HW135879   4.638   1.367   5.653  0.2576 -1.4852 -0.0590
 8082SOL    HW235880   4.544   1.266   5.603  0.0781  0.2344  0.3119
 8083SOL     OW35881   0.333   1.664  17.445  0.2379  0.6130  0.2932
 8083SOL    HW135882   0.351   1.754  17.471 -2.6048  0.7488  1.8136
 8083SOL    HW235883   0.270   1.678  17.375  1.2676 -1.5126 -1.0436
 8084SOL     OW35884   0.118   0.317  17.222  0.5886  0.6344 -0.9796
 8084SOL    HW135885   0.069   0.358  17.151  1.9433  1.4471 -1.4374
 8084SOL    HW235886   0.136   0.386  17.285 -2.7748  1.4550 -0.8958
 8085SOL     OW35887   3.448   3.667   6.247  0.3208  0.0176  0.5356
 8085SOL    HW135888   3.424   3.598   6.185  0.7295  1.1893 -0.9373
 8085SOL    HW235889   3.524   3.642   6.299  1.4774 -0.0194 -1.1820
 8086SOL     OW35890   2.128   4.399   7.942  0.3745  0.2495  0.0893
 8086SOL    HW135891   2.194   4.366   8.004 -0.2728  1.5967  1.4909
 8086SOL    HW235892   2.156   4.360   7.859  1.2201 -0.4219  0.6817
 8087SOL     OW35893   1.896   3.609   5.328  0.2270 -0.1443 -0.0267
 8087SOL    HW135894   1.972   3.625   5.272  0.0374  1.6467  0.2207
 8087SOL    HW235895   1.930   3.555   5.399 -1.0858  1.6973  1.9965
 8088SOL     OW35896   1.609   0.140   7.623  0.1538 -0.7262 -0.7278
 8088SOL    HW135897   1.631   0.198   7.550  2.0214  0.7976  1.0372
 8088SOL    HW235898   1.581   0.057   7.585  0.2613 -1.9671  1.9257
 8089SOL     OW35899   0.763   0.497  11.426  0.1531  0.4538 -0.1424
 8089SOL    HW135900   0.801   0.556  11.491 -1.5592 -0.2974  1.5358
 8089SOL    HW235901   0.794   0.531  11.342  1.9799 -1.5125 -0.2506
 8090SOL     OW35902   0.434   4.266  16.305  0.2000  0.1480  0.1190
 8090SOL    HW135903   0.442   4.256  16.211 -1.1370 -0.1303  0.0393
 8090SOL    HW235904   0.410   4.183  16.346  1.8196  0.2987  1.3938
 8091SOL     OW35905   0.191   3.001   0.526 -0.1071  0.0821 -0.3151
 8091SOL    HW135906   0.220   3.092   0.513 -1.0552  0.4366  0.0882
 8091SOL    HW235907   0.269   2.953   0.496  0.2160  0.0705  0.5517
 8092SOL     OW35908   2.867   4.575  16.254  0.1648  0.3913  0.1455
 8092SOL    HW135909   2.958   4.573  16.282  0.8864  0.2248 -2.2489
 8092SOL    HW235910   2.864   4.485  16.221 -0.7296  1.6167 -3.1750
 8093SOL     OW35911   4.628   2.788   1.383 -1.2165  0.0664  0.0967
 8093SOL    HW135912   4.577   2.713   1.352  0.0122 -0.3565 -0.8890
 8093SOL    HW235913   4.671   2.824   1.306 -0.6009 -1.2688 -0.1813
 8094SOL     OW35914   1.696   1.800   7.549  0.1454  0.5158 -0.1815
 8094SOL    HW135915   1.722   1.890   7.571  1.6710 -0.2256  1.0957
 8094SOL    HW235916   1.759   1.775   7.481  1.1274 -0.0576  0.9361
 8095SOL     OW35917   0.567   0.674   7.494  0.1901 -0.3114 -0.1177
 8095SOL    HW135918   0.573   0.701   7.586  0.9904  3.0075 -1.1552
 8095SOL    HW235919   0.652   0.631   7.492  0.8944  1.0200  1.2919
 8096SOL     OW35920   2.636   0.312   3.485  0.1537  0.0287 -0.2825
 8096SOL    HW135921   2.693   0.356   3.423  1.6048 -3.5148 -1.4795
 8096SOL    HW235922   2.662   0.224   3.456  0.2302  0.2307 -0.8329
 8097SOL     OW35923   1.560   4.030   1.476  0.4794  0.0685 -0.4704
 8097SOL    HW135924   1.541   4.122   1.490 -0.2745 -0.2275  0.4545
 8097SOL    HW235925   1.647   4.045   1.439  0.1991  1.8014 -0.4042
 8098SOL     OW35926   3.648   1.104   5.672  0.0898 -0.3536 -0.1010
 8098SOL    HW135927   3.739   1.129   5.689  0.6431 -1.3838 -1.5868
 8098SOL    HW235928   3.614   1.188   5.640 -0.7440 -0.3550  0.7872
 8099SOL     OW35929   2.324   0.674   2.846 -0.2766 -0.3340 -0.8347
 8099SOL    HW135930   2.381   0.743   2.882 -0.8426  1.8845 -4.1541
 8099SOL    HW235931   2.237   0.711   2.859 -0.0849  0.2876 -1.3530
 8100SOL     OW35932   4.341   3.668   5.515  0.4738  0.4843  0.1767
 8100SOL    HW135933   4.343   3.717   5.597  0.5659  0.2823  0.2938
 8100SOL    HW235934   4.245   3.661   5.509  0.4232 -0.0527  1.8198
 8101SOL     OW35935   1.035   3.320  11.438  0.0408  0.3823  0.4155
 8101SOL    HW135936   1.107   3.257  11.440  0.8200  1.1998 -1.7523
 8101SOL    HW235937   0.963   3.258  11.449 -0.2567  0.6808  0.1607
 8102SOL     OW35938   0.714   2.662  10.107 -0.0906 -0.4718 -0.2652
 8102SOL    HW135939   0.784   2.676  10.043  0.9745  0.5309  1.1031
 8102SOL    HW235940   0.639   2.657  10.048 -0.5982  1.3215  0.2107
 8103SOL     OW35941   3.105   1.635   6.390  0.7828  0.1475 -0.1527
 8103SOL    HW135942   3.119   1.601   6.479 -4.0576  0.4753  0.7358
 8103SOL    HW235943   3.026   1.685   6.410  0.9264 -0.2612  1.4308
 8104SOL     OW35944   1.170   0.865   5.083  0.6225 -0.7020 -0.3604
 8104SOL    HW135945   1.241   0.853   5.019  1.2846  1.5811 -0.0609
 8104SOL    HW235946   1.127   0.947   5.060  2.7393  0.3260 -0.6238
 8105SOL     OW35947   0.627   1.896  11.560  0.3755  0.2379  0.4547
 8105SOL    HW135948   0.613   1.802  11.566 -0.3585  0.3988  1.1817
 8105SOL    HW235949   0.695   1.903  11.628  1.3285  1.3715 -0.6072
 8106SOL     OW35950   2.766   1.456  10.808  0.9565  0.0192  0.4051
 8106SOL    HW135951   2.727   1.407  10.880  1.7875  0.3956  1.1103
 8106SOL    HW235952   2.757   1.549  10.827 -1.7275 -0.1100 -0.1882
 8107SOL     OW35953   1.489   0.629   9.117  0.4015  0.0847  0.3901
 8107SOL    HW135954   1.467   0.718   9.089  1.0684  0.6853  1.7711
 8107SOL    HW235955   1.445   0.610   9.200 -0.2654 -0.5480 -0.1100
 8108SOL     OW35956   3.199   4.340   4.274  0.0230 -0.2399  0.1488
 8108SOL    HW135957   3.128   4.319   4.214 -0.0614 -2.1074  0.8878
 8108SOL    HW235958   3.280   4.339   4.223 -1.0739  2.1206 -1.6253
 8109SOL     OW35959   3.348   1.807   3.068  0.0480 -0.4918  0.2800
 8109SOL    HW135960   3.420   1.761   3.109  1.1920  0.1235 -1.0450
 8109SOL    HW235961   3.383   1.894   3.050  2.3370 -0.9390  2.5345
 8110SOL     OW35962   0.402   3.976   5.054 -0.1065  0.3258  0.2054
 8110SOL    HW135963   0.325   3.918   5.053  0.4707 -0.4499  0.9761
 8110SOL    HW235964   0.429   3.975   5.146  1.6294 -1.4369 -0.3135
 8111SOL     OW35965   3.359   1.709   0.700 -0.6061  0.0584 -0.5041
 8111SOL    HW135966   3.359   1.671   0.612 -1.9127 -0.5016 -0.2626
 8111SOL    HW235967   3.264   1.717   0.709 -0.8115 -0.9692 -1.8114
 8112SOL     OW35968   4.091   2.565  12.389  0.4712  0.4373  0.0363
 8112SOL    HW135969   4.178   2.581  12.426  0.9869  2.7987 -2.1707
 8112SOL    HW235970   4.085   2.628  12.317 -2.7340 -0.1767 -0.2209
 8113SOL     OW35971   2.953   3.084   2.028  0.0656  0.5547  0.3711
 8113SOL    HW135972   2.919   3.059   2.113 -0.5108  0.4408  0.1052
 8113SOL    HW235973   2.909   3.021   1.970  2.6882  0.6567 -1.7657
 8114SOL     OW35974   2.649   1.593   9.455 -0.0519 -0.2615 -0.2446
 8114SOL    HW135975   2.662   1.572   9.548 -0.3337 -1.0670 -0.3841
 8114SOL    HW235976   2.712   1.664   9.441  1.6927 -1.6818  0.2924
 8115SOL     OW35977   3.088   1.672   9.121 -0.3077 -0.0513  0.9141
 8115SOL    HW135978   3.063   1.653   9.031  1.9907 -1.5021  0.5864
 8115SOL    HW235979   3.043   1.600   9.167 -2.0763  1.2708  1.2687
 8116SOL     OW35980   0.638   1.853   8.966  0.1437 -0.1887  0.4733
 8116SOL    HW135981   0.733   1.843   8.961  0.1058 -1.4219  1.9963
 8116SOL    HW235982   0.619   1.879   8.876 -1.6104  1.9270  1.4496
 8117SOL     OW35983   3.879   3.704   9.904  0.5491 -0.5227  0.3538
 8117SOL    HW135984   3.936   3.779   9.922  1.3802 -1.3234  1.0437
 8117SOL    HW235985   3.909   3.626   9.950  3.6203  0.1130 -0.6364
 8118SOL     OW35986   4.671   0.410   8.404  0.5037 -0.2184 -1.0990
 8118SOL    HW135987   0.008   0.352   8.400  2.2487  1.8901  2.1375
 8118SOL    HW235988   4.599   0.368   8.449  0.4469  0.9135 -0.1473
 8119SOL     OW35989   4.619   3.945   9.097 -0.4536  0.4565 -0.4103
 8119SOL    HW135990   4.605   3.985   9.011 -0.3196 -2.1679 -1.6524
 8119SOL    HW235991   4.715   3.943   9.101 -0.4639 -0.4396 -0.6319
 8120SOL     OW35992   3.623   3.679   9.139  0.0026 -0.9317 -0.5604
 8120SOL    HW135993   3.542   3.650   9.181  0.1068  2.2910  1.8314
 8120SOL    HW235994   3.680   3.601   9.139  1.7866  0.3694 -2.1109
 8121SOL     OW35995   3.110   2.943   6.661  0.2960  0.3661  0.1127
 8121SOL    HW135996   3.174   2.905   6.602  0.3424  0.1112  0.3309
 8121SOL    HW235997   3.035   2.942   6.601 -1.0442  0.1906  1.7937
 8122SOL     OW35998   2.231   0.708   3.214  0.0464  0.5352  0.4163
 8122SOL    HW135999   2.181   0.666   3.144 -0.6917  1.2829  0.4945
 8122SOL    HW236000   2.163   0.750   3.265 -0.2740 -1.5575  1.7205
 8123SOL     OW36001   1.867   0.589  16.817  0.1103 -0.6297 -0.2321
 8123SOL    HW136002   1.793   0.533  16.794 -1.7007  1.2597  1.0248
 8123SOL    HW236003   1.923   0.582  16.740 -0.8619 -1.1804 -0.8907
 8124SOL     OW36004   3.712   0.088   5.737 -0.1509 -0.4526  0.1967
 8124SOL    HW136005   3.691   0.155   5.671 -4.0305 -1.5208  0.3525
 8124SOL    HW236006   3.779   0.134   5.787 -0.2932 -0.8775  0.7738
 8125SOL     OW36007   1.980   4.348   2.734 -0.9854  0.1096  0.0557
 8125SOL    HW136008   1.986   4.431   2.782 -0.8753  1.0687 -1.6041
 8125SOL    HW236009   1.964   4.379   2.645 -0.5238  0.8814  0.2383
 8126SOL     OW36010   1.321   1.192   7.394 -0.3053  0.3809 -0.8851
 8126SOL    HW136011   1.245   1.167   7.447  1.3241 -1.5754  0.5155
 8126SOL    HW236012   1.387   1.137   7.436 -1.7453 -0.4519  0.2744
 8127SOL     OW36013   3.544   0.028   1.574  0.6384  0.0838  0.3417
 8127SOL    HW136014   3.574   0.118   1.564 -2.2866  1.0932  0.6376
 8127SOL    HW236015   3.548   4.739   1.482 -0.9824  2.7701 -0.5595
 8128SOL     OW36016   3.884   0.392   6.421 -0.5149  0.2831  0.0930
 8128SOL    HW136017   3.900   0.331   6.493 -1.4616  0.5836  0.5609
 8128SOL    HW236018   3.945   0.464   6.437  0.2648 -0.6906  1.6032
 8129SOL     OW36019   1.553   1.990   6.087 -0.1818  0.4555  0.3139
 8129SOL    HW136020   1.629   2.048   6.097 -1.8700  3.4169 -3.5851
 8129SOL    HW236021   1.588   1.909   6.124 -0.3383 -0.2088 -0.9870
 8130SOL     OW36022   2.435   4.173   4.082  0.1869 -0.0924 -0.2345
 8130SOL    HW136023   2.395   4.151   3.998  0.5812 -0.1719 -0.4013
 8130SOL    HW236024   2.447   4.087   4.122  2.1614  0.2593 -0.0265
 8131SOL     OW36025   2.047   3.025   1.019  0.0554 -0.6480  0.1340
 8131SOL    HW136026   2.134   3.050   1.052 -0.1638  0.2047  0.0539
 8131SOL    HW236027   2.075   2.950   0.966  4.2001 -0.3704  1.9373
 8132SOL     OW36028   1.353   0.756  17.424 -0.4161 -0.1679  0.6769
 8132SOL    HW136029   1.417   0.793  17.364  0.4723 -1.3668  0.8886
 8132SOL    HW236030   1.413   0.735  17.496  0.4456 -2.0061 -0.5949
 8133SOL     OW36031   1.828   1.913   5.174  0.7225  0.1308 -0.1692
 8133SOL    HW136032   1.807   1.846   5.109  0.2892  1.0306 -0.9489
 8133SOL    HW236033   1.741   1.949   5.187  0.3594 -0.5502 -0.7179
 8134SOL     OW36034   0.627   4.685   3.769 -0.0196 -0.2375 -0.1104
 8134SOL    HW136035   0.565   4.625   3.729 -0.1667 -0.7944  0.9579
 8134SOL    HW236036   0.671   4.631   3.835 -0.4519 -1.7365 -1.0532
 8135SOL     OW36037   4.490   4.570   3.751  0.3342  0.4918  0.2609
 8135SOL    HW136038   4.424   4.563   3.820  0.3609  0.9487  0.3290
 8135SOL    HW236039   4.513   4.477   3.744  1.6155  0.9219 -1.2463
 8136SOL     OW36040   1.359   0.680   2.829 -0.7466 -0.4511  0.3508
 8136SOL    HW136041   1.327   0.675   2.739 -1.6953  1.7454  0.5586
 8136SOL    HW236042   1.453   0.672   2.813 -1.0007  0.0520 -1.4626
 8137SOL     OW36043   3.061   0.358  10.075  0.2508  1.1645  0.2011
 8137SOL    HW136044   3.140   0.314  10.046  0.0775  1.6438 -1.0090
 8137SOL    HW236045   3.086   0.449  10.058  3.0287  0.2607 -0.4999
 8138SOL     OW36046   0.165   3.236   6.903  0.3349  0.2543 -0.1950
 8138SOL    HW136047   0.122   3.269   6.824  0.9818  1.6338  0.0284
 8138SOL    HW236048   0.259   3.236   6.884  0.8817  0.6103  2.5355
 8139SOL     OW36049   2.499   2.606   9.171  0.3049  0.2098  0.1805
 8139SOL    HW136050   2.486   2.541   9.101 -0.6776  0.3955  0.1859
 8139SOL    HW236051   2.539   2.555   9.241  0.4013  1.6294  1.1503
 8140SOL     OW36052   3.885   3.993   5.850  0.8782 -0.4530 -0.1131
 8140SOL    HW136053   3.920   4.038   5.927  0.7221  1.8175 -1.3680
 8140SOL    HW236054   3.795   4.025   5.842  1.4099  1.3112  0.9825
 8141SOL     OW36055   2.986   2.078   0.072  0.6479 -0.1891 -0.2616
 8141SOL    HW136056   2.937   2.022   0.132 -1.0927  1.4237 -0.1733
 8141SOL    HW236057   2.963   2.170   0.083 -0.2413 -0.6465  1.6606
 8142SOL     OW36058   1.127   0.596  16.427 -0.4223 -0.1860 -0.1190
 8142SOL    HW136059   1.082   0.677  16.448 -1.6329 -0.2870 -2.4100
 8142SOL    HW236060   1.070   0.526  16.460  0.0501 -1.3176 -1.6867
 8143SOL     OW36061   4.515   1.472   2.783  0.1327 -0.2539 -0.5650
 8143SOL    HW136062   4.603   1.506   2.799  0.4980  0.0016 -3.1023
 8143SOL    HW236063   4.453   1.527   2.829  0.4302  0.3018 -0.8305
 8144SOL     OW36064   1.394   2.614   8.645 -0.0561 -0.7357  0.1900
 8144SOL    HW136065   1.383   2.589   8.737  0.1282  0.3433  0.5164
 8144SOL    HW236066   1.361   2.704   8.647  1.1076 -0.3107  0.4241
 8145SOL     OW36067   2.786   2.395   8.783 -0.0249  0.1747  0.2949
 8145SOL    HW136068   2.727   2.468   8.765 -0.7901 -0.2741  0.9858
 8145SOL    HW236069   2.794   2.399   8.878 -0.8310  2.2100  0.2688
 8146SOL     OW36070   1.860   3.648   7.551 -0.4367 -0.5306 -0.1360
 8146SOL    HW136071   1.868   3.708   7.625 -1.4281 -1.0508  0.3953
 8146SOL    HW236072   1.921   3.574   7.553  0.6814  0.3802 -1.2968
 8147SOL     OW36073   1.001   1.505   1.107  0.0728 -0.0483  0.2072
 8147SOL    HW136074   0.911   1.470   1.100  0.3952 -1.1374  1.4317
 8147SOL    HW236075   1.016   1.525   1.014 -2.8127  0.4980 -0.1533
 8148SOL     OW36076   4.054   0.191   8.160  0.0239  0.6828 -0.0888
 8148SOL    HW136077   4.101   0.242   8.095 -1.2837  1.1097 -0.6865
 8148SOL    HW236078   3.984   0.164   8.102  1.4378 -0.9675 -1.0314
 8149SOL     OW36079   2.313   3.602   4.664  0.6247  0.4927 -0.3650
 8149SOL    HW136080   2.353   3.681   4.702  1.1388 -1.0272  2.2824
 8149SOL    HW236081   2.270   3.558   4.737 -0.5123  0.0956 -1.2745
 8150SOL     OW36082   2.334   1.793   4.058 -0.1087  0.2877 -0.0358
 8150SOL    HW136083   2.316   1.830   3.971  1.2898  1.6123  0.2441
 8150SOL    HW236084   2.245   1.792   4.093  0.3924  1.0486  1.2393
 8151SOL     OW36085   0.393   4.092   6.332  0.9180 -0.2260  0.0778
 8151SOL    HW136086   0.342   4.086   6.413  1.4860  1.3452  0.5453
 8151SOL    HW236087   0.403   3.999   6.314 -2.0967 -1.1229  2.9701
 8152SOL     OW36088   0.858   4.490  10.907  0.3153  0.2890  0.2462
 8152SOL    HW136089   0.865   4.586  10.911  1.9128  0.1651  0.4718
 8152SOL    HW236090   0.826   4.467  10.994 -0.1471  1.2355  0.3248
 8153SOL     OW36091   2.665   1.645   8.414 -0.2980  0.4449 -0.4383
 8153SOL    HW136092   2.733   1.664   8.350 -2.2776  1.2209 -2.3331
 8153SOL    HW236093   2.699   1.559   8.441  1.7026  1.2591 -0.3893
 8154SOL     OW36094   2.783   2.294  15.434  0.3896  0.0067  0.3498
 8154SOL    HW136095   2.714   2.231  15.414  0.1775  0.1601  0.5806
 8154SOL    HW236096   2.811   2.318  15.346 -0.1459 -0.3458  0.0843
 8155SOL     OW36097   2.718   4.063   7.937 -0.2336  0.3312 -0.1687
 8155SOL    HW136098   2.693   4.023   7.854 -1.7676 -1.8003  1.3170
 8155SOL    HW236099   2.693   3.987   7.990  2.0771 -1.2744 -1.3378
 8156SOL     OW36100   4.384   0.179   3.670  0.4568 -0.3932  0.3031
 8156SOL    HW136101   4.304   0.135   3.700 -0.9854  0.6483 -1.9626
 8156SOL    HW236102   4.414   0.133   3.591  0.8582 -1.4301  1.0675
 8157SOL     OW36103   4.335   0.373  10.656  0.2924  0.4927  0.0260
 8157SOL    HW136104   4.256   0.412  10.691  0.0185  0.6978 -0.8203
 8157SOL    HW236105   4.336   0.417  10.571  1.1165 -0.0453 -0.2437
 8158SOL     OW36106   0.033   2.264   2.635 -0.4240  0.3049  0.2194
 8158SOL    HW136107   4.736   2.307   2.712 -1.5355  1.6047 -1.0160
 8158SOL    HW236108   4.737   2.316   2.563 -0.0661 -1.3745 -1.1512
 8159SOL     OW36109   0.022   1.221   2.989  0.0904  0.2008  0.1879
 8159SOL    HW136110   0.109   1.244   3.019  0.1521  0.6136 -0.2945
 8159SOL    HW236111   4.724   1.307   2.973  2.1616  1.1243  0.4183
 8160SOL     OW36112   1.927   3.747   5.994  0.4687  0.1595 -0.0231
 8160SOL    HW136113   1.848   3.753   5.939 -1.2836  1.7662  2.6549
 8160SOL    HW236114   1.890   3.716   6.076  0.7901 -1.1124 -0.3502
 8161SOL     OW36115   0.111   1.931   5.879  0.8328 -0.1972 -0.3401
 8161SOL    HW136116   0.065   1.860   5.923  1.0204 -1.4320 -2.1457
 8161SOL    HW236117   0.190   1.930   5.933  0.3927  2.4616  0.3402
 8162SOL     OW36118   0.957   4.220  11.372  0.3620 -0.0318  0.1435
 8162SOL    HW136119   0.894   4.208  11.301 -1.1590 -0.5629  1.5795
 8162SOL    HW236120   1.012   4.141  11.365  1.7747  0.8220  1.6445
 8163SOL     OW36121   3.805   0.115   7.274 -0.5034 -0.1122  0.3516
 8163SOL    HW136122   3.754   0.059   7.333 -0.4374  0.3549  0.8449
 8163SOL    HW236123   3.858   0.163   7.337 -0.3704  0.6290 -0.3297
 8164SOL     OW36124   0.530   3.124   1.594 -0.4011  0.4212  0.6289
 8164SOL    HW136125   0.447   3.152   1.553 -0.3563  0.1015  0.3202
 8164SOL    HW236126   0.521   3.174   1.675  0.3080  2.0455 -0.2982
 8165SOL     OW36127   0.824   1.957   2.461  0.0582 -0.0300 -0.0921
 8165SOL    HW136128   0.836   1.873   2.417  2.2213  1.4379 -2.2965
 8165SOL    HW236129   0.797   2.006   2.383  2.8668  3.0913  0.8769
 8166SOL     OW36130   0.589   3.767   6.484 -0.3592  0.4105  0.5322
 8166SOL    HW136131   0.661   3.703   6.482  0.2251  1.0175  1.9190
 8166SOL    HW236132   0.635   3.844   6.450 -1.7742  0.9206 -0.2374
 8167SOL     OW36133   3.007   1.148   5.045  0.0569  0.4212  0.2981
 8167SOL    HW136134   2.983   1.183   4.959  0.4955 -0.0055  0.0010
 8167SOL    HW236135   3.003   1.055   5.024  3.6106 -0.0628  1.8845
 8168SOL     OW36136   0.648   1.595   0.883  0.2884 -0.5345 -0.5399
 8168SOL    HW136137   0.717   1.659   0.866 -1.0918  1.1807  0.1469
 8168SOL    HW236138   0.597   1.590   0.802 -0.3982 -0.6547 -0.1024
 8169SOL     OW36139   4.357   3.960  16.333 -0.9721 -0.2447 -0.3020
 8169SOL    HW136140   4.402   3.918  16.406  0.5586  1.5565 -0.2052
 8169SOL    HW236141   4.426   4.010  16.290  0.2449 -0.9182  0.8680
 8170SOL     OW36142   3.237   0.357   4.247 -0.0394 -0.0764 -0.7035
 8170SOL    HW136143   3.214   0.318   4.332 -0.2352  0.7486 -0.3770
 8170SOL    HW236144   3.156   0.359   4.196  0.3881  0.3060 -1.3577
 8171SOL     OW36145   4.457   0.786  11.437 -0.0507  0.0955 -0.2528
 8171SOL    HW136146   4.414   0.836  11.368 -0.1356  0.8410  0.3317
 8171SOL    HW236147   4.466   0.858  11.500  1.7521  0.9524 -1.4786
 8172SOL     OW36148   2.082   2.166   8.643 -0.3725 -0.2781 -0.3243
 8172SOL    HW136149   2.156   2.208   8.599  0.8556 -2.5263 -0.4218
 8172SOL    HW236150   2.001   2.197   8.603 -0.9711  0.8227  1.7315
 8173SOL     OW36151   3.535   1.779  16.333  0.0889  0.3523  0.1265
 8173SOL    HW136152   3.462   1.826  16.292 -1.7925  2.6034  6.0293
 8173SOL    HW236153   3.514   1.689  16.307 -0.8473  0.3259  0.9639
 8174SOL     OW36154   2.650   3.273   2.852  0.3180  0.3106 -0.1033
 8174SOL    HW136155   2.714   3.203   2.836  0.2241 -0.0363  1.0296
 8174SOL    HW236156   2.574   3.242   2.804 -0.0836  2.1787 -0.6569
 8175SOL     OW36157   1.428   2.050   3.101 -0.3460 -0.3754  0.2957
 8175SOL    HW136158   1.407   1.977   3.159 -2.7101  1.5448  1.8595
 8175SOL    HW236159   1.363   2.038   3.031 -2.3067  0.6729  1.9214
 8176SOL     OW36160   2.224   3.060   7.302  0.3237  0.2533  0.2102
 8176SOL    HW136161   2.184   3.138   7.342 -0.4892  0.2215 -0.5317
 8176SOL    HW236162   2.183   3.067   7.216  1.6045  1.3436 -0.3088
 8177SOL     OW36163   0.257   1.908   8.285 -0.1135 -0.5875  0.2408
 8177SOL    HW136164   0.231   1.976   8.347  0.9405  1.1333 -1.1923
 8177SOL    HW236165   0.268   1.968   8.212 -2.7014 -0.5065 -0.1009
 8178SOL     OW36166   2.937   2.119   6.381  0.0048  0.7775 -0.1197
 8178SOL    HW136167   2.923   2.063   6.456 -2.2827  0.6774 -0.6395
 8178SOL    HW236168   3.022   2.157   6.404  0.2381 -0.4618  1.0031
 8179SOL     OW36169   3.205   0.241   5.114  0.0712  0.6079 -0.3978
 8179SOL    HW136170   3.233   0.196   5.194  3.6551  1.5290 -1.1188
 8179SOL    HW236171   3.124   0.194   5.095  0.6804 -0.5859  0.0140
 8180SOL     OW36172   3.976   1.718   6.690  0.0574 -0.6747  0.0594
 8180SOL    HW136173   3.907   1.669   6.645 -0.4275 -0.0153  0.0793
 8180SOL    HW236174   3.990   1.659   6.764  0.1938  0.0520  0.6141
 8181SOL     OW36175   3.718   4.385  12.048 -0.5118  0.1091  0.7671
 8181SOL    HW136176   3.669   4.461  12.079 -0.4824  0.9460 -1.2150
 8181SOL    HW236177   3.736   4.413  11.958 -0.5407 -0.6636  0.5210
 8182SOL     OW36178   0.878   2.311  11.721 -0.0370 -0.1148 -0.3688
 8182SOL    HW136179   0.815   2.254  11.765 -0.8860  0.8940 -0.2939
 8182SOL    HW236180   0.949   2.312  11.786 -0.5014  0.4299  0.1187
 8183SOL     OW36181   3.120   2.036   8.435 -0.4364  0.1925  0.4976
 8183SOL    HW136182   3.159   2.046   8.522 -1.2739  0.2845  0.8622
 8183SOL    HW236183   3.195   2.000   8.387 -1.1628  1.3092 -1.4638
 8184SOL     OW36184   2.213   0.881   0.962 -0.3633  0.0570  0.8085
 8184SOL    HW136185   2.295   0.909   1.002 -1.9316  3.3176  1.7894
 8184SOL    HW236186   2.203   0.955   0.903 -2.9282 -2.3751 -1.8443
 8185SOL     OW36187   2.919   0.354   8.947 -0.3921 -0.2526 -0.2452
 8185SOL    HW136188   2.953   0.397   9.025  0.6804 -0.7593 -0.4321
 8185SOL    HW236189   2.965   0.415   8.889  1.6032 -0.7658  0.7929
 8186SOL     OW36190   0.445   1.012   0.273  0.2769  0.1756  0.0703
 8186SOL    HW136191   0.451   1.107   0.278  2.2461  0.1346 -1.4894
 8186SOL    HW236192   0.362   1.000   0.319 -1.2167  0.3297 -2.6126
 8187SOL     OW36193   3.362   2.520   1.248 -0.1422 -0.2892  0.5966
 8187SOL    HW136194   3.451   2.554   1.237  0.2816 -2.3767 -2.3428
 8187SOL    HW236195   3.317   2.593   1.292  1.7313  0.6604  0.9714
 8188SOL     OW36196   4.469   4.012  17.343  0.2857  0.2789 -0.4290
 8188SOL    HW136197   4.387   4.019  17.293 -0.0841  3.1940  0.5771
 8188SOL    HW236198   4.431   4.042  17.426  2.9556  0.7707  0.5959
 8189SOL     OW36199   2.295   4.592   2.779 -0.1045 -0.1944  0.3328
 8189SOL    HW136200   2.307   4.565   2.688  1.1042  0.4479  0.3015
 8189SOL    HW236201   2.381   4.589   2.820 -0.6397  1.1907  1.5531
 8190SOL     OW36202   1.543   2.577  16.610  0.6327  0.2645 -0.2741
 8190SOL    HW136203   1.546   2.508  16.677 -1.3439 -0.5827 -1.0675
 8190SOL    HW236204   1.523   2.651  16.667  0.3904 -0.5146  0.6497
 8191SOL     OW36205   4.220   2.259   4.296  0.2255 -0.4325 -0.7085
 8191SOL    HW136206   4.281   2.267   4.370 -3.4478  2.6141  1.9503
 8191SOL    HW236207   4.220   2.163   4.294  2.4953 -0.4442 -0.1373
 8192SOL     OW36208   0.988   3.514  11.251 -0.1255  0.3820  0.1414
 8192SOL    HW136209   0.986   3.435  11.305 -2.2086  1.1751  1.1785
 8192SOL    HW236210   1.084   3.512  11.248 -0.1214 -2.8058  2.4359
 8193SOL     OW36211   0.340   3.456   8.487  0.0212  0.1517  0.4080
 8193SOL    HW136212   0.427   3.431   8.456  0.5072  1.0986  1.0022
 8193SOL    HW236213   0.356   3.464   8.582 -0.9516  0.6899  0.5308
 8194SOL     OW36214   1.486   4.103  11.221  0.2139  0.3816  0.3257
 8194SOL    HW136215   1.516   4.015  11.243  1.8417  0.2967 -2.1696
 8194SOL    HW236216   1.530   4.154  11.288  0.6003  0.2495  0.1681
 8195SOL     OW36217   2.586   3.646  16.901  0.1016  0.1179 -0.0712
 8195SOL    HW136218   2.613   3.578  16.962  3.3361 -0.3725 -2.0395
 8195SOL    HW236219   2.518   3.698  16.945  0.7247  1.7975 -1.0729
 8196SOL     OW36220   4.611   4.657   6.891 -0.5751  0.0176  0.3797
 8196SOL    HW136221   4.609   4.593   6.962 -0.7718 -1.4380 -0.9227
 8196SOL    HW236222   4.625   4.738   6.939  1.7615  0.7089 -1.4462
 8197SOL     OW36223   1.389   4.478  10.828 -0.0949  0.7408 -0.2982
 8197SOL    HW136224   1.381   4.382  10.823 -0.1702  0.7261  0.0878
 8197SOL    HW236225   1.383   4.487  10.923 -2.6897  0.6937 -0.4584
 8198SOL     OW36226   3.150   3.019   2.521  0.2212 -0.1007  0.6097
 8198SOL    HW136227   3.203   2.979   2.590  0.0800 -1.0092  0.1925
 8198SOL    HW236228   3.128   3.108   2.548  1.2514  0.3992 -0.2489
 8199SOL     OW36229   2.534   3.850  13.036 -0.0642  0.8136  0.4694
 8199SOL    HW136230   2.612   3.906  13.037 -0.2070  1.0474 -2.2924
 8199SOL    HW236231   2.532   3.818  13.127  1.6165  0.2558  0.3141
 8200SOL     OW36232   0.629   4.475  11.467 -0.3092  0.7051  0.0777
 8200SOL    HW136233   0.637   4.379  11.469  0.8554  0.7448 -3.4496
 8200SOL    HW236234   0.723   4.489  11.456 -0.0912  0.4458  1.6385
 8201SOL     OW36235   3.393   2.231   8.831 -0.0752 -0.3337  0.4502
 8201SOL    HW136236   3.488   2.232   8.813 -0.3947 -0.8540 -1.3219
 8201SOL    HW236237   3.370   2.314   8.789  1.4074 -0.5674 -0.8609
 8202SOL     OW36238   2.162   4.163   7.507  0.3026 -0.1526 -0.3358
 8202SOL    HW136239   2.241   4.131   7.464  0.8392 -3.0943  2.8667
 8202SOL    HW236240   2.117   4.195   7.428 -1.3952  2.5912  1.7550
 8203SOL     OW36241   1.520   0.674  10.716  0.0875  0.1868 -0.2962
 8203SOL    HW136242   1.582   0.731  10.670 -0.8019  0.5009 -1.1006
 8203SOL    HW236243   1.441   0.728  10.715  0.5734  0.9138  1.8952
 8204SOL     OW36244   3.576   0.452   7.188 -0.5988 -0.0580 -0.3530
 8204SOL    HW136245   3.510   0.520   7.200  0.8664  1.1037  1.1784
 8204SOL    HW236246   3.524   0.372   7.201  1.8358 -1.3003  1.8387
 8205SOL     OW36247   4.560   1.597   5.831  0.2884 -0.2527 -0.0497
 8205SOL    HW136248   4.508   1.657   5.884  0.3211  1.1321 -1.6068
 8205SOL    HW236249   4.486   1.561   5.784  0.3536 -1.2531  0.6118
 8206SOL     OW36250   1.075   4.593   8.795  0.5840  0.0937 -0.8483
 8206SOL    HW136251   1.152   4.585   8.851 -0.2108 -1.1403  0.0630
 8206SOL    HW236252   1.066   4.682   8.762  1.5996  0.8425  0.8850
 8207SOL     OW36253   1.139   1.918   2.157 -0.1380  0.3060 -0.0621
 8207SOL    HW136254   1.077   1.954   2.093  0.0357  1.6266  0.5202
 8207SOL    HW236255   1.207   1.981   2.133 -1.0418  0.9854 -0.8217
 8208SOL     OW36256   0.842   1.730   0.478  0.0467  0.2954  0.3270
 8208SOL    HW136257   0.898   1.655   0.500  0.1441  0.3130  0.1330
 8208SOL    HW236258   0.759   1.706   0.520 -0.2903 -1.1927 -1.2092
 8209SOL     OW36259   2.548   1.204   6.486 -0.4963 -0.5815 -0.2980
 8209SOL    HW136260   2.586   1.239   6.406  0.2311 -1.9805 -0.5626
 8209SOL    HW236261   2.627   1.196   6.540 -1.1815 -1.3302  0.5856
 8210SOL     OW36262   1.785   4.348   8.390  0.0937  0.2887  0.2319
 8210SOL    HW136263   1.702   4.349   8.438  0.4636 -1.7153  0.9313
 8210SOL    HW236264   1.856   4.365   8.453  0.6208 -0.1861 -0.2399
 8211SOL     OW36265   0.789   4.307   4.953  0.2277  0.5010  0.2176
 8211SOL    HW136266   0.851   4.272   5.017  0.1342  0.3383  0.2183
 8211SOL    HW236267   0.754   4.225   4.918  1.1480  0.4973 -0.6962
 8212SOL     OW36268   3.842   3.721   7.051  0.0998 -0.4148  0.0489
 8212SOL    HW136269   3.861   3.718   7.145  1.1503 -1.9409 -0.2084
 8212SOL    HW236270   3.747   3.727   7.061  0.3984  2.3565  1.2206
 8213SOL     OW36271   4.416   3.405   4.655 -0.1239 -0.0019  0.7571
 8213SOL    HW136272   4.419   3.472   4.587 -2.1468 -0.0031  0.6707
 8213SOL    HW236273   4.501   3.363   4.666 -1.2034 -2.5178 -0.5133
 8214SOL     OW36274   4.634   2.803   4.453 -0.8014 -1.0859 -0.4363
 8214SOL    HW136275   4.717   2.809   4.501 -1.9331 -0.6617  1.5107
 8214SOL    HW236276   4.576   2.756   4.513 -0.9082 -1.0207 -0.4874
 8215SOL     OW36277   4.530   1.079   8.062 -0.9459 -0.4846  1.1999
 8215SOL    HW136278   4.514   1.149   8.125 -1.6611  0.6636 -0.2761
 8215SOL    HW236279   4.596   1.024   8.105 -0.4750 -0.8424  0.0186
 8216SOL     OW36280   0.031   0.796   5.534  0.6666  0.1792  0.2692
 8216SOL    HW136281   0.095   0.841   5.590  0.4705 -0.2779  0.8581
 8216SOL    HW236282   4.738   0.730   5.595 -2.5849  1.2437 -0.2855
 8217SOL     OW36283   4.251   1.888   7.636 -0.1876  0.2121 -0.1524
 8217SOL    HW136284   4.235   1.967   7.585 -0.4274  0.2553 -0.0128
 8217SOL    HW236285   4.169   1.881   7.685  0.3613  1.4676  0.9628
 8218SOL     OW36286   1.732   2.836   6.596 -0.9478 -0.0763 -0.0889
 8218SOL    HW136287   1.748   2.806   6.685 -2.1009  2.3044  0.9319
 8218SOL    HW236288   1.698   2.754   6.559  1.5337 -0.7224 -0.9068
 8219SOL     OW36289   1.586   1.543   0.813 -0.0529  0.0934 -0.0812
 8219SOL    HW136290   1.532   1.591   0.750 -0.9428  0.2186  0.7871
 8219SOL    HW236291   1.620   1.625   0.848 -1.0272  0.0838  0.8832
 8220SOL     OW36292   2.744   2.625   0.503  0.0436  0.2644  0.5035
 8220SOL    HW136293   2.837   2.614   0.481 -0.4920  0.9109 -2.0900
 8220SOL    HW236294   2.750   2.670   0.587  0.3461  0.3534  0.4337
 8221SOL     OW36295   4.505   2.550   8.616  0.1597 -0.3156  0.5886
 8221SOL    HW136296   4.450   2.586   8.686 -0.0630 -0.5022  0.5086
 8221SOL    HW236297   4.464   2.591   8.540 -0.0471 -0.2866  0.7167
 8222SOL     OW36298   2.443   2.416   4.034  0.1883  0.4103  0.3972
 8222SOL    HW136299   2.416   2.460   4.114 -1.3311 -1.2551  0.8164
 8222SOL    HW236300   2.536   2.438   4.034  0.0742  0.8837 -0.3165
 8223SOL     OW36301   3.893   4.100   1.568 -0.4410 -0.2863 -0.2235
 8223SOL    HW136302   3.884   4.140   1.655 -0.6329  0.1132 -0.4248
 8223SOL    HW236303   3.801   4.097   1.542 -0.4886  2.9994 -0.4598
 8224SOL     OW36304   2.455   1.878   4.324  0.4823  0.4269  0.0594
 8224SOL    HW136305   2.373   1.834   4.305  0.7855 -0.2592  0.3355
 8224SOL    HW236306   2.505   1.799   4.346  0.6717  0.9586  1.4965
 8225SOL     OW36307   1.516   4.702   9.085  0.5154 -0.5290  0.4932
 8225SOL    HW136308   1.505   0.055   9.063 -0.3895 -0.7245  0.1233
 8225SOL    HW236309   1.586   4.692   9.149 -0.8866  2.0570  2.3919
 8226SOL     OW36310   1.067   1.017   4.667  0.1918 -0.0927  0.3178
 8226SOL    HW136311   1.067   0.932   4.623  0.1765  0.6461 -1.0769
 8226SOL    HW236312   1.113   0.994   4.748 -1.4825 -0.5769  1.1323
 8227SOL     OW36313   1.433   2.625   5.385  0.0382  0.5474 -0.1840
 8227SOL    HW136314   1.396   2.683   5.452  0.0908  0.7275 -0.3138
 8227SOL    HW236315   1.519   2.662   5.364  0.8020 -0.3339  1.3485
 8228SOL     OW36316   3.229   1.010   3.922  0.1519  0.2032 -0.5882
 8228SOL    HW136317   3.264   1.018   4.010 -1.2683  1.4111 -0.1344
 8228SOL    HW236318   3.310   1.022   3.873  0.0229  1.5182 -0.4645
 8229SOL     OW36319   1.771   2.273   3.819 -0.3565  0.1728 -0.6359
 8229SOL    HW136320   1.749   2.342   3.756 -2.0398  0.0216 -0.2025
 8229SOL    HW236321   1.710   2.204   3.792  1.1222 -0.4053 -2.5317
 8230SOL     OW36322   2.629   3.390   4.511 -0.4135  0.4373 -0.1531
 8230SOL    HW136323   2.606   3.446   4.438 -0.5698 -0.1393 -0.5514
 8230SOL    HW236324   2.584   3.437   4.581 -0.3251  0.1576  0.0931
 8231SOL     OW36325   0.908   2.934  11.395 -0.6290 -0.1306  0.2015
 8231SOL    HW136326   0.859   2.906  11.473 -0.2246 -2.4912 -0.4045
 8231SOL    HW236327   0.850   3.002  11.361  0.2025  0.7011  0.4270
 8232SOL     OW36328   4.190   2.694   6.821  0.4783 -0.3173  0.1025
 8232SOL    HW136329   4.118   2.668   6.764 -1.7671 -2.2857  3.8466
 8232SOL    HW236330   4.139   2.756   6.874 -1.3672 -0.3411 -1.6425
 8233SOL     OW36331   3.263   2.534   9.934 -0.1428  0.1746  0.1881
 8233SOL    HW136332   3.238   2.545   9.842 -4.1670  1.6569  1.4365
 8233SOL    HW236333   3.354   2.507   9.933  0.4548  2.1653  1.0206
 8234SOL     OW36334   3.154   1.062  13.002 -0.0002 -0.0860  0.0337
 8234SOL    HW136335   3.220   1.085  13.068 -0.4698  1.4484 -0.0406
 8234SOL    HW236336   3.076   1.093  13.047 -0.3013 -1.8652  0.7660
 8235SOL     OW36337   2.655   0.414  17.040 -0.2467  0.2404  0.4941
 8235SOL    HW136338   2.628   0.342  16.982 -0.5244 -0.4803  1.5126
 8235SOL    HW236339   2.636   0.492  16.988 -0.3650 -0.9141 -1.2144
 8236SOL     OW36340   4.115   0.378   8.989 -0.3179  0.3597 -0.3332
 8236SOL    HW136341   4.083   0.288   8.992 -0.7207  0.5870  1.9321
 8236SOL    HW236342   4.171   0.379   8.911 -1.0314 -1.4273 -0.8714
 8237SOL     OW36343   1.704   1.031   4.566 -0.2860  0.1028 -0.7185
 8237SOL    HW136344   1.662   0.957   4.520  1.5128  0.3359 -2.7016
 8237SOL    HW236345   1.794   1.000   4.574  0.0388  1.6127  1.1482
 8238SOL     OW36346   0.028   3.579   3.105 -0.0639 -0.1883 -0.2577
 8238SOL    HW136347   0.014   3.533   3.188 -0.4249  2.1007  0.9481
 8238SOL    HW236348   0.117   3.550   3.085  0.9179  0.7153  2.8818
 8239SOL     OW36349   0.398   0.075   6.809 -0.0342 -0.2047 -0.2669
 8239SOL    HW136350   0.475   0.053   6.758 -0.7452 -0.7931 -1.0692
 8239SOL    HW236351   0.432   0.130   6.880  0.4900 -2.4170  1.1719
 8240SOL     OW36352   1.255   0.883   9.433  0.6470 -0.2287  0.0889
 8240SOL    HW136353   1.220   0.902   9.346  0.5380 -0.4207  0.0931
 8240SOL    HW236354   1.190   0.825   9.472 -0.0580 -0.0053 -0.7761
 8241SOL     OW36355   1.570   2.213  17.639  0.8123  0.1392  0.2145
 8241SOL    HW136356   1.633   2.246  17.702 -0.4119  2.1031  0.3943
 8241SOL    HW236357   1.512   2.162  17.696  0.1391 -1.4150 -1.8632
 8242SOL     OW36358   2.268   2.333   7.509  0.3501  0.8077 -0.4927
 8242SOL    HW136359   2.194   2.377   7.466 -0.5816  1.1092  1.4504
 8242SOL    HW236360   2.219   2.254   7.531  1.9206  0.1207  0.4841
 8243SOL     OW36361   1.567   3.801  10.938 -0.2306 -0.1336  0.0782
 8243SOL    HW136362   1.603   3.800  10.849  0.2374  1.0448  0.2426
 8243SOL    HW236363   1.542   3.711  10.956 -0.7752  0.4222  2.0358
 8244SOL     OW36364   4.070   3.646   5.510  0.2612 -0.0151 -0.0575
 8244SOL    HW136365   4.033   3.562   5.486 -2.2912  1.6267 -1.7612
 8244SOL    HW236366   4.035   3.667   5.597  0.8687 -0.9556  0.4178
 8245SOL     OW36367   4.562   2.474   4.824 -0.7689 -0.3325  0.1059
 8245SOL    HW136368   4.585   2.447   4.913 -0.8615  0.9219  0.5123
 8245SOL    HW236369   4.489   2.412   4.821 -1.1109  0.0668  0.2545
 8246SOL     OW36370   4.715   0.387   4.024 -0.1314  0.4977  0.4624
 8246SOL    HW136371   4.706   0.474   4.064  0.7425  1.1049 -0.6236
 8246SOL    HW236372   4.638   0.392   3.967  1.2287  0.8980 -1.3669
 8247SOL     OW36373   0.894   1.221   4.718  0.2389  0.6896 -0.4632
 8247SOL    HW136374   0.888   1.270   4.636 -1.8358 -1.2208 -1.4475
 8247SOL    HW236375   0.942   1.144   4.690  1.0302  0.3644  1.7475
 8248SOL     OW36376   0.976   0.155   6.752 -0.1792 -0.3445  0.2557
 8248SOL    HW136377   1.043   0.152   6.684 -0.3584  2.1763 -0.0345
 8248SOL    HW236378   0.969   0.062   6.774  0.2532 -0.6547 -0.9094
 8249SOL     OW36379   0.330   1.023   1.318 -0.0818 -0.1457  0.3548
 8249SOL    HW136380   0.255   1.065   1.359 -0.0168  0.7555 -0.4323
 8249SOL    HW236381   0.328   0.936   1.358  3.4765  0.5018  1.9496
 8250SOL     OW36382   1.542   2.473   7.398  0.2578 -0.0613 -0.7297
 8250SOL    HW136383   1.547   2.440   7.309  0.9879  1.2742 -1.1800
 8250SOL    HW236384   1.616   2.444   7.451  0.1132  2.8620  1.0860
 8251SOL     OW36385   2.865   2.699   7.322 -0.3158  0.5300 -0.0526
 8251SOL    HW136386   2.770   2.710   7.326 -0.3337  0.5374 -0.5848
 8251SOL    HW236387   2.866   2.618   7.271  0.5285 -0.9878  2.3230
 8252SOL     OW36388   4.279   1.216   7.620  0.4807  0.9190  0.4329
 8252SOL    HW136389   4.371   1.211   7.593  0.2830  1.7469 -0.4088
 8252SOL    HW236390   4.252   1.274   7.549  1.0932 -0.6896 -1.1169
 8253SOL     OW36391   0.452   3.210   3.288 -0.5185 -0.0309  0.1909
 8253SOL    HW136392   0.431   3.215   3.382 -0.1239 -0.8998  0.3266
 8253SOL    HW236393   0.548   3.211   3.289 -0.4879 -3.2418  0.2950
 8254SOL     OW36394   3.358   2.826   7.366 -0.5492 -0.2623 -0.4178
 8254SOL    HW136395   3.268   2.844   7.338 -0.4351  1.1211  0.1151
 8254SOL    HW236396   3.343   2.820   7.460 -1.5788 -0.1304 -0.5724
 8255SOL     OW36397   1.315   2.853   5.175 -0.3254  0.0575 -0.1476
 8255SOL    HW136398   1.385   2.789   5.159 -1.0524 -1.1030  1.3544
 8255SOL    HW236399   1.240   2.800   5.202 -0.2117 -0.2793 -0.4840
 8256SOL     OW36400   3.485   3.637   5.729 -1.0127 -0.0850 -0.6262
 8256SOL    HW136401   3.462   3.677   5.813  2.0501 -1.6761  0.9670
 8256SOL    HW236402   3.566   3.588   5.741 -0.3205  1.1551 -0.1581
 8257SOL     OW36403   2.560   0.973   9.422  0.0099  0.6990 -0.0624
 8257SOL    HW136404   2.599   0.954   9.508  0.7824 -0.8581 -0.7806
 8257SOL    HW236405   2.500   0.901   9.406 -1.0015  1.6085 -0.4150
 8258SOL     OW36406   1.730   4.447   5.878  0.6289  0.0296  0.1901
 8258SOL    HW136407   1.651   4.453   5.931  0.7448  0.1012  0.3535
 8258SOL    HW236408   1.720   4.366   5.827  0.9033 -0.2364  0.5564
 8259SOL     OW36409   0.993   3.052   1.544  0.2263  0.1229  0.0273
 8259SOL    HW136410   0.914   3.104   1.553  0.0730 -0.6139  2.8890
 8259SOL    HW236411   1.063   3.116   1.534 -0.2887  1.1018  2.7016
 8260SOL     OW36412   2.474   4.469   3.293 -0.1280 -0.3687  0.0418
 8260SOL    HW136413   2.545   4.475   3.358 -1.9489  0.8919  1.9137
 8260SOL    HW236414   2.520   4.512   3.221 -2.3652 -1.5243 -2.0814
 8261SOL     OW36415   0.737   3.459  15.158 -0.5685 -0.4696 -0.1965
 8261SOL    HW136416   0.645   3.436  15.144 -0.7127  0.3872 -0.6228
 8261SOL    HW236417   0.771   3.396  15.222  1.3275  2.6266  1.8027
 8262SOL     OW36418   0.797   1.715   7.876  0.1831 -0.0288  0.0683
 8262SOL    HW136419   0.836   1.792   7.836  1.8179 -2.0077 -2.1346
 8262SOL    HW236420   0.857   1.693   7.947  1.0860 -2.0059 -1.2975
 8263SOL     OW36421   2.930   4.718   4.057  0.1891  0.0502 -0.6581
 8263SOL    HW136422   2.900   4.652   3.995 -1.8266  1.6612 -1.3986
 8263SOL    HW236423   2.865   4.717   4.127 -0.1155  0.6299 -0.9383
 8264SOL     OW36424   4.023   0.652   1.031  0.6687 -0.5568  0.0508
 8264SOL    HW136425   3.941   0.684   0.994  1.1640 -0.6789 -1.1449
 8264SOL    HW236426   4.001   0.560   1.041  2.4164 -0.9549  0.3184
 8265SOL     OW36427   0.690   0.381   4.811  0.2084  0.2527 -0.1800
 8265SOL    HW136428   0.741   0.442   4.757  0.9576  0.0973  0.3488
 8265SOL    HW236429   0.728   0.414   4.893  1.7562 -0.7983 -0.4654
 8266SOL     OW36430   4.693   2.129   5.338 -0.6414 -0.9835  0.2732
 8266SOL    HW136431   4.715   2.096   5.425  0.7205 -0.6526  0.0574
 8266SOL    HW236432   0.000   2.212   5.341 -1.0856 -0.6547 -2.0437
 8267SOL     OW36433   3.711   3.784   2.325  0.4997 -0.8134 -0.1216
 8267SOL    HW136434   3.777   3.738   2.273  3.1913  0.4241  2.2307
 8267SOL    HW236435   3.733   3.748   2.411 -3.7271  0.6170  1.5653
 8268SOL     OW36436   1.688   0.786   5.988  0.4665 -0.5837  0.2893
 8268SOL    HW136437   1.600   0.753   5.970  0.4725 -1.0344  1.0943
 8268SOL    HW236438   1.708   0.741   6.070  1.3026 -3.2107 -1.3617
 8269SOL     OW36439   2.211   2.885  13.964  0.3965 -0.7733 -0.0977
 8269SOL    HW136440   2.260   2.803  13.957  0.0645 -0.8563 -1.3237
 8269SOL    HW236441   2.147   2.859  13.898 -0.4414 -0.4224  0.5781
 8270SOL     OW36442   2.333   0.993   5.036 -0.3218  0.2658  0.1624
 8270SOL    HW136443   2.341   0.899   5.056  1.5813  0.2900 -0.5488
 8270SOL    HW236444   2.328   1.021   5.127  0.8887  0.9781  0.0092
 8271SOL     OW36445   3.615   0.030   3.532  0.6024 -0.4638  0.3576
 8271SOL    HW136446   3.686   4.727   3.581  0.2831 -2.3031 -0.7314
 8271SOL    HW236447   3.545   4.706   3.551 -0.7713  0.8147 -0.4378
 8272SOL     OW36448   3.485   3.444  17.611 -0.2136  0.0352 -0.1971
 8272SOL    HW136449   3.392   3.436  17.631  0.2947  0.2921  2.2222
 8272SOL    HW236450   3.527   3.470  17.693  0.3469 -0.4407 -0.3282
 8273SOL     OW36451   0.583   3.187   2.797 -0.5188 -0.1478 -0.2720
 8273SOL    HW136452   0.504   3.212   2.846 -0.4026  0.5330 -0.4341
 8273SOL    HW236453   0.644   3.183   2.870  0.1042 -1.3161 -0.8572
 8274SOL     OW36454   2.171   2.465   2.199  1.0755 -0.1695  0.1082
 8274SOL    HW136455   2.196   2.449   2.108 -0.6250  1.4765 -0.6553
 8274SOL    HW236456   2.195   2.557   2.187 -3.2392  0.9155 -0.0750
 8275SOL     OW36457   3.397   1.915   5.880 -0.8156 -0.2015 -0.5531
 8275SOL    HW136458   3.340   1.991   5.895  1.1131  1.9455 -3.8702
 8275SOL    HW236459   3.397   1.925   5.785 -1.9378  0.2262 -0.5059
 8276SOL     OW36460   3.889   2.796   7.774  0.8852 -0.3832 -0.0697
 8276SOL    HW136461   3.914   2.706   7.756  0.1838 -0.1698 -2.2094
 8276SOL    HW236462   3.868   2.827   7.685  0.9996  1.6583  0.6088
 8277SOL     OW36463   2.350   4.553   2.525 -0.2656  0.3729 -0.2913
 8277SOL    HW136464   2.425   4.593   2.480  0.9931 -0.1659  1.3258
 8277SOL    HW236465   2.344   4.461   2.499  2.7027  0.9498 -2.9608
 8278SOL     OW36466   4.332   3.247   3.771 -0.1589 -0.1109 -0.1369
 8278SOL    HW136467   4.297   3.188   3.704  0.5699 -1.0031  0.2672
 8278SOL    HW236468   4.308   3.198   3.850 -0.7627  0.5743  0.1073
 8279SOL     OW36469   4.348   1.783   5.677  0.4471  0.0538  0.2706
 8279SOL    HW136470   4.259   1.816   5.687 -0.1683 -1.3597 -0.4587
 8279SOL    HW236471   4.333   1.696   5.639  0.0290  1.2376 -2.2772
 8280SOL     OW36472   2.558   3.421  10.349  0.7226 -0.2876 -0.3035
 8280SOL    HW136473   2.522   3.442  10.435  0.8987  0.0733 -0.3194
 8280SOL    HW236474   2.552   3.509  10.312  0.3409 -0.2126 -0.0579
 8281SOL     OW36475   1.104   0.467   9.836  0.3205  0.0874 -0.7185
 8281SOL    HW136476   1.051   0.404   9.885  2.0427 -0.7124  0.1573
 8281SOL    HW236477   1.188   0.424   9.819  0.3541 -0.5581  1.0665
 8282SOL     OW36478   1.993   2.730   1.753  0.2896 -0.1292  0.3125
 8282SOL    HW136479   1.907   2.772   1.753  1.0330  1.3922 -1.4044
 8282SOL    HW236480   1.991   2.683   1.836  1.2445  2.5860  1.8738
 8283SOL     OW36481   4.382   2.912   7.569 -0.3139 -0.2248 -0.4557
 8283SOL    HW136482   4.455   2.929   7.510 -0.9363 -0.4060 -1.2723
 8283SOL    HW236483   4.316   2.901   7.501 -1.5329  0.0635  0.6841
 8284SOL     OW36484   4.434   1.745   2.120  0.1033 -0.2721 -0.7202
 8284SOL    HW136485   4.363   1.683   2.105 -0.1237 -0.4928  1.2581
 8284SOL    HW236486   4.506   1.708   2.069  1.5360 -0.5176  1.4482
 8285SOL     OW36487   4.662   3.965   2.423 -0.0303 -0.0525 -0.1222
 8285SOL    HW136488   4.731   3.955   2.357  0.2643  1.6899 -0.0822
 8285SOL    HW236489   4.672   4.058   2.447  1.2923  0.3689 -2.2479
 8286SOL     OW36490   3.756   3.390  13.221  0.3871  0.0893  0.6883
 8286SOL    HW136491   3.712   3.408  13.137 -1.3898 -0.7095  1.4522
 8286SOL    HW236492   3.774   3.476  13.260  1.3244 -0.9659  2.5568
 8287SOL     OW36493   4.206   2.568   7.434 -0.5804 -0.5771 -0.0811
 8287SOL    HW136494   4.131   2.511   7.453 -1.8375  1.0905 -0.0789
 8287SOL    HW236495   4.274   2.511   7.470  0.1829  2.0374  2.6211
 8288SOL     OW36496   2.426   1.575   2.448  0.1147 -0.6856  0.1352
 8288SOL    HW136497   2.481   1.499   2.428  0.6100 -0.5483  0.9837
 8288SOL    HW236498   2.493   1.643   2.453 -0.6951  0.1172 -0.0050
 8289SOL     OW36499   3.732   1.323  14.799 -0.5788 -0.0692  0.0959
 8289SOL    HW136500   3.723   1.406  14.752  0.3410 -0.2123 -0.3259
 8289SOL    HW236501   3.783   1.355  14.873 -1.6654 -1.2258  1.3461
 8290SOL     OW36502   2.105   3.452  12.137 -0.2995 -0.5155 -0.0894
 8290SOL    HW136503   2.153   3.533  12.155 -3.3473  1.3047 -0.2564
 8290SOL    HW236504   2.054   3.476  12.060  0.5266 -3.5125 -1.5916
 8291SOL     OW36505   2.763   0.188   8.816 -0.6114  0.1718 -0.4919
 8291SOL    HW136506   2.689   0.179   8.876 -0.7658  4.2148 -0.0467
 8291SOL    HW236507   2.810   0.261   8.856 -1.6424  1.1964 -1.1480
 8292SOL     OW36508   0.988   4.328   9.623 -0.3518 -0.2326 -0.6995
 8292SOL    HW136509   0.894   4.309   9.618 -0.6340  1.0257 -0.0917
 8292SOL    HW236510   1.006   4.354   9.713 -1.9661 -1.0252 -0.1549
 8293SOL     OW36511   2.526   3.741   7.081 -0.2104  0.4486  0.9703
 8293SOL    HW136512   2.473   3.696   7.015  1.7794  0.4930 -0.6337
 8293SOL    HW236513   2.575   3.666   7.114 -1.6387 -0.8441  0.1518
 8294SOL     OW36514   2.098   0.390   9.422  0.3945  0.1445  0.2313
 8294SOL    HW136515   2.069   0.477   9.448  0.5193  0.3491 -0.2974
 8294SOL    HW236516   2.144   0.412   9.340  1.1737  2.8388  1.4224
 8295SOL     OW36517   1.804   2.679   6.352 -0.2280  0.6625  0.2134
 8295SOL    HW136518   1.821   2.585   6.354  0.3959  0.7540 -1.0605
 8295SOL    HW236519   1.730   2.679   6.413 -0.1448  1.2522  0.3129
 8296SOL     OW36520   3.767   1.240   0.003  0.5813 -0.1099  0.4586
 8296SOL    HW136521   3.807   1.272   0.084  0.6878  2.9181 -0.8110
 8296SOL    HW236522   3.817   1.298  17.701  0.7222 -0.5258  0.1590
 8297SOL     OW36523   3.604   1.320   9.253  0.6954  0.2064 -0.2206
 8297SOL    HW136524   3.540   1.338   9.322  0.8029 -1.4852  0.3124
 8297SOL    HW236525   3.560   1.247   9.211  0.0341  0.3281  0.2614
 8298SOL     OW36526   3.167   2.899   3.650 -0.5919  0.3069 -0.4464
 8298SOL    HW136527   3.119   2.885   3.568 -0.5338 -1.7456 -0.1290
 8298SOL    HW236528   3.174   2.994   3.651  1.0101  0.1996 -2.4895
 8299SOL     OW36529   2.960   1.487  16.762  0.7775 -0.3348 -0.1102
 8299SOL    HW136530   2.998   1.448  16.840  0.6208 -1.0300 -0.3858
 8299SOL    HW236531   3.036   1.515  16.712  0.1989 -0.8453 -1.2784
 8300SOL     OW36532   0.742   3.558   6.448  0.1640  0.5980 -0.2231
 8300SOL    HW136533   0.827   3.558   6.405  0.9073 -0.0890  1.2725
 8300SOL    HW236534   0.684   3.505   6.393 -1.2941 -0.2318  2.1060
 8301SOL     OW36535   3.150   0.574   1.573  0.4753  0.2536 -0.3390
 8301SOL    HW136536   3.195   0.601   1.654  1.2770 -0.4360 -0.5571
 8301SOL    HW236537   3.195   0.642   1.522  1.6288  1.5116  2.3446
 8302SOL     OW36538   1.517   1.773   2.103 -0.2350  0.3646 -0.4680
 8302SOL    HW136539   1.586   1.710   2.081  1.1469  2.7228 -2.8700
 8302SOL    HW236540   1.469   1.735   2.176 -1.7221  0.3258 -1.4734
 8303SOL     OW36541   3.738   3.610   2.553 -0.3806 -0.0401  0.1516
 8303SOL    HW136542   3.814   3.563   2.585  0.5320  0.1453 -1.7658
 8303SOL    HW236543   3.657   3.558   2.556  0.8972 -2.0942 -1.1102
 8304SOL     OW36544   3.192   0.973   2.279 -0.3593  0.2651  0.3649
 8304SOL    HW136545   3.127   0.998   2.344 -0.2388  1.0785  0.1699
 8304SOL    HW236546   3.261   0.936   2.334 -1.1914 -0.5511  0.8569
 8305SOL     OW36547   0.824   1.861   7.040  0.1384 -0.4047 -0.0897
 8305SOL    HW136548   0.844   1.805   7.114  0.8600  0.0865  0.0872
 8305SOL    HW236549   0.871   1.939   7.068  1.0446 -1.3295  0.9541
 8306SOL     OW36550   3.694   1.564   0.449 -0.4810 -0.0392 -0.3073
 8306SOL    HW136551   3.687   1.488   0.390 -1.4261  1.1888 -1.7715
 8306SOL    HW236552   3.784   1.556   0.481 -0.9102  0.6029  1.0544
 8307SOL     OW36553   2.724   2.294   2.202  0.4158  0.0172  0.5915
 8307SOL    HW136554   2.819   2.296   2.207  0.3917  0.0780  1.0007
 8307SOL    HW236555   2.700   2.238   2.127 -2.1120  1.1225  0.5874
 8308SOL     OW36556   4.148   3.578  10.422  0.1939 -0.4702  0.4818
 8308SOL    HW136557   4.181   3.557  10.510  1.4321 -3.1928 -0.6265
 8308SOL    HW236558   4.075   3.517  10.415 -1.1205  0.8823  2.1276
 8309SOL     OW36559   1.559   0.584   8.051 -0.0359  0.3227  0.3708
 8309SOL    HW136560   1.633   0.551   8.000  0.0259 -1.3219  1.5484
 8309SOL    HW236561   1.552   0.518   8.119  0.7783  1.1631  1.2724
 8310SOL     OW36562   4.234   3.632   4.662  0.4698  0.7480 -0.6838
 8310SOL    HW136563   4.270   3.556   4.707 -2.3577  0.4965  1.1339
 8310SOL    HW236564   4.268   3.630   4.572 -2.2520  0.7172 -1.7015
 8311SOL     OW36565   3.757   3.723   4.301 -0.0610 -0.0637 -0.8666
 8311SOL    HW136566   3.701   3.768   4.238  0.6270  2.6624  0.4406
 8311SOL    HW236567   3.825   3.790   4.312 -0.1986 -0.0797  0.1262
 8312SOL     OW36568   1.990   0.720   8.693 -0.3213  0.2164  0.1262
 8312SOL    HW136569   2.010   0.672   8.773 -0.7040 -1.1483 -0.5822
 8312SOL    HW236570   2.008   0.813   8.701 -1.2444  0.3921  0.2124
 8313SOL     OW36571   0.487   0.395  17.228  0.1458 -0.0832 -0.5597
 8313SOL    HW136572   0.417   0.343  17.189 -1.2646  0.9983  0.5097
 8313SOL    HW236573   0.427   0.447  17.282  1.4622 -1.8445  2.5851
 8314SOL     OW36574   3.487   1.325   1.275  0.0966  0.4201  0.6346
 8314SOL    HW136575   3.479   1.283   1.361  0.2714 -0.2902  0.3074
 8314SOL    HW236576   3.556   1.384   1.304  1.0619 -0.1519 -0.4951
 8315SOL     OW36577   0.516   0.053   2.228 -0.3161  0.3391 -0.3565
 8315SOL    HW136578   0.431   0.010   2.238  0.5521 -1.6586 -1.5642
 8315SOL    HW236579   0.569   0.015   2.299  2.2752 -0.0007 -2.4853
 8316SOL     OW36580   3.989   3.892   4.604 -0.4740 -0.1448  0.3382
 8316SOL    HW136581   4.069   3.911   4.653  1.0550  0.4418 -2.3860
 8316SOL    HW236582   3.976   3.800   4.629 -2.2637 -0.4333 -1.7131
 8317SOL     OW36583   1.992   0.266   0.531 -0.1572 -0.1952 -0.0745
 8317SOL    HW136584   1.964   0.354   0.505 -0.4152 -0.5484 -0.9793
 8317SOL    HW236585   2.082   0.261   0.497 -0.1252  0.0680 -0.0325
 8318SOL     OW36586   3.922   2.612   3.465 -0.1416 -0.0208  0.0474
 8318SOL    HW136587   3.828   2.598   3.450  0.0596 -2.9237  1.3828
 8318SOL    HW236588   3.909   2.652   3.551  0.6336 -1.2308  0.7383
 8319SOL     OW36589   3.772   2.853  15.403  0.3165  0.3259  0.3674
 8319SOL    HW136590   3.713   2.925  15.427  1.2531  0.9347  0.8523
 8319SOL    HW236591   3.704   2.786  15.413 -2.3596  3.0126  0.4034
 8320SOL     OW36592   3.069   0.944  13.793  0.3558 -0.5624  0.2782
 8320SOL    HW136593   3.055   0.952  13.698  0.8013  0.7932  0.3379
 8320SOL    HW236594   3.065   1.035  13.822  0.3674 -0.2790 -0.5975
 8321SOL     OW36595   1.239   2.933   4.920  0.0347  0.3380  0.5339
 8321SOL    HW136596   1.273   2.917   5.008 -1.4715  3.5961  1.6900
 8321SOL    HW236597   1.312   2.906   4.865  1.1139  1.6246  1.3384
 8322SOL     OW36598   3.717   1.657   4.160  0.0638 -0.1138  0.2052
 8322SOL    HW136599   3.652   1.618   4.101 -0.4872 -1.0287  1.4028
 8322SOL    HW236600   3.774   1.690   4.090 -1.1507 -0.8872 -1.1603
 8323SOL     OW36601   2.186   1.529  15.308  0.3621  0.4659  0.1321
 8323SOL    HW136602   2.096   1.552  15.331  0.9155  0.5258  2.2711
 8323SOL    HW236603   2.225   1.518  15.394  0.5975 -0.5757 -0.1079
 8324SOL     OW36604   0.568   2.931   5.351 -0.2957 -0.0999  0.1124
 8324SOL    HW136605   0.475   2.941   5.373  0.2287  1.2829  1.6505
 8324SOL    HW236606   0.589   2.853   5.402  1.7291  0.2791 -0.1357
 8325SOL     OW36607   1.367   2.892   0.435  0.4830 -0.4786 -0.2190
 8325SOL    HW136608   1.434   2.934   0.490  0.2661 -1.1835  0.5845
 8325SOL    HW236609   1.379   2.799   0.453  0.0639 -0.7571 -1.3650
 8326SOL     OW36610   4.113   3.534   9.491  0.3364 -0.3624 -0.0442
 8326SOL    HW136611   4.116   3.578   9.406 -1.2851 -0.7823 -0.3224
 8326SOL    HW236612   4.131   3.613   9.542 -3.1562 -0.1410  0.8606
 8327SOL     OW36613   3.520   3.967   7.191 -0.8440 -0.6628 -0.3690
 8327SOL    HW136614   3.424   3.966   7.199 -0.9666 -0.3843 -1.7107
 8327SOL    HW236615   3.538   3.891   7.135  2.5072 -0.4274  0.4070
 8328SOL     OW36616   3.936   1.636   5.426 -0.3385  0.0778 -0.3806
 8328SOL    HW136617   4.027   1.650   5.400 -0.8388  0.3625 -1.9774
 8328SOL    HW236618   3.925   1.706   5.491  1.7177  2.3872 -2.5529
 8329SOL     OW36619   3.837   2.653  14.131 -0.4040 -0.4457  0.1788
 8329SOL    HW136620   3.905   2.615  14.076  0.4496  1.3036  0.0615
 8329SOL    HW236621   3.880   2.675  14.213  0.9689  0.2657 -0.7443
 8330SOL     OW36622   3.945   2.574   9.425 -0.1805 -0.1394 -0.0152
 8330SOL    HW136623   3.915   2.502   9.481  2.3358 -1.8639 -0.8865
 8330SOL    HW236624   4.037   2.554   9.408  0.3562 -0.3626  3.2701
 8331SOL     OW36625   0.295   2.461   9.119 -0.0096 -0.0532 -0.0003
 8331SOL    HW136626   0.339   2.412   9.187 -0.7069 -2.9630 -1.6345
 8331SOL    HW236627   0.263   2.390   9.064 -1.3713  0.2141  0.4245
 8332SOL     OW36628   4.739   2.732  10.526 -0.0932 -0.1313  0.5389
 8332SOL    HW136629   0.047   2.726  10.609 -0.8073 -0.4467  0.9233
 8332SOL    HW236630   0.003   2.827  10.516  2.1347 -0.2806  0.0265
 8333SOL     OW36631   2.920   0.765  12.634 -0.0072 -0.1566 -0.2767
 8333SOL    HW136632   2.935   0.860  12.639 -0.8162  0.0031 -1.0603
 8333SOL    HW236633   2.999   0.733  12.679  1.1030  1.3824 -1.1395
 8334SOL     OW36634   3.089   1.589  14.282 -0.3429 -0.0492  0.4714
 8334SOL    HW136635   3.076   1.502  14.320  0.0110 -0.6478 -0.8085
 8334SOL    HW236636   3.069   1.577  14.190 -1.9678 -2.6384  1.1673
 8335SOL     OW36637   0.343   3.721   3.264  0.5768 -0.2289  0.7320
 8335SOL    HW136638   0.353   3.803   3.215  0.6918  0.4482  1.8822
 8335SOL    HW236639   0.317   3.660   3.195 -2.0072  0.9163  0.7197
 8336SOL     OW36640   4.025   2.678   9.727  0.2464  0.1595 -0.2039
 8336SOL    HW136641   4.017   2.768   9.698 -3.6460  0.4455  1.8149
 8336SOL    HW236642   3.960   2.640   9.668  1.4704 -1.3648 -0.5691
 8337SOL     OW36643   3.630   2.576   1.224 -0.2076  0.0020 -0.2683
 8337SOL    HW136644   3.702   2.515   1.207  0.1585  0.3092  0.2094
 8337SOL    HW236645   3.639   2.639   1.153 -0.5124  1.5074  1.0452
 8338SOL     OW36646   0.202   1.135  11.750 -0.3941  0.0274  0.0398
 8338SOL    HW136647   0.198   1.071  11.679 -1.2700  1.3255 -1.0927
 8338SOL    HW236648   0.111   1.163  11.739 -0.7782 -0.9673  0.7313
 8339SOL     OW36649   3.007   4.474   5.668 -0.1905  0.4359  0.9855
 8339SOL    HW136650   2.969   4.503   5.751 -0.0547  1.1881  0.7843
 8339SOL    HW236651   3.044   4.388   5.687  0.4294 -0.0295 -2.3915
 8340SOL     OW36652   3.641   1.507   5.356 -0.0182  0.2141  0.0447
 8340SOL    HW136653   3.600   1.423   5.374  2.0145  0.0361  3.7962
 8340SOL    HW236654   3.694   1.509   5.436 -1.2489  1.8695  0.7975
 8341SOL     OW36655   4.221   1.891  11.207  0.0269 -0.1889  0.0029
 8341SOL    HW136656   4.143   1.925  11.251  0.8057  1.5988  0.0064
 8341SOL    HW236657   4.183   1.805  11.191  0.9050 -0.6979  0.6770
 8342SOL     OW36658   0.984   1.982   9.559  0.0220  0.0531 -0.2012
 8342SOL    HW136659   0.921   1.934   9.612  0.5050 -1.5455 -1.1002
 8342SOL    HW236660   1.050   1.917   9.536 -1.8331 -1.8764 -0.0346
 8343SOL     OW36661   1.982   2.016   1.598 -0.1953  0.0588  0.0303
 8343SOL    HW136662   1.954   2.104   1.571  0.3752 -0.0508 -0.9403
 8343SOL    HW236663   1.934   1.951   1.547 -1.0790 -0.4903  1.5701
 8344SOL     OW36664   0.059   1.242   9.298  0.1250 -0.1126  0.9395
 8344SOL    HW136665   0.135   1.287   9.261 -0.5964  1.0023  0.8258
 8344SOL    HW236666   0.062   1.151   9.269  0.4718  0.6040 -1.2560
 8345SOL     OW36667   2.058   1.382  13.304  0.1177  0.6410  0.1384
 8345SOL    HW136668   2.115   1.308  13.323 -1.8681  0.1128  4.0406
 8345SOL    HW236669   2.065   1.435  13.383 -0.8415  3.5720 -1.7282
 8346SOL     OW36670   2.890   0.690   2.342  0.2817  0.0365  0.3670
 8346SOL    HW136671   2.816   0.750   2.344 -0.7285 -1.1969  0.1231
 8346SOL    HW236672   2.900   0.680   2.437  0.9597 -1.4306  0.1454
 8347SOL     OW36673   4.461   1.356   0.469  0.1436 -0.3788  0.1572
 8347SOL    HW136674   4.529   1.406   0.513  0.0565  0.6048 -0.8446
 8347SOL    HW236675   4.419   1.424   0.417  2.3581 -0.3752 -1.6393
 8348SOL     OW36676   2.319   4.393  12.016  0.5222  0.3946  0.4077
 8348SOL    HW136677   2.236   4.370  11.975 -0.4965  1.3427  1.9567
 8348SOL    HW236678   2.370   4.312  12.006 -1.3652 -0.5031 -1.9992
 8349SOL     OW36679   3.161   0.834   7.919  0.1991 -0.3114 -0.7100
 8349SOL    HW136680   3.114   0.839   7.836  0.2001  0.2836 -0.6779
 8349SOL    HW236681   3.138   0.748   7.953  1.4756 -0.5572 -0.4586
 8350SOL     OW36682   1.940   0.899  17.539  0.1802  0.0685 -0.0660
 8350SOL    HW136683   1.860   0.851  17.561  0.0698 -0.6956 -2.1278
 8350SOL    HW236684   1.942   0.970  17.603 -1.6999  0.5310 -0.4861
 8351SOL     OW36685   3.402   3.304   5.323  0.3614 -0.1956 -0.0480
 8351SOL    HW136686   3.334   3.260   5.271  0.7883 -1.2404  0.2688
 8351SOL    HW236687   3.348   3.378   5.349  0.7883 -0.3671  1.3467
 8352SOL     OW36688   3.655   3.507   5.416  0.4222  0.5774  0.4071
 8352SOL    HW136689   3.726   3.485   5.477 -0.6654 -2.7623  0.4375
 8352SOL    HW236690   3.690   3.484   5.330 -1.6104  2.1600 -0.8238
 8353SOL     OW36691   0.011   3.049  10.536 -0.3991  0.2950 -0.8117
 8353SOL    HW136692   0.020   3.126  10.593  2.8219  0.2340 -1.2352
 8353SOL    HW236693   4.655   3.051  10.526 -0.5462  3.7794  1.2338
 8354SOL     OW36694   4.042   3.582   2.867  0.4487 -0.0731  0.0894
 8354SOL    HW136695   4.125   3.619   2.898  0.2277 -0.5390  1.2147
 8354SOL    HW236696   3.994   3.596   2.949  1.4706  0.8851  0.5270
 8355SOL     OW36697   3.751   3.233   2.487  0.9510  0.1230  0.2949
 8355SOL    HW136698   3.758   3.235   2.582  0.3678  2.7631  0.2826
 8355SOL    HW236699   3.822   3.171   2.471  0.5893  0.1067 -1.3162
 8356SOL     OW36700   2.963   0.512   8.742 -0.4826 -0.3560  0.3792
 8356SOL    HW136701   2.869   0.508   8.722 -0.6994 -1.5532  1.5841
 8356SOL    HW236702   2.986   0.589   8.691 -1.7473  0.6286  1.2960
 8357SOL     OW36703   4.056   3.696   3.357  0.3287 -0.2043 -0.4904
 8357SOL    HW136704   4.002   3.756   3.408 -0.7448 -0.7519 -0.9751
 8357SOL    HW236705   4.107   3.655   3.427  1.8530 -0.1801 -1.5842
 8358SOL     OW36706   2.271   3.912   1.806 -0.7643 -0.1570 -0.7144
 8358SOL    HW136707   2.226   3.995   1.818 -1.6646 -0.7385 -0.0653
 8358SOL    HW236708   2.206   3.845   1.824  2.1471 -2.4900  1.2577
 8359SOL     OW36709   0.161   3.691   4.159  0.2953  0.2189 -0.1827
 8359SOL    HW136710   0.197   3.617   4.209  0.0193 -0.1251 -0.4884
 8359SOL    HW236711   0.229   3.707   4.094  1.8063  1.5551  1.7498
 8360SOL     OW36712   2.137   1.544   4.642 -0.3147 -0.5023 -0.0850
 8360SOL    HW136713   2.181   1.602   4.704 -2.3789  1.3316 -0.3427
 8360SOL    HW236714   2.156   1.460   4.684 -2.4212 -1.0069 -0.1824
 8361SOL     OW36715   2.827   2.398   9.065 -0.1552 -0.2976  0.7030
 8361SOL    HW136716   2.896   2.382   9.130  1.1003 -1.9067 -1.0396
 8361SOL    HW236717   2.766   2.326   9.080 -0.2757 -0.9430 -2.9200
 8362SOL     OW36718   2.225   0.832  17.056 -0.4326 -0.2246  0.5032
 8362SOL    HW136719   2.300   0.813  17.000 -1.3819  0.1713 -0.9219
 8362SOL    HW236720   2.170   0.753  17.051  0.9560 -1.0723 -1.3204
 8363SOL     OW36721   0.732   2.947   3.496 -0.5363 -0.2309 -0.3262
 8363SOL    HW136722   0.652   2.971   3.545  0.5635 -0.9658  1.8297
 8363SOL    HW236723   0.759   2.871   3.547  1.2186 -0.3414 -1.4456
 8364SOL     OW36724   3.666   1.830  10.583  0.4187 -0.0806 -0.0708
 8364SOL    HW136725   3.579   1.841  10.622  0.5580  1.0500 -0.0993
 8364SOL    HW236726   3.642   1.817  10.491  1.1961  0.8011 -0.3950
 8365SOL     OW36727   2.249   0.242   3.737 -0.4128  0.4342 -0.1521
 8365SOL    HW136728   2.167   0.194   3.753  1.8711 -3.2263  0.6930
 8365SOL    HW236729   2.307   0.181   3.691  0.2221  0.0662  1.1270
 8366SOL     OW36730   0.119   0.052  17.227 -0.0142 -0.1450  0.2883
 8366SOL    HW136731   0.128   0.146  17.242  0.3059 -0.0530 -0.4712
 8366SOL    HW236732   0.130   0.057  17.132  1.6328 -1.1997  0.4287
 8367SOL     OW36733   4.136   1.466   3.115 -0.2075  0.0931 -0.1275
 8367SOL    HW136734   4.077   1.461   3.191  0.8016 -1.8971  0.5323
 8367SOL    HW236735   4.074   1.433   3.050  0.2213 -0.1500 -0.4128
 8368SOL     OW36736   3.863   0.491  13.048 -0.0436 -0.1260 -0.7844
 8368SOL    HW136737   3.800   0.529  13.109 -0.6923 -1.0126 -0.9122
 8368SOL    HW236738   3.939   0.469  13.102  0.2296  4.9211  0.9029
 8369SOL     OW36739   1.224   3.519  17.746  0.4650  0.7366  0.1328
 8369SOL    HW136740   1.185   3.469  17.674 -0.0616  0.2863  0.7430
 8369SOL    HW236741   1.158   3.502   0.058  0.1923 -0.2351 -0.3847
 8370SOL     OW36742   2.646   2.263  12.733  0.0502  0.5810 -0.1668
 8370SOL    HW136743   2.622   2.177  12.768  0.1951  0.6718  0.1532
 8370SOL    HW236744   2.634   2.258  12.638  1.3160 -1.1525 -0.2404
 8371SOL     OW36745   3.444   2.329   3.705 -0.1822  0.3482  0.3741
 8371SOL    HW136746   3.529   2.315   3.662 -1.6388 -0.1600 -2.3780
 8371SOL    HW236747   3.414   2.239   3.697  0.0480  0.5709 -3.0703
 8372SOL     OW36748   2.759   0.108   0.784 -0.7549  0.2333 -0.0589
 8372SOL    HW136749   2.678   0.060   0.769  0.1958 -1.7303  1.1315
 8372SOL    HW236750   2.745   0.104   0.879  0.6162 -2.0122  0.0499
 8373SOL     OW36751   2.814   4.323   2.303 -0.5098 -0.0394 -0.6919
 8373SOL    HW136752   2.731   4.372   2.304 -1.2749 -1.3019 -1.8029
 8373SOL    HW236753   2.811   4.278   2.219 -0.1784  1.4149 -1.4841
 8374SOL     OW36754   1.032   2.236   0.186 -0.1966 -0.4023  0.6134
 8374SOL    HW136755   1.113   2.246   0.237  0.3910  2.5968 -0.9103
 8374SOL    HW236756   1.007   2.326   0.168 -1.3344 -0.8772 -0.1832
 8375SOL     OW36757   0.090   2.790   4.196 -0.1365  0.4749 -0.3890
 8375SOL    HW136758   0.048   2.766   4.279  2.8317  2.5648  1.7404
 8375SOL    HW236759   0.040   2.739   4.133  0.2591 -0.7768  0.3071
 8376SOL     OW36760   1.656   3.593   3.151 -0.4123 -0.4580  0.0814
 8376SOL    HW136761   1.737   3.549   3.124 -1.0252 -0.6213 -1.5260
 8376SOL    HW236762   1.608   3.579   3.069 -3.0528  0.7963  1.4022
 8377SOL     OW36763   4.025   2.041   9.906 -0.2363  0.2201  0.5017
 8377SOL    HW136764   4.013   2.127   9.948  1.1508  2.2552 -3.2440
 8377SOL    HW236765   4.102   2.061   9.852 -0.5790  4.1294  1.4554
 8378SOL     OW36766   4.669   3.486   1.348 -0.2665 -0.1616 -0.6041
 8378SOL    HW136767   4.701   3.401   1.379  0.0597  0.0108 -0.4671
 8378SOL    HW236768   4.617   3.455   1.274  0.6915 -1.8755 -0.5728
 8379SOL     OW36769   1.455   2.737  16.825 -0.1374 -0.1624  0.1387
 8379SOL    HW136770   1.417   2.810  16.776  0.9030  0.4484  0.2550
 8379SOL    HW236771   1.388   2.677  16.858 -1.0387  0.9869  0.4021
 8380SOL     OW36772   3.572   2.018  11.305  0.1363  0.2215 -0.3445
 8380SOL    HW136773   3.623   2.099  11.307 -0.9014  0.8383  1.0222
 8380SOL    HW236774   3.605   1.977  11.385  0.9203  4.9814  1.8096
 8381SOL     OW36775   1.244   0.540   1.234  0.2449 -0.0423  0.2439
 8381SOL    HW136776   1.195   0.552   1.315 -0.0390  0.9724 -0.0853
 8381SOL    HW236777   1.278   0.626   1.211  0.4721 -0.3050 -0.4068
 8382SOL     OW36778   1.440   3.452   6.787 -0.0008 -0.1057  0.3208
 8382SOL    HW136779   1.364   3.476   6.840  0.3385  0.1736  0.6806
 8382SOL    HW236780   1.514   3.483   6.839 -0.1763 -0.4348  0.7728
 8383SOL     OW36781   1.480   0.113  17.004 -0.3959 -0.4939  0.3830
 8383SOL    HW136782   1.502   0.207  16.999 -0.7057 -0.5256 -1.4480
 8383SOL    HW236783   1.544   0.067  17.059  1.6757  0.8953 -0.8660
 8384SOL     OW36784   2.720   0.560   6.241 -0.2436 -0.2840 -0.2666
 8384SOL    HW136785   2.646   0.556   6.301  0.5424  0.6388  0.7606
 8384SOL    HW236786   2.742   0.653   6.254  1.2815 -0.3442 -2.3931
 8385SOL     OW36787   0.392   4.729   3.291 -0.3769 -0.4097  0.2078
 8385SOL    HW136788   0.372   4.677   3.213  2.9211 -0.0031 -0.9074
 8385SOL    HW236789   0.413   0.075   3.251  0.0124  0.4435  2.2627
 8386SOL     OW36790   2.966   3.883   7.248  0.0459  0.2162 -0.4201
 8386SOL    HW136791   2.892   3.934   7.280  0.3456  1.7674 -2.1972
 8386SOL    HW236792   2.962   3.907   7.155  0.5145 -0.1887 -0.5448
 8387SOL     OW36793   2.359   4.714   9.668 -0.2781 -0.2516  0.6257
 8387SOL    HW136794   2.346   4.630   9.711 -0.9370 -0.3810  0.1750
 8387SOL    HW236795   2.449   4.732   9.695  0.2860 -0.2630 -1.2030
 8388SOL     OW36796   1.026   1.553   4.720  0.6408  0.1023  0.1019
 8388SOL    HW136797   0.999   1.634   4.678  1.4724  0.3794  0.1124
 8388SOL    HW236798   0.980   1.484   4.672  0.0606 -0.1318  0.9916
 8389SOL     OW36799   2.652   0.373   5.436  0.2503  0.6158 -0.0801
 8389SOL    HW136800   2.634   0.447   5.494  0.0515  1.0997 -0.7628
 8389SOL    HW236801   2.566   0.330   5.429  1.3686 -1.9845  2.0208
 8390SOL     OW36802   3.019   4.494   9.541 -0.2854 -0.2286  0.2794
 8390SOL    HW136803   2.937   4.541   9.526 -1.4556 -1.3073  3.4720
 8390SOL    HW236804   3.084   4.540   9.487 -0.2386 -1.8590 -1.0711
 8391SOL     OW36805   0.409   1.281  14.975  0.0065  0.1544  0.3634
 8391SOL    HW136806   0.328   1.272  15.026  0.2579  0.8073  0.8725
 8391SOL    HW236807   0.462   1.343  15.025  1.2481 -1.6783  1.3200
 8392SOL     OW36808   0.875   1.680   6.535  0.6369  0.0213  0.7726
 8392SOL    HW136809   0.880   1.740   6.609 -1.9470 -1.2121  1.9652
 8392SOL    HW236810   0.790   1.706   6.499  0.7699  1.6445  1.6686
 8393SOL     OW36811   1.370   0.192   4.354  0.0804  0.5974  0.4106
 8393SOL    HW136812   1.334   0.202   4.266  1.9380 -1.6852 -0.5932
 8393SOL    HW236813   1.412   0.277   4.366  0.1569  0.3822  1.6469
 8394SOL     OW36814   3.702   2.901   1.688  0.7868  0.4567 -0.5943
 8394SOL    HW136815   3.659   2.822   1.721 -0.9308  0.5281 -2.6747
 8394SOL    HW236816   3.732   2.879   1.600 -0.9059  0.0561 -1.0662
 8395SOL     OW36817   2.856   0.176   7.273 -0.0316 -0.0831  0.1681
 8395SOL    HW136818   2.810   0.247   7.228 -0.7197 -0.5293  0.1671
 8395SOL    HW236819   2.785   0.161   7.336  1.2856  0.6071  1.8101
 8396SOL     OW36820   0.022   4.343  15.014  0.0996  0.3100 -0.3450
 8396SOL    HW136821   0.060   4.357  14.927  0.0984 -0.9634 -0.5529
 8396SOL    HW236822   0.023   4.247  15.025  2.5882  0.1487 -2.0735
 8397SOL     OW36823   1.616   2.611   8.446 -0.2543 -0.3929 -0.1766
 8397SOL    HW136824   1.556   2.659   8.390 -0.3823 -0.7447 -0.3392
 8397SOL    HW236825   1.564   2.604   8.526  1.2053  0.0496  0.8291
 8398SOL     OW36826   2.111   2.171   3.153 -0.2214 -0.4648  0.6011
 8398SOL    HW136827   2.068   2.087   3.169 -0.2757 -0.1900  1.9189
 8398SOL    HW236828   2.043   2.210   3.098 -0.7863 -2.1307  0.1164
 8399SOL     OW36829   4.193   1.960  16.419  0.2244  0.4038  0.2013
 8399SOL    HW136830   4.119   2.011  16.452 -0.5065 -0.0217 -0.7804
 8399SOL    HW236831   4.159   1.940  16.331 -0.6822  2.0930  0.1641
 8400SOL     OW36832   3.773   3.514   4.871  0.1675  0.0981  0.2491
 8400SOL    HW136833   3.742   3.433   4.831  0.2728 -0.3977  1.1616
 8400SOL    HW236834   3.853   3.522   4.820  0.2409 -0.8754  0.2030
 8401SOL     OW36835   2.754   2.348   8.424 -0.1928  0.2740 -0.6880
 8401SOL    HW136836   2.847   2.360   8.405 -0.9871  2.9152 -3.0050
 8401SOL    HW236837   2.748   2.256   8.449 -0.1681  0.0877 -1.3595
 8402SOL     OW36838   1.726   2.513   0.583  0.8273 -0.0780 -0.4222
 8402SOL    HW136839   1.777   2.443   0.543  2.8395  1.6978 -1.0008
 8402SOL    HW236840   1.783   2.584   0.553 -0.2269  1.1046  0.3477
 8403SOL     OW36841   4.017   3.198   7.247 -1.0373  0.2441 -0.5266
 8403SOL    HW136842   4.025   3.292   7.266 -2.6407  0.4942 -1.0864
 8403SOL    HW236843   4.098   3.162   7.284 -1.4431 -1.9174 -1.7466
 8404SOL     OW36844   2.338   2.841   1.441 -0.0168  0.6728  0.2997
 8404SOL    HW136845   2.311   2.931   1.461  0.8035  1.5019 -2.3274
 8404SOL    HW236846   2.301   2.824   1.354 -1.5756 -0.4586  1.1801
 8405SOL     OW36847   4.587   3.826  15.742  0.6600 -0.0249 -0.3499
 8405SOL    HW136848   4.588   3.861  15.831  1.1124  0.3439 -0.5002
 8405SOL    HW236849   4.503   3.846  15.703  2.1102  2.3114 -2.2551
 8406SOL     OW36850   2.736   1.429   2.626 -1.0985  0.7776 -0.0403
 8406SOL    HW136851   2.683   1.478   2.563  2.0845  2.1809 -1.6313
 8406SOL    HW236852   2.742   1.503   2.687 -1.8384  0.3899  0.4991
 8407SOL     OW36853   2.404   2.467   4.793  0.4819 -0.1251  0.6188
 8407SOL    HW136854   2.498   2.461   4.811  0.3284  1.4369  1.9558
 8407SOL    HW236855   2.378   2.384   4.753 -1.2664  1.5807 -1.7987
 8408SOL     OW36856   3.083   0.696  13.875 -0.0862 -0.3839  0.2722
 8408SOL    HW136857   3.172   0.690  13.840  0.4796 -0.1177  1.6713
 8408SOL    HW236858   3.073   0.788  13.852  0.6539 -0.8594 -1.9666
 8409SOL     OW36859   1.352   1.680   2.574 -0.1333  0.3210  0.2463
 8409SOL    HW136860   1.267   1.664   2.616  0.6071  1.0571  1.9763
 8409SOL    HW236861   1.375   1.768   2.601  2.8982  0.0035 -1.3464
 8410SOL     OW36862   0.548   4.077   2.923 -0.1795  0.5624 -0.1841
 8410SOL    HW136863   0.636   4.041   2.911 -0.0727 -0.2023  2.8006
 8410SOL    HW236864   0.531   4.113   2.837 -0.4908  3.1309  0.9600
 8411SOL     OW36865   3.915   3.112   2.169  0.2900 -0.2532  0.9128
 8411SOL    HW136866   3.825   3.140   2.159  1.1094  1.9095 -0.3735
 8411SOL    HW236867   3.956   3.199   2.174  0.6509 -0.4650  1.7290
 8412SOL     OW36868   3.021   0.873   4.468  0.0971  0.4346 -0.1894
 8412SOL    HW136869   2.996   0.781   4.471 -0.3366  0.5113 -1.9289
 8412SOL    HW236870   2.932   0.906   4.468 -0.1773 -0.2989  0.4040
 8413SOL     OW36871   1.902   3.990   3.617 -0.0165 -0.5827  0.0618
 8413SOL    HW136872   1.936   3.908   3.653  0.3418 -1.1842 -1.6709
 8413SOL    HW236873   1.830   4.001   3.678  0.0882 -2.2548  0.4911
 8414SOL     OW36874   3.346   2.951   5.026 -0.8054 -0.1078  0.3959
 8414SOL    HW136875   3.328   2.961   5.119 -4.3670  0.4042 -0.3326
 8414SOL    HW236876   3.276   2.892   4.999  0.8524 -1.8435 -0.1689
 8415SOL     OW36877   2.678   4.194  15.177 -0.3404  0.7748 -0.2224
 8415SOL    HW136878   2.631   4.121  15.137 -0.5195  0.3853  0.7034
 8415SOL    HW236879   2.651   4.260  15.113 -0.7661  0.2904 -0.5417
 8416SOL     OW36880   1.642   0.083   9.345 -0.2390  0.3818  0.0103
 8416SOL    HW136881   1.694   0.159   9.318 -1.0348  0.6854 -0.6775
 8416SOL    HW236882   1.714   0.028   9.377  0.3124 -0.2851 -2.3466
 8417SOL     OW36883   2.000   0.331   5.328  0.2298  0.0843  0.0150
 8417SOL    HW136884   2.080   0.384   5.334  0.0295  0.2296  1.5066
 8417SOL    HW236885   1.948   0.354   5.251 -1.4144  1.2560  1.4657
 8418SOL     OW36886   3.228   0.383  15.590 -0.5581  0.3412  0.3078
 8418SOL    HW136887   3.294   0.368  15.658 -0.3210 -0.3353 -0.0698
 8418SOL    HW236888   3.152   0.344  15.633 -0.5043  1.4556  1.4302
 8419SOL     OW36889   1.095   3.349   5.828 -0.3669  0.3147  0.3505
 8419SOL    HW136890   1.176   3.322   5.872  0.1794  0.5799 -0.4882
 8419SOL    HW236891   1.126   3.367   5.739  0.4329 -1.5250  0.2529
 8420SOL     OW36892   0.394   4.100  13.365  0.1604 -0.1045  0.3638
 8420SOL    HW136893   0.355   4.016  13.390 -0.7410 -0.0166 -0.7658
 8420SOL    HW236894   0.354   4.167  13.421 -1.3854 -0.0844 -0.7772
 8421SOL     OW36895   1.899   2.167  16.840  0.0086  0.0942  0.3326
 8421SOL    HW136896   1.975   2.215  16.874 -0.7270  0.3096  1.6776
 8421SOL    HW236897   1.929   2.083  16.876  0.5235  1.0462  2.1369
 8422SOL     OW36898   1.601   2.929  17.720  0.2965  0.3926 -0.4400
 8422SOL    HW136899   1.686   2.937   0.011 -1.2498  0.3734  2.4501
 8422SOL    HW236900   1.626   2.903  17.631  1.5500 -3.2697  1.0046
 8423SOL     OW36901   3.043   1.771  17.750 -0.2822 -0.4811  0.3883
 8423SOL    HW136902   2.948   1.759  17.746 -0.1569 -1.4734  0.3438
 8423SOL    HW236903   3.054   1.789  17.657  0.1545  0.4955  0.6333
 8424SOL     OW36904   1.772   2.622  16.847  0.2604 -0.4235  0.0718
 8424SOL    HW136905   1.748   2.556  16.913 -2.1816  0.3239 -0.0500
 8424SOL    HW236906   1.815   2.565  16.784  1.2476 -1.1414  1.3998
 8425SOL     OW36907   0.241   0.532   1.810 -0.0942 -0.4504 -0.3783
 8425SOL    HW136908   0.173   0.598   1.794  0.6275  0.4258  0.1650
 8425SOL    HW236909   0.193   0.459   1.850 -0.6973  0.4832  0.5919
 8426SOL     OW36910   2.471   2.983   7.385 -0.5120  0.3452  0.2580
 8426SOL    HW136911   2.379   2.981   7.359 -0.5781  0.6243  0.4660
 8426SOL    HW236912   2.487   3.077   7.376  0.3985  0.0346 -1.2612
 8427SOL     OW36913   3.092   1.392   5.896  0.4500 -0.3681  0.1509
 8427SOL    HW136914   3.105   1.463   5.960 -0.6300  0.8514 -0.9988
 8427SOL    HW236915   3.089   1.309   5.944 -1.6293 -0.5460 -0.3126
 8428SOL     OW36916   3.472   3.549   2.989  0.1939 -0.2262 -0.0137
 8428SOL    HW136917   3.548   3.598   2.958  0.8452 -0.3475  1.3841
 8428SOL    HW236918   3.496   3.531   3.080 -1.5370 -0.2128  0.4474
 8429SOL     OW36919   0.516   1.213   2.435  0.4945  0.4163 -0.3011
 8429SOL    HW136920   0.568   1.255   2.503 -1.7065  0.7417  1.1723
 8429SOL    HW236921   0.578   1.216   2.362  0.2732  1.3856 -0.4506
 8430SOL     OW36922   1.525   3.962  13.385 -0.2875  0.1643 -0.0538
 8430SOL    HW136923   1.603   3.940  13.437 -1.6394 -0.1629  1.8363
 8430SOL    HW236924   1.551   3.930  13.299 -0.1846  0.9609 -0.3199
 8431SOL     OW36925   4.525   3.331   5.430 -0.2683  0.2474 -0.7098
 8431SOL    HW136926   4.470   3.315   5.353 -0.3983  0.4968 -0.6692
 8431SOL    HW236927   4.458   3.294   5.486 -0.2484 -1.1653 -1.6192
 8432SOL     OW36928   3.068   4.660   4.891  0.3046 -0.2255  0.1280
 8432SOL    HW136929   3.032   0.005   4.916  0.4625  0.5859 -2.3621
 8432SOL    HW236930   3.039   4.617   4.971 -1.4000 -2.0189 -1.4472
 8433SOL     OW36931   3.212   1.260   4.280  1.1277 -0.0674  0.1400
 8433SOL    HW136932   3.210   1.279   4.186 -0.5917 -1.1245 -0.0402
 8433SOL    HW236933   3.157   1.182   4.276 -1.2110  1.6115 -0.3890
 8434SOL     OW36934   1.437   3.966   4.789  0.7202  0.0831  0.2986
 8434SOL    HW136935   1.525   3.981   4.755  0.3802  0.9879 -0.1946
 8434SOL    HW236936   1.380   3.992   4.717  1.3633  0.2714 -0.1455
 8435SOL     OW36937   0.993   0.829  16.446  0.6871 -0.7438 -0.2875
 8435SOL    HW136938   0.973   0.922  16.460 -0.5464 -0.8074 -1.6672
 8435SOL    HW236939   1.010   0.834  16.352 -3.5701 -1.2845 -1.0844
 8436SOL     OW36940   0.709   0.978   6.030  0.0932  0.2401  0.6820
 8436SOL    HW136941   0.635   0.920   6.045  0.5378 -0.1445  1.3704
 8436SOL    HW236942   0.680   1.049   5.972  0.1367  0.1382  0.5364
 8437SOL     OW36943   3.566   1.674  12.961  0.5511 -0.3858  0.0503
 8437SOL    HW136944   3.577   1.678  12.866  0.9686  1.9496  0.2039
 8437SOL    HW236945   3.649   1.717  12.980 -0.3011  2.3469 -2.3541
 8438SOL     OW36946   3.920   1.360   7.470  0.5591 -0.2654  0.2027
 8438SOL    HW136947   3.877   1.310   7.540 -0.6393  1.2002  0.5250
 8438SOL    HW236948   3.844   1.371   7.412  0.3900  0.2328  0.5108
 8439SOL     OW36949   2.379   0.894   4.332  0.4499  0.1904 -0.1193
 8439SOL    HW136950   2.389   0.918   4.424 -3.1042  3.0443 -0.4918
 8439SOL    HW236951   2.303   0.945   4.305 -1.1374 -1.0957  1.9431
 8440SOL     OW36952   3.620   0.860   7.582 -0.5806  0.2716  0.3245
 8440SOL    HW136953   3.589   0.809   7.507  0.4678 -1.0585  0.7913
 8440SOL    HW236954   3.715   0.872   7.578 -0.4875 -1.9295 -3.3858
 8441SOL     OW36955   3.529   2.272  10.252  0.1432  0.4913  0.5015
 8441SOL    HW136956   3.507   2.301  10.164 -1.4958  1.3317  1.1683
 8441SOL    HW236957   3.622   2.251  10.250 -0.0625 -0.4158  0.4815
 8442SOL     OW36958   3.491   2.057   0.793 -0.5167 -0.1511 -0.5986
 8442SOL    HW136959   3.406   2.040   0.834  0.1883 -0.8200  0.6057
 8442SOL    HW236960   3.547   1.983   0.814  0.0601  0.3019 -0.5547
 8443SOL     OW36961   0.768   1.483   7.700  0.2133 -0.0594 -0.5174
 8443SOL    HW136962   0.853   1.440   7.693  0.2917  0.1242 -0.7227
 8443SOL    HW236963   0.788   1.570   7.735 -0.1340 -0.7512  1.4113
 8444SOL     OW36964   0.481   2.851   4.850  1.0468 -0.0313  0.6792
 8444SOL    HW136965   0.459   2.921   4.788 -0.5064 -0.9607  0.1560
 8444SOL    HW236966   0.518   2.785   4.791 -1.6132 -0.3924 -0.5909
 8445SOL     OW36967   2.064   0.823  10.556  0.1731  0.2766  0.2857
 8445SOL    HW136968   2.088   0.748  10.502  1.1983  1.8322 -1.3993
 8445SOL    HW236969   2.073   0.788  10.645  1.7523 -3.3890 -1.3291
 8446SOL     OW36970   1.277   4.696   7.858 -0.4491  0.8935 -0.3304
 8446SOL    HW136971   1.352   4.726   7.909 -1.1356  0.7564  0.7520
 8446SOL    HW236972   1.212   0.023   7.882  1.3732  2.1584  1.0727
 8447SOL     OW36973   0.666   4.105   5.188  0.3794 -0.0340 -0.2918
 8447SOL    HW136974   0.641   4.016   5.211  1.2782 -0.5433 -1.2915
 8447SOL    HW236975   0.686   4.104   5.095 -0.1339  0.1666 -0.4036
 8448SOL     OW36976   3.545   2.750   9.379  0.1565 -0.0911 -0.6428
 8448SOL    HW136977   3.563   2.828   9.431 -0.2804 -1.3225  1.3710
 8448SOL    HW236978   3.491   2.781   9.307  2.7424  0.5098 -2.3231
 8449SOL     OW36979   1.941   1.126   3.137 -0.1466  0.1615 -0.1147
 8449SOL    HW136980   1.888   1.058   3.178  1.9393 -0.4195  1.6346
 8449SOL    HW236981   2.018   1.113   3.193 -0.7198 -4.1165 -0.3040
 8450SOL     OW36982   1.943   0.912   4.619  0.3563  0.8391  0.1719
 8450SOL    HW136983   1.992   0.922   4.701  0.5185 -0.7410  0.2770
 8450SOL    HW236984   1.921   0.821   4.641  0.7320  0.4977 -0.8434
 8451SOL     OW36985   3.907   4.057  17.686  0.0960  0.8567 -0.8965
 8451SOL    HW136986   3.938   4.104   0.010 -0.0505  0.9461 -0.8904
 8451SOL    HW236987   3.816   4.087  17.692  0.2591  1.8620 -3.6434
 8452SOL     OW36988   2.600   1.006   8.117 -0.3396  0.1296  0.4340
 8452SOL    HW136989   2.653   1.023   8.195  0.5675  1.5248 -0.4777
 8452SOL    HW236990   2.539   0.945   8.158 -0.0666 -1.0915 -0.9832
 8453SOL     OW36991   0.499   3.164  12.890 -0.1747 -0.2538 -0.2303
 8453SOL    HW136992   0.441   3.138  12.819 -2.0971  2.6495  0.2715
 8453SOL    HW236993   0.586   3.150  12.854  0.5394  1.5754  0.7531
 8454SOL     OW36994   3.056   0.979   6.442  0.2344  0.2397 -0.2048
 8454SOL    HW136995   3.025   0.889   6.434 -0.4310  0.4657 -0.1584
 8454SOL    HW236996   3.002   0.987   6.521  0.9448 -1.3204  0.4414
 8455SOL     OW36997   1.191   3.217   2.979  0.1113  0.4434  0.5416
 8455SOL    HW136998   1.225   3.150   2.920 -1.0748 -0.3048  0.7277
 8455SOL    HW236999   1.179   3.294   2.922 -0.8287  0.8852  1.3384
 8456SOL     OW37000   4.666   1.458   7.947 -0.0307 -0.4129  0.3973
 8456SOL    HW137001   4.628   1.542   7.976  1.8307  0.7587 -0.5823
 8456SOL    HW237002   0.013   1.491   7.924 -0.5344 -0.9075 -2.1616
 8457SOL     OW37003   4.177   1.246  11.087  1.0091 -0.2190  0.0100
 8457SOL    HW137004   4.237   1.320  11.085  0.6476  0.1288  1.5775
 8457SOL    HW237005   4.233   1.180  11.046 -0.4688  0.0256 -2.3866
 8458SOL     OW37006   2.048   0.023   9.386  0.0328 -0.1422  0.0737
 8458SOL    HW137007   1.962   4.719   9.381  0.1908 -0.1697 -2.2949
 8458SOL    HW237008   2.034   0.072   9.467 -0.5319  1.2265 -0.8650
 8459SOL     OW37009   3.353   1.740   2.397 -0.2557 -0.3624  0.2567
 8459SOL    HW137010   3.284   1.707   2.455  0.5199  0.4644  1.6453
 8459SOL    HW237011   3.433   1.707   2.439  0.3215 -1.3268 -1.5809
 8460SOL     OW37012   3.495   0.371   5.772 -0.0791 -0.0752 -0.4617
 8460SOL    HW137013   3.508   0.397   5.864 -3.8766  0.3045 -0.0314
 8460SOL    HW237014   3.579   0.380   5.727 -0.2080  1.3405 -0.4304
 8461SOL     OW37015   1.432   0.129   5.248 -0.3564 -0.0568  0.1825
 8461SOL    HW137016   1.475   0.196   5.300 -0.8328 -0.7948  1.5295
 8461SOL    HW237017   1.468   0.050   5.289  0.4614 -0.1158 -0.6239
 8462SOL     OW37018   4.283   2.371   3.791 -0.5738  0.1965 -0.3136
 8462SOL    HW137019   4.298   2.373   3.886 -1.3584  0.9665 -0.2052
 8462SOL    HW237020   4.237   2.287   3.798 -2.7914  1.4003 -0.3614
 8463SOL     OW37021   2.797   2.605   6.552  0.0469  0.3692  0.5388
 8463SOL    HW137022   2.862   2.579   6.616 -0.3638  0.5644  1.0337
 8463SOL    HW237023   2.845   2.637   6.476  1.1019 -1.3556  0.4742
 8464SOL     OW37024   1.547   1.894   4.286 -0.3193 -0.0863 -0.4822
 8464SOL    HW137025   1.524   1.951   4.360 -0.0607 -0.9281  0.2529
 8464SOL    HW237026   1.463   1.893   4.240 -1.2849 -0.1523  1.2611
 8465SOL     OW37027   3.232   1.511  15.024 -0.1776 -0.7423  0.6491
 8465SOL    HW137028   3.272   1.585  14.978 -0.7385 -0.7223  0.1967
 8465SOL    HW237029   3.209   1.558  15.104  1.0482  0.9003  0.0459
 8466SOL     OW37030   2.433   1.185   4.830  0.1375 -0.0564 -0.7043
 8466SOL    HW137031   2.441   1.269   4.876  1.6135 -0.1453 -0.7978
 8466SOL    HW237032   2.430   1.113   4.892 -0.5449  2.0980  1.7614
 8467SOL     OW37033   2.790   1.090  17.214  0.7736  0.2218 -0.1703
 8467SOL    HW137034   2.876   1.052  17.234  0.9916  0.7948 -0.0269
 8467SOL    HW237035   2.791   1.088  17.118  0.9363 -0.3219 -0.1608
 8468SOL     OW37036   0.890   2.815   1.430 -0.2098 -0.5785  0.1873
 8468SOL    HW137037   0.949   2.786   1.360  2.0530  0.0410  1.8177
 8468SOL    HW237038   0.940   2.889   1.465 -1.1169 -0.7593  1.8406
 8469SOL     OW37039   0.050   4.064   8.622 -0.3300 -0.2345  0.6967
 8469SOL    HW137040   0.106   3.992   8.593 -1.0378 -0.7937  0.7108
 8469SOL    HW237041   0.003   4.077   8.540  0.2255  0.2303  0.4565
 8470SOL     OW37042   0.766   2.497   5.980 -0.3679 -0.1245 -0.4718
 8470SOL    HW137043   0.778   2.407   5.951  0.8291 -0.1526  0.1421
 8470SOL    HW237044   0.810   2.541   5.907 -0.8241  2.0668  0.5642
 8471SOL     OW37045   1.912   4.288   1.778 -0.8597  0.0108  0.3010
 8471SOL    HW137046   1.900   4.270   1.685 -1.2541 -1.5655  0.6549
 8471SOL    HW237047   1.821   4.281   1.809 -0.3388 -0.3404  1.7342
 8472SOL     OW37048   4.025   0.296   9.663 -0.2448 -0.3835  0.0998
 8472SOL    HW137049   3.943   0.329   9.699 -0.1263  1.7153 -1.5371
 8472SOL    HW237050   4.060   0.380   9.630  1.6953 -0.7768  1.1418
 8473SOL     OW37051   1.369   3.463  14.449  0.1254 -0.1894  0.1016
 8473SOL    HW137052   1.451   3.473  14.497  0.0336 -0.2373  0.2678
 8473SOL    HW237053   1.331   3.550  14.450  0.9209  0.1597 -0.2333
 8474SOL     OW37054   1.360   2.107  17.479 -0.2129  0.0201 -0.5693
 8474SOL    HW137055   1.444   2.089  17.520 -0.9261 -1.1651  0.3897
 8474SOL    HW237056   1.384   2.073  17.392  0.8065  1.5365 -0.8737
 8475SOL     OW37057   1.658   0.525   4.815 -0.2995 -0.3517 -0.3308
 8475SOL    HW137058   1.668   0.440   4.771  2.6595 -0.5592  0.7622
 8475SOL    HW237059   1.564   0.541   4.805 -0.1957 -0.4202 -1.4014
 8476SOL     OW37060   3.776   2.955   4.085 -0.2240  0.6916 -0.3070
 8476SOL    HW137061   3.851   2.937   4.141 -1.4256 -1.0012  0.7546
 8476SOL    HW237062   3.790   3.050   4.092  1.1140  0.4465  0.3719
 8477SOL     OW37063   1.661   2.028   2.588 -0.3296  0.3865 -0.4172
 8477SOL    HW137064   1.699   2.005   2.503 -2.0462  0.1499 -1.1385
 8477SOL    HW237065   1.701   1.959   2.641 -0.5998 -1.7654 -3.0028
 8478SOL     OW37066   3.834   1.117   9.109  0.1551  0.0131 -0.5450
 8478SOL    HW137067   3.915   1.111   9.160 -1.2217  1.1267  1.7606
 8478SOL    HW237068   3.767   1.127   9.176 -0.8088 -1.0117 -1.3655
 8479SOL     OW37069   0.512   4.393   4.610 -0.3683  0.1746 -0.1879
 8479SOL    HW137070   0.461   4.467   4.642 -0.9685 -0.0348 -0.6653
 8479SOL    HW237071   0.524   4.333   4.684  0.5861 -0.1090 -0.5632
 8480SOL     OW37072   3.487   0.453   3.871  0.0432  0.3399 -0.1982
 8480SOL    HW137073   3.469   0.391   3.941  1.0167 -0.1300 -0.3588
 8480SOL    HW237074   3.455   0.532   3.913 -0.0349  0.6458 -0.8287
 8481SOL     OW37075   2.900   0.471   4.065  0.6303 -0.1327  0.3519
 8481SOL    HW137076   2.912   0.377   4.075 -0.6659 -0.5271 -1.8145
 8481SOL    HW237077   2.808   0.469   4.042  1.0083 -0.4076 -1.1257
 8482SOL     OW37078   2.339   0.020   6.131 -0.0069 -0.2225 -0.4456
 8482SOL    HW137079   2.349   0.050   6.041  0.1364 -1.0293 -0.6998
 8482SOL    HW237080   2.406   0.070   6.177 -0.2488 -0.4474  0.1558
 8483SOL     OW37081   1.821   1.819   9.464  0.3269  0.7248 -0.3739
 8483SOL    HW137082   1.736   1.775   9.463  0.6134  0.2031 -1.5706
 8483SOL    HW237083   1.835   1.840   9.557  0.2077  1.3691 -0.5041
 8484SOL     OW37084   2.776   2.601   8.510  0.3306 -0.6233  0.1642
 8484SOL    HW137085   2.763   2.516   8.468 -1.8281  0.4890 -1.4338
 8484SOL    HW237086   2.869   2.608   8.489  0.4624  1.3500  1.3795
 8485SOL     OW37087   2.793   4.178   6.066  0.1363  0.3899  0.3521
 8485SOL    HW137088   2.795   4.147   5.976 -2.2975 -1.3003  0.8875
 8485SOL    HW237089   2.698   4.183   6.079  0.5809 -0.5587  3.8608
 8486SOL     OW37090   4.016   3.907   6.935  0.3787 -0.0026 -0.4712
 8486SOL    HW137091   4.093   3.891   6.989  1.1515 -0.5548 -1.7339
 8486SOL    HW237092   3.953   3.849   6.977  2.6294 -2.3456 -0.3154
 8487SOL     OW37093   3.445   0.268   2.558 -0.2433  0.6169 -0.3227
 8487SOL    HW137094   3.434   0.306   2.645  0.1556 -3.0167  1.3126
 8487SOL    HW237095   3.528   0.222   2.571 -0.9825 -0.0227  2.1741
 8488SOL     OW37096   1.970   4.680   3.446 -0.4409  0.3057 -1.2082
 8488SOL    HW137097   1.978   0.026   3.489 -0.8157 -0.5054  0.4836
 8488SOL    HW237098   2.058   4.650   3.424 -1.0412 -2.0386 -0.4677
 8489SOL     OW37099   2.793   0.713   4.909 -0.2707  0.1676  0.8228
 8489SOL    HW137100   2.838   0.695   4.826  0.1740  1.8095  0.7120
 8489SOL    HW237101   2.840   0.649   4.963  0.3876 -0.5911 -0.6539
 8490SOL     OW37102   2.383   2.294   0.601  0.0786  0.1252 -0.2606
 8490SOL    HW137103   2.459   2.282   0.544  1.2991 -0.7194  1.5168
 8490SOL    HW237104   2.409   2.364   0.661  0.3727  0.1689 -0.4357
 8491SOL     OW37105   3.225   3.397  12.079 -0.3342 -0.3128  0.1685
 8491SOL    HW137106   3.238   3.360  12.167  1.2001  1.3395  0.6369
 8491SOL    HW237107   3.308   3.381  12.034  0.1998 -0.8256  1.3201
 8492SOL     OW37108   4.019   0.836   0.728 -0.0179 -0.3143 -0.8136
 8492SOL    HW137109   3.986   0.875   0.647 -1.5433 -1.2220 -0.6249
 8492SOL    HW237110   3.953   0.776   0.763  0.4355 -0.5791 -0.4105
 8493SOL     OW37111   1.656   2.344   3.255  0.2562  0.3613 -0.1582
 8493SOL    HW137112   1.721   2.311   3.317 -1.0955  1.6834  1.9170
 8493SOL    HW237113   1.663   2.438   3.266  2.4646  0.5704 -3.1667
 8494SOL     OW37114   0.515   2.772   3.276  0.4018 -0.1869 -0.0827
 8494SOL    HW137115   0.587   2.714   3.252  0.8146  0.4887 -0.4870
 8494SOL    HW237116   0.524   2.824   3.196  3.7624 -0.8520 -0.1435
 8495SOL     OW37117   0.160   0.119   6.649  0.2020  0.4052 -0.2556
 8495SOL    HW137118   0.201   0.202   6.671  0.1757 -0.0827  1.6854
 8495SOL    HW237119   0.219   0.063   6.700 -0.2495  0.0321 -0.1384
 8496SOL     OW37120   2.503   1.283  16.528  0.4868 -0.4074 -0.0084
 8496SOL    HW137121   2.564   1.356  16.529 -1.7157  1.4194  2.3235
 8496SOL    HW237122   2.490   1.265  16.434  0.3923 -2.4090  0.3837
 8497SOL     OW37123   0.746   4.628   0.986  0.2326 -0.3341  0.3330
 8497SOL    HW137124   0.685   4.646   1.057 -0.9650  0.2682 -0.8548
 8497SOL    HW237125   0.765   4.535   1.000 -0.7319 -0.3205  1.7120
 8498SOL     OW37126   2.686   0.907   7.144 -0.4470 -0.3960  0.2649
 8498SOL    HW137127   2.772   0.934   7.176 -0.1558  0.2120 -1.0158
 8498SOL    HW237128   2.635   0.984   7.169  2.5082  0.8203  2.4731
 8499SOL     OW37129   0.153   3.886   9.122  0.2737 -0.2497 -0.5833
 8499SOL    HW137130   0.219   3.817   9.116  0.2431 -0.2113 -1.2587
 8499SOL    HW237131   0.107   3.873   9.205 -0.5328  1.2884 -0.7787
 8500SOL     OW37132   3.057   0.902   1.406 -0.1337 -0.0849  0.4543
 8500SOL    HW137133   3.069   0.940   1.319 -1.1546  1.4484  0.9638
 8500SOL    HW237134   3.133   0.844   1.409 -1.6070 -2.1818 -3.4620
 8501SOL     OW37135   0.173   4.677  13.965 -0.0576 -0.1849 -0.2763
 8501SOL    HW137136   0.206   4.678  14.055 -2.8689 -3.4376  0.7820
 8501SOL    HW237137   0.108   0.008  13.972  0.2191  0.1277 -0.9055
 8502SOL     OW37138   0.282   3.921   3.717  0.5659  0.1181 -0.0056
 8502SOL    HW137139   0.260   4.009   3.687 -1.4392 -0.9520 -1.6795
 8502SOL    HW237140   0.361   3.906   3.666  0.8284 -0.8414  0.6809
 8503SOL     OW37141   0.014   3.921  17.284 -0.2527  0.2895 -0.2257
 8503SOL    HW137142   0.055   3.864  17.349 -1.1743  0.9233  0.9345
 8503SOL    HW237143   4.691   3.962  17.346 -0.7250  1.3507 -1.3985
 8504SOL     OW37144   4.250   3.589   0.495 -0.6476  0.6085  0.0814
 8504SOL    HW137145   4.328   3.644   0.498  0.7411 -1.3882  0.6641
 8504SOL    HW237146   4.218   3.617   0.409 -0.5704 -2.2684 -0.8893
 8505SOL     OW37147   2.683   2.559   1.489  0.2935 -0.0386  0.2132
 8505SOL    HW137148   2.760   2.568   1.546  1.5584  2.2365 -1.8854
 8505SOL    HW237149   2.618   2.605   1.543  1.9445  2.4184  0.1261
 8506SOL     OW37150   4.391   0.396   3.021 -0.5579 -0.3142 -0.0029
 8506SOL    HW137151   4.343   0.457   2.965 -0.0354 -0.0350 -0.1504
 8506SOL    HW237152   4.353   0.397   3.108  1.4508 -0.3354  0.8791
 8507SOL     OW37153   4.097   3.004  12.950  0.1743  0.1389 -0.4856
 8507SOL    HW137154   4.123   3.050  13.030 -0.9280 -1.7332  0.9393
 8507SOL    HW237155   4.087   2.916  12.986 -2.9464  0.6991  0.0869
 8508SOL     OW37156   3.641   2.139   8.307  0.2861 -0.2448 -0.5067
 8508SOL    HW137157   3.653   2.107   8.218  0.3028 -1.3324 -0.1149
 8508SOL    HW237158   3.550   2.109   8.315 -0.5917  1.9108 -2.2921
 8509SOL     OW37159   1.283   3.202  14.548  0.2335  0.6642  0.4558
 8509SOL    HW137160   1.352   3.266  14.535  1.3085 -1.3157 -3.6506
 8509SOL    HW237161   1.222   3.249  14.604  0.6456  2.1697 -0.3575
 8510SOL     OW37162   0.197   1.107   5.111  0.0517  0.7221 -0.3411
 8510SOL    HW137163   0.192   1.181   5.173  0.4451  0.6789 -0.2560
 8510SOL    HW237164   0.123   1.125   5.054 -0.7299 -0.6578  0.2543
 8511SOL     OW37165   1.934   0.451   5.789  0.5478 -0.5533 -0.1675
 8511SOL    HW137166   1.901   0.397   5.718 -0.1400  0.5236 -0.6714
 8511SOL    HW237167   1.884   0.425   5.866  0.3651  2.2908  0.7060
 8512SOL     OW37168   4.444   0.404  11.758  0.1005  0.1379  0.3068
 8512SOL    HW137169   4.533   0.382  11.732  1.2489  3.5056  1.5260
 8512SOL    HW237170   4.412   0.467  11.693  1.5635 -1.6933 -2.2228
 8513SOL     OW37171   1.445   4.193  15.658 -0.2860 -0.0626 -0.6001
 8513SOL    HW137172   1.419   4.123  15.597 -1.1350  0.9136 -1.3607
 8513SOL    HW237173   1.367   4.190  15.713  1.4137  1.5227  1.8453
 8514SOL     OW37174   0.848   2.180   6.840  0.6081  0.0592 -0.2096
 8514SOL    HW137175   0.934   2.155   6.806  1.0885  1.2314  0.1338
 8514SOL    HW237176   0.818   2.218   6.757  1.1414 -0.7215 -0.7650
 8515SOL     OW37177   0.357   2.815  11.864 -0.1768 -0.1968 -0.2235
 8515SOL    HW137178   0.322   2.863  11.939  0.1868  0.4484 -0.4686
 8515SOL    HW237179   0.336   2.724  11.885 -0.7448 -0.1470 -0.5754
 8516SOL     OW37180   3.624   1.142  13.472 -0.6454 -0.5110  0.2946
 8516SOL    HW137181   3.626   1.200  13.548  0.7300 -0.7858  0.4771
 8516SOL    HW237182   3.619   1.212  13.407  3.0987  1.0201  1.6758
 8517SOL     OW37183   4.286   1.255   5.222 -0.0547 -0.2854 -0.0746
 8517SOL    HW137184   4.268   1.342   5.187 -0.0212 -0.3535 -0.2614
 8517SOL    HW237185   4.377   1.241   5.193  0.3128 -0.5185  1.1820
 8518SOL     OW37186   2.264   1.301   6.468 -0.6177 -1.2350 -0.4884
 8518SOL    HW137187   2.300   1.388   6.450 -1.2911 -0.8668 -0.0535
 8518SOL    HW237188   2.342   1.248   6.481 -0.6314 -0.8235  1.2798
 8519SOL     OW37189   4.172   2.484   0.776  0.5680 -0.2864 -0.4014
 8519SOL    HW137190   4.202   2.574   0.789  0.1017 -0.3839  1.2768
 8519SOL    HW237191   4.147   2.490   0.683  1.6798 -1.0312 -0.7529
 8520SOL     OW37192   2.828   2.146  17.501 -0.4674 -0.3723 -0.0429
 8520SOL    HW137193   2.867   2.229  17.530  0.9435 -1.3863  0.9503
 8520SOL    HW237194   2.792   2.121  17.586  1.1531  0.3967  0.8751
 8521SOL     OW37195   0.118   1.534   2.597 -0.3182  0.2225 -0.2702
 8521SOL    HW137196   0.160   1.456   2.558  1.2854  0.8570  0.1995
 8521SOL    HW237197   0.125   1.598   2.527 -3.3795  1.4940  0.5913
 8522SOL     OW37198   2.231   2.348   9.042  0.2793  0.0019 -0.5551
 8522SOL    HW137199   2.177   2.273   9.021 -1.5399  0.9414  0.7237
 8522SOL    HW237200   2.162   2.414   9.047  0.2739  0.0390 -1.2378
 8523SOL     OW37201   0.464   4.207  13.090  0.6596  0.1028 -0.6541
 8523SOL    HW137202   0.406   4.147  13.042 -0.7803  1.5671 -0.7599
 8523SOL    HW237203   0.450   4.177  13.180  0.0403  0.1055 -0.7484
 8524SOL     OW37204   2.656   3.055   7.061 -0.7934  0.1445 -0.8337
 8524SOL    HW137205   2.700   2.970   7.061  0.6965  0.9058  2.6388
 8524SOL    HW237206   2.582   3.035   7.003  0.5986  0.3263 -2.6588
 8525SOL     OW37207   1.139   2.540   9.218  0.2710 -0.0518 -0.1295
 8525SOL    HW137208   1.158   2.469   9.157 -4.0331 -1.8670  0.6035
 8525SOL    HW237209   1.205   2.602   9.188  1.4979 -1.9000 -1.2335
 8526SOL     OW37210   4.663   3.088   4.423  0.1803 -0.1239  0.6220
 8526SOL    HW137211   4.652   3.001   4.461 -0.5896 -0.3131 -0.0276
 8526SOL    HW237212   4.570   3.102   4.404  0.0952 -0.4372  0.7955
 8527SOL     OW37213   2.766   3.316   8.570 -0.2202  0.1742  0.2425
 8527SOL    HW137214   2.708   3.391   8.556  0.0483  0.7792  2.4300
 8527SOL    HW237215   2.785   3.294   8.479 -3.1036 -0.7679 -0.1548
 8528SOL     OW37216   0.311   1.264   7.406  0.1324  0.9738  0.0946
 8528SOL    HW137217   0.301   1.169   7.414  1.0048  0.9947  1.5683
 8528SOL    HW237218   0.381   1.281   7.343 -0.2292 -1.7026 -1.0042
 8529SOL     OW37219   2.189   1.478   3.510 -0.8076  0.2239  0.3871
 8529SOL    HW137220   2.186   1.391   3.550 -1.0423 -0.9005 -2.0680
 8529SOL    HW237221   2.246   1.522   3.574 -0.1429 -1.3794  0.8996
 8530SOL     OW37222   4.717   2.770   0.103 -0.3513 -0.9500  0.2922
 8530SOL    HW137223   4.641   2.735   0.055 -1.2094  0.0875  0.9066
 8530SOL    HW237224   0.050   2.711   0.084 -0.0153  0.2047 -2.0220
 8531SOL     OW37225   0.799   4.138  14.052  0.2517 -0.7627  0.1136
 8531SOL    HW137226   0.809   4.195  13.976 -0.4266 -0.5870  0.1596
 8531SOL    HW237227   0.842   4.192  14.118  0.8639 -2.5868  1.1983
 8532SOL     OW37228   2.965   4.002  10.495 -0.6051 -0.2764 -0.0011
 8532SOL    HW137229   2.995   4.047  10.574  0.6993 -1.3415  0.1088
 8532SOL    HW237230   2.920   3.924  10.527  0.9217 -0.9758  0.4461
 8533SOL     OW37231   2.443   1.127   4.111 -0.2856 -0.0851  0.2019
 8533SOL    HW137232   2.462   1.089   4.196  0.9790  0.0884  0.0025
 8533SOL    HW237233   2.372   1.077   4.071 -0.9023  0.4606  0.6310
 8534SOL     OW37234   3.309   3.952   8.100  0.6417  0.2603  0.5648
 8534SOL    HW137235   3.370   3.935   8.172 -0.1320 -0.8586  0.9638
 8534SOL    HW237236   3.224   3.970   8.141  0.7303  0.2845  0.7382
 8535SOL     OW37237   3.365   0.525  10.689 -0.1232  0.3793 -0.1689
 8535SOL    HW137238   3.407   0.575  10.620 -0.6053 -1.1768 -1.5842
 8535SOL    HW237239   3.329   0.602  10.734 -1.4516  1.2470 -2.7654
 8536SOL     OW37240   3.627   0.266   5.346 -0.4298  0.1539 -0.3950
 8536SOL    HW137241   3.682   0.328   5.298 -0.8757  1.5586  0.9162
 8536SOL    HW237242   3.698   0.219   5.389  1.2438  2.8082 -0.2431
 8537SOL     OW37243   2.481   3.258  10.915  0.1225  0.7678 -0.0272
 8537SOL    HW137244   2.471   3.353  10.907 -0.4693  0.7144  0.1230
 8537SOL    HW237245   2.511   3.231  10.828 -2.3580  0.1126 -0.6596
 8538SOL     OW37246   3.740   1.348  16.712 -0.4003 -0.8423 -0.3031
 8538SOL    HW137247   3.664   1.382  16.665  0.2847  1.0917  0.0187
 8538SOL    HW237248   3.716   1.256  16.696  2.6503 -1.2426 -2.5291
 8539SOL     OW37249   2.314   0.560   1.573 -0.0896  0.0166 -0.5644
 8539SOL    HW137250   2.386   0.610   1.535 -0.1288  0.8837  0.5000
 8539SOL    HW237251   2.349   0.544   1.661 -2.8983 -1.1280  0.3705
 8540SOL     OW37252   2.656   4.620  10.995  0.1555  0.0642 -0.6504
 8540SOL    HW137253   2.713   4.552  10.959 -0.1749 -1.7255  2.1740
 8540SOL    HW237254   2.580   4.607  10.938  1.4741 -0.0625 -2.3844
 8541SOL     OW37255   4.686   1.383   1.794  0.1071  0.5390 -0.1650
 8541SOL    HW137256   4.632   1.389   1.715 -0.1431 -0.0569 -0.0367
 8541SOL    HW237257   4.661   1.461   1.845 -1.1008  0.4756 -0.6677
 8542SOL     OW37258   4.633   0.142   7.058 -0.4834 -0.0139  0.2223
 8542SOL    HW137259   4.573   0.209   7.091 -0.8069 -0.2886  0.2005
 8542SOL    HW237260   4.631   0.091   7.139  2.7864  0.4007  0.5562
 8543SOL     OW37261   1.745   0.667   7.284  0.9287 -0.5056 -0.0078
 8543SOL    HW137262   1.785   0.586   7.317  0.8853  0.4557  2.4446
 8543SOL    HW237263   1.669   0.630   7.240  2.1649 -1.7100 -1.1023
 8544SOL     OW37264   3.144   3.605   8.365  0.4392  0.1082 -0.8936
 8544SOL    HW137265   3.157   3.538   8.432  2.1214 -0.9250 -2.2608
 8544SOL    HW237266   3.169   3.684   8.412 -0.3647 -0.5692  0.6932
 8545SOL     OW37267   1.134   0.146   6.522  0.2101  0.4814 -0.7722
 8545SOL    HW137268   1.208   0.206   6.523  1.3143 -0.8730 -1.6236
 8545SOL    HW237269   1.176   0.066   6.490 -2.8709 -0.9460 -1.2704
 8546SOL     OW37270   2.918   2.340  17.129  0.0726  0.4493  0.1468
 8546SOL    HW137271   2.911   2.397  17.053  0.5893  1.6108  0.9809
 8546SOL    HW237272   2.977   2.388  17.187  0.9950  0.6840 -0.9990
 8547SOL     OW37273   4.399   1.462   6.153 -0.2080 -1.2260  0.0842
 8547SOL    HW137274   4.459   1.535   6.137 -0.0820 -1.3611 -0.0556
 8547SOL    HW237275   4.332   1.469   6.085 -1.4638 -0.0462  1.4506
 8548SOL     OW37276   2.938   3.518   9.646  0.2915 -0.3494  0.4731
 8548SOL    HW137277   2.854   3.534   9.688  0.8915 -1.1223  1.9924
 8548SOL    HW237278   2.929   3.430   9.608  1.6214 -0.5337  0.5582
 8549SOL     OW37279   4.111   2.330   6.734  0.5421  0.2322 -0.5769
 8549SOL    HW137280   4.188   2.388   6.739  0.6470  0.0202  0.2340
 8549SOL    HW237281   4.137   2.264   6.669  0.1413 -1.3135  0.8592
 8550SOL     OW37282   0.185   2.945   0.061  0.0046 -0.7762  0.1879
 8550SOL    HW137283   0.230   2.958   0.144  0.2657 -1.3112  0.1317
 8550SOL    HW237284   0.112   2.893   0.096  1.3156 -1.7649  1.4574
 8551SOL     OW37285   0.726   2.884   8.323  0.8156  0.1250 -0.4341
 8551SOL    HW137286   0.747   2.965   8.369  0.8257 -0.5667  0.7804
 8551SOL    HW237287   0.713   2.832   8.402 -0.3151 -1.2561 -1.5274
 8552SOL     OW37288   2.895   3.547  16.489 -0.3803  0.3208 -0.8133
 8552SOL    HW137289   2.814   3.567  16.536  2.0200 -0.6210  3.7158
 8552SOL    HW237290   2.858   3.527  16.403  0.8271 -1.9547 -0.7781
 8553SOL     OW37291   0.248   0.300   3.410 -0.2370 -0.5165  0.7545
 8553SOL    HW137292   0.243   0.395   3.415  0.9917 -0.4333  0.5142
 8553SOL    HW237293   0.216   0.270   3.495 -1.1588  0.0243  0.5900
 8554SOL     OW37294   1.325   3.649  12.693 -0.0531  0.6740  0.4822
 8554SOL    HW137295   1.280   3.681  12.615 -0.0935  0.5105  0.4393
 8554SOL    HW237296   1.244   3.642  12.744  1.0308 -1.0897  1.9623
 8555SOL     OW37297   0.158   4.549   8.868  0.8817  0.7942 -0.4476
 8555SOL    HW137298   0.253   4.540   8.869  0.9539  1.3587 -2.2137
 8555SOL    HW237299   0.136   4.636   8.834 -0.7783  0.7249  0.4303
 8556SOL     OW37300   0.155   2.853   3.097 -0.7416 -0.0779 -0.4721
 8556SOL    HW137301   0.143   2.843   3.191  1.0591 -0.6187 -0.2862
 8556SOL    HW237302   0.213   2.930   3.103  0.9015 -1.1196 -2.7138
 8557SOL     OW37303   3.470   1.454  16.515  0.2713 -0.5078 -0.1435
 8557SOL    HW137304   3.447   1.546  16.505  0.3822 -0.4024  0.5376
 8557SOL    HW237305   3.525   1.451  16.437  0.1738 -0.1516 -0.2231
 8558SOL     OW37306   4.120   0.720  13.260  0.3628  0.5745 -0.6720
 8558SOL    HW137307   4.028   0.714  13.286 -0.2864  2.7120 -2.5389
 8558SOL    HW237308   4.132   0.633  13.220  0.7850  0.4256 -0.2197
 8559SOL     OW37309   4.205   4.482   4.377  0.3842 -0.1450  0.1763
 8559SOL    HW137310   4.185   4.445   4.462 -0.7207 -1.7563 -0.7826
 8559SOL    HW237311   4.246   4.560   4.414 -2.0719  1.1457  0.1336
 8560SOL     OW37312   3.754   4.313   2.506 -0.7659  0.4895  0.3715
 8560SOL    HW137313   3.737   4.405   2.485  1.4147  0.2374 -2.5566
 8560SOL    HW237314   3.815   4.317   2.580  0.0332  2.6338 -0.4079
 8561SOL     OW37315   2.567   4.089   2.121  0.0545  0.1243 -0.4366
 8561SOL    HW137316   2.601   4.149   2.055  0.9729 -0.9494 -0.9293
 8561SOL    HW237317   2.636   4.090   2.188  2.0658  0.2047 -2.5266
 8562SOL     OW37318   1.365   3.695  16.448 -0.4430  0.2296  0.0869
 8562SOL    HW137319   1.276   3.686  16.414 -0.4957  1.0665  0.0031
 8562SOL    HW237320   1.388   3.771  16.395 -0.6368  0.4235  0.2831
 8563SOL     OW37321   0.957   0.785   3.356 -0.3543 -0.2351  0.4857
 8563SOL    HW137322   0.943   0.782   3.450 -0.2028 -2.0231  0.4363
 8563SOL    HW237323   1.022   0.715   3.356 -1.1994 -1.0169  1.4888
 8564SOL     OW37324   2.324   1.401  16.898 -0.0435  0.9596  0.1302
 8564SOL    HW137325   2.355   1.352  16.974 -0.2551  2.6376  1.2943
 8564SOL    HW237326   2.411   1.430  16.869  0.4043 -0.0227  0.4753
 8565SOL     OW37327   3.351   2.042  17.570  0.3398 -0.1259 -0.3355
 8565SOL    HW137328   3.283   2.098  17.534  1.4918  1.3532 -0.2253
 8565SOL    HW237329   3.313   2.010  17.652 -0.8662  1.5053 -0.2670
 8566SOL     OW37330   1.351   2.908  14.103  0.0080 -0.4444  0.2397
 8566SOL    HW137331   1.384   2.936  14.018  0.8420 -1.1272  0.3430
 8566SOL    HW237332   1.266   2.870  14.080  0.0869 -0.0703 -0.6692
 8567SOL     OW37333   4.324   4.492   1.808  0.2169  0.4831 -0.0827
 8567SOL    HW137334   4.395   4.556   1.809  2.1784 -1.6704  0.3957
 8567SOL    HW237335   4.357   4.414   1.854  1.7123 -0.2030 -2.3559
 8568SOL     OW37336   4.581   2.227  15.879  0.4529 -0.1145  0.1939
 8568SOL    HW137337   4.569   2.178  15.797  0.4874  3.4120 -1.9155
 8568SOL    HW237338   4.661   2.275  15.858  1.0425 -0.3619  1.9099
 8569SOL     OW37339   3.688   4.453  13.281 -0.2805 -0.0852  0.3815
 8569SOL    HW137340   3.622   4.518  13.260 -0.5373 -0.6191 -0.4627
 8569SOL    HW237341   3.770   4.501  13.290  0.1737 -1.1256  1.8089
 8570SOL     OW37342   3.742   4.029   4.582 -0.1484  0.2055 -0.1765
 8570SOL    HW137343   3.743   4.078   4.664 -1.3030  0.2668 -0.2055
 8570SOL    HW237344   3.827   3.986   4.587  0.1789  1.0414  1.3168
 8571SOL     OW37345   0.923   2.311   6.367  0.3413 -0.3406 -0.2556
 8571SOL    HW137346   0.929   2.216   6.357  0.7145 -0.3111 -0.3096
 8571SOL    HW237347   0.915   2.319   6.462 -2.4372  1.2535 -0.6277
 8572SOL     OW37348   4.660   2.414   3.737 -0.1226 -0.0135 -0.4338
 8572SOL    HW137349   4.668   2.373   3.823  0.2329  1.4055  0.2002
 8572SOL    HW237350   0.008   2.397   3.703  1.8945  2.1435  3.7031
 8573SOL     OW37351   3.049   1.600   6.828 -0.1765 -0.0535 -0.7468
 8573SOL    HW137352   3.071   1.536   6.896 -0.3545  0.7875  0.1001
 8573SOL    HW237353   2.954   1.595   6.836 -0.0082 -3.0171 -0.3605
 8574SOL     OW37354   1.148   4.031   9.524 -0.0534 -0.1986 -0.2221
 8574SOL    HW137355   1.242   4.021   9.535 -0.3738 -2.6365  0.1889
 8574SOL    HW237356   1.119   4.047   9.613  2.6827  0.3256  0.5629
 8575SOL     OW37357   1.204   4.526   9.213  0.1928 -0.0667 -0.6445
 8575SOL    HW137358   1.162   4.443   9.235 -0.8652  1.6150  3.5714
 8575SOL    HW237359   1.228   4.554   9.301 -0.7078 -1.9922  0.2175
 8576SOL     OW37360   3.958   1.794  10.562  0.1267  0.5002  0.2819
 8576SOL    HW137361   3.866   1.785  10.587 -0.2650 -2.4591 -2.2617
 8576SOL    HW237362   3.974   1.701  10.544  2.3128  0.8433  0.5367
 8577SOL     OW37363   3.060   1.853   7.304  0.5782 -0.0183  0.2465
 8577SOL    HW137364   3.109   1.935   7.307  1.9420 -0.7237 -2.4565
 8577SOL    HW237365   3.105   1.808   7.232 -0.8018 -1.4293  0.2554
 8578SOL     OW37366   0.425   1.003   8.672 -0.5368  0.1901  0.2115
 8578SOL    HW137367   0.415   0.986   8.579  0.6016  2.2629 -0.2786
 8578SOL    HW237368   0.451   0.916   8.702  0.6788 -0.0259 -1.4966
 8579SOL     OW37369   1.413   0.324   1.830 -0.5563  0.4594 -0.0188
 8579SOL    HW137370   1.380   0.346   1.743  2.5058 -0.2135 -1.3410
 8579SOL    HW237371   1.366   0.393   1.878 -1.0893  1.2059 -1.6009
 8580SOL     OW37372   4.364   1.641   9.431  0.0088 -1.0473  0.2487
 8580SOL    HW137373   4.323   1.711   9.381  0.9348  1.3719  2.8613
 8580SOL    HW237374   4.455   1.668   9.438 -0.3949  0.1246  1.0043
 8581SOL     OW37375   0.819   2.814   7.637  0.5317 -0.2203 -0.2729
 8581SOL    HW137376   0.735   2.810   7.683  0.2569 -0.7227 -0.8181
 8581SOL    HW237377   0.874   2.799   7.713  0.5909 -0.1514 -0.3027
 8582SOL     OW37378   0.462   0.496   9.684  0.7107  0.4364  0.5895
 8582SOL    HW137379   0.366   0.500   9.675  0.7422  0.6056  0.3483
 8582SOL    HW237380   0.476   0.407   9.717  0.7738 -0.5032 -2.0259
 8583SOL     OW37381   2.486   4.690  14.611 -0.1283  0.4987 -0.2790
 8583SOL    HW137382   2.548   4.736  14.667 -1.2548 -0.2647  1.5745
 8583SOL    HW237383   2.501   0.005  14.533  1.0027 -1.3320 -1.3221
 8584SOL     OW37384   3.447   1.883   1.479  0.4835 -0.0985  0.3695
 8584SOL    HW137385   3.358   1.864   1.509 -0.8298  2.6902 -1.8657
 8584SOL    HW237386   3.429   1.863   1.387  1.9662  3.0295 -0.6072
 8585SOL     OW37387   4.554   1.098   8.995  0.0338 -0.1317  0.4112
 8585SOL    HW137388   4.600   1.172   8.957 -0.0304 -1.0309 -1.4451
 8585SOL    HW237389   4.479   1.099   8.935  0.0636 -1.3139  0.3454
 8586SOL     OW37390   3.616   2.076   8.043 -0.3181 -0.1959  0.0870
 8586SOL    HW137391   3.585   2.003   7.989 -0.4262  0.4570 -0.7417
 8586SOL    HW237392   3.585   2.145   7.984  0.5034 -0.4072 -0.5911
 8587SOL     OW37393   0.368   0.707   2.889 -0.2821 -0.6791 -0.3449
 8587SOL    HW137394   0.338   0.648   2.821 -2.6680  0.5482 -0.3664
 8587SOL    HW237395   0.429   0.760   2.838 -0.2862  0.6056  0.9662
 8588SOL     OW37396   1.323   1.547   1.412 -0.5040 -0.1134  0.5526
 8588SOL    HW137397   1.319   1.490   1.335  0.4835 -1.1044  1.2320
 8588SOL    HW237398   1.400   1.510   1.455  0.3238  1.8199  0.6965
 8589SOL     OW37399   3.661   0.699   4.857  0.0145 -0.2134  0.2131
 8589SOL    HW137400   3.573   0.737   4.856  1.0444  2.1546  0.4653
 8589SOL    HW237401   3.642   0.611   4.824  0.3646 -0.0990 -0.3001
 8590SOL     OW37402   2.339   0.851  14.078  0.1056  0.0427  0.0988
 8590SOL    HW137403   2.243   0.846  14.077  0.0143  1.8012 -0.5807
 8590SOL    HW237404   2.351   0.945  14.091  1.8357 -0.0731 -0.7507
 8591SOL     OW37405   0.128   3.479   9.102  0.2174 -0.7263 -0.4099
 8591SOL    HW137406   0.032   3.471   9.101 -0.0933  3.2699 -1.5922
 8591SOL    HW237407   0.156   3.398   9.145  1.3664  0.1173  0.4052
 8592SOL     OW37408   3.553   3.743   6.764 -0.0434 -0.2449 -0.0350
 8592SOL    HW137409   3.489   3.677   6.738 -0.9343  0.0237  1.4799
 8592SOL    HW237410   3.494   3.818   6.774  0.7828  0.6242 -1.6171
 8593SOL     OW37411   4.218   0.653   6.752 -0.0537  0.8016  0.4156
 8593SOL    HW137412   4.143   0.634   6.695  1.2056  1.2565 -1.4318
 8593SOL    HW237413   4.226   0.748   6.739  1.1610  0.6847  0.2920
 8594SOL     OW37414   2.861   2.679   9.066  0.1344  0.4440  0.4622
 8594SOL    HW137415   2.946   2.669   9.024  0.4398  2.0661  0.6782
 8594SOL    HW237416   2.821   2.596   9.039  1.4723 -0.2124  0.5188
 8595SOL     OW37417   0.632   3.157   8.190  0.4554 -0.1802 -0.0203
 8595SOL    HW137418   0.684   3.126   8.265  2.2921  2.7056 -0.0818
 8595SOL    HW237419   0.702   3.215   8.159 -0.0090  1.1792  1.5082
 8596SOL     OW37420   3.106   3.612  12.304  0.2668  0.5824 -0.0011
 8596SOL    HW137421   3.151   3.571  12.231  1.2963 -0.0619  0.9907
 8596SOL    HW237422   3.018   3.578  12.293  0.2613  1.4060 -2.4869
 8597SOL     OW37423   4.552   4.619   1.774  0.2860  0.2365  0.3320
 8597SOL    HW137424   4.553   4.703   1.821 -1.4430  0.6804 -0.4003
 8597SOL    HW237425   4.644   4.599   1.756  0.9682  2.9068  0.8454
 8598SOL     OW37426   4.251   2.912   4.179  0.2375 -0.6702 -0.3267
 8598SOL    HW137427   4.242   2.825   4.142  0.0470 -1.0911  0.7190
 8598SOL    HW237428   4.345   2.928   4.174  0.0025  0.9479  0.2117
 8599SOL     OW37429   0.015   1.032   4.210 -0.2645 -0.4376  0.3220
 8599SOL    HW137430   4.726   0.970   4.277  2.1900  0.3520  2.0478
 8599SOL    HW237431   0.107   1.007   4.201 -0.4504 -0.7815 -0.6454
 8600SOL     OW37432   0.192   3.182   7.980 -0.2455 -0.0716 -0.4056
 8600SOL    HW137433   0.244   3.229   8.045 -0.1173  0.5151 -0.9390
 8600SOL    HW237434   0.252   3.166   7.907 -0.2172  0.6608 -0.5440
 8601SOL     OW37435   4.319   2.983   8.867  0.0350 -0.4376  0.6186
 8601SOL    HW137436   4.293   2.891   8.866 -3.4676  0.5788  1.1154
 8601SOL    HW237437   4.414   2.971   8.861 -0.2469 -2.2343 -0.2463
 8602SOL     OW37438   0.817   4.059   3.254 -0.6964 -1.0675  0.4181
 8602SOL    HW137439   0.768   4.063   3.172  1.4246 -0.4151 -0.8021
 8602SOL    HW237440   0.843   3.968   3.269 -0.4675 -0.8106  1.5575
 8603SOL     OW37441   4.200   1.449   0.010  0.4899  0.3328 -0.1074
 8603SOL    HW137442   4.158   1.529   0.040  0.0874 -0.4981  1.5971
 8603SOL    HW237443   4.272   1.500  17.728 -0.9514  1.4027 -1.4258
 8604SOL     OW37444   2.703   2.952   7.558  0.0780  0.5149 -0.1059
 8604SOL    HW137445   2.622   2.964   7.607 -1.3529  1.2711 -2.6701
 8604SOL    HW237446   2.670   2.880   7.505 -2.2973  1.4994  0.0249
 8605SOL     OW37447   4.415   4.283   6.587 -0.1627 -0.2536 -0.3809
 8605SOL    HW137448   4.455   4.365   6.618  0.4119 -0.1564 -1.3628
 8605SOL    HW237449   4.411   4.303   6.493 -1.7678 -2.4624 -0.7852
 8606SOL     OW37450   2.610   3.207  17.671 -0.0661  0.9132  0.3927
 8606SOL    HW137451   2.621   3.272  17.603 -0.2950 -0.2003 -0.7074
 8606SOL    HW237452   2.665   3.129  17.659 -0.6877  0.1903  2.0867
 8607SOL     OW37453   0.740   0.454   8.291  0.3424  0.9916  0.7819
 8607SOL    HW137454   0.783   0.535   8.320  2.8253  0.0371 -0.2827
 8607SOL    HW237455   0.689   0.416   8.362 -0.6377 -0.5174 -0.7278
 8608SOL     OW37456   3.597   3.207   4.323 -0.0689 -0.6411 -0.5666
 8608SOL    HW137457   3.622   3.290   4.363  0.0701 -0.4751 -0.9939
 8608SOL    HW237458   3.519   3.188   4.374 -0.5289 -0.1825 -1.0990
 8609SOL     OW37459   2.296   1.947   0.339 -0.3043 -0.0265 -0.5469
 8609SOL    HW137460   2.260   1.959   0.251 -0.0352 -1.0348 -0.7965
 8609SOL    HW237461   2.357   1.878   0.312 -0.0708 -0.1227  0.2128
 8610SOL     OW37462   1.360   1.741   8.429  0.2232  0.3851 -0.2972
 8610SOL    HW137463   1.388   1.823   8.388  0.9745 -0.0725 -0.6945
 8610SOL    HW237464   1.433   1.728   8.490  0.3065 -1.0952 -0.7122
 8611SOL     OW37465   3.276   0.006   9.676 -0.5355 -0.4495 -0.2640
 8611SOL    HW137466   3.264   4.696   9.595  0.8150 -0.6131 -0.3633
 8611SOL    HW237467   3.203   0.068   9.678  0.0743  0.2405  0.5038
 8612SOL     OW37468   3.569   2.919   2.574 -0.1462 -0.2730 -0.5863
 8612SOL    HW137469   3.504   2.905   2.506  0.7611 -2.6776 -0.9729
 8612SOL    HW237470   3.571   3.014   2.569  0.8705 -0.3187 -0.9794
 8613SOL     OW37471   1.816   0.869   7.877  0.3688  0.9722  0.6053
 8613SOL    HW137472   1.775   0.869   7.963 -1.5879  1.2037 -0.3301
 8613SOL    HW237473   1.872   0.947   7.882  0.4741  0.8394  1.5870
 8614SOL     OW37474   2.741   3.632   8.010  0.3121  0.3431  0.4242
 8614SOL    HW137475   2.836   3.634   8.016  0.3244  0.7145  0.0979
 8614SOL    HW237476   2.720   3.712   8.060  1.4918  1.3186 -0.6455
 8615SOL     OW37477   4.036   0.971   8.049  0.1737  0.1758  0.1662
 8615SOL    HW137478   4.083   0.900   8.093  0.3577 -0.0381 -0.3793
 8615SOL    HW237479   4.106   1.014   7.999 -1.2261  2.2746  0.0005
 8616SOL     OW37480   1.647   1.776   3.834 -0.1169  0.2333  0.0087
 8616SOL    HW137481   1.572   1.836   3.833  0.3108  0.7854  1.8289
 8616SOL    HW237482   1.674   1.793   3.924  3.9352  1.8924 -1.5422
 8617SOL     OW37483   1.071   3.206   4.695 -0.0830 -0.2164 -0.5413
 8617SOL    HW137484   1.091   3.138   4.630  0.5528 -1.0987  0.5843
 8617SOL    HW237485   1.033   3.273   4.638 -1.8473 -0.5534  0.2494
 8618SOL     OW37486   2.663   3.766   3.125 -0.0519  0.2519  0.3249
 8618SOL    HW137487   2.672   3.791   3.217  0.7031 -0.5371  0.4690
 8618SOL    HW237488   2.594   3.830   3.113 -1.4963 -1.3801 -0.0236
 8619SOL     OW37489   4.385   2.024   5.452  0.5382  0.1013  0.1556
 8619SOL    HW137490   4.382   1.996   5.543 -1.9057  1.3474  0.4583
 8619SOL    HW237491   4.414   2.115   5.460  1.6235 -0.2341  0.1445
 8620SOL     OW37492   3.096   1.798   0.778 -0.5343 -0.1673  0.0617
 8620SOL    HW137493   3.079   1.892   0.770 -2.8037 -0.4298  1.4661
 8620SOL    HW237494   3.097   1.781   0.873  2.2653 -0.5506 -0.0422
 8621SOL     OW37495   1.024   3.974   7.022 -0.7690  0.3203 -0.2521
 8621SOL    HW137496   0.941   3.970   6.973 -0.6869  0.6831 -0.4141
 8621SOL    HW237497   1.018   4.049   7.080  1.0022  0.1780  0.1087
 8622SOL     OW37498   1.519   1.737   8.652 -0.2551  0.0226 -0.3879
 8622SOL    HW137499   1.599   1.715   8.700 -0.8358  1.4607  1.2341
 8622SOL    HW237500   1.464   1.766   8.724 -0.1994 -2.4800  0.6611
 8623SOL     OW37501   1.262   3.454  10.301 -0.2952 -0.4306  0.5510
 8623SOL    HW137502   1.320   3.524  10.331 -0.8818 -0.8506  2.6527
 8623SOL    HW237503   1.206   3.498  10.238 -0.2561 -1.5144 -0.2358
 8624SOL     OW37504   4.221   1.526   2.109 -0.5236  0.7836  0.0871
 8624SOL    HW137505   4.147   1.482   2.150  0.1531 -1.1523 -0.7917
 8624SOL    HW237506   4.244   1.457   2.047  1.0747  0.9531  0.4955
 8625SOL     OW37507   3.850   1.108   3.096 -0.5328  0.2139  0.1892
 8625SOL    HW137508   3.881   1.197   3.107 -0.5202  0.1426  0.7362
 8625SOL    HW237509   3.847   1.095   3.001  1.3667 -0.6764  0.2352
 8626SOL     OW37510   0.718   3.766  14.532 -0.3809  0.4229  0.5929
 8626SOL    HW137511   0.717   3.691  14.473  2.2884  1.2030 -0.4160
 8626SOL    HW237512   0.625   3.790  14.524 -1.1343 -1.7269  2.6968
 8627SOL     OW37513   3.548   0.302   9.079 -0.2153 -0.4335  0.3134
 8627SOL    HW137514   3.463   0.275   9.045  1.4045 -2.7844 -1.8271
 8627SOL    HW237515   3.567   0.255   9.160 -2.8880 -1.6805  0.2128
 8628SOL     OW37516   3.266   4.633   5.240  0.0625  0.2592 -0.3863
 8628SOL    HW137517   3.308   4.613   5.324  0.5934  1.6911 -0.3054
 8628SOL    HW237518   3.264   4.729   5.238  1.0164  0.2710 -0.8498
 8629SOL     OW37519   1.505   4.003   3.498  0.2029 -0.1675  0.0478
 8629SOL    HW137520   1.567   3.953   3.444 -0.9102 -0.6848 -0.7357
 8629SOL    HW237521   1.548   3.992   3.583 -2.0642  3.5962  1.6910
 8630SOL     OW37522   2.820   1.604   2.156 -0.2605  0.0868 -1.4014
 8630SOL    HW137523   2.779   1.547   2.091 -2.4718  0.4882 -0.3489
 8630SOL    HW237524   2.907   1.569   2.172  0.0837  1.0308 -1.2162
 8631SOL     OW37525   2.303   1.419   8.123 -0.1586 -0.4538  0.6166
 8631SOL    HW137526   2.253   1.348   8.162 -0.5785 -0.6791 -0.3262
 8631SOL    HW237527   2.327   1.463   8.205 -3.1245  1.4911  0.4339
 8632SOL     OW37528   2.701   1.469   9.717  0.4747 -0.3765 -0.2445
 8632SOL    HW137529   2.695   1.382   9.755  0.9757  0.1484  1.0477
 8632SOL    HW237530   2.648   1.521   9.777 -1.4998 -0.7784 -1.6525
 8633SOL     OW37531   0.589   0.307   7.810  0.4492  0.3529  0.0066
 8633SOL    HW137532   0.658   0.249   7.841 -0.4399 -0.6624  0.1033
 8633SOL    HW237533   0.511   0.262   7.843  1.6231 -0.8563  1.1081
 8634SOL     OW37534   1.183   0.787   2.001  0.3685  0.3992 -0.3170
 8634SOL    HW137535   1.132   0.861   1.969 -1.2735 -0.2247  0.8472
 8634SOL    HW237536   1.143   0.759   2.083  2.0664  1.7050  0.9434
 8635SOL     OW37537   2.383   3.329   3.893  0.1745  0.4354 -0.4656
 8635SOL    HW137538   2.309   3.285   3.936  1.1769 -0.5551  0.2349
 8635SOL    HW237539   2.343   3.404   3.847 -2.1383 -0.1934  0.5015
 8636SOL     OW37540   0.746   2.310   3.510 -0.1108 -0.2651 -0.5008
 8636SOL    HW137541   0.690   2.298   3.434 -0.3090  1.4383 -0.6309
 8636SOL    HW237542   0.718   2.249   3.579 -0.7695  0.2598 -0.2938
 8637SOL     OW37543   2.601   3.736   6.165  0.3667 -0.5904 -0.2130
 8637SOL    HW137544   2.531   3.756   6.227  1.1109  3.6025 -0.7807
 8637SOL    HW237545   2.604   3.807   6.101 -1.8403  0.3406  0.7315
 8638SOL     OW37546   3.124   1.422   3.198  0.0335 -0.1884 -0.1285
 8638SOL    HW137547   3.130   1.332   3.232 -0.9823 -0.5393 -0.8580
 8638SOL    HW237548   3.075   1.469   3.265  0.7552  2.5105 -1.5162
 8639SOL     OW37549   3.470   3.168   5.784  0.0025  0.0410 -0.0142
 8639SOL    HW137550   3.408   3.119   5.730  0.5266  0.0791 -0.6487
 8639SOL    HW237551   3.535   3.208   5.727 -0.2117 -1.6769 -1.4306
 8640SOL     OW37552   4.340   4.695   2.704  0.2821 -0.3892  0.5172
 8640SOL    HW137553   4.434   4.674   2.700 -0.0598 -1.4925 -2.2061
 8640SOL    HW237554   4.341   0.020   2.774  0.5904  1.2273 -0.9585
 8641SOL     OW37555   2.462   0.012   7.729  0.0432  0.9216  0.2503
 8641SOL    HW137556   2.387   4.694   7.747  0.6803 -0.1593 -0.5664
 8641SOL    HW237557   2.415   0.095   7.722  0.7874  1.1985 -1.2779
 8642SOL     OW37558   0.056   4.647  12.121  0.3408  0.3644  0.0477
 8642SOL    HW137559   0.097   4.693  12.048 -0.1260 -0.4614 -0.7308
 8642SOL    HW237560   4.730   4.707  12.158 -1.1825 -1.4084  0.2583
 8643SOL     OW37561   1.191   1.805   3.833 -0.6101  0.0692  0.2766
 8643SOL    HW137562   1.235   1.723   3.855 -0.0877 -0.3971 -2.5641
 8643SOL    HW237563   1.217   1.817   3.742 -3.2131 -0.1271 -0.4938
 8644SOL     OW37564   1.605   2.403   0.806 -0.2791 -0.0529  0.2452
 8644SOL    HW137565   1.539   2.425   0.741  2.8943  2.5105 -2.1058
 8644SOL    HW237566   1.673   2.460   0.769  1.9996 -1.4433  2.2621
 8645SOL     OW37567   1.172   0.561   6.477  0.2830  0.2883 -0.0235
 8645SOL    HW137568   1.146   0.653   6.488  2.1592  0.9074 -0.8415
 8645SOL    HW237569   1.116   0.518   6.413 -0.1432  1.6675 -0.5690
 8646SOL     OW37570   4.373   2.475   4.532  0.0785 -0.0112 -0.1011
 8646SOL    HW137571   4.453   2.437   4.497  0.8397  1.5599 -0.0841
 8646SOL    HW237572   4.325   2.400   4.566  0.8309 -0.5449 -0.2263
 8647SOL     OW37573   0.948   4.189   5.140  0.0907  0.2607  0.3627
 8647SOL    HW137574   0.882   4.221   5.202  1.4222  1.0287  1.3579
 8647SOL    HW237575   0.987   4.120   5.194 -0.8036 -0.2054  0.4251
 8648SOL     OW37576   4.393   3.977   7.788  0.0424 -0.1023 -0.4030
 8648SOL    HW137577   4.384   3.906   7.724 -1.3746 -0.4852  0.2136
 8648SOL    HW237578   4.487   3.989   7.800 -0.1841  1.0475  0.2611
 8649SOL     OW37579   2.239   1.145   6.849 -0.1917  0.1005  0.5193
 8649SOL    HW137580   2.220   1.238   6.853 -1.7824 -0.2573  1.0979
 8649SOL    HW237581   2.290   1.123   6.770 -0.6615  2.0828 -0.3430
 8650SOL     OW37582   0.327   3.846   5.566 -0.0295 -0.0943  0.7574
 8650SOL    HW137583   0.330   3.760   5.524  2.1319  0.6335 -0.6069
 8650SOL    HW237584   0.332   3.901   5.488 -3.6720  0.0933  0.6556
 8651SOL     OW37585   4.080   0.592   9.648 -0.3966 -0.5268 -0.0121
 8651SOL    HW137586   4.008   0.636   9.602  1.2423 -0.1422 -2.1850
 8651SOL    HW237587   4.133   0.668   9.674  0.4305  0.2617 -4.0304
 8652SOL     OW37588   3.997   4.415  10.667 -0.4240 -0.1562 -1.0013
 8652SOL    HW137589   4.002   4.494  10.720  1.3970 -2.1416  1.7576
 8652SOL    HW237590   3.936   4.371  10.727 -0.4059  1.1890 -0.0173
 8653SOL     OW37591   4.628   0.049   1.479  0.1023 -0.3711 -0.0250
 8653SOL    HW137592   4.626   0.027   1.386  1.1815  0.1629 -0.1678
 8653SOL    HW237593   4.620   4.703   1.521  0.9760 -0.0686  0.7578
 8654SOL     OW37594   2.042   2.659  17.713  0.6163  0.1155 -0.1882
 8654SOL    HW137595   2.020   2.736  17.661  2.0896  1.3477  1.0359
 8654SOL    HW237596   2.008   2.593  17.653 -2.3852  1.3647  0.1192
 8655SOL     OW37597   1.430   3.680   7.763 -0.1686  0.7072 -0.4285
 8655SOL    HW137598   1.358   3.683   7.826  0.9254  0.8705  0.7823
 8655SOL    HW237599   1.497   3.641   7.818 -0.9852  1.0857  0.8395
 8656SOL     OW37600   2.892   2.993   5.110  0.2569  0.7449  0.0481
 8656SOL    HW137601   2.854   3.060   5.053 -0.7141 -1.7402 -2.2402
 8656SOL    HW237602   2.921   3.048   5.183  3.0760 -2.3817  1.2447
 8657SOL     OW37603   2.639   4.093   1.548 -0.4203  0.2664  0.0799
 8657SOL    HW137604   2.609   4.060   1.632 -2.9108  0.3579 -0.7642
 8657SOL    HW237605   2.647   4.015   1.493 -0.6992  1.1658 -1.2571
 8658SOL     OW37606   1.308   2.116   6.082  0.1023  0.4395  0.5418
 8658SOL    HW137607   1.248   2.048   6.052  2.4941 -1.5336  0.2578
 8658SOL    HW237608   1.386   2.071   6.115 -2.2543 -1.7284  3.1348
 8659SOL     OW37609   3.387   0.209   6.253  0.6439  0.0624  0.5244
 8659SOL    HW137610   3.473   0.252   6.249 -0.1614  1.4749 -1.3640
 8659SOL    HW237611   3.421   0.120   6.243  1.1140  0.0911  1.8374
 8660SOL     OW37612   4.138   4.573  12.367 -0.1422 -0.1157 -0.0647
 8660SOL    HW137613   4.149   4.506  12.434  0.4991  0.4578  0.4034
 8660SOL    HW237614   4.093   4.529  12.295 -0.7467  0.4364 -0.0265
 8661SOL     OW37615   4.415   0.279   8.992  0.4521  0.3722 -0.0733
 8661SOL    HW137616   4.494   0.320   9.025 -0.7027  2.2529  0.3865
 8661SOL    HW237617   4.349   0.329   9.041 -0.3832 -0.6657 -0.1434
 8662SOL     OW37618   2.519   0.314   5.735 -0.2207 -0.0433 -0.4993
 8662SOL    HW137619   2.456   0.378   5.702  2.1607  1.4453 -2.1141
 8662SOL    HW237620   2.576   0.370   5.788 -0.0656  0.5618 -1.3017
 8663SOL     OW37621   3.764   4.359  13.540  0.0350 -0.3488  0.3131
 8663SOL    HW137622   3.743   4.372  13.447  2.4405  0.2844 -0.1335
 8663SOL    HW237623   3.680   4.346  13.584  0.2310 -1.1346  0.4546
 8664SOL     OW37624   1.757   0.523  10.852  0.0884 -0.4664  0.2696
 8664SOL    HW137625   1.808   0.600  10.879 -0.6851 -0.3494  1.4098
 8664SOL    HW237626   1.822   0.457  10.876 -0.8802 -0.7394  2.1197
 8665SOL     OW37627   4.676   0.685  12.364 -0.5721 -0.6689  0.3631
 8665SOL    HW137628   0.007   0.734  12.407 -1.0313  2.2581 -2.1773
 8665SOL    HW237629   4.653   0.620  12.431  0.3878  0.0595  1.4051
 8666SOL     OW37630   3.599   4.450   4.160  0.5085  0.5067  0.3766
 8666SOL    HW137631   3.571   4.535   4.126  1.9294  0.5429 -0.6983
 8666SOL    HW237632   3.585   4.469   4.252 -1.0400 -0.0180  0.2554
 8667SOL     OW37633   3.504   2.268  11.096  0.0918 -0.1294 -0.1034
 8667SOL    HW137634   3.584   2.228  11.131 -0.2866  0.2979  1.2610
 8667SOL    HW237635   3.530   2.275  11.004  0.0389 -2.6410 -0.3016
 8668SOL     OW37636   3.962   3.763   5.753  0.1680  0.2004 -0.4748
 8668SOL    HW137637   4.018   3.750   5.830  0.0961 -0.9518 -0.6136
 8668SOL    HW237638   3.913   3.842   5.775  1.0862 -0.0678  2.6036
 8669SOL     OW37639   3.740   1.855   0.370 -0.0240  0.7340 -0.2111
 8669SOL    HW137640   3.717   1.766   0.396  1.4288  1.0967  2.3170
 8669SOL    HW237641   3.677   1.909   0.418 -0.9930  0.8315 -1.6031
 8670SOL     OW37642   1.027   4.128  12.395  0.6137  0.7698  0.7883
 8670SOL    HW137643   1.111   4.113  12.351  0.5955 -1.2690  1.4209
 8670SOL    HW237644   1.052   4.172  12.477  3.9062 -0.5666  0.5318
 8671SOL     OW37645   2.912   4.396   4.614 -0.4217  0.2087 -0.0550
 8671SOL    HW137646   2.870   4.323   4.569  0.1500  0.6162 -1.2395
 8671SOL    HW237647   2.888   4.386   4.706  0.2340 -2.5184 -0.1524
 8672SOL     OW37648   2.063   1.657  14.969  0.1384 -0.3284  0.5155
 8672SOL    HW137649   2.120   1.582  14.984  1.7395  0.8706  0.4595
 8672SOL    HW237650   1.972   1.630  14.964  0.2215 -0.3297 -0.8896
 8673SOL     OW37651   1.710   1.157   7.226  0.4281 -0.3806  0.2225
 8673SOL    HW137652   1.765   1.082   7.200 -0.2189 -0.8903  0.3263
 8673SOL    HW237653   1.693   1.144   7.319 -0.6033 -0.7557 -0.0266
 8674SOL     OW37654   4.115   4.225   6.426  0.6819 -0.3594  0.3187
 8674SOL    HW137655   4.181   4.193   6.365 -1.5350 -1.4561 -1.5008
 8674SOL    HW237656   4.147   4.203   6.514  0.6284  0.3260  0.5149
 8675SOL     OW37657   1.220   0.518  16.737 -0.3635 -0.4017  0.6054
 8675SOL    HW137658   1.261   0.442  16.778  0.8263 -0.5213 -0.7942
 8675SOL    HW237659   1.275   0.586  16.775  0.9244 -0.4409 -1.1638
 8676SOL     OW37660   1.737   1.954   9.174 -0.0103  0.4345  0.3553
 8676SOL    HW137661   1.665   1.914   9.222 -0.1805  0.9221  0.5153
 8676SOL    HW237662   1.812   1.915   9.219  1.4528  2.6307 -0.1528
 8677SOL     OW37663   3.600   2.570   7.568  0.0709 -0.2800  0.5464
 8677SOL    HW137664   3.521   2.588   7.619 -1.2064 -3.0325 -0.4737
 8677SOL    HW237665   3.660   2.541   7.636  1.1408  1.6740  0.4607
 8678SOL     OW37666   0.301   2.163  15.718  0.2067 -0.1522  0.0986
 8678SOL    HW137667   0.299   2.106  15.795 -1.9583  0.2564  0.3576
 8678SOL    HW237668   0.323   2.249  15.752  0.5175  0.3581 -1.4263
 8679SOL     OW37669   2.551   2.036   0.207  0.1649  0.0966 -0.0921
 8679SOL    HW137670   2.501   2.023   0.288 -0.2002 -1.4470 -0.5637
 8679SOL    HW237671   2.481   2.078   0.159 -1.0965 -0.8895  0.8820
 8680SOL     OW37672   1.691   3.963   4.751  0.2727 -0.2964  0.0268
 8680SOL    HW137673   1.766   4.022   4.747 -0.8492  1.0691 -0.7668
 8680SOL    HW237674   1.739   3.891   4.793  0.9167  1.8852  3.0647
 8681SOL     OW37675   0.472   3.085   6.847  0.0653  0.0955  0.3363
 8681SOL    HW137676   0.453   3.042   6.763  3.0727 -0.0397 -0.2599
 8681SOL    HW237677   0.555   3.128   6.827 -1.2536  1.5576 -2.0489
 8682SOL     OW37678   1.517   1.920   9.719  0.0268  0.2788  0.4638
 8682SOL    HW137679   1.533   1.833   9.683 -0.4632 -0.5724  2.2955
 8682SOL    HW237680   1.545   1.909   9.810  1.5166 -4.4367 -0.5259
 8683SOL     OW37681   4.529   0.536  12.516 -0.2875  0.1813 -0.4624
 8683SOL    HW137682   4.453   0.531  12.575  1.3371  0.3206  1.6626
 8683SOL    HW237683   4.558   0.447  12.535  0.5918  0.5720  0.0006
 8684SOL     OW37684   2.423   3.237  11.260  0.0583  0.2656 -0.0549
 8684SOL    HW137685   2.485   3.208  11.193  1.0572  1.3732  0.3938
 8684SOL    HW237686   2.384   3.316  11.222 -2.9826 -1.7263 -1.1021
 8685SOL     OW37687   2.034   2.368   6.508  0.0235  0.0914 -0.3515
 8685SOL    HW137688   2.107   2.310   6.531  0.7230  1.1905  0.2007
 8685SOL    HW237689   2.051   2.448   6.558  2.6953 -0.6189 -0.1663
 8686SOL     OW37690   0.143   2.676   7.910 -0.2594 -0.2563  0.2444
 8686SOL    HW137691   0.068   2.635   7.867 -0.9265  1.1643  0.0833
 8686SOL    HW237692   0.099   2.747   7.956  0.7394 -0.4469  1.5016
 8687SOL     OW37693   2.553   0.504   4.908 -0.1712 -0.0110  0.0592
 8687SOL    HW137694   2.602   0.527   4.829 -1.4174 -0.6395 -0.8973
 8687SOL    HW237695   2.547   0.590   4.949  2.5434 -0.3481  1.1316
 8688SOL     OW37696   3.186   4.340   9.692 -0.3193  0.0696 -0.5801
 8688SOL    HW137697   3.133   4.417   9.672  1.0006  1.3242  0.7621
 8688SOL    HW237698   3.219   4.364   9.779 -1.3593 -0.7705  0.0487
 8689SOL     OW37699   1.627   3.559  10.827  0.1645 -0.5085 -0.0194
 8689SOL    HW137700   1.671   3.495  10.771  0.1606  0.4345 -1.0999
 8689SOL    HW237701   1.562   3.506  10.873  0.9101 -1.1140  0.3424
 8690SOL     OW37702   4.470   3.004   8.072  0.1485  0.1964  0.3533
 8690SOL    HW137703   4.383   3.003   8.113  0.2223  1.3222  0.5271
 8690SOL    HW237704   4.528   3.000   8.147  1.8090 -1.2554 -1.0072
 8691SOL     OW37705   2.894   0.867   6.652 -0.1760  0.4419  0.0136
 8691SOL    HW137706   2.924   0.848   6.741  0.3998 -2.7631 -0.8563
 8691SOL    HW237707   2.859   0.781   6.629  0.4710  0.4338 -0.9717
 8692SOL     OW37708   0.535   1.657   0.652 -0.9376  0.1757  0.2406
 8692SOL    HW137709   0.441   1.675   0.656 -0.6155  1.8119  0.5733
 8692SOL    HW237710   0.561   1.736   0.605 -0.5056  1.6318  2.9404
 8693SOL     OW37711   0.950   0.066   5.360 -0.1249 -0.4754  0.0097
 8693SOL    HW137712   0.954   0.113   5.277  3.3074 -3.1136 -1.3227
 8693SOL    HW237713   0.980   4.720   5.328  0.4852 -0.8062  1.4418
 8694SOL     OW37714   1.923   0.083   6.011  0.4353  0.1873 -0.0461
 8694SOL    HW137715   1.935   0.015   5.945  1.6834 -0.7325  1.1423
 8694SOL    HW237716   1.980   0.049   6.079  1.6342 -2.3359 -2.3235
 8695SOL     OW37717   3.694   0.362  10.315 -0.3383  0.3191 -0.1328
 8695SOL    HW137718   3.616   0.375  10.368 -1.4322  3.0758 -2.4004
 8695SOL    HW237719   3.765   0.416  10.350  0.7968 -1.0524 -0.2987
 8696SOL     OW37720   2.027   2.415   0.477  0.2174  0.3754  0.1556
 8696SOL    HW137721   1.956   2.403   0.414 -1.0630 -0.6144  1.7908
 8696SOL    HW237722   2.004   2.359   0.551 -1.0405  0.7001  0.0029
 8697SOL     OW37723   4.419   0.214   7.367 -0.2494 -0.0860 -0.0624
 8697SOL    HW137724   4.345   0.180   7.418 -0.3105  0.2262  0.0569
 8697SOL    HW237725   4.496   0.186   7.416 -0.5236  0.4465  0.6754
 8698SOL     OW37726   0.695   0.379   1.935  0.6852  0.0442  0.4624
 8698SOL    HW137727   0.735   0.464   1.955 -2.2159  1.2314  1.1650
 8698SOL    HW237728   0.633   0.364   2.006  0.4696 -2.2406 -0.2397
 8699SOL     OW37729   3.624   0.336   4.428  0.5745 -0.2015 -0.7086
 8699SOL    HW137730   3.648   0.419   4.386 -0.3797  0.2078 -0.4328
 8699SOL    HW237731   3.654   0.352   4.517 -0.1936 -3.2106  0.0965
 8700SOL     OW37732   4.659   4.075   7.670 -0.4240 -0.2126  0.5466
 8700SOL    HW137733   4.671   4.081   7.576  0.5635  1.9066  0.8141
 8700SOL    HW237734   4.659   3.979   7.676 -2.4256 -0.2437  0.1492
 8701SOL     OW37735   3.193   4.029   8.646 -0.3003  0.4216  0.0885
 8701SOL    HW137736   3.244   4.110   8.645  2.8655 -1.5926  0.5662
 8701SOL    HW237737   3.150   4.027   8.731 -0.6771  1.5160 -0.0737
 8702SOL     OW37738   4.122   2.539   1.065  0.0394 -0.1894 -0.3248
 8702SOL    HW137739   4.138   2.501   0.979 -0.0247 -1.1088  0.0668
 8702SOL    HW237740   4.143   2.632   1.057 -0.1693 -0.0535  0.6240
 8703SOL     OW37741   2.398   2.108  15.114  0.0265 -0.3581  0.2758
 8703SOL    HW137742   2.406   2.124  15.020 -0.6895 -0.6341  0.1678
 8703SOL    HW237743   2.345   2.029  15.110 -0.0340 -0.3311  0.5421
 8704SOL     OW37744   3.414   1.821   5.013 -0.1609  0.1076 -0.2750
 8704SOL    HW137745   3.333   1.784   4.979 -0.9825 -0.1171  1.9564
 8704SOL    HW237746   3.441   1.752   5.073 -1.8322  0.3953  0.7919
 8705SOL     OW37747   3.670   1.802   8.267 -0.4374 -0.4630 -0.1823
 8705SOL    HW137748   3.659   1.836   8.356  1.6552  0.7306 -0.3780
 8705SOL    HW237749   3.733   1.732   8.285 -0.1277 -0.0688  0.2787
 8706SOL     OW37750   3.723   0.611   7.368  0.2887 -0.1119  0.1638
 8706SOL    HW137751   3.690   0.549   7.302 -3.0886  0.7721  1.0507
 8706SOL    HW237752   3.687   0.691   7.331  0.3044  0.0276  0.4568
 8707SOL     OW37753   2.944   3.604   7.289 -0.1057  0.2780  0.6457
 8707SOL    HW137754   3.009   3.559   7.344  0.2835 -0.1755 -0.1768
 8707SOL    HW237755   2.978   3.693   7.283 -2.2113  1.0207 -0.2485
 8708SOL     OW37756   3.082   0.451  16.773 -0.0417  0.3060 -0.0022
 8708SOL    HW137757   3.001   0.499  16.758 -0.4557 -0.2265  0.5275
 8708SOL    HW237758   3.083   0.463  16.868 -0.3096  0.7229 -0.0514
 8709SOL     OW37759   2.665   1.503   9.155  0.3447 -0.0056 -0.5896
 8709SOL    HW137760   2.633   1.542   9.236  0.5503 -2.5848  0.7442
 8709SOL    HW237761   2.575   1.492   9.125  0.3649 -1.3655 -0.1576
 8710SOL     OW37762   1.883   1.662   8.166 -0.2367  0.0624 -0.6446
 8710SOL    HW137763   1.944   1.623   8.103  1.3792 -0.0821  1.0115
 8710SOL    HW237764   1.952   1.695   8.224 -0.5696 -0.0458 -0.1937
 8711SOL     OW37765   4.232   3.669   3.564 -0.0810 -0.3207  0.5240
 8711SOL    HW137766   4.297   3.724   3.521 -0.2591 -0.7141 -0.2430
 8711SOL    HW237767   4.260   3.578   3.555  1.0805 -0.1046  1.9940
 8712SOL     OW37768   1.441   3.555   7.298 -0.2571 -0.1109  0.2252
 8712SOL    HW137769   1.475   3.468   7.275 -0.1988 -0.2118  0.6938
 8712SOL    HW237770   1.518   3.599   7.335 -0.0359  1.1186 -1.6761
 8713SOL     OW37771   3.289   0.352   2.773 -0.9908 -0.0580  0.1612
 8713SOL    HW137772   3.224   0.288   2.803 -1.6088  0.2629 -0.4595
 8713SOL    HW237773   3.264   0.427   2.825 -0.8088  0.6167 -0.7199
 8714SOL     OW37774   1.758   3.126   8.710  0.2320 -0.1473 -0.6244
 8714SOL    HW137775   1.720   3.054   8.660 -2.0615 -1.5456  3.1408
 8714SOL    HW237776   1.727   3.112   8.799  1.2863 -0.8583 -0.3802
 8715SOL     OW37777   2.739   4.305  17.113  0.2499 -0.0134  0.1684
 8715SOL    HW137778   2.775   4.268  17.193 -1.6389 -0.4816  0.7988
 8715SOL    HW237779   2.810   4.367  17.097 -2.4504  2.9020 -0.4756
 8716SOL     OW37780   0.692   2.258  17.028 -0.3663  0.3542 -0.6733
 8716SOL    HW137781   0.692   2.353  17.038  0.0232  0.2388  0.4139
 8716SOL    HW237782   0.731   2.223  17.108 -0.3852  2.8851  0.4287
 8717SOL     OW37783   0.231   4.069   0.665 -0.4133 -0.0587  0.2237
 8717SOL    HW137784   0.197   4.001   0.608  0.2234 -0.2459  0.0654
 8717SOL    HW237785   0.166   4.137   0.651 -0.9646 -0.7889 -0.7010
 8718SOL     OW37786   3.076   0.183   9.645  0.0808  0.7074  0.0206
 8718SOL    HW137787   3.075   0.278   9.651  2.1967  0.7248 -0.1453
 8718SOL    HW237788   2.982   0.172   9.630  0.4913 -0.3773 -1.7752
 8719SOL     OW37789   2.966   2.343   2.209  0.5169 -0.7324 -0.0039
 8719SOL    HW137790   3.017   2.297   2.143  0.1980 -0.1317 -0.6688
 8719SOL    HW237791   3.029   2.414   2.217 -2.1319  1.4339  1.8285
 8720SOL     OW37792   2.042   2.188   4.703  0.2662 -0.4440 -0.0829
 8720SOL    HW137793   2.038   2.284   4.701 -1.7860 -0.4930  1.2422
 8720SOL    HW237794   2.022   2.169   4.612 -0.1741  0.9241 -0.2728
 8721SOL     OW37795   3.823   3.683   6.747 -0.5264  0.0416 -0.3238
 8721SOL    HW137796   3.852   3.657   6.834 -0.9405  3.0330  0.7138
 8721SOL    HW237797   3.729   3.692   6.763 -0.5461  1.4705 -1.2372
 8722SOL     OW37798   1.001   4.032  11.665  0.1168  0.1422  0.1432
 8722SOL    HW137799   0.988   4.114  11.712  2.3938  1.4593 -1.4995
 8722SOL    HW237800   1.065   4.056  11.597  0.6996  0.0580  0.6663
 8723SOL     OW37801   3.296   0.040   2.955 -0.3033 -0.2696 -0.1987
 8723SOL    HW137802   3.315   0.073   3.043  0.4716 -0.5544 -0.2542
 8723SOL    HW237803   3.387   0.034   2.924 -0.5863 -2.3425 -0.6091
 8724SOL     OW37804   2.957   2.326   5.942  0.8080 -0.4371  0.3585
 8724SOL    HW137805   3.035   2.380   5.953 -0.1876  0.7621  1.5216
 8724SOL    HW237806   2.968   2.257   6.007 -1.5946 -1.0393  0.1218
 8725SOL     OW37807   1.627   3.079   7.028  0.2719  0.0463 -0.1701
 8725SOL    HW137808   1.710   3.071   7.074  0.6688  3.6494 -0.2713
 8725SOL    HW237809   1.645   3.154   6.972  1.7407  0.0787  0.3681
 8726SOL     OW37810   0.212   1.523   3.720  0.4317  0.1446 -0.8889
 8726SOL    HW137811   0.219   1.600   3.777 -0.2236 -0.3005 -0.1990
 8726SOL    HW237812   0.238   1.447   3.772 -0.0680  0.3431 -0.3453
 8727SOL     OW37813   2.465   0.193   2.820 -0.0419 -0.5228 -0.2044
 8727SOL    HW137814   2.486   0.273   2.867 -1.6212  0.6093 -1.4478
 8727SOL    HW237815   2.517   0.195   2.740  1.7258  0.3692  0.9753
 8728SOL     OW37816   3.007   0.559   7.426 -0.2108 -0.1932 -0.2444
 8728SOL    HW137817   3.002   0.548   7.331 -0.7223 -1.1292 -0.1141
 8728SOL    HW237818   2.913   0.566   7.440  0.0820  0.7423  1.2409
 8729SOL     OW37819   2.301   0.379   1.338 -0.5789  0.1415 -0.0674
 8729SOL    HW137820   2.374   0.403   1.281  0.2754  0.9492  1.3750
 8729SOL    HW237821   2.339   0.389   1.425 -0.8991 -2.0222  0.3164
 8730SOL     OW37822   2.522   2.517   2.169 -1.0475  0.0886  0.2540
 8730SOL    HW137823   2.457   2.585   2.155 -0.2808  0.8468  0.3949
 8730SOL    HW237824   2.594   2.565   2.210 -0.9288  0.4327 -0.3665
 8731SOL     OW37825   0.195   0.389   7.365  0.3317 -0.4577 -0.2657
 8731SOL    HW137826   0.276   0.340   7.351  0.7331  0.0676  0.2502
 8731SOL    HW237827   0.211   0.467   7.314 -1.6484  0.5034  0.5599
 8732SOL     OW37828   4.099   0.288   2.754  0.4699  0.2264  0.6396
 8732SOL    HW137829   4.137   0.310   2.668 -2.4190 -0.8025 -0.8990
 8732SOL    HW237830   4.009   0.318   2.745  0.0891 -1.3092 -0.7743
 8733SOL     OW37831   2.170   0.660   4.143 -0.4221  0.4440  0.1778
 8733SOL    HW137832   2.163   0.607   4.222  0.2111 -0.3339 -0.2905
 8733SOL    HW237833   2.202   0.591   4.084 -0.9062 -1.2686  1.9201
 8734SOL     OW37834   0.831   0.175   4.657  0.1866 -0.7240 -0.2364
 8734SOL    HW137835   0.911   0.227   4.656  0.0373 -0.4916 -0.0723
 8734SOL    HW237836   0.765   0.238   4.686  1.4672  1.4186 -2.0840
 8735SOL     OW37837   0.375   2.454   4.565 -0.9970 -0.0683 -0.2923
 8735SOL    HW137838   0.293   2.483   4.525 -0.4412  1.7094 -0.1328
 8735SOL    HW237839   0.380   2.371   4.518  1.2496  0.5241 -1.0986
 8736SOL     OW37840   0.342   2.387   5.035  0.0195 -0.1645  0.4493
 8736SOL    HW137841   0.374   2.359   4.950  1.1070  0.8648  0.5243
 8736SOL    HW237842   0.410   2.375   5.101  0.2260  0.6381  0.3891
 8737SOL     OW37843   4.033   1.832  15.751  0.5545  0.1588 -0.2678
 8737SOL    HW137844   4.047   1.774  15.677 -0.9035  0.0612 -0.4727
 8737SOL    HW237845   3.942   1.808  15.771  0.7144  1.5194  2.1877
 8738SOL     OW37846   4.591   2.733  15.604  0.3316 -0.4489  0.3814
 8738SOL    HW137847   4.617   2.680  15.680 -0.1309 -1.8477 -0.4469
 8738SOL    HW237848   4.610   2.817  15.646  0.6016  0.5848 -1.8411
 8739SOL     OW37849   1.131   1.857  14.979 -0.4353  0.1758  1.0916
 8739SOL    HW137850   1.212   1.902  15.002  0.4657 -1.8923  1.9971
 8739SOL    HW237851   1.114   1.865  14.885 -0.4138  2.5905  1.3015
 8740SOL     OW37852   3.873   1.056  16.113 -0.4442 -0.5761 -0.3584
 8740SOL    HW137853   3.948   1.055  16.053 -1.1736 -2.0002 -1.2494
 8740SOL    HW237854   3.880   0.974  16.163  0.6084 -1.0012 -1.2085
 8741SOL     OW37855   3.806   1.721  13.804  0.1890 -0.6220 -0.3295
 8741SOL    HW137856   3.770   1.634  13.818 -1.4563  0.4540  2.2180
 8741SOL    HW237857   3.807   1.752  13.895 -2.2154  1.6193 -1.0585
 8742SOL     OW37858   1.377   0.193  13.813 -0.1612 -0.4639 -0.1167
 8742SOL    HW137859   1.338   0.268  13.859 -0.3963 -0.6882  0.0447
 8742SOL    HW237860   1.341   0.119  13.861  0.3561  0.0479  1.0696
 8743SOL     OW37861   0.739   0.969   6.881  0.4689 -0.2113  0.5560
 8743SOL    HW137862   0.669   1.028   6.909 -0.8688 -2.1873  1.4111
 8743SOL    HW237863   0.821   1.001   6.917  0.1153 -1.6635  2.6215
 8744SOL     OW37864   0.632   1.475  15.017 -0.3578  0.5134  0.4352
 8744SOL    HW137865   0.707   1.536  15.010  1.6250 -2.1626 -1.5299
 8744SOL    HW237866   0.653   1.441  15.104 -1.4155 -0.7637  0.1705
 8745SOL     OW37867   2.684   0.755   5.688  0.5393 -0.5573  0.2605
 8745SOL    HW137868   2.678   0.785   5.779  0.0039  0.2093 -0.0336
 8745SOL    HW237869   2.683   0.830   5.629 -0.5795 -0.8213 -0.0560
 8746SOL     OW37870   2.111   1.234   1.362  0.2786  0.3517 -0.0969
 8746SOL    HW137871   2.143   1.278   1.283 -0.0255 -0.4862 -0.6804
 8746SOL    HW237872   2.150   1.147   1.353 -0.8673 -0.1415 -0.3740
 8747SOL     OW37873   3.650   0.297  10.861 -0.0511  0.3223 -0.2715
 8747SOL    HW137874   3.667   0.385  10.895  0.6418 -0.0361  0.3074
 8747SOL    HW237875   3.686   0.309  10.773 -1.1278  1.2911 -0.5745
 8748SOL     OW37876   3.844   4.626   2.678  0.4325 -0.2529 -0.3800
 8748SOL    HW137877   3.927   4.665   2.650 -0.8398  1.7009 -1.4670
 8748SOL    HW237878   3.865   4.536   2.702 -1.4457 -0.7093 -0.4017
 8749SOL     OW37879   0.808   3.025   4.320 -0.3047  0.3188  0.8490
 8749SOL    HW137880   0.868   2.951   4.312  1.0583  1.5512 -0.0984
 8749SOL    HW237881   0.859   3.095   4.281  1.0182 -1.0097  0.1904
 8750SOL     OW37882   2.646   2.781  12.216 -0.7020 -0.2820 -0.1603
 8750SOL    HW137883   2.715   2.783  12.150  1.7493 -0.4187  2.3944
 8750SOL    HW237884   2.575   2.755  12.158 -1.7104 -0.1856  1.0311
 8751SOL     OW37885   0.746   1.891   3.834 -0.1699 -0.1083 -0.2087
 8751SOL    HW137886   0.691   1.836   3.779 -2.1673  0.9628  0.6958
 8751SOL    HW237887   0.786   1.832   3.898 -0.7148  1.6343  1.7306
 8752SOL     OW37888   1.568   4.318   6.591 -0.4271  0.2409  0.7871
 8752SOL    HW137889   1.572   4.223   6.607  0.8865  0.5725  2.3722
 8752SOL    HW237890   1.642   4.351   6.641 -1.4193  3.1289  0.3124
 8753SOL     OW37891   1.103   1.410  11.440  0.4704 -0.1382  0.8776
 8753SOL    HW137892   1.026   1.450  11.480  1.8396  2.0767  1.3557
 8753SOL    HW237893   1.137   1.347  11.504 -0.4107 -2.0498 -0.5347
 8754SOL     OW37894   1.877   0.308   2.926 -0.4413 -0.2531 -0.2940
 8754SOL    HW137895   1.788   0.344   2.925 -0.8621 -1.2912 -0.5353
 8754SOL    HW237896   1.917   0.342   2.846  0.5300  0.6492  0.5836
 8755SOL     OW37897   3.209   3.400  17.665  0.2142  0.0524  0.4155
 8755SOL    HW137898   3.115   3.419  17.659 -0.1034 -1.1081  1.7424
 8755SOL    HW237899   3.217   3.399   0.006 -0.2975  0.3944  0.4624
 8756SOL     OW37900   2.514   2.981   5.962 -0.5025  0.3488 -0.0925
 8756SOL    HW137901   2.561   3.045   5.909  0.1545 -0.5417 -0.5876
 8756SOL    HW237902   2.425   3.016   5.970 -0.1441  1.4447 -1.1551
 8757SOL     OW37903   0.552   0.164   5.317 -0.6282 -0.3469 -0.3566
 8757SOL    HW137904   0.458   0.178   5.309 -0.4629  0.1643 -1.4108
 8757SOL    HW237905   0.573   0.157   5.224 -0.8855  5.0050 -0.8220
 8758SOL     OW37906   0.580   2.425   6.614  0.3218  0.2580  0.2414
 8758SOL    HW137907   0.541   2.457   6.533 -2.1857 -1.8794  0.6092
 8758SOL    HW237908   0.507   2.386   6.663  1.2961  0.1469  1.6202
 8759SOL     OW37909   3.376   3.074  17.574 -0.1354  0.3136 -0.3026
 8759SOL    HW137910   3.344   3.102  17.660  1.0055  0.2549  0.1385
 8759SOL    HW237911   3.466   3.108  17.579 -0.4881  1.3052 -0.6862
 8760SOL     OW37912   2.270   1.241   3.624  0.3120 -0.1905  0.1154
 8760SOL    HW137913   2.295   1.160   3.669 -1.4698 -2.3207 -2.7367
 8760SOL    HW237914   2.339   1.297   3.659  0.6062 -1.2412  1.2524
 8761SOL     OW37915   1.504   2.762  14.261 -0.3589 -0.4019  0.0741
 8761SOL    HW137916   1.442   2.821  14.219  1.0559  2.6960  2.3200
 8761SOL    HW237917   1.504   2.692  14.196 -1.1934 -1.3576  1.0947
 8762SOL     OW37918   0.090   0.578   4.336 -0.2045 -0.1732 -0.0757
 8762SOL    HW137919   0.150   0.636   4.291 -0.8152 -0.8657 -1.7972
 8762SOL    HW237920   0.011   0.566   4.282 -0.0716  1.4653 -0.6405
 8763SOL     OW37921   0.360   4.375   6.428 -0.5494 -0.2157  0.1200
 8763SOL    HW137922   0.386   4.295   6.382  1.1324 -0.8890  2.2698
 8763SOL    HW237923   0.338   4.331   6.510  0.9227 -2.2124 -0.5506
 8764SOL     OW37924   2.368   2.743   2.756 -0.0238  0.1837 -0.1445
 8764SOL    HW137925   2.461   2.723   2.763  0.3095  1.0741 -1.8874
 8764SOL    HW237926   2.331   2.674   2.701  0.6244 -0.5870  0.3977
 8765SOL     OW37927   3.971   0.832   4.482  0.5234  0.5076 -0.0719
 8765SOL    HW137928   3.900   0.795   4.534  1.0994  0.9738  1.0253
 8765SOL    HW237929   3.921   0.861   4.405  2.3662  2.2636 -0.5964
 8766SOL     OW37930   2.339   0.886  14.419  0.2852  0.0088 -0.2467
 8766SOL    HW137931   2.431   0.912  14.424  0.0555  0.3527  2.1937
 8766SOL    HW237932   2.299   0.973  14.430  1.8944  0.8082 -0.6080
 8767SOL     OW37933   3.149   4.737   5.772 -0.8087  0.0099 -0.3701
 8767SOL    HW137934   3.179   4.676   5.705  0.8112  0.1425  0.2283
 8767SOL    HW237935   3.213   4.727   5.843 -0.0544  1.4335 -0.8408
 8768SOL     OW37936   3.512   2.324   6.515  0.6486 -0.3017  0.0888
 8768SOL    HW137937   3.519   2.231   6.536  0.3741 -0.6497 -1.3688
 8768SOL    HW237938   3.581   2.371   6.561  0.3761  0.6570 -0.4607
 8769SOL     OW37939   0.696   1.444  14.102  0.8009  0.1654  1.1373
 8769SOL    HW137940   0.715   1.360  14.060 -2.5637  0.1371 -0.3290
 8769SOL    HW237941   0.602   1.458  14.098  0.5554 -1.9403 -0.3848
 8770SOL     OW37942   0.929   3.981   6.649  0.0246 -0.0078 -0.2627
 8770SOL    HW137943   0.878   3.995   6.728  1.4534  1.9957  0.2962
 8770SOL    HW237944   0.858   3.987   6.586 -0.3971 -0.8219  0.1357
 8771SOL     OW37945   4.403   0.562   4.070 -0.3684  0.1491  0.4215
 8771SOL    HW137946   4.394   0.467   4.067 -0.7568  0.2232 -0.8782
 8771SOL    HW237947   4.352   0.591   4.145 -0.6753 -0.6497  0.5249
 8772SOL     OW37948   1.253   4.399   7.851 -1.0648 -0.0916 -0.0845
 8772SOL    HW137949   1.171   4.387   7.899  0.1396  1.1949  2.2870
 8772SOL    HW237950   1.265   4.493   7.864 -2.4184 -0.0400  0.7525
 8773SOL     OW37951   1.569   2.166  12.299  0.7376 -0.2429 -0.3491
 8773SOL    HW137952   1.659   2.134  12.308  0.6435 -0.6414 -0.8540
 8773SOL    HW237953   1.560   2.153  12.205 -0.9355 -3.3190  0.2307
 8774SOL     OW37954   2.239   2.838   1.211 -0.1625 -0.0752  0.2137
 8774SOL    HW137955   2.245   2.746   1.237 -0.8367  0.0585  0.8610
 8774SOL    HW237956   2.151   2.836   1.173 -1.5064  3.2745  3.1740
 8775SOL     OW37957   2.776   4.652  14.489 -0.1162  0.3954 -0.3601
 8775SOL    HW137958   2.802   4.664  14.580  0.0697 -0.3794 -0.3171
 8775SOL    HW237959   2.778   0.006  14.466 -0.0415  0.6429  0.6292
 8776SOL     OW37960   4.268   1.594  12.629  0.8261  0.4859  0.1917
 8776SOL    HW137961   4.235   1.652  12.561  1.5265  1.2141  0.4719
 8776SOL    HW237962   4.220   1.513  12.615  1.2035 -0.1442  2.4783
 8777SOL     OW37963   0.566   3.262   5.107 -0.4784  0.3319 -0.0869
 8777SOL    HW137964   0.494   3.276   5.045  0.4143 -0.0318 -1.1950
 8777SOL    HW237965   0.633   3.252   5.040  0.6809 -1.7219  1.4094
 8778SOL     OW37966   1.153   4.034   7.306  0.3470 -0.2124 -0.1636
 8778SOL    HW137967   1.112   4.114   7.273 -0.7940 -0.7822 -0.1333
 8778SOL    HW237968   1.239   4.055   7.269  0.3167  1.8218  0.9599
 8779SOL     OW37969   1.667   0.131  16.562  0.3132 -0.1343 -0.3878
 8779SOL    HW137970   1.686   0.161  16.651  1.3709 -2.4877  0.1805
 8779SOL    HW237971   1.644   0.039  16.578 -0.7130  0.3980  1.1199
 8780SOL     OW37972   1.753   4.702   2.278  0.1564 -0.8569 -0.3542
 8780SOL    HW137973   1.788   0.041   2.236  3.2417 -1.6970  0.5648
 8780SOL    HW237974   1.663   4.723   2.257  0.8595  2.5545  0.1183
 8781SOL     OW37975   2.467   3.636   7.945  0.2697  0.6321 -0.3756
 8781SOL    HW137976   2.456   3.724   7.981  0.1731  0.3876  0.1890
 8781SOL    HW237977   2.562   3.628   7.955  0.0225  0.1097  1.4758
 8782SOL     OW37978   0.578   3.427  12.470  0.7229 -0.2820  0.5786
 8782SOL    HW137979   0.659   3.468  12.498  0.2518  1.2653 -0.3415
 8782SOL    HW237980   0.614   3.343  12.442  2.9754  0.2342  1.9357
 8783SOL     OW37981   3.075   4.458   5.151  0.1322 -0.6251  0.3186
 8783SOL    HW137982   3.113   4.532   5.199 -1.2964 -0.6352  1.4717
 8783SOL    HW237983   3.084   4.391   5.218 -3.8041 -1.1463  0.3626
 8784SOL     OW37984   3.915   2.192   1.896  0.0365  0.0859 -0.7489
 8784SOL    HW137985   3.856   2.206   1.822 -0.2012  0.3344 -0.5134
 8784SOL    HW237986   3.888   2.105   1.923 -0.0999  0.2691 -0.2958
 8785SOL     OW37987   0.279   1.990   4.549 -0.7130 -0.2064 -0.5625
 8785SOL    HW137988   0.230   1.926   4.497 -0.2281  1.3244 -2.8786
 8785SOL    HW237989   0.233   2.001   4.632  0.5258 -2.1182  0.3954
 8786SOL     OW37990   1.059   0.632   9.041  0.2973 -0.2355 -0.1422
 8786SOL    HW137991   1.009   0.622   9.122 -0.9358  2.5584 -0.5786
 8786SOL    HW237992   1.128   0.567   9.055 -0.8684 -1.5875 -0.6461
 8787SOL     OW37993   2.258   2.482   6.752  0.0359 -0.0896 -0.1607
 8787SOL    HW137994   2.267   2.393   6.717 -3.3802 -0.5546  0.1416
 8787SOL    HW237995   2.344   2.483   6.793  0.8800  1.6135 -1.9882
 8788SOL     OW37996   2.216   2.998   1.741  0.6143 -0.4081 -0.3454
 8788SOL    HW137997   2.180   2.992   1.653  0.4805 -3.1281 -0.0941
 8788SOL    HW237998   2.142   3.049   1.775  1.6404 -0.4728  1.9930
 8789SOL     OW37999   2.748   1.583   2.903  0.6196  0.4720 -0.2512
 8789SOL    HW138000   2.820   1.637   2.934  1.5234 -2.4392  2.7109
 8789SOL    HW238001   2.672   1.640   2.913 -0.1142 -0.5526  0.0767
 8790SOL     OW38002   4.418   3.108  16.360 -0.7598  0.2206  0.0733
 8790SOL    HW138003   4.348   3.173  16.360 -1.4118 -0.4953  1.9258
 8790SOL    HW238004   4.469   3.130  16.438  1.2248 -1.6962 -0.6822
 8791SOL     OW38005   4.457   3.564   5.987 -0.4677  0.0546 -0.5829
 8791SOL    HW138006   4.534   3.536   5.937 -0.2793  0.5967 -0.5917
 8791SOL    HW238007   4.445   3.484   6.038  1.4524 -0.0838 -0.3590
 8792SOL     OW38008   3.252   0.430   6.145  0.4057 -0.3960 -0.7532
 8792SOL    HW138009   3.306   0.351   6.141  0.4844 -0.3765 -0.1219
 8792SOL    HW238010   3.166   0.397   6.171 -0.7156  2.9476 -0.1876
 8793SOL     OW38011   0.586   1.279   1.677 -0.0837 -0.1713  0.1782
 8793SOL    HW138012   0.529   1.280   1.600 -0.0870 -0.6085  0.1759
 8793SOL    HW238013   0.534   1.305   1.754  1.1149 -3.3786  2.0622
 8794SOL     OW38014   0.691   3.567  12.080  0.0471 -0.4498  0.6456
 8794SOL    HW138015   0.668   3.659  12.087 -0.6699 -0.5695 -0.2551
 8794SOL    HW238016   0.607   3.522  12.086 -0.4581  0.5596  1.1085
 8795SOL     OW38017   4.594   4.427   8.163  0.2309  0.0034 -0.1986
 8795SOL    HW138018   4.586   4.489   8.091 -1.3762 -0.3904 -0.3613
 8795SOL    HW238019   4.625   4.489   8.229 -0.1036  0.7502 -0.7510
 8796SOL     OW38020   1.423   1.275  12.493  0.0424  0.1309  0.2918
 8796SOL    HW138021   1.410   1.267  12.587 -1.8148 -1.1284 -0.0509
 8796SOL    HW238022   1.515   1.252  12.482  0.2052  0.6575  0.5513
 8797SOL     OW38023   0.048   3.399  16.557 -0.2069  0.0223 -0.4602
 8797SOL    HW138024   4.695   3.396  16.533 -0.1542  0.5558 -0.7198
 8797SOL    HW238025   0.062   3.484  16.598 -0.2247  0.8085 -2.0850
 8798SOL     OW38026   2.590   0.119   4.911  0.2651 -0.5191  0.5313
 8798SOL    HW138027   2.546   0.124   4.826  0.1483  1.1975  0.6867
 8798SOL    HW238028   2.579   0.208   4.944 -2.1853 -0.4259 -0.4727
 8799SOL     OW38029   1.633   0.108   8.854  0.4893  0.0941 -0.5482
 8799SOL    HW138030   1.594   0.021   8.860 -1.4662  0.9777 -0.4842
 8799SOL    HW238031   1.694   0.105   8.779 -0.4424  0.4527 -1.3170
 8800SOL     OW38032   4.350   2.513   8.884 -0.3055 -0.0716 -0.2145
 8800SOL    HW138033   4.287   2.583   8.865 -0.2130 -0.4009 -1.6803
 8800SOL    HW238034   4.293   2.441   8.857  1.3266 -1.3087 -0.3060
 8801SOL     OW38035   0.838   1.710   9.388  0.1439  0.0345 -0.5607
 8801SOL    HW138036   0.871   1.796   9.360 -0.2187  1.0626  2.1875
 8801SOL    HW238037   0.837   1.717   9.483  0.3930  0.3238 -0.5762
 8802SOL     OW38038   1.689   3.920   2.262  0.1238  0.0580  0.0594
 8802SOL    HW138039   1.613   3.971   2.291  1.3896  2.5416 -1.0351
 8802SOL    HW238040   1.745   3.987   2.223 -1.8355  0.9757 -1.1945
 8803SOL     OW38041   0.281   2.206  14.461 -0.3028 -0.4746 -0.6956
 8803SOL    HW138042   0.253   2.284  14.414 -0.5608 -0.4400 -0.4841
 8803SOL    HW238043   0.363   2.181  14.418 -0.3295 -2.0655  0.1525
 8804SOL     OW38044   1.669   3.272   0.429 -0.4206 -0.5103 -0.9180
 8804SOL    HW138045   1.732   3.200   0.424  1.0042  0.6290  0.2276
 8804SOL    HW238046   1.699   3.330   0.499 -2.6602 -1.1211  0.5185
 8805SOL     OW38047   0.733   1.890  12.084 -0.0919 -0.1136 -0.7388
 8805SOL    HW138048   0.681   1.970  12.094  0.0989 -0.2008  0.9363
 8805SOL    HW238049   0.682   1.840  12.020 -1.9821  0.6490  0.1667
 8806SOL     OW38050   3.075   3.901   5.308  0.0755 -0.1358 -0.7230
 8806SOL    HW138051   3.169   3.921   5.309 -0.0783  0.5923 -0.4703
 8806SOL    HW238052   3.046   3.963   5.242  0.0917 -0.6143 -1.1777
 8807SOL     OW38053   1.967   1.382   3.872 -0.1987  0.3112  0.3995
 8807SOL    HW138054   1.993   1.471   3.898 -1.1366  0.9779 -0.9762
 8807SOL    HW238055   2.045   1.331   3.892 -0.0238  0.1875 -0.6069
 8808SOL     OW38056   4.513   0.603   4.617  0.0779  0.3011  0.2024
 8808SOL    HW138057   4.608   0.597   4.613  0.2706  1.5350  2.8034
 8808SOL    HW238058   4.488   0.520   4.576  1.5230 -0.8085  1.5925
 8809SOL     OW38059   4.491   3.808   0.720  0.8990 -0.2066 -0.7069
 8809SOL    HW138060   4.481   3.796   0.626  3.9749  1.1221 -1.2060
 8809SOL    HW238061   4.427   3.877   0.737  0.3493 -1.1459  1.0015
 8810SOL     OW38062   1.340   3.083   5.285 -0.5497  0.1550 -0.0544
 8810SOL    HW138063   1.277   3.132   5.233 -0.3537 -0.3286 -0.7605
 8810SOL    HW238064   1.340   3.009   5.224  0.6762 -0.6759  0.9415
 8811SOL     OW38065   1.225   0.079   7.486 -0.4085 -0.6739  0.3491
 8811SOL    HW138066   1.245   4.727   7.507 -0.5271 -0.6055  0.7530
 8811SOL    HW238067   1.145   0.095   7.535 -1.0269  0.1641 -0.9144
 8812SOL     OW38068   1.500   3.689  12.488  0.2405  0.1453 -0.3723
 8812SOL    HW138069   1.480   3.661  12.577  0.6579  3.1189  0.6508
 8812SOL    HW238070   1.595   3.678  12.486  0.2917  0.6091 -0.5162
 8813SOL     OW38071   0.707   2.278   5.577 -0.1348  0.0351 -0.4286
 8813SOL    HW138072   0.675   2.220   5.508  1.2873  0.8768 -1.7966
 8813SOL    HW238073   0.740   2.353   5.527 -0.8401  0.0139 -0.9177
 8814SOL     OW38074   3.611   0.374   6.624  0.2003  0.1062  0.1898
 8814SOL    HW138075   3.699   0.400   6.652  0.2183  0.7879 -0.4908
 8814SOL    HW238076   3.573   0.455   6.657  1.0916  0.4820  0.3041
 8815SOL     OW38077   3.911   1.995   6.735 -0.5572 -0.1248 -0.6499
 8815SOL    HW138078   3.930   1.902   6.725  0.3115 -0.1783  1.5940
 8815SOL    HW238079   3.816   1.982   6.736 -0.3852 -1.1035  1.0881
 8816SOL     OW38080   3.907   4.095  10.111 -0.5153 -0.2948 -0.3723
 8816SOL    HW138081   3.833   4.138  10.070 -0.4798  0.0651 -0.0628
 8816SOL    HW238082   3.912   4.021  10.050  2.8427 -1.1017  0.8944
 8817SOL     OW38083   1.619   1.851   0.424 -0.3810 -0.3919  0.5947
 8817SOL    HW138084   1.593   1.771   0.379  1.1447 -0.3266 -0.3895
 8817SOL    HW238085   1.663   1.811   0.499 -3.0754 -1.9758  1.3140
 8818SOL     OW38086   3.785   1.285   8.825  0.1587 -0.0285  0.2247
 8818SOL    HW138087   3.737   1.232   8.889 -1.8803  0.9954 -0.4641
 8818SOL    HW238088   3.852   1.223   8.797 -0.3198 -0.6747  0.5321
 8819SOL     OW38089   1.621   4.199   9.445  0.1987  0.4472 -0.0223
 8819SOL    HW138090   1.574   4.212   9.527  0.2942 -0.1272  0.1219
 8819SOL    HW238091   1.547   4.189   9.385 -1.7504 -0.9769  2.6355
 8820SOL     OW38092   4.644   4.397  16.583 -0.0084  0.0047  0.2996
 8820SOL    HW138093   4.643   4.491  16.602 -0.0043  0.2489 -0.9045
 8820SOL    HW238094   4.553   4.390  16.557  0.5192  2.1106 -2.0072
 8821SOL     OW38095   3.105   1.341  14.421 -0.2783  0.0761  0.0944
 8821SOL    HW138096   3.028   1.317  14.473  1.3679 -2.2126  1.4657
 8821SOL    HW238097   3.111   1.269  14.359  0.6717 -0.4303  0.7797
 8822SOL     OW38098   4.093   2.884   5.268  0.1724  0.6315  0.1694
 8822SOL    HW138099   4.024   2.863   5.206  1.6527 -1.3729 -0.7930
 8822SOL    HW238100   4.043   2.936   5.331  0.4173 -0.3213  1.1522
 8823SOL     OW38101   0.498   1.261   4.101  0.2631  0.6069  0.0193
 8823SOL    HW138102   0.518   1.203   4.175  1.6923 -0.2027 -0.9889
 8823SOL    HW238103   0.419   1.214   4.075  1.8653 -0.9843 -2.0088
 8824SOL     OW38104   3.607   1.136   1.450  0.0931  0.4674 -0.6189
 8824SOL    HW138105   3.571   1.063   1.500  0.8428  0.7021  0.2654
 8824SOL    HW238106   3.666   1.088   1.392  0.1631  1.1915 -1.1444
 8825SOL     OW38107   0.499   4.588   6.522 -0.1531 -0.1998 -0.5542
 8825SOL    HW138108   0.426   4.533   6.492  0.0702  0.0505 -1.5523
 8825SOL    HW238109   0.569   4.542   6.476  1.3211  0.1025  1.4059
 8826SOL     OW38110   2.410   3.087   4.333  0.3222  0.1728 -0.3729
 8826SOL    HW138111   2.402   3.001   4.374  0.0144  0.1835 -0.4093
 8826SOL    HW238112   2.381   3.073   4.243 -0.2400 -1.7886  0.1171
 8827SOL     OW38113   1.180   3.379   4.883  0.0767  0.5622 -0.2972
 8827SOL    HW138114   1.157   3.319   4.812 -3.1537  2.1392 -0.5881
 8827SOL    HW238115   1.152   3.461   4.842 -0.0654 -0.2163 -1.7502
 8828SOL     OW38116   3.016   0.059   9.238  0.5054  0.2261  0.4644
 8828SOL    HW138117   3.045   0.083   9.151  1.9045  2.8029  1.6248
 8828SOL    HW238118   2.921   0.048   9.228  0.2984  0.5630  2.0085
 8829SOL     OW38119   4.017   4.259   0.370  0.2888  0.3451  0.3550
 8829SOL    HW138120   4.096   4.283   0.417 -0.1365 -0.1154  1.2962
 8829SOL    HW238121   3.953   4.317   0.412 -1.1787 -0.4085 -0.8199
 8830SOL     OW38122   3.039   3.670   8.628 -0.2146 -0.1415 -0.1108
 8830SOL    HW138123   3.019   3.678   8.722 -0.4328  2.4660 -0.3738
 8830SOL    HW238124   3.129   3.642   8.638  0.0880  0.8498 -0.0550
 8831SOL     OW38125   1.971   0.603  16.584  1.1802 -0.5047 -0.0753
 8831SOL    HW138126   2.037   0.562  16.527  2.0894  0.1223  0.5345
 8831SOL    HW238127   2.001   0.692  16.600  0.9314 -0.2244 -1.1698
 8832SOL     OW38128   0.934   0.621   3.042 -0.4105  0.0661 -0.0048
 8832SOL    HW138129   0.842   0.616   3.018 -0.3216 -0.7983 -0.1525
 8832SOL    HW238130   0.967   0.547   2.991 -4.8493 -1.1363 -1.0651
 8833SOL     OW38131   2.830   3.233   4.123  0.3130  0.0035  0.0739
 8833SOL    HW138132   2.814   3.195   4.209  0.2818  0.6286  0.3436
 8833SOL    HW238133   2.740   3.257   4.099  0.3854  1.5495  1.3667
 8834SOL     OW38134   3.728   2.436   2.615  0.0571 -0.3635 -0.2748
 8834SOL    HW138135   3.657   2.489   2.579  1.3377  1.5894  0.0406
 8834SOL    HW238136   3.686   2.351   2.608  0.5856 -0.7751  1.5285
 8835SOL     OW38137   3.205   1.058   4.638 -0.4156  0.2675  0.4877
 8835SOL    HW138138   3.168   0.995   4.576 -2.7673  3.7936 -1.6357
 8835SOL    HW238139   3.281   1.005   4.662 -0.9369  0.2093  2.0061
 8836SOL     OW38140   3.682   2.383   5.634 -0.4770  0.1295  0.6095
 8836SOL    HW138141   3.693   2.333   5.715  0.9933  1.1047  1.0213
 8836SOL    HW238142   3.751   2.449   5.641  2.3125 -2.6382 -0.2559
 8837SOL     OW38143   0.672   1.175   4.396  0.7191 -0.2347  0.1295
 8837SOL    HW138144   0.578   1.162   4.406  0.4124  2.5625  0.8351
 8837SOL    HW238145   0.676   1.264   4.360  1.4807 -0.0098  0.7751
 8838SOL     OW38146   0.579   0.811   4.184 -0.3661  0.2925 -0.3521
 8838SOL    HW138147   0.542   0.779   4.267 -1.5510  0.0569 -0.9715
 8838SOL    HW238148   0.653   0.857   4.223 -2.6874  2.7765  1.1729
 8839SOL     OW38149   2.292   3.778   2.187 -0.7128  0.1231  0.2995
 8839SOL    HW138150   2.286   3.727   2.106  2.6286  0.3664 -0.1024
 8839SOL    HW238151   2.207   3.759   2.227  0.4417  2.8596  3.9534
 8840SOL     OW38152   1.014   1.336   3.302  0.3229  0.1115  0.2338
 8840SOL    HW138153   0.981   1.402   3.362  0.8626  0.0700  0.5805
 8840SOL    HW238154   0.933   1.287   3.295  0.5845 -0.4740  1.3741
 8841SOL     OW38155   2.085   2.128   8.958 -0.9132 -0.4567  0.6835
 8841SOL    HW138156   2.108   2.045   8.999 -0.9162 -0.6554  0.2801
 8841SOL    HW238157   2.095   2.107   8.866 -2.6394 -1.4149  0.7072
 8842SOL     OW38158   2.527   0.712   5.094  0.7689  0.2364 -0.2622
 8842SOL    HW138159   2.569   0.792   5.125  1.8773 -0.3919 -0.1540
 8842SOL    HW238160   2.452   0.713   5.154  0.5151 -1.3236 -0.5314
 8843SOL     OW38161   4.233   1.104  17.508 -0.2968 -0.3781  0.1042
 8843SOL    HW138162   4.272   1.189  17.528  0.1784 -0.8945  1.4045
 8843SOL    HW238163   4.146   1.132  17.480 -0.0974 -0.8155 -0.9518
 8844SOL     OW38164   0.676   2.208   4.607  0.5496  0.2053  0.1933
 8844SOL    HW138165   0.608   2.142   4.601  2.5625 -2.0861  2.3386
 8844SOL    HW238166   0.753   2.151   4.607  0.2752 -0.1454 -1.4439
 8845SOL     OW38167   1.806   3.564  15.217 -0.4295  0.5131 -0.2330
 8845SOL    HW138168   1.849   3.628  15.159  1.8991 -0.5271  0.3409
 8845SOL    HW238169   1.723   3.607  15.235 -0.7224  0.2204 -0.8643
 8846SOL     OW38170   0.888   3.689   5.252  0.0383  0.2995 -0.6523
 8846SOL    HW138171   0.929   3.709   5.168 -1.2591  1.7633 -0.9328
 8846SOL    HW238172   0.898   3.594   5.245 -0.1548  0.3443 -1.4396
 8847SOL     OW38173   0.058   2.347  17.606 -0.1547 -0.0514 -0.1921
 8847SOL    HW138174   0.081   2.348  17.513 -1.0870  3.2105 -0.3757
 8847SOL    HW238175   0.100   2.426  17.640  0.3404 -1.5398  2.7128
 8848SOL     OW38176   2.585   2.986  10.172  0.3161 -0.0558  0.1006
 8848SOL    HW138177   2.665   3.008  10.219  0.6191  0.0443 -0.4637
 8848SOL    HW238178   2.569   2.893  10.190  1.4850 -0.3401 -0.3570
 8849SOL     OW38179   0.956   3.449   7.455  0.1769 -0.3221 -0.3215
 8849SOL    HW138180   1.033   3.497   7.487 -0.9607  1.5096 -0.3667
 8849SOL    HW238181   0.986   3.362   7.431  1.4505  0.1254 -0.3685
 8850SOL     OW38182   0.183   4.156   9.031 -0.1575 -0.1918 -0.0934
 8850SOL    HW138183   0.153   4.070   9.060  3.0549 -0.9583  0.9932
 8850SOL    HW238184   0.246   4.121   8.967  1.2320  1.9248  0.1364
 8851SOL     OW38185   2.535   2.803   4.934  0.2129  0.5309 -0.4231
 8851SOL    HW138186   2.515   2.893   4.960 -1.4467 -0.4805  1.8306
 8851SOL    HW238187   2.598   2.812   4.863  1.6135  1.6697  0.9584
 8852SOL     OW38188   3.119   4.244  12.764 -0.3279 -0.2836 -0.2188
 8852SOL    HW138189   3.089   4.160  12.730 -1.3037 -0.4539  1.0351
 8852SOL    HW238190   3.208   4.227  12.795 -0.1961  1.1914  0.2035
 8853SOL     OW38191   0.460   2.199   7.515 -0.7582 -0.5477  0.8726
 8853SOL    HW138192   0.539   2.146   7.506 -0.7855 -0.7462  1.8017
 8853SOL    HW238193   0.401   2.144   7.462  1.3313 -0.3830 -1.6314
 8854SOL     OW38194   3.320   3.651   5.532  0.1004 -0.2581 -0.3481
 8854SOL    HW138195   3.361   3.719   5.479 -0.6992 -0.2119 -0.9115
 8854SOL    HW238196   3.384   3.638   5.602  2.7569  1.2856 -2.4866
 8855SOL     OW38197   0.919   0.722   7.863  0.4860 -0.5492 -0.3431
 8855SOL    HW138198   0.941   0.744   7.773 -0.0020 -0.9140 -0.5530
 8855SOL    HW238199   0.841   0.669   7.846  0.4888 -0.4915 -0.5400
 8856SOL     OW38200   3.374   0.682   3.989 -0.0248  0.3247  0.5890
 8856SOL    HW138201   3.361   0.757   3.930 -1.0904  0.7189  1.3187
 8856SOL    HW238202   3.285   0.648   3.997 -1.0926  3.1435  0.6034
 8857SOL     OW38203   0.912   0.820   3.618  0.3650  0.5057 -0.3434
 8857SOL    HW138204   0.954   0.736   3.633 -0.4022  0.2970  0.5928
 8857SOL    HW238205   0.933   0.879   3.690 -0.5959  1.5239 -0.8898
 8858SOL     OW38206   1.625   1.149  10.945  0.0103 -0.1611  0.9009
 8858SOL    HW138207   1.568   1.190  11.011  1.8501  0.2158  2.2649
 8858SOL    HW238208   1.604   1.056  10.944  0.6678 -0.2652 -1.5570
 8859SOL     OW38209   1.709   1.566   4.420 -0.3747 -0.1108 -0.2630
 8859SOL    HW138210   1.619   1.588   4.395 -0.2768  1.6465  0.8956
 8859SOL    HW238211   1.686   1.499   4.485 -0.2416  0.2341  0.1351
 8860SOL     OW38212   0.067   2.596   0.896  0.1156  0.3398 -0.2295
 8860SOL    HW138213   0.143   2.537   0.895 -0.3837 -0.3222  0.8394
 8860SOL    HW238214   0.107   2.682   0.879 -1.6951  1.0093 -1.0871
 8861SOL     OW38215   2.047   3.157   3.306  0.1701 -0.1333 -0.0353
 8861SOL    HW138216   2.137   3.185   3.292  0.4480 -0.3999  1.2350
 8861SOL    HW238217   2.029   3.102   3.229 -1.7841 -1.4346  1.3559
 8862SOL     OW38218   0.131   0.447   6.463  0.6754 -0.1292 -0.0329
 8862SOL    HW138219   0.169   0.494   6.389  0.6185  1.9725  1.2912
 8862SOL    HW238220   0.193   0.374   6.451 -1.0220 -1.5413 -0.1798
 8863SOL     OW38221   2.889   4.103   5.811 -1.0218 -0.0767 -0.1227
 8863SOL    HW138222   2.924   4.014   5.818 -1.1410 -0.1427 -0.3321
 8863SOL    HW238223   2.968   4.157   5.819 -1.2226  0.0496  0.8948
 8864SOL     OW38224   1.910   3.993   1.670  0.0249 -0.1918 -0.0416
 8864SOL    HW138225   1.839   4.012   1.608  0.1539  1.6352  0.3677
 8864SOL    HW238226   1.980   3.995   1.605 -1.2699  1.7744 -1.3792
 8865SOL     OW38227   3.171   4.102   7.029  0.1553 -0.4752 -0.3924
 8865SOL    HW138228   3.081   4.087   7.055  0.1607  1.5628  0.8311
 8865SOL    HW238229   3.221   4.026   7.058 -0.8746 -0.0971  2.3410
 8866SOL     OW38230   0.227   4.138   7.142  0.3627  0.8560 -0.1307
 8866SOL    HW138231   0.290   4.087   7.193  0.4692  0.8650 -0.2532
 8866SOL    HW238232   0.251   4.217   7.189 -0.5806  0.8284  0.4027
 8867SOL     OW38233   1.971   3.263   2.880 -0.4274  0.0971 -0.3894
 8867SOL    HW138234   1.936   3.175   2.890  0.4073 -0.2598 -0.5668
 8867SOL    HW238235   1.918   3.281   2.802  1.5696  2.9605 -1.1051
 8868SOL     OW38236   3.518   3.855   4.516 -0.1488  0.0657 -0.0759
 8868SOL    HW138237   3.475   3.919   4.572  0.4995 -0.2100  0.7291
 8868SOL    HW238238   3.612   3.872   4.524 -0.0882  0.3251 -1.2613
 8869SOL     OW38239   1.770   3.267   1.710  0.5565 -0.7366  0.3135
 8869SOL    HW138240   1.716   3.302   1.781 -1.5322 -1.1791 -1.0401
 8869SOL    HW238241   1.806   3.192   1.758 -0.6586 -1.8423 -0.4798
 8870SOL     OW38242   0.674   2.903   7.103  0.2074 -0.0759  0.0250
 8870SOL    HW138243   0.736   2.901   7.176  1.0971  1.0700 -0.6955
 8870SOL    HW238244   0.593   2.883   7.149 -0.5032 -0.5417 -1.4285
 8871SOL     OW38245   1.145   1.065   1.853  0.0644  0.1779 -0.0174
 8871SOL    HW138246   1.130   1.143   1.905  1.1953  1.3996 -1.5333
 8871SOL    HW238247   1.093   1.086   1.776  1.2330 -0.2614 -0.9204
 8872SOL     OW38248   3.496   4.734  12.615 -0.1610 -0.4551 -0.3048
 8872SOL    HW138249   3.507   0.082  12.654  2.3418 -1.3734  1.0213
 8872SOL    HW238250   3.580   4.697  12.641  0.1234  1.2004  1.1546
 8873SOL     OW38251   3.790   1.227  10.046  0.1360  0.1939 -0.2030
 8873SOL    HW138252   3.885   1.229  10.033 -0.1806 -3.6861 -3.0249
 8873SOL    HW238253   3.787   1.153  10.106 -2.6697 -0.4114 -1.1193
 8874SOL     OW38254   4.310   0.676   6.273 -0.4675  0.1972  0.7112
 8874SOL    HW138255   4.378   0.610   6.288  0.2355  0.7206 -0.1725
 8874SOL    HW238256   4.239   0.646   6.331 -1.5093  0.1620 -0.5693
 8875SOL     OW38257   1.274   2.238   6.946 -0.5098 -0.5543 -0.3540
 8875SOL    HW138258   1.247   2.282   6.865  0.0180 -0.1776 -0.3235
 8875SOL    HW238259   1.193   2.236   6.997  0.3727 -0.0100  1.0593
 8876SOL     OW38260   1.345   2.743   6.242 -0.5969 -0.5051  0.0857
 8876SOL    HW138261   1.418   2.737   6.180 -2.3584 -0.1687 -2.0269
 8876SOL    HW238262   1.272   2.764   6.184  0.9520  0.9740 -1.3492
 8877SOL     OW38263   2.846   3.661   8.435  0.2197 -0.2159  0.1879
 8877SOL    HW138264   2.899   3.607   8.377 -0.1500 -0.0313 -0.3199
 8877SOL    HW238265   2.908   3.671   8.507  0.7203  0.2213 -0.2978
 8878SOL     OW38266   0.921   0.361   8.535 -0.3138 -0.0936 -0.1150
 8878SOL    HW138267   0.921   0.430   8.602 -0.0537  1.2088 -1.4463
 8878SOL    HW238268   0.947   0.419   8.464  0.0835 -0.9947 -0.6999
 8879SOL     OW38269   1.556   2.631  15.010  0.2415  0.2086 -0.3404
 8879SOL    HW138270   1.529   2.691  15.080 -2.3422 -1.5855  0.2267
 8879SOL    HW238271   1.650   2.645  14.999  0.6286  0.3386  2.9932
 8880SOL     OW38272   3.023   4.242   7.802 -0.0870 -0.1450  0.0715
 8880SOL    HW138273   3.106   4.196   7.814  0.5325  1.2972  1.2642
 8880SOL    HW238274   2.984   4.215   7.885 -1.2144 -1.2736 -0.8269
 8881SOL     OW38275   4.197   2.893   7.148  0.1010 -0.2402 -0.5491
 8881SOL    HW138276   4.286   2.858   7.146 -0.2682 -1.2263  0.7115
 8881SOL    HW238277   4.175   2.861   7.235  1.1575 -3.0413 -1.3286
 8882SOL     OW38278   1.192   2.902   3.348  0.3198  0.3471 -0.3198
 8882SOL    HW138279   1.139   2.928   3.424  0.6591 -2.0221  0.7201
 8882SOL    HW238280   1.281   2.905   3.382 -0.0176  1.9550  0.4647
 8883SOL     OW38281   1.570   4.287  15.321  0.3369 -0.2235  0.4580
 8883SOL    HW138282   1.558   4.206  15.271  0.8254 -0.9528  1.5437
 8883SOL    HW238283   1.584   4.355  15.255  1.7310 -0.9904 -0.0487
 8884SOL     OW38284   0.282   4.143   3.968 -0.3068 -0.0213  0.1269
 8884SOL    HW138285   0.365   4.121   3.925 -1.6193 -0.9931 -1.8750
 8884SOL    HW238286   0.272   4.084   4.042  0.8860 -1.4370 -0.8511
 8885SOL     OW38287   1.676   1.628   6.513 -0.3187  0.1775 -0.1111
 8885SOL    HW138288   1.682   1.618   6.608 -0.3835  2.0248  0.0900
 8885SOL    HW238289   1.764   1.605   6.484  0.2383  1.2060  0.7486
 8886SOL     OW38290   0.589   2.260   0.145 -0.4633  0.5319 -0.0853
 8886SOL    HW138291   0.672   2.294   0.178  0.1447  0.0200 -1.0792
 8886SOL    HW238292   0.613   2.254   0.052  0.4244  0.6001  0.1443
 8887SOL     OW38293   1.371   0.225   3.695 -0.1505 -0.0702  0.1239
 8887SOL    HW138294   1.336   0.143   3.660  0.9335 -0.1158 -0.8514
 8887SOL    HW238295   1.304   0.287   3.665  1.1884  0.7009 -1.2643
 8888SOL     OW38296   4.675   4.301   9.297 -0.5392  0.2446  0.3266
 8888SOL    HW138297   4.679   4.290   9.392  0.2887  2.1682  0.5185
 8888SOL    HW238298   4.677   4.395   9.282 -1.1999  0.0501 -0.9206
 8889SOL     OW38299   1.282   3.223  11.210  0.0902  0.1138 -0.0215
 8889SOL    HW138300   1.297   3.143  11.159  0.7525  0.5685 -0.5467
 8889SOL    HW238301   1.267   3.188  11.297  0.3795  0.7903  0.3004
 8890SOL     OW38302   2.965   2.373   3.914 -0.6395 -0.5215  0.0387
 8890SOL    HW138303   3.010   2.412   3.989  1.6739  0.4052 -1.8168
 8890SOL    HW238304   3.001   2.284   3.911  1.2479  0.1935  1.0516
 8891SOL     OW38305   3.162   2.906   8.119 -0.3297  0.1661  0.3564
 8891SOL    HW138306   3.089   2.959   8.151  0.0182  1.3562 -0.7949
 8891SOL    HW238307   3.193   2.963   8.049 -0.7991 -2.2663 -1.8222
 8892SOL     OW38308   1.776   1.665   0.581  0.0168  0.0046 -0.0690
 8892SOL    HW138309   1.858   1.684   0.536 -0.1091  0.5121 -0.0864
 8892SOL    HW238310   1.767   1.577   0.544  0.4675 -1.6760  3.7964
 8893SOL     OW38311   3.476   4.663   7.187  0.8784  0.2937 -0.1466
 8893SOL    HW138312   3.480   4.576   7.147  0.8364  0.1878  0.0830
 8893SOL    HW238313   3.396   4.648   7.237 -0.2976  1.5032 -1.6685
 8894SOL     OW38314   1.938   0.220   3.795  0.5964 -0.8980 -0.1125
 8894SOL    HW138315   1.853   0.183   3.819 -0.1205  0.4947 -0.4619
 8894SOL    HW238316   1.939   0.205   3.700 -4.2734 -0.0481 -0.3040
 8895SOL     OW38317   2.437   1.472  10.195 -0.6151  0.3050  0.5529
 8895SOL    HW138318   2.379   1.455  10.269  1.6597 -0.4208  2.1849
 8895SOL    HW238319   2.458   1.381  10.175 -1.0118  0.0486  1.3279
 8896SOL     OW38320   4.023   2.502   7.045  0.2872 -0.0717  0.0789
 8896SOL    HW138321   3.968   2.494   6.967  0.0421  1.6868  0.0819
 8896SOL    HW238322   3.977   2.569   7.094 -1.0070 -1.0133  0.1471
 8897SOL     OW38323   0.591   2.930   3.046 -0.0387  0.0022 -0.2170
 8897SOL    HW138324   0.508   2.975   3.060  0.4445  0.3835  1.4335
 8897SOL    HW238325   0.586   2.919   2.951  1.2669 -1.6384 -0.1098
 8898SOL     OW38326   3.342   4.011   2.226  0.5284 -0.3141 -0.7801
 8898SOL    HW138327   3.437   4.018   2.225  0.6503 -1.8663 -1.0805
 8898SOL    HW238328   3.332   3.916   2.216 -2.3035 -0.1336  0.1463
 8899SOL     OW38329   1.597   2.609  11.317  0.0531 -0.1037 -0.0019
 8899SOL    HW138330   1.599   2.549  11.242  0.0922 -2.5886  1.9797
 8899SOL    HW238331   1.511   2.646  11.298  0.1965 -0.2631 -0.9515
 8900SOL     OW38332   1.083   3.562   4.030 -0.3550 -0.0025  0.4693
 8900SOL    HW138333   1.070   3.608   4.113 -0.5144  2.3894 -0.8854
 8900SOL    HW238334   1.144   3.492   4.055 -0.1024 -0.1979 -0.6843
 8901SOL     OW38335   1.332   1.866  17.632  0.0384  0.0152  0.0897
 8901SOL    HW138336   1.257   1.881  17.574  0.6367 -0.3753 -0.7707
 8901SOL    HW238337   1.400   1.843  17.570  1.3151 -0.5596  1.7217
 8902SOL     OW38338   2.777   4.531   0.775 -0.2093 -0.2845  0.2502
 8902SOL    HW138339   2.823   4.450   0.754 -0.3639 -0.6111  1.1452
 8902SOL    HW238340   2.836   4.577   0.836  0.0906 -2.0205  1.2742
 8903SOL     OW38341   0.154   4.540   6.375 -0.1569 -0.1648 -0.2276
 8903SOL    HW138342   0.201   4.560   6.294  1.0886 -0.0938  0.5049
 8903SOL    HW238343   0.214   4.470   6.403  0.1447 -0.2461 -1.0798
 8904SOL     OW38344   2.088   1.118   6.578  0.3258  0.1523 -0.8188
 8904SOL    HW138345   2.153   1.058   6.615 -1.4724 -0.0889  2.0206
 8904SOL    HW238346   2.141   1.190   6.546  0.2825  1.6838  2.5788
 8905SOL     OW38347   0.068   2.514   4.690  0.2405  0.2821  0.5755
 8905SOL    HW138348   4.731   2.502   4.746 -1.2738  1.9367 -1.1674
 8905SOL    HW238349   0.136   2.555   4.743  0.4390  2.2088 -1.1725
 8906SOL     OW38350   2.861   2.697  12.767 -0.0421  0.5802 -0.5753
 8906SOL    HW138351   2.792   2.750  12.728  1.0599  2.3621 -0.1479
 8906SOL    HW238352   2.806   2.655  12.833 -0.6879  0.2438 -1.3314
 8907SOL     OW38353   1.189   1.960   5.856 -0.1431 -0.0750  0.6127
 8907SOL    HW138354   1.148   1.887   5.902 -0.1169  0.4862  1.5304
 8907SOL    HW238355   1.114   2.016   5.841  1.0361  0.8661 -1.7216
 8908SOL     OW38356   2.904   3.176   7.075  0.0369 -0.4167  0.5324
 8908SOL    HW138357   2.824   3.125   7.067  0.3202 -0.6121 -1.2242
 8908SOL    HW238358   2.896   3.255   7.021 -2.8306 -2.1850 -1.6605
 8909SOL     OW38359   0.293   1.633   3.263  0.3567 -0.0859  0.1713
 8909SOL    HW138360   0.235   1.617   3.337  0.8010  0.0689  0.5463
 8909SOL    HW238361   0.221   1.628   3.199  0.1785 -1.3187  0.4788
 8910SOL     OW38362   4.179   2.236  12.288 -0.3450 -0.2673 -0.4922
 8910SOL    HW138363   4.164   2.311  12.231  0.9150  0.3521 -0.0194
 8910SOL    HW238364   4.122   2.248  12.364 -0.0450  1.7847 -0.5929
 8911SOL     OW38365   2.199   3.562  13.467 -0.3870 -0.3550  0.3921
 8911SOL    HW138366   2.172   3.470  13.473  2.0806 -1.1356 -0.5978
 8911SOL    HW238367   2.115   3.608  13.460 -0.3671 -0.4488 -0.4363
 8912SOL     OW38368   0.565   4.564  11.117  0.4803 -0.1433 -0.3343
 8912SOL    HW138369   0.475   4.588  11.142  0.4980 -0.7089  0.2963
 8912SOL    HW238370   0.576   4.618  11.039  1.4470 -2.1528 -1.6110
 8913SOL     OW38371   2.694   2.291   7.829 -0.1688  0.3499  0.3843
 8913SOL    HW138372   2.629   2.252   7.771  0.4632  1.0034 -0.7578
 8913SOL    HW238373   2.749   2.214   7.843  0.3750  0.7562  0.4941
 8914SOL     OW38374   3.092   2.988   1.574  0.4542 -0.7674 -0.2671
 8914SOL    HW138375   3.069   2.897   1.552 -2.1037  0.3604 -2.1906
 8914SOL    HW238376   3.023   3.032   1.525 -0.4636  1.5734  3.1409
 8915SOL     OW38377   2.835   0.277   6.402  0.2498 -0.4409 -0.8532
 8915SOL    HW138378   2.905   0.256   6.464 -1.1541  2.1347  1.5958
 8915SOL    HW238379   2.841   0.371   6.384  1.1256 -0.3579 -0.0981
 8916SOL     OW38380   1.300   0.216  16.651 -0.0497 -0.0849 -0.0347
 8916SOL    HW138381   1.349   0.135  16.663 -0.0515  0.0638  1.0208
 8916SOL    HW238382   1.213   0.180  16.670 -0.5890  0.7313 -1.0013
 8917SOL     OW38383   0.172   3.426   8.270  0.2602 -0.7654 -0.2267
 8917SOL    HW138384   0.246   3.383   8.227  0.4412  1.1320 -1.8507
 8917SOL    HW238385   0.223   3.458   8.344 -0.2633 -0.0005 -0.1983
 8918SOL     OW38386   1.650   0.906   2.836 -0.3914 -0.0495  0.2596
 8918SOL    HW138387   1.653   0.825   2.888 -0.1820  0.0305  0.3771
 8918SOL    HW238388   1.738   0.943   2.848 -0.3822  1.0836 -3.3285
 8919SOL     OW38389   1.408   4.541   2.343 -0.2259 -0.3568  0.0778
 8919SOL    HW138390   1.458   4.479   2.396 -0.3672 -1.0482 -0.5980
 8919SOL    HW238391   1.460   4.522   2.265  1.0514  4.9117 -0.3275
 8920SOL     OW38392   3.918   1.512   9.083  0.2121  0.7203  0.3805
 8920SOL    HW138393   4.004   1.505   9.124 -0.0797  1.0021  1.0422
 8920SOL    HW238394   3.936   1.468   9.000 -0.1210  1.5039 -0.1081
 8921SOL     OW38395   2.551   2.298  17.606 -0.6355 -0.0785  0.3486
 8921SOL    HW138396   2.545   2.330  17.516 -0.9337  3.8708  1.7609
 8921SOL    HW238397   2.572   2.375  17.659  1.3612  0.0578 -0.6405
 8922SOL     OW38398   1.794   0.967   3.497 -0.2751  0.5097 -0.7304
 8922SOL    HW138399   1.780   0.906   3.570 -0.3311  2.6999  1.1145
 8922SOL    HW238400   1.875   1.006   3.530  0.8406 -2.5496  0.1721
 8923SOL     OW38401   1.899   2.436  16.683 -0.0420  0.3334  0.5726
 8923SOL    HW138402   1.903   2.366  16.748  0.2024  0.0153  0.2132
 8923SOL    HW238403   1.945   2.399  16.608 -0.5130  0.9841 -0.0327
 8924SOL     OW38404   3.863   4.691  14.039  0.2899 -0.0654  0.3775
 8924SOL    HW138405   3.805   4.677  13.963  0.9451  2.6521 -0.6160
 8924SOL    HW238406   3.929   0.010  14.002  0.9037 -0.7180  0.4385
 8925SOL     OW38407   2.475   1.007   8.988 -0.1753  0.2512  0.3317
 8925SOL    HW138408   2.500   0.917   9.012  1.3685  0.5146 -0.3368
 8925SOL    HW238409   2.546   1.063   9.020  0.9756 -1.7737  1.3399
 8926SOL     OW38410   2.517   1.409   2.911 -0.3340 -0.3067 -0.5214
 8926SOL    HW138411   2.587   1.474   2.898  0.5978 -1.2203 -0.0444
 8926SOL    HW238412   2.530   1.376   3.000  1.2359 -1.3820 -1.1448
 8927SOL     OW38413   1.454   1.149   4.739 -0.6101 -0.1841  0.0520
 8927SOL    HW138414   1.537   1.196   4.742  0.3747 -1.7256 -3.5847
 8927SOL    HW238415   1.477   1.091   4.811  1.4051 -0.9112 -1.2068
 8928SOL     OW38416   2.648   0.599  11.373 -0.3576  0.9376 -0.2805
 8928SOL    HW138417   2.686   0.678  11.333 -4.0387  3.2177  0.7531
 8928SOL    HW238418   2.726   0.547  11.394  0.8226  2.0337 -1.8775
 8929SOL     OW38419   0.813   1.359   0.723 -0.0305  0.3566  0.7875
 8929SOL    HW138420   0.800   1.285   0.782  0.6795  0.5854  1.2229
 8929SOL    HW238421   0.782   1.325   0.639 -1.4161  0.8960  1.0826
 8930SOL     OW38422   0.320   3.675   9.102 -0.1193 -0.3633  0.1733
 8930SOL    HW138423   0.364   3.673   9.017  2.4889  0.0737  1.5322
 8930SOL    HW238424   0.263   3.598   9.092  1.0337 -1.1641 -0.2775
 8931SOL     OW38425   1.408   1.853   3.279 -0.7012  0.2922  0.0654
 8931SOL    HW138426   1.418   1.832   3.372 -0.0001 -0.4515 -0.1841
 8931SOL    HW238427   1.361   1.776   3.248 -1.5105  0.8637 -0.1270
 8932SOL     OW38428   1.010   3.239  14.485 -0.2900  0.0724  0.0594
 8932SOL    HW138429   0.922   3.240  14.448 -0.4116  0.2637  0.3495
 8932SOL    HW238430   1.009   3.311  14.549 -0.2526 -1.9089  2.2693
 8933SOL     OW38431   4.616   3.058   5.025 -0.4429 -0.4655 -0.2404
 8933SOL    HW138432   4.598   2.964   5.021 -0.2059 -0.5770  1.2831
 8933SOL    HW238433   4.530   3.100   5.023  0.4355  1.4531  1.1978
 8934SOL     OW38434   1.491   1.218  14.468 -0.4635  0.3925  0.0479
 8934SOL    HW138435   1.499   1.179  14.556 -1.5971  0.1147  0.0190
 8934SOL    HW238436   1.491   1.310  14.493 -0.7825  0.6728 -0.9958
 8935SOL     OW38437   1.982   1.354  16.574  0.1081  0.1827 -0.0955
 8935SOL    HW138438   1.930   1.361  16.493 -1.9065  0.0105  1.1842
 8935SOL    HW238439   2.051   1.418  16.560 -0.0967  0.5008  0.3587
 8936SOL     OW38440   0.944   1.661   3.890  0.2179 -0.3438  0.3857
 8936SOL    HW138441   1.038   1.653   3.902  0.4555 -1.1862 -2.0282
 8936SOL    HW238442   0.937   1.697   3.801 -0.6281  0.0160  0.5895
 8937SOL     OW38443   4.576   2.012   1.591 -0.0299  0.2078 -0.3214
 8937SOL    HW138444   4.597   1.984   1.501 -0.4040  1.0565 -0.6690
 8937SOL    HW238445   4.646   2.071   1.616  0.1281 -0.9935  2.0641
 8938SOL     OW38446   2.039   2.691   0.251  0.3030 -0.4865  0.4781
 8938SOL    HW138447   2.134   2.680   0.250  0.2131 -1.1314 -0.6175
 8938SOL    HW238448   2.013   2.668   0.162  1.7656 -1.1802  0.2369
 8939SOL     OW38449   1.797   1.149  11.452  0.5377 -0.1774 -0.5301
 8939SOL    HW138450   1.859   1.175  11.521 -1.0005 -1.8979  1.5048
 8939SOL    HW238451   1.712   1.162  11.495  0.1981  1.8175 -1.8227
 8940SOL     OW38452   1.722   4.008  12.627  0.1907  0.2089 -0.1532
 8940SOL    HW138453   1.671   3.978  12.552 -0.5434 -1.6453  1.0896
 8940SOL    HW238454   1.701   3.946  12.697  0.3256  0.6497  0.2797
 8941SOL     OW38455   1.834   1.510   1.081 -0.2800 -0.2676 -0.5034
 8941SOL    HW138456   1.869   1.476   1.163  0.6975 -1.1965 -1.3039
 8941SOL    HW238457   1.754   1.554   1.108 -0.4656 -1.0288  0.1963
 8942SOL     OW38458   2.135   4.620   5.272 -0.6579 -0.1740  0.2020
 8942SOL    HW138459   2.220   4.577   5.281 -1.2919 -1.4706  0.1338
 8942SOL    HW238460   2.162   4.710   5.285  0.4957 -0.4827 -0.0728
 8943SOL     OW38461   4.501   1.479   4.900 -1.4430  0.6593  0.3670
 8943SOL    HW138462   4.457   1.538   4.837 -0.8911 -0.9383 -1.5224
 8943SOL    HW238463   4.589   1.481   4.863 -0.8085 -1.4880  1.8069
 8944SOL     OW38464   4.248   1.680   9.136 -0.0413 -0.3629  0.1161
 8944SOL    HW138465   4.255   1.620   9.062  1.1222 -2.3189  1.7895
 8944SOL    HW238466   4.196   1.753   9.104  1.3713  0.8033  0.4777
 8945SOL     OW38467   4.022   2.501   7.824  0.6215  0.2089  0.3280
 8945SOL    HW138468   4.003   2.478   7.915  2.3319 -0.8047  0.4446
 8945SOL    HW238469   4.116   2.482   7.817  0.1332 -1.4654 -1.7220
 8946SOL     OW38470   0.139   3.074   4.226 -0.6735  0.2235  0.0202
 8946SOL    HW138471   0.134   2.978   4.226 -1.6997  0.2807 -1.4675
 8946SOL    HW238472   0.076   3.091   4.295  1.5218  0.7683  1.8977
 8947SOL     OW38473   2.439   2.759   9.833  0.1135 -0.6351  0.1686
 8947SOL    HW138474   2.409   2.844   9.801  3.0596  0.7186  1.0420
 8947SOL    HW238475   2.406   2.755   9.923 -2.3224 -0.6763 -0.7084
 8948SOL     OW38476   0.098   4.727   8.131 -0.1907 -0.3159 -0.1461
 8948SOL    HW138477   0.188   0.021   8.119 -0.5679  0.9891  0.5906
 8948SOL    HW238478   0.094   4.651   8.074 -1.3936 -1.0665  0.9357
 8949SOL     OW38479   0.905   3.778   3.666 -0.3853  0.5909 -0.9323
 8949SOL    HW138480   0.949   3.826   3.736  0.0075  0.1008 -0.8433
 8949SOL    HW238481   0.826   3.832   3.657  0.4740  1.6503 -2.0688
 8950SOL     OW38482   2.518   1.501  16.261  0.2649 -0.0893 -0.3886
 8950SOL    HW138483   2.550   1.435  16.200 -1.4355 -1.1382 -0.1268
 8950SOL    HW238484   2.435   1.510  16.215  0.2328 -0.5861 -0.4282
 8951SOL     OW38485   3.641   3.941   5.546 -0.5645 -0.2910 -0.1175
 8951SOL    HW138486   3.687   3.858   5.553  2.0971  1.2530  0.7590
 8951SOL    HW238487   3.603   3.934   5.459 -3.4398 -1.3626  1.2174
 8952SOL     OW38488   4.655   0.301   4.278  0.6265  0.0188  0.3062
 8952SOL    HW138489   4.656   0.299   4.183  0.7753  0.6412  0.2899
 8952SOL    HW238490   4.700   0.222   4.306 -2.0613 -2.1353 -1.5075
 8953SOL     OW38491   0.798   3.320   7.664 -0.2119 -0.0623 -0.2738
 8953SOL    HW138492   0.711   3.354   7.686 -2.0128 -4.4152 -0.5218
 8953SOL    HW238493   0.813   3.365   7.582 -1.1169  1.6669  0.5137
 8954SOL     OW38494   0.139   1.238   1.897 -0.0287  0.0074 -0.2307
 8954SOL    HW138495   0.083   1.292   1.840 -1.4037  0.1927  1.2809
 8954SOL    HW238496   0.098   1.240   1.983  3.0038  2.0133  1.1551
 8955SOL     OW38497   3.703   3.630   3.759 -0.3371  0.2163 -0.6773
 8955SOL    HW138498   3.744   3.700   3.810 -0.8668 -0.8469  1.2098
 8955SOL    HW238499   3.678   3.670   3.676 -0.2814 -0.8998 -1.2390
 8956SOL     OW38500   1.902   0.067   4.890  0.1194  0.2545  0.0554
 8956SOL    HW138501   1.837   0.083   4.958  0.4093 -1.2577  0.7025
 8956SOL    HW238502   1.949   4.736   4.935 -0.8676  0.6966  1.7782
 8957SOL     OW38503   2.889   2.970   7.777  0.0017 -0.0531  0.1377
 8957SOL    HW138504   2.914   2.887   7.819  1.1798  0.3307  0.2000
 8957SOL    HW238505   2.834   2.943   7.704  1.1742  2.9854 -1.8394
 8958SOL     OW38506   2.957   1.196  15.466 -0.0803  0.2026  0.0331
 8958SOL    HW138507   2.935   1.246  15.544 -0.1911  2.5201 -1.4961
 8958SOL    HW238508   2.874   1.157  15.440  0.3143 -0.7716  0.2241
 8959SOL     OW38509   4.184   3.550   6.171  0.2429  0.1453  0.1005
 8959SOL    HW138510   4.217   3.540   6.260  0.1638  0.0228  0.1152
 8959SOL    HW238511   4.215   3.640   6.157  1.1204  0.0354  1.3372
 8960SOL     OW38512   3.895   1.758   3.445  0.3670  0.1302 -0.4151
 8960SOL    HW138513   3.911   1.847   3.412 -2.0488  0.9915  0.7026
 8960SOL    HW238514   3.839   1.777   3.520  0.6330 -1.6192  0.2244
 8961SOL     OW38515   0.788   2.392   0.298  0.0782 -0.1042 -0.2142
 8961SOL    HW138516   0.799   2.437   0.382  3.8673  2.3836 -2.0349
 8961SOL    HW238517   0.761   2.469   0.247  0.6113  0.8919  1.0029
 8962SOL     OW38518   1.393   2.043   8.316 -0.6037 -0.1984 -0.3255
 8962SOL    HW138519   1.425   2.133   8.311 -0.0506 -0.5491 -3.1506
 8962SOL    HW238520   1.310   2.049   8.267 -1.0148  1.3028  0.5622
 8963SOL     OW38521   4.210   2.230   3.549  0.2447 -0.4095 -0.4387
 8963SOL    HW138522   4.283   2.287   3.572 -0.6658  1.3315 -1.8984
 8963SOL    HW238523   4.242   2.141   3.560 -0.3169 -0.3964  1.4625
 8964SOL     OW38524   1.846   1.390  10.631  0.2305 -0.1735 -0.0079
 8964SOL    HW138525   1.771   1.446  10.651  0.3253 -0.5375  1.4256
 8964SOL    HW238526   1.870   1.430  10.548 -0.3710  0.0075 -0.0954
 8965SOL     OW38527   0.610   3.744   9.855  0.1820 -0.3094  0.2104
 8965SOL    HW138528   0.628   3.836   9.839  0.4734  0.0390  2.5341
 8965SOL    HW238529   0.623   3.706   9.768  3.1062 -0.3458  0.6585
 8966SOL     OW38530   3.462   0.186   5.561  0.1137 -0.2604  0.2583
 8966SOL    HW138531   3.495   0.234   5.485  0.5411  1.7555  1.6889
 8966SOL    HW238532   3.458   0.255   5.628  0.0849 -0.2633  0.2597
 8967SOL     OW38533   3.724   4.352  14.156 -0.2804  0.0927 -0.3980
 8967SOL    HW138534   3.742   4.439  14.193 -0.2072  0.3244 -0.9761
 8967SOL    HW238535   3.704   4.364  14.063  1.8012 -1.9951 -1.1258
 8968SOL     OW38536   0.372   0.033  12.591 -0.3790 -0.2834  0.5908
 8968SOL    HW138537   0.332   0.064  12.509 -1.9954 -0.1155  1.4456
 8968SOL    HW238538   0.438   0.098  12.613 -3.0811  2.0223  1.9471
 8969SOL     OW38539   0.030   2.659   6.563  0.0606  0.5538 -0.3293
 8969SOL    HW138540   0.125   2.667   6.559  0.0300  1.4285  0.7986
 8969SOL    HW238541   0.017   2.714   6.485 -0.4401 -0.8021 -1.1946
 8970SOL     OW38542   2.728   0.100   5.735 -0.3128 -0.1430  0.8311
 8970SOL    HW138543   2.650   0.143   5.701  0.9106  0.9972 -0.5667
 8970SOL    HW238544   2.742   0.032   5.668 -0.2092  0.5716  0.1240
 8971SOL     OW38545   0.185   4.578   9.188  0.0630 -0.2357  0.2654
 8971SOL    HW138546   0.183   4.495   9.140 -3.5293 -0.1839  0.3365
 8971SOL    HW238547   0.214   4.545   9.274  1.0841 -0.3684 -0.1347
 8972SOL     OW38548   0.244   3.555   0.593 -0.1103  0.1574 -0.1637
 8972SOL    HW138549   0.330   3.574   0.556 -0.0461 -1.6606 -0.9516
 8972SOL    HW238550   0.271   3.474   0.637  0.5785  1.9659  2.7998
 8973SOL     OW38551   1.885   4.107  15.736  0.2454 -0.1975 -1.0789
 8973SOL    HW138552   1.820   4.137  15.673  1.1313 -2.6866 -3.1665
 8973SOL    HW238553   1.836   4.031  15.769  1.1625 -0.8515 -1.2129
 8974SOL     OW38554   3.156   1.207   5.267 -0.2889 -0.0291 -0.1168
 8974SOL    HW138555   3.075   1.234   5.311  1.0025  0.1789  2.1509
 8974SOL    HW238556   3.121   1.192   5.179  0.3757  1.3117 -0.6075
 8975SOL     OW38557   2.873   1.872   3.949  0.7888  0.1106 -0.1033
 8975SOL    HW138558   2.845   1.851   4.038 -1.5364  0.2389 -0.8070
 8975SOL    HW238559   2.784   1.861   3.918 -0.1613 -0.6711  2.8599
 8976SOL     OW38560   1.441   2.322   1.457 -0.0503 -0.0427 -0.2479
 8976SOL    HW138561   1.496   2.328   1.535 -0.5442  0.7250  0.0333
 8976SOL    HW238562   1.381   2.248   1.470 -1.3585  0.7023 -2.0867
 8977SOL     OW38563   1.732   4.216   3.639 -0.1592 -0.0926  0.2154
 8977SOL    HW138564   1.686   4.144   3.680 -0.2320  0.3954  0.9943
 8977SOL    HW238565   1.667   4.286   3.633  1.0302  0.8950 -1.4880
 8978SOL     OW38566   4.563   3.465   8.164  0.2547 -0.1067 -0.1294
 8978SOL    HW138567   4.517   3.515   8.096  1.8221 -0.5639 -1.5132
 8978SOL    HW238568   4.619   3.415   8.104  2.0944  1.3899  0.3502
 8979SOL     OW38569   2.618   0.153   2.608 -0.0494 -0.0393  0.1255
 8979SOL    HW138570   2.613   0.155   2.512  1.4923  1.7741  0.0730
 8979SOL    HW238571   2.709   0.181   2.616 -0.1525 -0.0494  1.2895
 8980SOL     OW38572   3.982   2.281   5.642 -0.8248  0.6597 -0.2595
 8980SOL    HW138573   3.968   2.368   5.605  2.2614  1.0941 -0.4610
 8980SOL    HW238574   4.003   2.223   5.568  0.7887  1.4815 -0.4526
 8981SOL     OW38575   4.305   1.207   4.262 -0.1393  0.4092 -0.8741
 8981SOL    HW138576   4.244   1.136   4.281  1.8381 -1.1552 -0.3450
 8981SOL    HW238577   4.381   1.188   4.318  1.2180  1.1014 -2.4692
 8982SOL     OW38578   4.124   0.841   2.389 -0.3132  0.6115  0.1282
 8982SOL    HW138579   4.095   0.884   2.470  1.2405  0.1157  0.9509
 8982SOL    HW238580   4.189   0.780   2.422 -1.8614 -1.5226 -0.7793
 8983SOL     OW38581   2.382   3.175   2.505  0.1224 -0.2890  0.5894
 8983SOL    HW138582   2.372   3.145   2.596 -1.0162  2.1710  1.2515
 8983SOL    HW238583   2.334   3.257   2.509  0.3580 -0.1188 -0.0689
 8984SOL     OW38584   2.447   1.461   7.900 -0.7059  0.0770 -0.2910
 8984SOL    HW138585   2.386   1.440   7.971  0.4675  1.2766  1.0645
 8984SOL    HW238586   2.524   1.411   7.926 -0.6869  0.1667 -0.1764
 8985SOL     OW38587   2.990   1.079  17.463 -0.6103 -0.2079 -0.7225
 8985SOL    HW138588   2.916   1.061  17.522  1.7097 -0.5106  2.0986
 8985SOL    HW238589   2.989   1.000  17.409 -2.5445 -1.8981  1.7545
 8986SOL     OW38590   1.608   2.564  16.164 -0.5477  0.4359 -0.3441
 8986SOL    HW138591   1.667   2.626  16.205 -0.0961  0.2528 -0.7197
 8986SOL    HW238592   1.576   2.512  16.238 -1.2226 -0.7514 -1.4723
 8987SOL     OW38593   0.857   0.093   4.920 -0.1833 -0.2266  0.1907
 8987SOL    HW138594   0.947   0.062   4.909  0.1748  1.1589 -0.8901
 8987SOL    HW238595   0.839   0.095   4.826 -1.1988  1.1082  0.4150
 8988SOL     OW38596   0.728   3.989   6.435  0.4186 -0.2200 -0.2893
 8988SOL    HW138597   0.767   4.022   6.354  1.0169 -2.0910 -0.7500
 8988SOL    HW238598   0.705   4.071   6.480  0.7479  0.5591 -1.5509
 8989SOL     OW38599   2.855   1.851   5.949  0.1878 -0.8717  0.4196
 8989SOL    HW138600   2.889   1.777   5.899  0.3204  1.3520 -2.7366
 8989SOL    HW238601   2.899   1.918   5.896 -3.4476  1.8447  0.8934
 8990SOL     OW38602   0.409   3.087   7.383  0.6408  0.3885 -0.3317
 8990SOL    HW138603   0.502   3.077   7.401  0.6461 -0.3962 -0.7754
 8990SOL    HW238604   0.413   3.105   7.289  1.9327  0.7649 -0.2030
 8991SOL     OW38605   0.001   2.475   9.516 -0.0141 -0.8016  0.1803
 8991SOL    HW138606   0.065   2.529   9.562  0.7367 -1.1366 -0.4632
 8991SOL    HW238607   4.679   2.544   9.487  0.0812 -1.8487 -2.5468
 8992SOL     OW38608   0.300   0.935   6.913 -0.3389  0.2919  0.0815
 8992SOL    HW138609   0.366   0.870   6.937 -1.0630 -0.5625 -0.2251
 8992SOL    HW238610   0.231   0.875   6.884  1.1780 -1.9326  0.9985
 8993SOL     OW38611   1.824   3.557   4.464  0.0639 -0.3764  0.0790
 8993SOL    HW138612   1.845   3.556   4.558  1.6878  0.0779 -0.2798
 8993SOL    HW238613   1.733   3.531   4.455  0.7052 -1.8729 -2.0718
 8994SOL     OW38614   3.696   3.271   2.975 -0.3547 -0.0838  0.6315
 8994SOL    HW138615   3.726   3.191   3.018 -1.0610 -0.2363  0.8464
 8994SOL    HW238616   3.656   3.312   3.052  1.1798 -0.7792  1.8092
 8995SOL     OW38617   0.095   0.853   8.600  0.4185 -0.2921 -0.0207
 8995SOL    HW138618   0.093   0.767   8.642 -1.6116 -0.3542 -0.2539
 8995SOL    HW238619   0.009   0.890   8.621  0.7574 -0.0714  0.9546
 8996SOL     OW38620   3.554   3.187   5.109  0.6580  0.0833  0.0004
 8996SOL    HW138621   3.583   3.274   5.083 -1.0388  0.4162 -0.7838
 8996SOL    HW238622   3.498   3.208   5.184  0.1713  0.4715 -0.4656
 8997SOL     OW38623   4.069   2.299   2.961 -0.4669  0.4457  0.3317
 8997SOL    HW138624   4.154   2.342   2.953 -1.7361  2.4882 -2.2631
 8997SOL    HW238625   4.014   2.370   2.927  0.3545  0.8936 -0.0806
 8998SOL     OW38626   1.768   0.819  10.641  0.4864 -0.5121  0.2862
 8998SOL    HW138627   1.860   0.829  10.617  0.2555 -0.9470 -0.7789
 8998SOL    HW238628   1.778   0.790  10.732  2.6406  0.4937  0.3456
 8999SOL     OW38629   3.178   1.445  17.700  0.6687 -0.1227  0.1253
 8999SOL    HW138630   3.182   1.350  17.708 -1.7413 -0.2026  0.3039
 8999SOL    HW238631   3.244   1.465   0.013  0.9362 -1.0285  0.1272
 9000SOL     OW38632   1.028   2.720   2.903  0.1284 -0.8642  0.0812
 9000SOL    HW138633   0.998   2.648   2.847  0.1055 -1.4219  0.8015
 9000SOL    HW238634   0.957   2.781   2.883  2.7814  1.8226 -1.0103
 9001SOL     OW38635   3.955   3.090   1.124 -0.1131  0.4996  0.0349
 9001SOL    HW138636   3.875   3.098   1.072 -0.7043 -0.5771  0.7704
 9001SOL    HW238637   4.023   3.082   1.057 -0.5749 -1.6668 -0.1564
 9002SOL     OW38638   1.230   2.619   0.354 -0.9037 -0.1203  0.0176
 9002SOL    HW138639   1.195   2.643   0.268 -1.6872 -1.8492 -0.1532
 9002SOL    HW238640   1.321   2.595   0.340 -0.5814  0.5193  1.0153
 9003SOL     OW38641   0.121   4.411  16.741 -0.3800 -1.1818 -0.6321
 9003SOL    HW138642   0.036   4.404  16.699 -2.1490 -1.8327  3.0366
 9003SOL    HW238643   0.176   4.440  16.668 -2.2874  3.1865 -0.2768
 9004SOL     OW38644   2.884   2.771   4.046  0.1753  0.0095 -0.5704
 9004SOL    HW138645   2.957   2.731   4.001  0.9190  0.5624  0.1336
 9004SOL    HW238646   2.882   2.857   4.005  0.8227  0.1334 -0.3341
 9005SOL     OW38647   3.323   4.670   3.546 -0.3103 -0.3082 -0.5545
 9005SOL    HW138648   3.313   4.673   3.450 -3.2930 -0.2436 -0.2244
 9005SOL    HW238649   3.243   4.625   3.573  0.2909 -0.7958  0.4018
 9006SOL     OW38650   4.027   4.383   3.508  0.4055 -0.3367  0.5754
 9006SOL    HW138651   4.068   4.300   3.531  1.1201  0.4647  2.1633
 9006SOL    HW238652   4.046   4.396   3.415 -0.2828  1.7396  0.7278
 9007SOL     OW38653   4.098   4.295   2.134 -0.0906  0.6060 -0.8778
 9007SOL    HW138654   4.062   4.241   2.204  0.9703  0.5467 -0.3915
 9007SOL    HW238655   4.021   4.350   2.120 -0.9332 -0.4212 -0.3163
 9008SOL     OW38656   2.519   3.630   5.557 -0.4496  0.0793 -0.0579
 9008SOL    HW138657   2.445   3.576   5.531 -0.3281 -1.3130  2.5011
 9008SOL    HW238658   2.565   3.578   5.622 -0.2870 -0.5757 -0.6944
 9009SOL     OW38659   4.717   1.609   3.862 -0.8698 -0.0108  0.5172
 9009SOL    HW138660   0.061   1.655   3.876 -0.0065 -1.1329 -0.9277
 9009SOL    HW238661   4.664   1.674   3.908 -1.0244  1.6106 -1.9778
 9010SOL     OW38662   2.733   2.083   9.152  0.3156 -0.4708  0.2660
 9010SOL    HW138663   2.826   2.099   9.162  0.6069 -1.1271 -1.4916
 9010SOL    HW238664   2.731   1.987   9.145 -1.2568 -0.2881 -1.8223
 9011SOL     OW38665   2.652   4.286   6.327  0.1129  0.2488  0.2523
 9011SOL    HW138666   2.570   4.296   6.375 -1.2707 -1.1698 -1.8101
 9011SOL    HW238667   2.648   4.352   6.258  0.6049  0.6305  0.5930
 9012SOL     OW38668   4.231   2.443  12.111 -0.7873 -0.2251  0.2025
 9012SOL    HW138669   4.291   2.499  12.062  1.1300 -0.2266  2.5311
 9012SOL    HW238670   4.152   2.466  12.062  0.7504  1.5204 -1.4605
 9013SOL     OW38671   3.831   3.069   3.779 -0.1827  0.2209  0.5022
 9013SOL    HW138672   3.845   3.037   3.868  1.0262 -2.7842 -0.7718
 9013SOL    HW238673   3.736   3.059   3.771 -0.3751  0.2462  2.8377
 9014SOL     OW38674   0.617   3.279   7.893  0.1904 -0.0097 -0.0255
 9014SOL    HW138675   0.543   3.219   7.887  0.7710 -0.6690 -0.4664
 9014SOL    HW238676   0.673   3.207   7.922  0.7188  0.5036  0.2263
 9015SOL     OW38677   2.918   4.134  10.792 -0.1890  0.0391  0.4739
 9015SOL    HW138678   2.841   4.189  10.806  0.0865  0.3138  0.8952
 9015SOL    HW238679   2.885   4.057  10.838  1.2488 -1.3896 -0.8974
 9016SOL     OW38680   0.684   4.097   1.143  0.0449 -0.8003  0.6725
 9016SOL    HW138681   0.721   4.087   1.230 -1.2848  0.4817  1.4016
 9016SOL    HW238682   0.594   4.108   1.173  0.1957 -0.1771  0.8967
 9017SOL     OW38683   0.803   3.914   5.924  0.5609 -0.0968  0.0947
 9017SOL    HW138684   0.780   3.892   6.014  0.7414  0.6886  0.3307
 9017SOL    HW238685   0.793   4.009   5.924  1.7585  0.0363 -1.4054
 9018SOL     OW38686   2.890   2.334   8.094 -0.1853  0.5583 -0.0370
 9018SOL    HW138687   2.846   2.404   8.142 -0.3239 -1.3538  2.6503
 9018SOL    HW238688   2.981   2.364   8.095 -0.0527  0.1192  1.2984
 9019SOL     OW38689   2.892   3.374   3.837  0.3182 -0.4788 -0.1720
 9019SOL    HW138690   2.926   3.290   3.806 -0.5265 -0.2450 -1.7312
 9019SOL    HW238691   2.800   3.368   3.811  0.3893 -3.0158  0.1722
 9020SOL     OW38692   3.567   2.482   4.793 -0.3352 -0.0808 -0.1041
 9020SOL    HW138693   3.496   2.459   4.853  0.2731 -2.7371 -0.3891
 9020SOL    HW238694   3.634   2.417   4.817 -1.1317 -0.5224  0.9510
 9021SOL     OW38695   4.053   0.331   1.610 -0.2436 -0.4619 -0.1161
 9021SOL    HW138696   4.011   0.312   1.526  0.2749  1.1521 -0.7394
 9021SOL    HW238697   3.978   0.310   1.666 -0.9709 -1.7715 -1.5627
 9022SOL     OW38698   3.701   4.253  10.004  0.2078 -0.6694 -0.1066
 9022SOL    HW138699   3.706   4.335  10.052 -0.9221 -1.4923  1.4125
 9022SOL    HW238700   3.605   4.250  10.003  0.1769  0.0096  1.1682
 9023SOL     OW38701   1.409   0.794   5.985 -0.1090  0.4285 -0.3697
 9023SOL    HW138702   1.356   0.866   6.019  3.2274  3.2862 -1.1908
 9023SOL    HW238703   1.344   0.726   5.999 -1.2269  1.6396  0.3938
 9024SOL     OW38704   1.473   4.064  15.197  0.5236  0.0415  0.1692
 9024SOL    HW138705   1.540   4.010  15.154  2.3295  1.0972  1.6422
 9024SOL    HW238706   1.447   4.002  15.264  0.7271 -1.0760 -0.7905
 9025SOL     OW38707   3.017   0.928  17.247 -0.4280 -0.1717 -0.0288
 9025SOL    HW138708   3.010   0.844  17.201 -0.9587  0.5373 -1.2497
 9025SOL    HW238709   3.100   0.963  17.214  0.1329  1.5996  3.2825
 9026SOL     OW38710   0.061   4.260  16.964 -0.0697  0.1636  0.3448
 9026SOL    HW138711   0.100   4.322  16.903 -1.7238  0.5339 -0.3533
 9026SOL    HW238712   4.710   4.293  16.959 -0.2298 -0.4235 -0.6993
 9027SOL     OW38713   2.143   4.538   0.522  0.1048 -0.7800  0.0652
 9027SOL    HW138714   2.059   4.541   0.476 -1.0137 -2.4537  1.9499
 9027SOL    HW238715   2.145   4.442   0.525  1.3286 -0.8049 -1.9563
 9028SOL     OW38716   3.252   3.257   3.429  0.0106  0.5766  0.2604
 9028SOL    HW138717   3.319   3.287   3.490  0.8728  1.8858 -1.3257
 9028SOL    HW238718   3.301   3.192   3.377  0.3062  0.3683  0.7955
 9029SOL     OW38719   4.388   2.544   3.365 -0.1367  0.8008 -0.3637
 9029SOL    HW138720   4.403   2.481   3.436  1.6257 -0.4021 -1.7839
 9029SOL    HW238721   4.294   2.533   3.355 -0.1201 -0.8597  1.3016
 9030SOL     OW38722   1.284   0.273   3.160  0.2608 -0.4479  0.5698
 9030SOL    HW138723   1.331   0.253   3.079 -0.2755 -0.0407  0.1595
 9030SOL    HW238724   1.250   0.185   3.174  0.2050 -0.5939 -0.4663
 9031SOL     OW38725   0.796   2.833   2.797 -0.8831  0.7468 -0.2390
 9031SOL    HW138726   0.707   2.858   2.770 -0.3987  1.9652 -0.6707
 9031SOL    HW238727   0.845   2.846   2.716  1.3681 -1.1136  0.8316
 9032SOL     OW38728   1.807   1.041   6.514 -0.0338 -0.7691  0.2129
 9032SOL    HW138729   1.821   0.977   6.584  1.0688 -1.2915 -0.4954
 9032SOL    HW238730   1.901   1.046   6.501  0.1728 -0.3198  1.8586
 9033SOL     OW38731   0.277   3.353  14.433 -0.3792  0.2355  0.5877
 9033SOL    HW138732   0.203   3.350  14.373 -0.8197  1.7204  1.0470
 9033SOL    HW238733   0.236   3.383  14.514 -2.2531  0.7096 -0.5526
 9034SOL     OW38734   4.576   3.991   8.097 -0.1033  0.1771  0.4740
 9034SOL    HW138735   4.492   4.033   8.078  0.1258  0.4272  0.0241
 9034SOL    HW238736   4.638   4.063   8.090 -1.1749  1.0402 -0.2199
 9035SOL     OW38737   1.189   4.082   9.190 -0.7087 -0.5242  0.3154
 9035SOL    HW138738   1.113   4.141   9.195 -0.7107 -0.5134  0.1504
 9035SOL    HW238739   1.166   4.042   9.107 -2.4095 -0.2245  0.6325
 9036SOL     OW38740   1.158   1.269   5.942 -0.4430  0.2835 -0.6084
 9036SOL    HW138741   1.171   1.304   6.030  2.0654  2.1434 -1.7048
 9036SOL    HW238742   1.129   1.180   5.960 -2.3916  0.9196 -0.5842
 9037SOL     OW38743   3.532   2.913   4.573  0.2747 -0.3308  0.0789
 9037SOL    HW138744   3.618   2.891   4.537  0.4502 -0.0656  0.3408
 9037SOL    HW238745   3.479   2.860   4.513 -2.1228  1.5323  0.5679
 9038SOL     OW38746   1.094   2.687  17.575  0.3915  0.2371 -0.0842
 9038SOL    HW138747   1.178   2.713  17.539  0.9903  1.3781  2.1144
 9038SOL    HW238748   1.086   2.597  17.544  1.3838 -0.1415  0.7676
 9039SOL     OW38749   0.081   1.127   6.496 -0.1225 -0.0614 -0.1488
 9039SOL    HW138750   0.152   1.098   6.554 -0.4657 -0.7626 -0.0771
 9039SOL    HW238751   0.021   1.054   6.510 -0.9904  0.6456 -0.2013
 9040SOL     OW38752   4.149   4.701   9.100 -0.3463  0.5426  0.1982
 9040SOL    HW138753   4.088   0.011   9.045  2.0409  0.9628 -2.0512
 9040SOL    HW238754   4.081   4.665   9.157  1.5860 -0.5485  1.7888
 9041SOL     OW38755   2.398   0.882   8.228 -0.4514  0.1169  0.4226
 9041SOL    HW138756   2.336   0.849   8.164  0.4266  1.0187 -0.8916
 9041SOL    HW238757   2.347   0.962   8.245 -0.5932 -0.3707  2.3486
 9042SOL     OW38758   2.546   4.023   1.821  0.6683 -0.3146 -0.6068
 9042SOL    HW138759   2.510   4.110   1.803 -0.8792 -1.0477 -1.1057
 9042SOL    HW238760   2.476   3.976   1.867  1.9868  0.7142  2.4376
 9043SOL     OW38761   3.233   0.919   2.991  0.0478  0.0976  0.4590
 9043SOL    HW138762   3.162   0.945   3.050 -1.6919 -1.1593 -1.1037
 9043SOL    HW238763   3.275   1.005   2.983  1.4396 -0.3554  2.7159
 9044SOL     OW38764   4.474   1.212   4.787  0.2576 -0.7003 -0.1437
 9044SOL    HW138765   4.507   1.287   4.838 -2.2799 -0.1290  0.6858
 9044SOL    HW238766   4.380   1.228   4.796  0.2507 -0.8206 -0.0044
 9045SOL     OW38767   3.685   0.324  16.241 -0.5981  0.1719 -0.2927
 9045SOL    HW138768   3.770   0.310  16.282 -0.2456  0.5215 -0.9032
 9045SOL    HW238769   3.647   0.392  16.296 -1.5407 -0.2110 -0.4556
 9046SOL     OW38770   1.375   1.245   3.224 -0.4131  0.0596 -0.1416
 9046SOL    HW138771   1.406   1.293   3.301 -0.0285  0.1026 -0.3195
 9046SOL    HW238772   1.461   1.226   3.185  0.3538 -1.7961  2.4981
 9047SOL     OW38773   0.772   1.040   3.492  0.0087 -0.2639 -0.1733
 9047SOL    HW138774   0.794   1.056   3.400  2.0136  0.8337  0.4977
 9047SOL    HW238775   0.804   0.952   3.512  2.1480  1.2860  3.2755
 9048SOL     OW38776   0.442   3.045   8.389 -0.3089 -0.3681 -0.2177
 9048SOL    HW138777   0.516   2.992   8.420  0.5141  0.2872 -1.0272
 9048SOL    HW238778   0.480   3.128   8.419 -0.1846 -0.0071 -1.3764
 9049SOL     OW38779   1.491   1.165   7.885  0.0203  0.4237  0.3415
 9049SOL    HW138780   1.437   1.170   7.964  0.8057 -1.4353  0.9875
 9049SOL    HW238781   1.494   1.071   7.869  2.6689  1.0977 -2.9811
 9050SOL     OW38782   1.777   1.219  17.327 -0.2374  0.0506 -0.0034
 9050SOL    HW138783   1.857   1.235  17.278 -0.4412 -1.7470 -0.9341
 9050SOL    HW238784   1.723   1.215  17.248 -0.0798 -1.3756 -0.0365
 9051SOL     OW38785   4.341   1.931   6.941 -0.8370 -0.3157 -0.0011
 9051SOL    HW138786   4.313   1.905   6.853 -0.1590  0.5117 -0.4658
 9051SOL    HW238787   4.287   2.009   6.955  1.8905  1.6562 -0.3730
 9052SOL     OW38788   0.221   3.749   9.896 -1.0647 -0.4831 -0.1337
 9052SOL    HW138789   0.193   3.699   9.973  0.5371  1.3073  1.5951
 9052SOL    HW238790   0.156   3.820   9.900  0.8124  1.2432 -0.5133
 9053SOL     OW38791   3.817   3.858  15.614 -0.3773  0.1495 -0.0298
 9053SOL    HW138792   3.734   3.883  15.571  1.3427  1.7052 -2.4666
 9053SOL    HW238793   3.884   3.866  15.546  0.3738  1.1623  0.8320
 9054SOL     OW38794   3.596   1.828   2.873 -0.0786  0.6383  0.4656
 9054SOL    HW138795   3.628   1.755   2.821  0.2946  0.7798  0.4941
 9054SOL    HW238796   3.505   1.808   2.893  0.4563 -1.7614  0.5084
 9055SOL     OW38797   1.949   2.926   6.104 -0.0783  0.6652  0.4108
 9055SOL    HW138798   1.952   2.890   6.193 -0.6391 -0.2546  0.0680
 9055SOL    HW238799   1.922   2.845   6.060  1.1721 -0.0590  0.9734
 9056SOL     OW38800   1.968   3.843  12.529 -0.1366 -0.2770  0.0832
 9056SOL    HW138801   1.924   3.788  12.594  3.2592 -2.2709  0.6665
 9056SOL    HW238802   1.907   3.917  12.523 -0.2483 -0.4839 -1.4374
 9057SOL     OW38803   0.337   0.704   9.209 -0.0466 -0.2380  0.6462
 9057SOL    HW138804   0.301   0.749   9.286 -1.9720  0.1979 -0.5057
 9057SOL    HW238805   0.422   0.749   9.213 -1.0159  1.7726 -0.9363
 9058SOL     OW38806   2.472   1.488   1.227  0.2371 -0.2712 -0.1635
 9058SOL    HW138807   2.424   1.409   1.255  1.1779 -1.0307 -0.6961
 9058SOL    HW238808   2.451   1.549   1.297  0.6436 -0.1171 -0.1769
 9059SOL     OW38809   1.343   0.428   8.245  0.0232  0.2852 -0.1390
 9059SOL    HW138810   1.328   0.519   8.273 -1.0548 -0.2218  0.9541
 9059SOL    HW238811   1.437   0.415   8.234  0.3663  1.2629  1.5704
 9060SOL     OW38812   3.251   2.689   3.374 -0.2780  0.2081 -0.4522
 9060SOL    HW138813   3.292   2.641   3.445  0.5387  1.2999 -0.1895
 9060SOL    HW238814   3.284   2.778   3.364 -0.3316  0.3540  0.7486
 9061SOL     OW38815   0.617   3.527   7.791 -0.1342  0.4866  0.5679
 9061SOL    HW138816   0.539   3.576   7.816 -0.1259  0.9618 -0.3258
 9061SOL    HW238817   0.596   3.451   7.845  1.8979 -0.8643 -0.5544
 9062SOL     OW38818   0.753   3.533   5.004 -0.3495  0.2727  0.2619
 9062SOL    HW138819   0.828   3.509   5.057 -1.7761 -2.3851  1.0623
 9062SOL    HW238820   0.715   3.452   4.971 -0.3768 -0.1425  1.2894
 9063SOL     OW38821   3.348   0.671   5.990 -0.0049 -0.5487  0.3332
 9063SOL    HW138822   3.312   0.592   6.031  2.4556 -2.2674 -0.8498
 9063SOL    HW238823   3.438   0.639   5.989  0.3384  0.3664  1.5096
 9064SOL     OW38824   4.539   0.193   3.442 -0.1981 -0.5751  0.7863
 9064SOL    HW138825   4.592   0.114   3.428 -0.5359 -1.1045  2.4872
 9064SOL    HW238826   4.473   0.195   3.372  0.0742  0.1649  0.5588
 9065SOL     OW38827   3.169   4.284   5.353 -0.6122 -0.0608 -0.8340
 9065SOL    HW138828   3.216   4.278   5.436 -3.1927  1.3560  0.7063
 9065SOL    HW238829   3.233   4.247   5.292 -1.3197 -1.9222 -0.4614
 9066SOL     OW38830   3.814   3.335   7.671  0.6768 -0.0448  0.1783
 9066SOL    HW138831   3.819   3.239   7.681 -1.8725 -0.3389 -1.3111
 9066SOL    HW238832   3.725   3.359   7.698  0.7725  0.1582  0.3091
 9067SOL     OW38833   4.661   1.329   6.346  0.2371  0.6301 -0.0833
 9067SOL    HW138834   4.717   1.274   6.400 -0.5131  0.3048  0.3563
 9067SOL    HW238835   4.597   1.264   6.317 -0.6777  1.5253 -0.1066
 9068SOL     OW38836   2.803   1.956   0.231 -0.7147 -0.4085 -0.0001
 9068SOL    HW138837   2.730   2.019   0.233  0.4462  0.9676 -1.2591
 9068SOL    HW238838   2.773   1.892   0.167 -0.0656  1.1819 -1.8902
 9069SOL     OW38839   4.693   4.360   8.916 -0.0413  0.0752 -0.4978
 9069SOL    HW138840   4.730   4.275   8.938 -1.8686 -0.3570  0.8901
 9069SOL    HW238841   0.036   4.408   8.904 -0.4741  0.7653 -0.7139
 9070SOL     OW38842   1.772   4.027   5.569 -0.0884 -0.1722 -0.3229
 9070SOL    HW138843   1.761   3.947   5.517  1.6784  0.1022 -1.1112
 9070SOL    HW238844   1.854   4.005   5.614 -0.8949 -2.2290  0.1506
 9071SOL     OW38845   2.584   0.200   6.258 -0.4303 -0.8973 -0.3296
 9071SOL    HW138846   2.636   0.201   6.177  0.0617  0.0532 -0.0022
 9071SOL    HW238847   2.653   0.203   6.324  0.2745 -2.8140 -0.9563
 9072SOL     OW38848   0.566   0.228   2.842 -0.4660 -0.6037  0.5680
 9072SOL    HW138849   0.505   0.231   2.915 -0.3357  0.2964  0.6368
 9072SOL    HW238850   0.644   0.198   2.889  0.3031  0.3633 -0.1089
 9073SOL     OW38851   4.277   0.138   5.589  0.3111 -0.2648  0.1221
 9073SOL    HW138852   4.205   0.129   5.526  0.2988 -0.2021  0.1266
 9073SOL    HW238853   4.337   0.199   5.546  1.7076 -1.9070 -0.2450
 9074SOL     OW38854   1.360   1.487  14.074 -0.6584  0.3980  0.5245
 9074SOL    HW138855   1.304   1.460  14.147 -2.1283 -1.0247 -1.1420
 9074SOL    HW238856   1.365   1.408  14.020 -2.1913 -0.7502  2.0336
 9075SOL     OW38857   1.799   3.164   2.696  0.0515 -0.0311  0.2217
 9075SOL    HW138858   1.800   3.117   2.612  2.0855  1.2345 -0.4708
 9075SOL    HW238859   1.708   3.169   2.724 -0.7813 -1.8514 -2.1044
 9076SOL     OW38860   1.343   4.629   4.278 -0.3121 -0.1354  0.4502
 9076SOL    HW138861   1.321   4.693   4.210  0.5191  0.6174  0.8924
 9076SOL    HW238862   1.295   4.549   4.255  1.1552 -1.2601  1.3680
 9077SOL     OW38863   1.618   0.884  11.151 -0.7936  0.9924  0.4711
 9077SOL    HW138864   1.643   0.853  11.238  1.5994  0.8457 -0.2915
 9077SOL    HW238865   1.679   0.957  11.153  1.5040 -0.9056 -1.1601
 9078SOL     OW38866   1.091   0.189  14.000  0.3120  0.0562 -0.0908
 9078SOL    HW138867   1.158   0.145  14.053 -0.1713 -0.7909 -0.1720
 9078SOL    HW238868   1.139   0.265  13.970 -1.2986  0.9632 -0.3655
 9079SOL     OW38869   0.992   0.895   8.086 -0.3236 -0.0050  0.3107
 9079SOL    HW138870   0.913   0.946   8.106 -0.8692  0.2220 -2.3666
 9079SOL    HW238871   0.965   0.849   8.007 -0.5910  1.5125 -0.4915
 9080SOL     OW38872   1.344   2.749   6.504 -0.7719 -0.2613  0.7071
 9080SOL    HW138873   1.353   2.844   6.506 -0.9476 -0.2219 -0.4069
 9080SOL    HW238874   1.326   2.737   6.411 -3.2810 -0.9317  1.2608
 9081SOL     OW38875   3.333   1.228   8.041  0.2803 -0.1973  0.2928
 9081SOL    HW138876   3.286   1.238   7.958  1.0584 -0.0718 -0.1344
 9081SOL    HW238877   3.423   1.232   8.006 -0.0069 -0.5560 -0.4988
 9082SOL     OW38878   0.186   4.638   6.916  0.5050 -0.0105 -0.2369
 9082SOL    HW138879   0.164   4.729   6.934  0.7634 -0.0958  0.5000
 9082SOL    HW238880   0.280   4.643   6.901  0.8759 -1.3538  1.6012
 9083SOL     OW38881   3.080   0.797  15.364  0.1193  0.1303 -0.0839
 9083SOL    HW138882   2.986   0.817  15.367  0.4880  1.5601  1.7375
 9083SOL    HW238883   3.118   0.883  15.344 -1.6058  0.8226 -0.4228
 9084SOL     OW38884   2.827   2.937  16.595  0.3410  0.1349  0.1194
 9084SOL    HW138885   2.826   3.017  16.647  0.9981  0.6245 -0.6146
 9084SOL    HW238886   2.793   2.971  16.512 -1.2782 -1.6417  0.0393
 9085SOL     OW38887   4.559   0.303   5.395 -0.0019 -0.2986 -0.2993
 9085SOL    HW138888   4.636   0.254   5.425 -0.6706 -1.0816  0.1733
 9085SOL    HW238889   4.602   0.378   5.355  1.5633 -0.9323  0.2138
 9086SOL     OW38890   1.732   1.642  17.405 -0.1392  0.2872 -0.1692
 9086SOL    HW138891   1.773   1.719  17.444  0.9351 -0.4748  0.2266
 9086SOL    HW238892   1.791   1.573  17.437  0.4746  0.4684 -0.9120
 9087SOL     OW38893   2.526   3.192   4.837  0.3726  0.0269  0.1707
 9087SOL    HW138894   2.441   3.184   4.879  0.5630  0.0023  0.5510
 9087SOL    HW238895   2.529   3.124   4.770  1.0439 -0.0874  0.3161
 9088SOL     OW38896   0.956   4.361   8.522  0.5792 -0.2933 -0.1648
 9088SOL    HW138897   0.933   4.451   8.546  1.8561  0.6454 -2.5555
 9088SOL    HW238898   0.868   4.339   8.490  0.2537 -0.4999  0.8679
 9089SOL     OW38899   2.620   1.249  17.324 -0.0754 -1.0058 -0.1851
 9089SOL    HW138900   2.685   1.187  17.293 -2.6269 -2.0959 -3.3614
 9089SOL    HW238901   2.672   1.302  17.385 -1.8155 -0.2281  0.6351
 9090SOL     OW38902   1.216   4.454   7.143  0.4625  0.0377 -0.7599
 9090SOL    HW138903   1.300   4.475   7.183 -0.2412  1.3629  0.0276
 9090SOL    HW238904   1.253   4.440   7.056  4.9986 -2.8698  1.6614
 9091SOL     OW38905   1.986   2.993   3.105 -0.5638 -0.1124 -0.1146
 9091SOL    HW138906   1.899   2.985   3.144  0.8761 -0.6896  2.9634
 9091SOL    HW238907   1.969   2.966   3.015 -0.8786  0.1990 -0.1462
 9092SOL     OW38908   0.558   3.144  11.534 -0.1751  0.2598 -0.0443
 9092SOL    HW138909   0.535   3.217  11.592  1.2333  0.7313 -0.0790
 9092SOL    HW238910   0.526   3.069  11.584 -2.5667  0.7765 -0.8110
 9093SOL     OW38911   2.068   2.050   6.180 -0.0611 -0.9746 -0.2731
 9093SOL    HW138912   1.976   2.073   6.178  0.2794  0.1056 -3.6702
 9093SOL    HW238913   2.091   2.043   6.087  1.9088 -0.5605  0.1728
 9094SOL     OW38914   4.720   1.787   1.738  0.6366 -0.3637 -0.6230
 9094SOL    HW138915   0.027   1.838   1.805 -1.1780  0.5837 -0.0985
 9094SOL    HW238916   4.712   1.844   1.661  0.0783  1.1977  0.5930
 9095SOL     OW38917   2.276   3.919  11.747 -0.3592  0.4224  0.5080
 9095SOL    HW138918   2.250   3.875  11.827  0.8378 -0.3227  0.4921
 9095SOL    HW238919   2.209   3.894  11.683 -0.8236 -1.3391  1.6797
 9096SOL     OW38920   4.483   3.303   8.863  0.5499 -0.6265  0.3611
 9096SOL    HW138921   4.448   3.392   8.865  0.6865 -0.5550 -0.8240
 9096SOL    HW238922   4.549   3.293   8.932  2.2188  1.2243 -0.9978
 9097SOL     OW38923   4.578   1.606   1.906  0.1412 -0.4061  0.0833
 9097SOL    HW138924   4.636   1.659   1.852 -1.6538  1.8100  0.3230
 9097SOL    HW238925   4.509   1.602   1.840  1.3035 -0.6437 -1.1205
 9098SOL     OW38926   0.735   1.546   2.555 -0.6160 -0.1276  0.0327
 9098SOL    HW138927   0.707   1.632   2.524  0.6804  0.6342  0.9795
 9098SOL    HW238928   0.801   1.542   2.486  0.2650 -0.4163  0.8865
 9099SOL     OW38929   1.212   3.002   6.749  0.8289 -0.5982  0.7100
 9099SOL    HW138930   1.221   3.080   6.804  0.3952 -1.1843  1.6131
 9099SOL    HW238931   1.297   2.961   6.762  2.0534  1.2494 -1.5525
 9100SOL     OW38932   2.038   0.693   5.077 -0.2642  0.3179 -0.2188
 9100SOL    HW138933   2.044   0.783   5.108 -1.4477 -0.0834  1.1975
 9100SOL    HW238934   1.947   0.682   5.052 -0.3580  1.3868 -0.3466
 9101SOL     OW38935   1.948   2.733   5.328 -0.4551  0.3860 -0.5172
 9101SOL    HW138936   1.920   2.672   5.396  2.1566 -0.1273  0.0911
 9101SOL    HW238937   1.985   2.675   5.262 -0.3425 -0.4378  0.2738
 9102SOL     OW38938   2.753   0.335   9.328 -0.2132  0.2515  0.2083
 9102SOL    HW138939   2.846   0.343   9.306  0.1976 -2.1171  1.0349
 9102SOL    HW238940   2.740   0.249   9.288 -2.5881  0.4301  0.6282
 9103SOL     OW38941   4.303   2.923   4.578  0.3418  0.5101 -0.9548
 9103SOL    HW138942   4.282   2.877   4.660  1.7090 -0.1895 -0.9903
 9103SOL    HW238943   4.389   2.885   4.563  0.4282  0.4093 -0.2016
 9104SOL     OW38944   1.814   2.091   9.499 -0.8350  0.2553 -0.3824
 9104SOL    HW138945   1.789   2.088   9.592 -3.3053  3.6698 -0.9306
 9104SOL    HW238946   1.794   2.004   9.465  1.1777  0.1375 -1.2755
 9105SOL     OW38947   3.515   1.841  12.712 -0.6707  0.3207 -0.0550
 9105SOL    HW138948   3.450   1.842  12.641 -0.7884  2.3284  0.0905
 9105SOL    HW238949   3.596   1.854  12.664  0.7734  0.5583  2.4915
 9106SOL     OW38950   0.847   3.006   6.928  0.2230  0.2424 -0.4758
 9106SOL    HW138951   0.780   2.983   6.993  1.7555 -1.1015  0.6150
 9106SOL    HW238952   0.862   3.098   6.949 -0.2800  0.1371  0.3298
 9107SOL     OW38953   1.454   2.085   0.434 -0.0416 -0.2486 -0.3330
 9107SOL    HW138954   1.517   2.121   0.496 -0.5330 -0.0611  0.0504
 9107SOL    HW238955   1.500   2.003   0.416 -0.2567 -0.5007  0.2835
 9108SOL     OW38956   3.943   4.575   9.257  0.7020 -0.2900  0.1240
 9108SOL    HW138957   3.857   4.608   9.283  0.1426  0.5487 -2.7336
 9108SOL    HW238958   3.956   4.508   9.324  1.4130 -0.5059 -0.2361
 9109SOL     OW38959   3.002   2.815   4.808  0.2565  0.2761 -0.5549
 9109SOL    HW138960   2.908   2.826   4.792  0.2235  2.0500  0.7899
 9109SOL    HW238961   3.030   2.746   4.749  1.1495 -0.1236  0.3331
 9110SOL     OW38962   2.327   3.666  12.114  0.0297  0.2007  0.1362
 9110SOL    HW138963   2.283   3.676  12.030 -0.2922 -0.1285  0.2643
 9110SOL    HW238964   2.389   3.596  12.093  0.4812  1.0388 -1.3018
 9111SOL     OW38965   4.220   0.274   8.423 -0.2898  0.8047 -0.2262
 9111SOL    HW138966   4.141   0.328   8.421  0.2994  1.7487  2.1475
 9111SOL    HW238967   4.218   0.243   8.514  0.7872 -0.8894 -0.7756
 9112SOL     OW38968   3.805   0.108   9.188  0.1300  0.5737  0.6739
 9112SOL    HW138969   3.849   0.155   9.258 -0.7759  2.0623  0.2318
 9112SOL    HW238970   3.772   0.040   9.246 -1.2581 -0.1900 -1.0003
 9113SOL     OW38971   3.134   3.544   2.080 -0.3939 -0.0186 -0.4377
 9113SOL    HW138972   3.070   3.615   2.076 -0.8794 -0.4662 -0.5461
 9113SOL    HW238973   3.134   3.523   1.987 -1.3326 -1.9068  0.0039
 9114SOL     OW38974   2.368   2.201   1.790 -0.6286 -0.2792  0.0651
 9114SOL    HW138975   2.367   2.108   1.765  1.4071 -0.3531  0.2358
 9114SOL    HW238976   2.329   2.195   1.878  1.9403  0.3923  1.2347
 9115SOL     OW38977   4.090   0.449  13.166  0.4323 -0.5610  0.0199
 9115SOL    HW138978   4.119   0.402  13.088  2.0852  0.0271  0.2661
 9115SOL    HW238979   4.140   0.400  13.232 -1.2346 -1.0183  0.9421
 9116SOL     OW38980   2.242   4.684  10.998  0.0492 -0.1758 -0.0820
 9116SOL    HW138981   2.319   4.731  11.030  0.1999 -1.5202  1.5126
 9116SOL    HW238982   2.271   4.625  10.928  0.6271 -0.3448  0.3015
 9117SOL     OW38983   2.259   1.004   1.438  0.3329  0.0816 -0.2522
 9117SOL    HW138984   2.337   0.996   1.383 -0.3687 -0.7269 -1.1230
 9117SOL    HW238985   2.231   0.915   1.458  1.5371 -0.3332 -0.4149
 9118SOL     OW38986   2.686   0.385   3.222 -0.1822 -0.0738  0.1465
 9118SOL    HW138987   2.759   0.447   3.215 -1.0015  0.5356 -2.9930
 9118SOL    HW238988   2.609   0.441   3.210 -0.9355 -0.4087  3.3863
 9119SOL     OW38989   1.591   4.656  10.757  0.1042 -0.4701 -0.2164
 9119SOL    HW138990   1.640   4.651  10.839 -0.1617 -2.4746 -0.1832
 9119SOL    HW238991   1.529   4.585  10.769 -0.4996  0.0315 -0.3596
 9120SOL     OW38992   4.075   2.531  11.931  0.1174  0.1628 -0.8426
 9120SOL    HW138993   4.049   2.623  11.932  0.4554  0.2290  2.1467
 9120SOL    HW238994   3.992   2.486  11.942 -0.6368  1.4096 -1.3631
 9121SOL     OW38995   4.177   1.850   3.085 -0.6934  0.0671 -0.0312
 9121SOL    HW138996   4.265   1.819   3.061 -1.7952 -1.7829 -1.7476
 9121SOL    HW238997   4.165   1.820   3.175 -1.5925 -0.6185 -0.3695
 9122SOL     OW38998   1.715   0.134   0.508 -0.3677 -0.2063 -0.1106
 9122SOL    HW138999   1.805   0.143   0.479  0.3070 -2.7422  1.2215
 9122SOL    HW239000   1.710   0.224   0.542 -0.6471 -1.2555  2.6289
 9123SOL     OW39001   0.375   2.325   3.004 -0.7060 -1.1042 -1.0215
 9123SOL    HW139002   0.446   2.323   2.941 -1.0403  0.9968 -1.4815
 9123SOL    HW239003   0.362   2.419   3.020  0.9280 -1.8154  4.6404
 9124SOL     OW39004   0.927   4.426   1.762 -0.4660 -0.0357 -0.3822
 9124SOL    HW139005   0.994   4.406   1.697  1.0735 -0.7899  1.4199
 9124SOL    HW239006   0.857   4.464   1.710 -0.6200 -0.8430 -0.7619
 9125SOL     OW39007   0.292   1.515  14.765 -0.5935 -0.2243 -0.2686
 9125SOL    HW139008   0.284   1.528  14.670  0.5973  0.9555 -0.2166
 9125SOL    HW239009   0.381   1.547  14.780 -0.1910 -1.2365 -0.4693
 9126SOL     OW39010   1.780   4.660   6.509  0.0240 -0.0787 -0.0714
 9126SOL    HW139011   1.784   0.005   6.555  1.2545  0.0553 -0.4259
 9126SOL    HW239012   1.841   4.673   6.436 -0.3731 -1.0426 -0.5641
 9127SOL     OW39013   1.613   1.982   5.553  0.5918 -0.0137  0.1333
 9127SOL    HW139014   1.523   2.003   5.579  1.1317  0.9584  1.2305
 9127SOL    HW239015   1.623   1.898   5.597 -1.8580 -0.8327 -0.9217
 9128SOL     OW39016   2.461   3.863   5.702  0.2597  0.1245 -0.4390
 9128SOL    HW139017   2.478   3.786   5.648  0.9191 -0.8204  1.0996
 9128SOL    HW239018   2.501   3.937   5.656 -1.4296  0.4070 -1.4322
 9129SOL     OW39019   0.329   2.726   8.475 -0.5761  0.4951 -0.0267
 9129SOL    HW139020   0.395   2.674   8.429  1.3555  2.1485  0.8356
 9129SOL    HW239021   0.376   2.752   8.555 -1.2258 -2.2018  1.2436
 9130SOL     OW39022   4.118   2.025  15.248 -0.4572  0.1995  0.8681
 9130SOL    HW139023   4.097   2.066  15.332  0.9980  1.5275  0.5854
 9130SOL    HW239024   4.073   2.079  15.183  1.5527 -1.4465 -1.8922
 9131SOL     OW39025   2.689   1.483   6.392  0.7046  0.0678  0.1738
 9131SOL    HW139026   2.750   1.557   6.396  1.3700 -0.4195 -1.0944
 9131SOL    HW239027   2.633   1.513   6.465  0.8786 -3.4178  1.7475
 9132SOL     OW39028   2.293   1.522  17.679  0.2404 -0.5498  0.9447
 9132SOL    HW139029   2.347   1.463  17.626 -0.5245  0.3413 -0.8193
 9132SOL    HW239030   2.207   1.492  17.651  0.7453 -0.9285 -0.2033
 9133SOL     OW39031   1.454   3.563   8.216 -0.2133  0.0258  0.7689
 9133SOL    HW139032   1.432   3.473   8.194 -1.6888  1.8712 -5.1779
 9133SOL    HW239033   1.367   3.601   8.218  1.0553  2.9975 -1.0185
 9134SOL     OW39034   1.248   3.371  17.470 -0.5961 -0.9004  0.3592
 9134SOL    HW139035   1.267   3.363  17.376 -0.6903  0.7694  0.1963
 9134SOL    HW239036   1.198   3.452  17.471  1.3653  0.3222 -0.7764
 9135SOL     OW39037   0.820   1.788   5.029  0.2354 -0.1584 -0.0883
 9135SOL    HW139038   0.877   1.714   5.010 -2.4485 -2.1349 -0.4128
 9135SOL    HW239039   0.782   1.800   4.942 -2.0194  0.1972  0.9567
 9136SOL     OW39040   2.015   2.126  11.210  0.4081  0.4656 -0.0057
 9136SOL    HW139041   2.092   2.100  11.259 -0.2028  0.2136  0.8128
 9136SOL    HW239042   1.982   2.037  11.201 -1.2291  0.9014  1.6374
 9137SOL     OW39043   3.345   0.649   5.332 -0.1295 -0.7415 -0.1844
 9137SOL    HW139044   3.391   0.603   5.403  2.1172 -2.9674 -3.1192
 9137SOL    HW239045   3.416   0.711   5.314 -0.0695 -0.7116  0.1560
 9138SOL     OW39046   1.388   1.999   2.109  0.1720  0.4339 -0.7577
 9138SOL    HW139047   1.452   1.930   2.090  0.9076  0.5541  1.2357
 9138SOL    HW239048   1.429   2.082   2.082 -0.5295  0.3322 -2.1384
 9139SOL     OW39049   1.548   2.267  10.569 -0.1893 -0.7459  0.3074
 9139SOL    HW139050   1.507   2.317  10.639  2.0012  0.7480  0.5212
 9139SOL    HW239051   1.466   2.230  10.536  0.2583 -0.7395 -0.7841
 9140SOL     OW39052   3.249   1.290  15.187  0.3737  0.0076 -0.3502
 9140SOL    HW139053   3.216   1.375  15.155 -1.0842  0.0114  1.1136
 9140SOL    HW239054   3.343   1.302  15.194  0.0667  2.0826  0.2764
 9141SOL     OW39055   4.392   3.904   2.418 -0.1517  0.1063  0.1660
 9141SOL    HW139056   4.481   3.930   2.443  0.2639 -0.5943 -0.5693
 9141SOL    HW239057   4.337   3.942   2.486 -0.1558  1.4766 -0.6029
 9142SOL     OW39058   3.873   2.580   4.042  0.3745  0.0432  0.4800
 9142SOL    HW139059   3.877   2.498   4.091  0.7641 -0.3868 -0.2815
 9142SOL    HW239060   3.962   2.614   4.050  0.1300  1.2197 -1.8050
 9143SOL     OW39061   3.559   2.750  15.508 -0.3471  0.9587  0.1934
 9143SOL    HW139062   3.466   2.760  15.528 -0.5334 -0.2897 -0.0367
 9143SOL    HW239063   3.595   2.721  15.592 -0.7253  0.5307  0.2105
 9144SOL     OW39064   4.284   2.748   0.723 -0.3975 -0.2147 -0.3654
 9144SOL    HW139065   4.299   2.799   0.643 -2.4428  1.8076  0.5069
 9144SOL    HW239066   4.366   2.770   0.768 -0.1853  0.0124 -0.8557
 9145SOL     OW39067   1.397   3.301   9.157  0.1758  0.3739  0.0565
 9145SOL    HW139068   1.373   3.227   9.213  0.6669 -1.4375 -2.1340
 9145SOL    HW239069   1.409   3.373   9.220 -0.6263 -0.7346  1.4732
 9146SOL     OW39070   3.073   1.873   3.176  0.2697 -0.2673 -0.1273
 9146SOL    HW139071   3.113   1.934   3.238  0.0437 -0.2502  0.0007
 9146SOL    HW239072   3.155   1.835   3.143 -0.5734 -1.2797 -1.0709
 9147SOL     OW39073   4.657   2.086   9.231  0.5667 -0.1298 -0.1024
 9147SOL    HW139074   4.583   2.134   9.195  2.0859  2.2452 -0.0798
 9147SOL    HW239075   4.706   2.160   9.267 -0.7908  0.1864  1.0740
 9148SOL     OW39076   3.641   4.571   2.494  0.0367  0.2683  0.0229
 9148SOL    HW139077   3.696   4.599   2.567 -1.1930  1.3189  0.5464
 9148SOL    HW239078   3.561   4.545   2.540 -0.5736  0.6340 -0.8374
 9149SOL     OW39079   3.793   3.328  17.276 -0.4506 -0.2503 -0.6917
 9149SOL    HW139080   3.705   3.305  17.248 -0.0274 -1.6751 -0.8859
 9149SOL    HW239081   3.776   3.409  17.324  0.9251  0.1463 -0.8765
 9150SOL     OW39082   1.688   4.240   6.187  0.3706 -0.2670 -0.1847
 9150SOL    HW139083   1.740   4.256   6.266 -2.4507  2.4697  1.1552
 9150SOL    HW239084   1.616   4.182   6.212 -0.7680  0.9620 -0.6339
 9151SOL     OW39085   1.312   0.103   5.003  0.1655 -0.2053 -0.0219
 9151SOL    HW139086   1.391   0.071   4.960  0.2662 -1.0122  0.7412
 9151SOL    HW239087   1.346   0.119   5.092  0.2069  0.4487 -0.1538
 9152SOL     OW39088   3.319   0.167   9.020  0.3094 -0.6237  0.0116
 9152SOL    HW139089   3.233   0.174   8.980 -0.3064 -1.2817  1.2271
 9152SOL    HW239090   3.352   0.096   8.963  0.6178  0.7082 -1.4724
 9153SOL     OW39091   2.937   1.763   4.607 -0.2126  0.4144  0.4691
 9153SOL    HW139092   2.901   1.734   4.523  0.6045  0.5433  0.0705
 9153SOL    HW239093   2.851   1.754   4.648 -0.8864  0.3663 -0.9663
 9154SOL     OW39094   2.018   1.670   0.441  0.1709  0.3756  0.1127
 9154SOL    HW139095   2.068   1.646   0.363 -0.1383  0.3752 -0.0808
 9154SOL    HW239096   2.081   1.714   0.499  1.1234 -0.0480 -0.5878
 9155SOL     OW39097   3.864   3.302   6.326  0.4015 -0.6544 -0.1283
 9155SOL    HW139098   3.923   3.311   6.401 -1.4585 -0.0582  1.2633
 9155SOL    HW239099   3.783   3.278   6.371 -0.4945  0.6923 -1.0297
 9156SOL     OW39100   0.870   4.007  15.650 -0.0760  0.3977  0.0047
 9156SOL    HW139101   0.901   4.098  15.653  0.8294  0.0762  0.4893
 9156SOL    HW239102   0.907   3.975  15.568 -0.9318 -0.7369  0.0637
 9157SOL     OW39103   0.852   2.883   3.128 -0.6146  0.0660 -0.6679
 9157SOL    HW139104   0.873   2.820   3.060 -1.2498 -2.2926  1.2988
 9157SOL    HW239105   0.756   2.885   3.131 -0.6530 -2.3812  0.3439
 9158SOL     OW39106   1.718   2.648   0.200  0.5015  0.2020  0.2901
 9158SOL    HW139107   1.725   2.733   0.157 -0.7519 -0.5518 -1.4203
 9158SOL    HW239108   1.778   2.655   0.275  2.6401  0.3186 -1.4447
 9159SOL     OW39109   2.861   2.576   8.222  0.6037  0.0633 -0.0879
 9159SOL    HW139110   2.788   2.636   8.240  1.6432  1.1168  0.6079
 9159SOL    HW239111   2.909   2.594   8.303 -0.0401 -1.9606  0.7393
 9160SOL     OW39112   2.617   1.664   5.155  0.4759 -1.0446  0.9038
 9160SOL    HW139113   2.637   1.589   5.213  0.4188 -2.2347 -0.6194
 9160SOL    HW239114   2.524   1.649   5.142  0.3354  1.5733 -1.1095
 9161SOL     OW39115   1.233   1.900   3.554 -0.0466 -0.5411 -0.1421
 9161SOL    HW139116   1.301   1.837   3.577 -0.7683 -1.0927  0.4897
 9161SOL    HW239117   1.224   1.886   3.460  0.4925 -2.7988  0.1534
 9162SOL     OW39118   1.010   1.811   1.124 -0.0022  0.0671  0.3305
 9162SOL    HW139119   1.100   1.812   1.090 -0.7927  1.2915 -1.6866
 9162SOL    HW239120   1.016   1.723   1.162  1.1088  0.4509  1.0620
 9163SOL     OW39121   3.662   0.302   7.718  0.0553 -0.6939  0.5626
 9163SOL    HW139122   3.636   0.242   7.648  1.2126 -1.2545  0.6222
 9163SOL    HW239123   3.717   0.362   7.668 -0.9969  0.6521  1.0201
 9164SOL     OW39124   1.920   2.898   3.797  0.5927 -0.9476  0.0037
 9164SOL    HW139125   1.985   2.939   3.740 -0.6616  1.4225  0.2434
 9164SOL    HW239126   1.896   2.979   3.843  0.9406 -2.6088  3.0854
 9165SOL     OW39127   4.120   2.635   6.448 -0.1420  0.7441 -0.0528
 9165SOL    HW139128   4.089   2.726   6.445  0.3929  0.8983 -0.9866
 9165SOL    HW239129   4.216   2.643   6.449 -0.0147 -0.7857 -0.0042
 9166SOL     OW39130   4.452   3.676  16.329 -0.2692 -0.2670  0.6813
 9166SOL    HW139131   4.530   3.722  16.360 -0.2892 -1.2371  2.1485
 9166SOL    HW239132   4.461   3.699  16.236  1.0167  1.2600  1.1744
 9167SOL     OW39133   2.935   2.924   6.440 -0.1062  0.1596 -0.0657
 9167SOL    HW139134   2.943   2.982   6.364  1.6494  0.8961  0.6744
 9167SOL    HW239135   2.841   2.936   6.454  0.0155 -1.8895  2.3556
 9168SOL     OW39136   3.392   0.893   3.704  1.2346  0.3656 -0.1755
 9168SOL    HW139137   3.422   0.851   3.624  1.9939 -0.8711  0.7476
 9168SOL    HW239138   3.473   0.882   3.755  0.5789  3.6245  1.5578
 9169SOL     OW39139   1.717   0.392   0.589 -0.2621  0.7228  0.5418
 9169SOL    HW139140   1.757   0.468   0.548  0.0879  0.2165 -0.0488
 9169SOL    HW239141   1.664   0.438   0.655 -1.1983 -1.2189  1.1667
 9170SOL     OW39142   3.639   1.787   1.123  0.6429  0.1920 -0.5062
 9170SOL    HW139143   3.572   1.757   1.061 -0.7188  2.8058 -0.2971
 9170SOL    HW239144   3.603   1.761   1.208  2.5367  0.9858  0.5387
 9171SOL     OW39145   3.499   4.018   2.563  0.6278  0.1245 -0.4194
 9171SOL    HW139146   3.521   4.032   2.471  0.0914 -3.1222 -1.0453
 9171SOL    HW239147   3.457   4.096   2.600  1.5031  0.0042  0.8094
 9172SOL     OW39148   0.280   0.206   5.299  0.0261  0.1217  0.9551
 9172SOL    HW139149   0.214   0.200   5.367  0.5363  1.5401  1.5844
 9172SOL    HW239150   0.263   0.122   5.256 -1.5165  0.8926  0.0493
 9173SOL     OW39151   0.675   4.508  16.472  0.0809  0.6339 -0.0716
 9173SOL    HW139152   0.649   4.442  16.536 -1.3232  1.5227  0.2697
 9173SOL    HW239153   0.768   4.486  16.470 -0.0948 -0.1662  0.6579
 9174SOL     OW39154   4.605   3.196   6.342  0.1172 -0.8254 -0.4676
 9174SOL    HW139155   4.511   3.204   6.356  0.5000  1.3278  0.7672
 9174SOL    HW239156   4.604   3.120   6.284  0.1233 -0.2904 -1.1718
 9175SOL     OW39157   0.793   2.581  12.358 -0.5739  0.2655  0.0671
 9175SOL    HW139158   0.750   2.605  12.441 -0.2129 -0.2441  0.4038
 9175SOL    HW239159   0.811   2.667  12.320  2.2733 -0.1738  0.4272
 9176SOL     OW39160   2.430   4.248   7.455 -0.1131 -0.0489  0.1779
 9176SOL    HW139161   2.510   4.202   7.428 -1.4725 -1.7215 -0.9771
 9176SOL    HW239162   2.425   4.328   7.404  2.0563 -1.4245 -2.2213
 9177SOL     OW39163   3.997   3.680   7.788 -0.6705 -0.0338  0.1005
 9177SOL    HW139164   4.053   3.651   7.716 -1.0735  0.9379 -0.6042
 9177SOL    HW239165   3.917   3.699   7.739 -1.6452  0.7715  1.9982
 9178SOL     OW39166   3.390   1.920  11.124  0.9961  0.7401  0.2842
 9178SOL    HW139167   3.323   1.959  11.179 -0.4807 -0.5475 -0.6268
 9178SOL    HW239168   3.469   1.949  11.170  1.8535 -0.3941 -0.4344
 9179SOL     OW39169   1.139   0.796  14.801  0.0722 -0.6235 -0.7795
 9179SOL    HW139170   1.156   0.711  14.759 -1.7705 -1.1387 -0.4786
 9179SOL    HW239171   1.217   0.846  14.779 -1.4424  1.2598 -1.8287
 9180SOL     OW39172   0.224   3.010   6.334  0.0685  0.0719 -0.2976
 9180SOL    HW139173   0.178   3.056   6.405 -0.1418  1.0526 -1.0743
 9180SOL    HW239174   0.154   2.948   6.315 -0.6414  1.6014 -2.6463
 9181SOL     OW39175   3.778   2.214   0.938 -0.1549  0.1833  0.8000
 9181SOL    HW139176   3.821   2.290   0.978 -1.0452  1.5361 -0.8452
 9181SOL    HW239177   3.686   2.228   0.960 -0.3312 -4.1612  2.8857
 9182SOL     OW39178   2.671   0.663  14.516  0.1069  0.0068 -0.6226
 9182SOL    HW139179   2.758   0.681  14.481 -0.0889  2.4497  0.0931
 9182SOL    HW239180   2.678   0.568  14.525  0.0324  0.0156 -0.4595
 9183SOL     OW39181   2.721   0.482  17.380  0.5079  0.3375  0.7733
 9183SOL    HW139182   2.725   0.443  17.293 -3.3031  2.4438 -0.3585
 9183SOL    HW239183   2.662   0.556  17.365 -0.4404 -0.2850  1.4330
 9184SOL     OW39184   1.712   2.756  17.537  0.1217  0.5331 -0.2838
 9184SOL    HW139185   1.724   2.674  17.585  0.5909  0.9317  0.2714
 9184SOL    HW239186   1.798   2.774  17.499 -0.2504 -1.2108 -1.9727
 9185SOL     OW39187   2.890   3.782   4.983  0.0072 -0.2849 -0.1413
 9185SOL    HW139188   2.899   3.692   5.016 -1.5335 -0.5035 -0.2929
 9185SOL    HW239189   2.975   3.802   4.945 -0.2051 -2.3051 -1.6798
 9186SOL     OW39190   0.679   3.757   7.640  0.1400 -0.0672  0.3933
 9186SOL    HW139191   0.729   3.774   7.719  0.0868  1.6942  0.0650
 9186SOL    HW239192   0.639   3.674   7.665  1.0670 -0.4474  0.5816
 9187SOL     OW39193   2.448   0.831  16.883  0.1555  0.5365 -0.1758
 9187SOL    HW139194   2.422   0.859  16.795  0.2568 -0.6109 -0.5763
 9187SOL    HW239195   2.456   0.917  16.925  0.0382  0.2559  0.4190
 9188SOL     OW39196   1.816   1.449   5.133 -0.2593  0.4915 -0.5396
 9188SOL    HW139197   1.841   1.401   5.212 -1.2262  1.0682  0.1202
 9188SOL    HW239198   1.725   1.419   5.134  0.4803 -1.6769  0.1171
 9189SOL     OW39199   1.746   2.644   4.836  0.5273 -0.8246  0.3084
 9189SOL    HW139200   1.742   2.588   4.914 -0.6728  0.5263  1.2256
 9189SOL    HW239201   1.754   2.729   4.880  1.2084 -0.2190 -0.9874
 9190SOL     OW39202   4.271   0.643   4.281 -0.0198  0.0720  0.3532
 9190SOL    HW139203   4.282   0.717   4.342  0.6024 -0.6663  1.1425
 9190SOL    HW239204   4.186   0.605   4.299 -0.0529  0.9043  1.9759
 9191SOL     OW39205   0.487   2.422   1.014 -0.3712 -0.6356 -0.4724
 9191SOL    HW139206   0.455   2.357   1.077 -1.7290 -1.4293 -1.9838
 9191SOL    HW239207   0.417   2.433   0.950 -0.1139  0.6971 -0.5241
 9192SOL     OW39208   3.099   2.203   3.576 -0.3181  0.1437  0.4455
 9192SOL    HW139209   3.057   2.120   3.556 -1.6806  1.0649 -0.4967
 9192SOL    HW239210   3.175   2.167   3.622  0.6855 -1.7343 -2.6816
 9193SOL     OW39211   3.914   0.257   5.833 -0.4193 -0.2383 -0.1511
 9193SOL    HW139212   3.963   0.268   5.914  0.8943 -1.4118 -0.7886
 9193SOL    HW239213   3.917   0.349   5.807  1.4536 -0.0005  0.9493
 9194SOL     OW39214   1.843   4.241   1.144 -0.0472  0.0438  0.1325
 9194SOL    HW139215   1.825   4.334   1.152 -0.7672 -0.1764  1.1323
 9194SOL    HW239216   1.939   4.243   1.136  0.1339 -1.6393  1.8509
 9195SOL     OW39217   0.722   1.098   6.640 -0.5352 -0.2214  0.1764
 9195SOL    HW139218   0.729   1.060   6.727 -2.2090 -0.4541  0.2040
 9195SOL    HW239219   0.660   1.032   6.609 -1.4662  0.5970  0.3082
 9196SOL     OW39220   3.903   3.374   9.368  0.5069 -0.3363  0.0748
 9196SOL    HW139221   3.957   3.434   9.419  2.4527 -1.9757 -0.0567
 9196SOL    HW239222   3.959   3.297   9.354 -0.3783 -0.8524 -0.6788
 9197SOL     OW39223   2.117   2.694   8.812  0.0995  0.3644  0.0080
 9197SOL    HW139224   2.064   2.719   8.736 -0.0306 -2.0118 -0.6751
 9197SOL    HW239225   2.200   2.728   8.778  0.4050  0.0525  0.4391
 9198SOL     OW39226   0.055   0.777   2.746  0.3167 -0.0252 -0.8030
 9198SOL    HW139227   0.037   0.717   2.673 -0.6109  1.9969 -2.2315
 9198SOL    HW239228   0.116   0.844   2.716 -0.7349  1.0843 -0.4564
 9199SOL     OW39229   2.464   0.449   2.932  0.0642 -0.6912 -0.4552
 9199SOL    HW139230   2.453   0.472   3.024 -1.7098  0.2184 -0.8961
 9199SOL    HW239231   2.420   0.529   2.905 -1.7204 -1.3824  0.4097
 9200SOL     OW39232   2.666   1.825  15.788 -0.1970  0.0177  0.1258
 9200SOL    HW139233   2.656   1.880  15.865  1.0091  1.2907 -0.6200
 9200SOL    HW239234   2.678   1.897  15.726 -0.3840  2.1714  2.6195
 9201SOL     OW39235   0.915   4.316   8.079 -0.1362 -0.3258 -0.3379
 9201SOL    HW139236   0.935   4.392   8.025 -1.9125 -0.3627 -1.0739
 9201SOL    HW239237   0.827   4.338   8.111  0.3731  0.9510  0.1569
 9202SOL     OW39238   1.118   1.963   0.377  0.3455  0.1001 -0.0748
 9202SOL    HW139239   1.113   2.055   0.350  0.1008  0.9789  2.8826
 9202SOL    HW239240   1.160   1.937   0.295 -2.1916  1.2811 -1.7362
 9203SOL     OW39241   4.665   2.400   7.484  0.3265 -0.1003 -0.4558
 9203SOL    HW139242   0.022   2.399   7.487  0.3286  1.2884 -0.0132
 9203SOL    HW239243   4.634   2.484   7.449 -0.2194 -1.2718 -2.7684
 9204SOL     OW39244   0.970   3.313   7.869 -0.0213  0.3096 -0.3330
 9204SOL    HW139245   0.897   3.328   7.810  1.0240  0.8041 -1.4951
 9204SOL    HW239246   1.029   3.256   7.818 -0.3392 -0.4407  0.1355
 9205SOL     OW39247   0.325   3.347  16.477 -0.3271 -0.4294  0.3875
 9205SOL    HW139248   0.239   3.378  16.506 -0.6665 -1.3734  0.3927
 9205SOL    HW239249   0.306   3.253  16.471  1.9252 -0.8488 -0.3638
 9206SOL     OW39250   3.733   4.588  10.884  0.6745 -0.0013 -0.3945
 9206SOL    HW139251   3.695   4.663  10.930 -0.7506 -0.5694 -0.6472
 9206SOL    HW239252   3.713   4.614  10.794  0.7610 -1.4050 -0.8238
 9207SOL     OW39253   0.308   2.787  13.045 -0.0382  0.3663 -0.0159
 9207SOL    HW139254   0.337   2.876  13.064 -0.6985  0.7847 -0.9694
 9207SOL    HW239255   0.335   2.737  13.122  1.2105 -1.3545 -1.5649
 9208SOL     OW39256   3.308   3.320   0.891  0.1851  0.5936 -0.0675
 9208SOL    HW139257   3.212   3.325   0.887  0.3569  3.9991 -0.0846
 9208SOL    HW239258   3.318   3.367   0.974  1.6960 -0.2730  0.2398
 9209SOL     OW39259   3.266   1.323   2.833 -0.2322 -0.0315 -0.1850
 9209SOL    HW139260   3.301   1.361   2.753  1.1209  0.4497  0.6282
 9209SOL    HW239261   3.250   1.402   2.885  1.1533 -0.5445  1.0345
 9210SOL     OW39262   2.802   2.484   5.753 -0.6630  0.4212 -0.1242
 9210SOL    HW139263   2.828   2.450   5.838 -0.0288  0.9356 -0.1164
 9210SOL    HW239264   2.887   2.472   5.711 -0.5569 -0.4189  0.3432
 9211SOL     OW39265   3.491   1.522  16.242 -0.3306 -0.0869 -0.3939
 9211SOL    HW139266   3.547   1.500  16.167 -2.1290 -0.3029 -1.6682
 9211SOL    HW239267   3.403   1.499  16.212  0.4311 -1.2671 -1.6893
 9212SOL     OW39268   3.920   2.220   3.630  0.0252 -0.5032 -0.2410
 9212SOL    HW139269   3.958   2.222   3.718 -0.9819  3.4675  0.1048
 9212SOL    HW239270   3.987   2.188   3.569 -0.9601  0.2359 -1.7129
 9213SOL     OW39271   2.560   0.616   7.663  0.2685 -0.4700 -0.3629
 9213SOL    HW139272   2.532   0.682   7.601  0.7650 -1.5110 -1.6884
 9213SOL    HW239273   2.537   0.652   7.749 -0.8445 -1.8415 -0.0751
 9214SOL     OW39274   3.715   2.650   6.503  0.5054  0.5982 -0.4822
 9214SOL    HW139275   3.760   2.722   6.548  0.2074  0.4379  0.0725
 9214SOL    HW239276   3.628   2.686   6.485  0.7012 -0.5485 -3.6314
 9215SOL     OW39277   0.892   4.049   6.202 -0.2491 -0.5087 -0.4212
 9215SOL    HW139278   0.919   3.957   6.196  0.0023 -0.5946  2.0136
 9215SOL    HW239279   0.874   4.067   6.110  2.0314 -1.2597 -1.0144
 9216SOL     OW39280   0.162   3.956   7.930  0.8024 -0.3881  0.2076
 9216SOL    HW139281   0.195   3.895   7.996  0.0559 -0.9341  0.0715
 9216SOL    HW239282   0.137   4.028   7.988 -0.9177 -1.0287  0.2609
 9217SOL     OW39283   0.111   0.387  16.753  0.7112  0.0304 -0.2727
 9217SOL    HW139284   0.107   0.445  16.677 -2.4772 -0.1424 -0.2319
 9217SOL    HW239285   0.111   0.451  16.824 -3.9200  0.9749 -1.0902
 9218SOL     OW39286   2.896   0.846  16.686 -0.2231  0.3679 -1.2255
 9218SOL    HW139287   2.831   0.916  16.686 -0.9336 -0.3282  3.0835
 9218SOL    HW239288   2.979   0.890  16.665  0.6236  0.3057  1.9591
 9219SOL     OW39289   0.292   2.756   8.180 -0.4983  0.2087  0.2860
 9219SOL    HW139290   0.277   2.763   8.274 -0.1946 -0.4392  0.3887
 9219SOL    HW239291   0.213   2.719   8.142  1.3354 -0.5776 -2.7593
 9220SOL     OW39292   3.284   2.824  13.823 -0.4640  0.4721 -0.6612
 9220SOL    HW139293   3.313   2.910  13.793 -2.1516  0.8678 -1.1343
 9220SOL    HW239294   3.264   2.784  13.738  0.1872 -2.1250  0.3918
 9221SOL     OW39295   3.443   2.014   9.341 -0.2199 -0.1195  0.6041
 9221SOL    HW139296   3.419   1.939   9.288 -1.8997 -0.2681  1.5565
 9221SOL    HW239297   3.369   2.018   9.402 -0.8656 -0.0101 -0.1879
 9222SOL     OW39298   2.743   2.543   4.630  0.2406  0.2713 -0.3150
 9222SOL    HW139299   2.714   2.498   4.709 -1.0443  0.8324 -0.4679
 9222SOL    HW239300   2.821   2.491   4.612 -1.0271 -1.4525 -0.8355
 9223SOL     OW39301   4.002   3.653   0.009  0.1748 -0.0888  0.7782
 9223SOL    HW139302   3.980   3.697   0.091 -0.1439 -0.4054  0.8626
 9223SOL    HW239303   3.986   3.565   0.042  0.8731 -0.8377 -0.8979
 9224SOL     OW39304   1.926   1.186   9.099 -0.4499 -0.1266  0.0302
 9224SOL    HW139305   1.922   1.117   9.032 -1.3884  1.4106 -1.4767
 9224SOL    HW239306   1.869   1.153   9.169 -0.0956  2.0647  1.3647
 9225SOL     OW39307   2.636   3.805   9.940  0.4340  0.2539 -0.0656
 9225SOL    HW139308   2.565   3.826  10.001  0.8921  1.6688 -0.0144
 9225SOL    HW239309   2.707   3.805  10.004  0.1713  0.5142  0.2228
 9226SOL     OW39310   3.144   0.248   7.528 -0.0342 -0.2030 -0.0465
 9226SOL    HW139311   3.085   0.172   7.525  0.2032 -0.2616 -2.9401
 9226SOL    HW239312   3.080   0.319   7.532  0.1919  0.1269 -2.4065
 9227SOL     OW39313   3.909   1.744   8.917  0.1096  0.4453  0.9042
 9227SOL    HW139314   3.893   1.726   8.824 -3.2741  0.3849  1.4940
 9227SOL    HW239315   3.826   1.706   8.946 -0.4120 -0.2494 -1.4513
 9228SOL     OW39316   0.899   0.315  12.629  0.0998  0.0071  0.1602
 9228SOL    HW139317   0.970   0.323  12.565  1.1984 -1.6703  1.1434
 9228SOL    HW239318   0.925   0.387  12.687 -0.1185  0.1367  0.0959
 9229SOL     OW39319   4.359   3.986   6.601  0.2269  0.2418 -0.1265
 9229SOL    HW139320   4.263   3.991   6.609  0.3065  2.0225 -0.3410
 9229SOL    HW239321   4.375   4.079   6.589  1.5288  0.0512  0.1353
 9230SOL     OW39322   3.632   2.820   4.925 -0.1395  0.5770  0.5576
 9230SOL    HW139323   3.697   2.796   4.859 -0.6003  1.0288 -0.0573
 9230SOL    HW239324   3.546   2.807   4.885  0.4646 -0.5035 -0.4329
 9231SOL     OW39325   1.189   1.406   6.194 -0.0628  0.3951  0.0828
 9231SOL    HW139326   1.210   1.498   6.181  0.6763  0.1037 -0.8004
 9231SOL    HW239327   1.113   1.416   6.252  0.4523 -1.7884  1.1591
 9232SOL     OW39328   3.080   0.328   0.620  0.0849 -0.1351  0.1053
 9232SOL    HW139329   3.115   0.372   0.697  0.8159 -0.7681  0.1355
 9232SOL    HW239330   3.029   0.397   0.578  1.3722 -0.0039 -1.2415
 9233SOL     OW39331   1.903   2.830   8.113  0.8766  0.4789  0.3988
 9233SOL    HW139332   1.904   2.856   8.205  0.1671 -0.9233  0.8104
 9233SOL    HW239333   1.991   2.860   8.092  0.7236  1.5104  1.2075
 9234SOL     OW39334   2.053   3.453   5.485 -0.0706  0.1127  0.7120
 9234SOL    HW139335   2.049   3.361   5.458 -0.5670 -0.2233  1.9083
 9234SOL    HW239336   2.009   3.446   5.570 -2.4289 -1.0321 -0.6106
 9235SOL     OW39337   1.313   4.227   3.230  0.3236  0.0803  0.9481
 9235SOL    HW139338   1.363   4.225   3.148 -1.6771 -0.4046 -0.2659
 9235SOL    HW239339   1.281   4.138   3.215 -0.6885  0.6124 -0.0851
 9236SOL     OW39340   3.730   1.729   5.703  0.4846 -0.2936  0.0751
 9236SOL    HW139341   3.651   1.691   5.664  1.4881 -2.0028 -0.2676
 9236SOL    HW239342   3.722   1.709   5.796  1.8756 -1.0373  0.0349
 9237SOL     OW39343   0.747   3.135  11.321  0.0851 -0.5031  0.0213
 9237SOL    HW139344   0.678   3.117  11.385 -0.0229 -0.4144 -0.0720
 9237SOL    HW239345   0.726   3.224  11.295 -3.4594 -1.9238 -2.0113
 9238SOL     OW39346   3.898   4.529  14.290 -0.6014 -0.0689  0.4045
 9238SOL    HW139347   3.897   4.585  14.212 -0.0675  0.6689  0.9227
 9238SOL    HW239348   3.992   4.518  14.301 -0.8024 -2.2024 -0.0553
 9239SOL     OW39349   0.584   2.756   5.076  0.3372  0.5264 -0.2242
 9239SOL    HW139350   0.637   2.832   5.101  1.9004  0.2338 -2.6548
 9239SOL    HW239351   0.553   2.787   4.992 -0.0218 -0.2673 -0.3883
 9240SOL     OW39352   3.002   4.251   4.111  0.4952 -0.3070  0.1222
 9240SOL    HW139353   2.975   4.220   4.025  2.0368  3.6241 -1.7835
 9240SOL    HW239354   2.925   4.286   4.156  0.3643 -0.5891  0.1165
 9241SOL     OW39355   3.503   0.276   9.428 -0.5808 -0.5229 -0.3340
 9241SOL    HW139356   3.481   0.224   9.351 -1.7543  0.8015 -0.8813
 9241SOL    HW239357   3.542   0.214   9.490  1.2631  0.2859 -0.6963
 9242SOL     OW39358   0.185   1.475   0.578 -0.1814  0.0070  0.5478
 9242SOL    HW139359   0.220   1.389   0.602 -0.8309 -0.3656  0.1614
 9242SOL    HW239360   0.092   1.470   0.556  0.6006 -3.4888 -1.9354
 9243SOL     OW39361   3.638   2.376   7.337 -0.1299  0.3151 -0.3222
 9243SOL    HW139362   3.625   2.368   7.242  2.1614 -1.4024 -0.4990
 9243SOL    HW239363   3.714   2.434   7.335  0.5034 -0.4262  2.8344
 9244SOL     OW39364   0.513   4.262  17.633  0.0610  0.3428  0.4756
 9244SOL    HW139365   0.422   4.241  17.611  0.2460  1.1703 -1.0456
 9244SOL    HW239366   0.542   4.271  17.543 -0.8544 -0.7587  0.0583
 9245SOL     OW39367   2.091   4.178   4.043  0.2653  0.3384  0.1365
 9245SOL    HW139368   2.039   4.247   4.000 -1.0541  0.2217  1.5301
 9245SOL    HW239369   2.152   4.156   3.973 -0.1876  0.9115 -0.4407
 9246SOL     OW39370   1.221   2.211  17.710 -0.2665  0.0532  0.0548
 9246SOL    HW139371   1.211   2.143   0.021  1.6146  0.1179  0.4117
 9246SOL    HW239372   1.259   2.164  17.635  1.6216  0.9339  0.4646
 9247SOL     OW39373   0.465   1.643  14.062 -0.0139  0.0455  0.3464
 9247SOL    HW139374   0.396   1.595  14.107 -0.1207 -1.8248 -1.8696
 9247SOL    HW239375   0.446   1.734  14.086 -0.1642  0.7322 -2.4762
 9248SOL     OW39376   0.380   2.875  16.116 -0.2345  0.3376  0.6147
 9248SOL    HW139377   0.297   2.918  16.136  0.5695  0.3166  4.1541
 9248SOL    HW239378   0.438   2.949  16.134 -2.0476  1.5629  1.4214
 9249SOL     OW39379   2.171   2.050   1.229 -0.1118  0.1825  0.2311
 9249SOL    HW139380   2.188   2.132   1.275 -0.6366 -0.2152  1.1252
 9249SOL    HW239381   2.090   2.065   1.180  0.6912  2.0700 -0.5196
 9250SOL     OW39382   1.050   3.568  17.423 -0.1610 -0.4792  0.2748
 9250SOL    HW139383   1.004   3.502  17.475 -0.3022 -0.5296  0.0826
 9250SOL    HW239384   0.993   3.643  17.438 -0.4008 -0.9932  1.9672
 9251SOL     OW39385   4.514   3.496   2.528 -0.0441  0.0096  0.1853
 9251SOL    HW139386   4.538   3.573   2.581  0.2622 -0.0958  0.1972
 9251SOL    HW239387   4.468   3.451   2.599 -1.3682 -0.7291 -1.1490
 9252SOL     OW39388   4.363   1.252   2.988  0.6699 -0.4717  0.4474
 9252SOL    HW139389   4.455   1.267   3.013  0.5774 -1.0416  1.1349
 9252SOL    HW239390   4.322   1.243   3.074  0.6634 -1.0744  0.3822
 9253SOL     OW39391   1.158   1.413   6.919  0.2032 -0.1538  0.4282
 9253SOL    HW139392   1.187   1.324   6.898 -0.0011  0.0632 -0.7762
 9253SOL    HW239393   1.161   1.398   7.013  0.5979 -1.6612  0.1831
 9254SOL     OW39394   0.126   1.058   5.645  0.5031  0.1329 -0.0432
 9254SOL    HW139395   0.036   1.081   5.619  0.7671  2.0921  0.7791
 9254SOL    HW239396   0.123   1.084   5.737  0.3831 -1.5436  0.4344
 9255SOL     OW39397   1.700   0.114   3.875  0.9094 -0.1934 -0.8814
 9255SOL    HW139398   1.649   0.195   3.883  2.8965  1.1415 -1.8547
 9255SOL    HW239399   1.653   0.052   3.931 -1.6802  2.3903 -0.1899
 9256SOL     OW39400   2.533   3.346   5.320 -0.9327  0.6290 -0.1583
 9256SOL    HW139401   2.532   3.258   5.282 -0.2000  0.5901 -0.0879
 9256SOL    HW239402   2.561   3.317   5.406 -0.6158  0.9681 -0.1446
 9257SOL     OW39403   4.316   3.963   9.533 -0.4287 -0.1084  0.3239
 9257SOL    HW139404   4.269   4.031   9.485  0.4305  0.3446  0.1174
 9257SOL    HW239405   4.320   4.007   9.618  0.3839  0.1229  0.1723
 9258SOL     OW39406   2.219   3.301   6.873 -0.5984  0.0603 -0.1159
 9258SOL    HW139407   2.157   3.340   6.933 -0.3796  1.2261 -0.6568
 9258SOL    HW239408   2.229   3.378   6.817  1.6595 -0.8942 -1.0485
 9259SOL     OW39409   0.597   0.622   2.040  0.1658  0.5296  0.1922
 9259SOL    HW139410   0.619   0.582   2.125  0.8735 -1.7475 -1.0652
 9259SOL    HW239411   0.506   0.652   2.048 -0.1662 -0.3554 -0.2049
 9260SOL     OW39412   3.569   0.128   7.503  0.3043 -0.4059 -0.3276
 9260SOL    HW139413   3.526   0.207   7.470  0.8468  0.1823  0.3871
 9260SOL    HW239414   3.549   0.065   7.433 -1.8186  1.6803 -1.5932
 9261SOL     OW39415   0.663   3.283   6.699  0.0734 -0.5943 -0.1048
 9261SOL    HW139416   0.691   3.360   6.649 -0.6539  0.7133  1.4747
 9261SOL    HW239417   0.733   3.276   6.765 -0.6034  2.0550  0.9114
 9262SOL     OW39418   4.328   4.149   0.096  0.7167 -0.3825  0.0316
 9262SOL    HW139419   4.310   4.090   0.169  2.3063 -1.2923 -0.3120
 9262SOL    HW239420   4.419   4.179   0.101  0.6766 -0.9335  3.5406
 9263SOL     OW39421   4.358   1.592   2.521  0.6460  0.2609 -0.8044
 9263SOL    HW139422   4.292   1.589   2.591  2.5469  1.7746  1.0670
 9263SOL    HW239423   4.325   1.662   2.465  0.5225  1.8668  1.2334
 9264SOL     OW39424   1.477   0.424   2.388  0.3977 -0.0850 -0.0288
 9264SOL    HW139425   1.526   0.435   2.469  0.3448 -0.2124  0.0192
 9264SOL    HW239426   1.458   0.517   2.373  1.7023 -0.0701 -1.6075
 9265SOL     OW39427   3.994   4.081   5.627  0.1840  0.0676  0.5369
 9265SOL    HW139428   4.025   3.997   5.593 -0.9395  0.5427 -1.7087
 9265SOL    HW239429   3.932   4.046   5.691  3.1833 -0.0741  3.3238
 9266SOL     OW39430   3.474   0.897   8.209 -0.3026 -0.1253  0.0942
 9266SOL    HW139431   3.485   0.852   8.293 -2.8744  1.8153  1.4585
 9266SOL    HW239432   3.471   0.821   8.151 -3.4855 -1.7721  2.4407
 9267SOL     OW39433   1.138   4.672   8.441 -0.3894  0.1725 -0.5408
 9267SOL    HW139434   1.193   4.660   8.519 -0.2828  0.9742 -0.4965
 9267SOL    HW239435   1.049   4.668   8.477 -0.0382  0.9700  0.4138
 9268SOL     OW39436   0.201   2.565   4.912 -0.8125 -0.3808  0.1845
 9268SOL    HW139437   0.265   2.503   4.948 -2.9214 -1.5530  1.9816
 9268SOL    HW239438   0.211   2.647   4.960  2.9345 -1.1461  0.6594
 9269SOL     OW39439   2.464   0.561   5.602 -0.0413  0.1825  0.2623
 9269SOL    HW139440   2.514   0.634   5.637 -2.7479  1.9057  0.5082
 9269SOL    HW239441   2.405   0.603   5.540 -2.1695 -0.4894  1.8329
 9270SOL     OW39442   4.370   1.635   4.695  0.4512  0.3547 -0.3586
 9270SOL    HW139443   4.338   1.581   4.622 -1.7546 -1.0260  1.6374
 9270SOL    HW239444   4.395   1.718   4.654  2.4053 -0.2340 -0.3803
 9271SOL     OW39445   1.571   3.211   7.878 -0.0309  0.1180 -0.1402
 9271SOL    HW139446   1.484   3.171   7.868 -0.3640  0.4079  1.5613
 9271SOL    HW239447   1.615   3.143   7.929  0.6471 -0.0966 -1.0241
 9272SOL     OW39448   0.453   4.122   2.668  0.1028 -0.6212 -0.1806
 9272SOL    HW139449   0.498   4.047   2.630  0.4187 -0.4443 -0.1619
 9272SOL    HW239450   0.366   4.097   2.637  0.4779 -1.6203 -0.4232
 9273SOL     OW39451   1.826   2.046  12.309 -0.0275  0.0280  0.3369
 9273SOL    HW139452   1.887   2.002  12.250  1.3746  1.1012  0.9913
 9273SOL    HW239453   1.850   2.138  12.303 -0.8151  0.3245  1.6650
 9274SOL     OW39454   1.998   3.133   4.373 -0.0586  0.0039  0.0657
 9274SOL    HW139455   1.944   3.143   4.294  0.8607 -0.9126 -0.6784
 9274SOL    HW239456   2.044   3.049   4.364 -1.8955 -1.0087  0.3161
 9275SOL     OW39457   2.767   2.323   7.459  0.5879 -0.2635  0.1008
 9275SOL    HW139458   2.820   2.330   7.538 -0.9349  0.9086  1.0280
 9275SOL    HW239459   2.789   2.406   7.415  2.2401  0.6681  2.6635
 9276SOL     OW39460   1.279   3.641   3.211  0.2782  0.0651  0.7610
 9276SOL    HW139461   1.214   3.574   3.231 -0.9742  1.9717  2.9931
 9276SOL    HW239462   1.286   3.639   3.115 -1.3552  0.1264  0.6459
 9277SOL     OW39463   1.090   2.041   9.038 -0.3537 -0.3283  0.1479
 9277SOL    HW139464   1.174   2.048   9.083  0.0745 -1.3354 -0.4867
 9277SOL    HW239465   1.063   2.125   9.076  1.2877  0.8916 -1.3677
 9278SOL     OW39466   4.071   4.601  17.395 -0.6116 -0.0924  0.0796
 9278SOL    HW139467   4.009   4.613  17.466 -1.1755 -0.5396 -0.3424
 9278SOL    HW239468   4.130   4.531  17.423 -0.7716  0.4771  1.8315
 9279SOL     OW39469   3.867   0.137   2.187 -0.0503  0.0620  0.0930
 9279SOL    HW139470   3.813   0.215   2.175 -2.5849 -1.2865  2.8129
 9279SOL    HW239471   3.920   0.131   2.107 -0.5991 -1.1320 -0.1745
 9280SOL     OW39472   2.823   0.600   3.631 -0.1403  0.0827 -0.8155
 9280SOL    HW139473   2.852   0.668   3.691 -1.6626 -0.3516  0.4461
 9280SOL    HW239474   2.866   0.630   3.552 -0.9626  1.8014 -0.5969
 9281SOL     OW39475   3.433   1.644   0.427  0.2099 -0.4376 -0.3625
 9281SOL    HW139476   3.386   1.564   0.405 -0.7864  0.1792 -0.4951
 9281SOL    HW239477   3.516   1.597   0.434  0.4350  0.0250  0.1465
 9282SOL     OW39478   0.409   1.456   8.938  0.2084  0.2936 -0.4529
 9282SOL    HW139479   0.492   1.491   8.970 -0.3459  2.0924 -0.9957
 9282SOL    HW239480   0.427   1.376   8.888  0.4456  0.3810 -0.5056
 9283SOL     OW39481   2.480   4.684  12.012  0.7513 -0.0582 -0.4741
 9283SOL    HW139482   2.420   0.018  12.025  0.6382 -0.6234  2.0683
 9283SOL    HW239483   2.414   4.615  12.018 -2.4714  2.8945 -2.1862
 9284SOL     OW39484   3.012   3.717  11.313  0.0720  0.6930 -0.2864
 9284SOL    HW139485   3.068   3.793  11.330  0.2421  0.5923 -0.3912
 9284SOL    HW239486   2.985   3.723  11.221  2.3702 -1.8091 -1.1139
 9285SOL     OW39487   2.520   0.226  16.850  0.2110 -0.0790  0.3892
 9285SOL    HW139488   2.441   0.279  16.864  0.0043 -0.0002 -1.0838
 9285SOL    HW239489   2.506   0.161  16.919 -0.9780 -1.2849 -0.9851
 9286SOL     OW39490   4.689   4.082   2.146  0.2257 -0.1002  0.3544
 9286SOL    HW139491   4.630   4.114   2.079  2.4585  1.4017 -0.8756
 9286SOL    HW239492   4.703   4.158   2.202 -1.8568  1.5795 -1.4247
 9287SOL     OW39493   0.672   3.868  11.349  0.0136  0.0459  0.0991
 9287SOL    HW139494   0.767   3.873  11.357 -0.1941  0.1279  2.4122
 9287SOL    HW239495   0.634   3.875  11.437 -0.6740  1.9393 -0.3560
 9288SOL     OW39496   1.813   2.755   7.128  0.7067  0.6215 -0.1407
 9288SOL    HW139497   1.840   2.807   7.204 -0.5916 -3.1246  2.8897
 9288SOL    HW239498   1.719   2.769   7.122  0.8050  0.9072 -1.0827
 9289SOL     OW39499   2.326   0.120   4.224 -0.0648  0.3671 -0.4336
 9289SOL    HW139500   2.331   0.097   4.317  1.0655  2.2362 -0.0207
 9289SOL    HW239501   2.318   0.035   4.181  4.3615 -1.1044  1.5972
 9290SOL     OW39502   2.891   2.007   3.506 -0.2312  0.3387 -0.7573
 9290SOL    HW139503   2.840   2.076   3.548  1.3596  1.9801 -1.4906
 9290SOL    HW239504   2.908   2.042   3.418  1.7507  1.7612  0.2034
 9291SOL     OW39505   2.306   1.197   2.050  1.0682  0.3972  0.3351
 9291SOL    HW139506   2.251   1.133   2.094  0.1637  1.0216  0.1032
 9291SOL    HW239507   2.268   1.199   1.962 -0.2795 -1.6371  0.8624
 9292SOL     OW39508   1.802   1.240   5.309 -0.5549  0.4210  0.2602
 9292SOL    HW139509   1.742   1.202   5.244 -2.0847 -1.9421  3.0730
 9292SOL    HW239510   1.811   1.169   5.372 -0.3471  0.2947  0.0866
 9293SOL     OW39511   2.252   0.894  17.661  0.2351 -0.8908  0.2674
 9293SOL    HW139512   2.204   0.891  17.578 -3.2926 -1.4107  2.3036
 9293SOL    HW239513   2.225   0.810  17.701 -1.0234 -1.1198 -1.0692
 9294SOL     OW39514   3.704   0.061   7.900  0.3328  0.5800  0.5699
 9294SOL    HW139515   3.680   0.141   7.853  1.8947  0.1534 -0.9474
 9294SOL    HW239516   3.638   0.002   7.864  1.0823  0.6774 -0.9462
 9295SOL     OW39517   2.339   2.275   9.308  0.6388 -0.5282  0.3508
 9295SOL    HW139518   2.294   2.285   9.225  2.4039 -0.1055 -0.5534
 9295SOL    HW239519   2.273   2.220   9.350  2.0700 -2.2103  0.3947
 9296SOL     OW39520   1.236   4.521   3.690 -0.6406 -0.0930 -0.1809
 9296SOL    HW139521   1.295   4.558   3.624  0.5477  1.4336  1.7344
 9296SOL    HW239522   1.159   4.576   3.675 -1.2292 -1.2090 -1.2385
 9297SOL     OW39523   3.428   1.008  15.025 -0.3774  0.3888  0.3049
 9297SOL    HW139524   3.418   1.092  15.069  1.5600  1.6134 -1.5819
 9297SOL    HW239525   3.501   1.022  14.964 -0.5772  0.7893  0.1623
 9298SOL     OW39526   2.796   3.322  16.874 -0.5000 -0.0874  0.2410
 9298SOL    HW139527   2.735   3.299  16.804 -2.4701 -0.1605  1.9694
 9298SOL    HW239528   2.884   3.306  16.840 -1.1140  0.1426 -1.4586
 9299SOL     OW39529   1.890   1.184   6.784 -0.1698  0.5046  1.1191
 9299SOL    HW139530   1.951   1.176   6.711  1.6905 -0.2012  2.7649
 9299SOL    HW239531   1.877   1.096   6.818  2.6332  0.3484  1.8209
 9300SOL     OW39532   3.156   3.311   7.910  0.0838 -0.1385  1.3594
 9300SOL    HW139533   3.142   3.364   7.988 -0.3398 -0.9673  1.8445
 9300SOL    HW239534   3.076   3.321   7.859  1.3279  1.1191 -0.3641
 9301SOL     OW39535   0.355   4.351   3.051 -0.1385 -0.4792  0.3689
 9301SOL    HW139536   0.423   4.367   2.986 -2.1112 -0.0336 -1.5772
 9301SOL    HW239537   0.320   4.440   3.054  0.2850 -0.3350  1.1388
 9302SOL     OW39538   2.813   2.057   2.781  0.3910  0.2645  0.4174
 9302SOL    HW139539   2.788   1.968   2.756 -0.2315  0.1339  1.4981
 9302SOL    HW239540   2.740   2.082   2.838  0.6241  0.9857  0.3981
 9303SOL     OW39541   3.954   3.827  10.248 -0.5001  0.1248  0.0884
 9303SOL    HW139542   3.951   3.916  10.213 -1.2979  0.2148  0.3869
 9303SOL    HW239543   4.039   3.806  10.210  0.1086  0.2593  1.3428
 9304SOL     OW39544   3.690   2.121   2.932  0.2752  0.0995 -0.3833
 9304SOL    HW139545   3.640   2.185   2.881  0.7392  0.7986  0.0373
 9304SOL    HW239546   3.610   2.094   2.976  0.7489 -0.3007  0.2290
 9305SOL     OW39547   1.283   4.660   5.853 -0.4134  0.6644  0.2392
 9305SOL    HW139548   1.296   4.572   5.887 -0.2601  0.6482  0.1387
 9305SOL    HW239549   1.285   4.643   5.759 -2.4043  0.9789  0.1390
 9306SOL     OW39550   3.261   1.255  16.150 -0.0129  0.2006 -0.0242
 9306SOL    HW139551   3.301   1.331  16.107 -1.3577 -0.1824 -1.9044
 9306SOL    HW239552   3.209   1.224  16.076 -0.3491  0.0513  0.2737
 9307SOL     OW39553   0.432   4.521  12.307 -0.4619 -0.0150 -0.2096
 9307SOL    HW139554   0.339   4.499  12.307 -0.8740  1.7279  1.2293
 9307SOL    HW239555   0.454   4.436  12.268  0.0041 -0.6530  1.4415
 9308SOL     OW39556   2.526   3.622   1.430  0.2029  0.2488 -0.1696
 9308SOL    HW139557   2.546   3.683   1.501 -1.0272  2.7280 -2.0098
 9308SOL    HW239558   2.457   3.567   1.468  0.2983  1.7817  2.1822
 9309SOL     OW39559   4.264   1.227   3.261  0.0465  0.0626  0.4365
 9309SOL    HW139560   4.185   1.273   3.288 -0.1212  1.5176 -2.6293
 9309SOL    HW239561   4.245   1.142   3.301  1.3628 -1.0488 -1.3195
 9310SOL     OW39562   3.047   0.309   2.302 -0.1156 -0.2087  0.3208
 9310SOL    HW139563   3.095   0.226   2.304 -1.1258 -0.7400  1.9313
 9310SOL    HW239564   2.976   0.289   2.241  1.3544 -1.7963 -0.8883
 9311SOL     OW39565   2.172   2.421   4.476 -0.1413  0.3404  0.4702
 9311SOL    HW139566   2.094   2.416   4.420  0.3866 -0.9390 -0.1516
 9311SOL    HW239567   2.142   2.495   4.529 -0.5597  0.5433 -0.0505
 9312SOL     OW39568   3.130   2.491   4.096  0.0895  0.2446 -0.6454
 9312SOL    HW139569   3.193   2.497   4.024  0.1721 -1.3320 -0.7033
 9312SOL    HW239570   3.118   2.585   4.110  1.4126 -0.0922  2.8870
 9313SOL     OW39571   2.470   3.551  10.629  0.0396 -0.3694  0.4345
 9313SOL    HW139572   2.452   3.521  10.719  1.1317 -1.2016  0.3754
 9313SOL    HW239573   2.554   3.589  10.653  0.5962 -1.7547  0.6743
 9314SOL     OW39574   4.698   2.434   2.838  0.8032  0.0410  0.3337
 9314SOL    HW139575   4.628   2.497   2.816 -2.1880 -3.4145 -0.1222
 9314SOL    HW239576   4.661   2.404   2.921  0.9120 -0.5609  0.1640
 9315SOL     OW39577   0.327   2.241   4.410 -0.2604  0.7150  0.0659
 9315SOL    HW139578   0.292   2.162   4.452 -1.2725 -0.3112 -2.7659
 9315SOL    HW239579   0.286   2.237   4.324 -0.9689  2.4575  0.3336
 9316SOL     OW39580   2.568   1.568   0.045 -0.3209 -0.0516 -0.3029
 9316SOL    HW139581   2.554   1.476   0.068  0.0378  0.1825  0.8302
 9316SOL    HW239582   2.479   1.600   0.039  0.4823  2.4997  1.4346
 9317SOL     OW39583   4.690   3.596  10.757  0.6187  0.5804 -0.1774
 9317SOL    HW139584   4.694   3.690  10.774 -1.2528  0.7636 -0.7232
 9317SOL    HW239585   0.043   3.569  10.756  0.7852  1.1499  0.3531
 9318SOL     OW39586   4.126   2.493   3.332  0.0947 -0.3876 -0.3453
 9318SOL    HW139587   4.095   2.404   3.313  0.8867 -0.4244 -1.4994
 9318SOL    HW239588   4.055   2.526   3.386  0.2572  1.4873 -1.2743
 9319SOL     OW39589   3.338   0.263   6.974  0.6827  0.5885  0.3602
 9319SOL    HW139590   3.381   0.197   7.028  1.2042  0.0013 -0.7665
 9319SOL    HW239591   3.367   0.236   6.886  0.3899  0.7685  0.2073
 9320SOL     OW39592   1.600   0.770  14.844 -0.1975  0.0539  0.3006
 9320SOL    HW139593   1.636   0.687  14.876  1.6255  1.7152  2.5037
 9320SOL    HW239594   1.679   0.813  14.812 -0.6922  0.6475 -0.1135
 9321SOL     OW39595   4.221   2.625   6.063 -0.1471  0.2492  0.4532
 9321SOL    HW139596   4.168   2.583   5.995 -1.0682 -0.2992  1.5069
 9321SOL    HW239597   4.154   2.653   6.126  0.6006 -0.1923  1.4409
 9322SOL     OW39598   4.144   3.599  13.735 -0.2537 -0.1596 -0.0561
 9322SOL    HW139599   4.122   3.520  13.784 -2.2853  1.9742  2.4512
 9322SOL    HW239600   4.102   3.663  13.792  1.9632  2.0320 -0.8599
 9323SOL     OW39601   4.403   4.155   6.858 -0.1042 -0.2299  0.0426
 9323SOL    HW139602   4.360   4.219   6.915 -1.5626  1.2852 -2.7742
 9323SOL    HW239603   4.410   4.209   6.779 -1.0942  3.7414  2.6594
 9324SOL     OW39604   1.703   2.387  11.431 -0.1065  0.6961 -0.4322
 9324SOL    HW139605   1.762   2.379  11.356 -0.7522  0.5268 -0.9225
 9324SOL    HW239606   1.655   2.466  11.408 -0.9762 -0.0648 -1.2200
 9325SOL     OW39607   0.635   3.553   5.559 -0.0543 -0.5191  0.0730
 9325SOL    HW139608   0.679   3.468   5.564 -1.3824 -1.2350 -0.3468
 9325SOL    HW239609   0.560   3.539   5.501 -0.6259  0.1219  0.6550
 9326SOL     OW39610   4.200   2.739   0.344 -0.1744  0.0289 -0.5582
 9326SOL    HW139611   4.291   2.767   0.352  0.2274 -1.1402 -1.0203
 9326SOL    HW239612   4.200   2.663   0.403  0.2158  1.1109  0.8524
 9327SOL     OW39613   3.549   4.662   3.083  0.0924 -0.7139 -0.1858
 9327SOL    HW139614   3.590   4.615   3.155  0.6789 -1.0344 -0.7196
 9327SOL    HW239615   3.548   4.589   3.020  0.2436 -1.1009  0.2618
 9328SOL     OW39616   1.587   1.756  11.557 -0.5162  0.2366  0.8491
 9328SOL    HW139617   1.510   1.750  11.613 -0.5758  1.3604  0.8890
 9328SOL    HW239618   1.651   1.801  11.613 -1.2310  1.1755  0.9144
 9329SOL     OW39619   2.033   3.500   8.921  0.4740 -0.3859 -0.0849
 9329SOL    HW139620   2.107   3.479   8.978  0.6133 -0.4138 -0.2722
 9329SOL    HW239621   2.044   3.427   8.860  1.0726 -0.8841  0.6117
 9330SOL     OW39622   1.927   3.389   7.698  0.0447  0.2960  0.1889
 9330SOL    HW139623   2.011   3.400   7.653 -0.0284  0.1505  0.0137
 9330SOL    HW239624   1.926   3.294   7.694  1.3870  0.3459 -1.2474
 9331SOL     OW39625   2.256   4.392   0.039  0.2850  0.0833  0.1685
 9331SOL    HW139626   2.269   4.330  17.722 -0.9056  0.4887 -0.3977
 9331SOL    HW239627   2.340   4.434   0.055  0.8239 -1.0822  0.4395
 9332SOL     OW39628   1.140   1.682   2.883  0.0148  0.0428 -0.0553
 9332SOL    HW139629   1.132   1.593   2.850 -0.6503  0.2187 -0.3757
 9332SOL    HW239630   1.131   1.730   2.801 -2.6057 -0.7994 -0.2732
 9333SOL     OW39631   2.134   4.155   5.169 -0.0396 -0.1177 -0.6056
 9333SOL    HW139632   2.058   4.095   5.169 -0.4616  0.4097  2.4680
 9333SOL    HW239633   2.121   4.190   5.257  2.1509  1.8251 -1.0833
 9334SOL     OW39634   3.333   3.773   5.936  0.1484 -0.0470  0.1538
 9334SOL    HW139635   3.300   3.856   5.901  4.8655  0.9506 -1.8302
 9334SOL    HW239636   3.421   3.803   5.959  0.4490 -0.4485 -0.4926
 9335SOL     OW39637   1.066   2.986   0.089  0.1950 -0.0178 -0.3185
 9335SOL    HW139638   1.082   3.033   0.007  1.4912  1.0297  0.5184
 9335SOL    HW239639   1.119   3.042   0.146 -0.7783  0.7291 -0.1417
 9336SOL     OW39640   2.145   4.219  16.850 -0.3267 -0.3301  0.1273
 9336SOL    HW139641   2.140   4.311  16.877  2.6722 -0.4376  1.0108
 9336SOL    HW239642   2.162   4.189  16.939  0.1405  0.5945  0.3424
 9337SOL     OW39643   1.234   0.927   2.328 -0.1093  0.0715 -0.8397
 9337SOL    HW139644   1.246   0.975   2.410 -2.2196 -0.1217 -0.4046
 9337SOL    HW239645   1.260   1.005   2.278  1.3142  0.3755  0.3606
 9338SOL     OW39646   0.811   4.016   2.617  0.6486 -0.0646  0.2708
 9338SOL    HW139647   0.799   4.019   2.522  0.3129  1.4476  0.3721
 9338SOL    HW239648   0.719   4.021   2.644  0.3958 -0.3302 -0.5504
 9339SOL     OW39649   1.388   0.428   9.812  0.2886 -0.3536  0.2540
 9339SOL    HW139650   1.423   0.510   9.776 -0.6239  0.7291  1.8571
 9339SOL    HW239651   1.420   0.361   9.752  0.5102 -1.3905  1.5362
 9340SOL     OW39652   3.440   0.716   4.423  0.0107 -0.2826  1.0695
 9340SOL    HW139653   3.383   0.644   4.449 -0.5973  0.5069  1.9694
 9340SOL    HW239654   3.420   0.720   4.330 -2.8721 -0.6995  1.6495
 9341SOL     OW39655   1.841   0.671   4.661  0.4887 -0.7378 -0.0047
 9341SOL    HW139656   1.858   0.606   4.593  1.5684 -0.3427 -0.1174
 9341SOL    HW239657   1.806   0.617   4.732 -0.4980 -0.6590 -0.4285
 9342SOL     OW39658   4.106   1.000   0.035  0.6539 -0.3710  0.0811
 9342SOL    HW139659   4.148   1.061   0.095 -4.9546  0.5123  3.0933
 9342SOL    HW239660   4.129   1.045  17.708  1.3749  0.1554  0.5776
 9343SOL     OW39661   0.727   4.576   2.685  0.2199 -0.0434 -0.5816
 9343SOL    HW139662   0.759   4.496   2.645  0.8883  0.2829 -0.6925
 9343SOL    HW239663   0.806   4.604   2.732  0.0579  1.6539 -1.3148
 9344SOL     OW39664   2.402   1.584   3.635  0.3563 -0.6823 -0.2596
 9344SOL    HW139665   2.365   1.595   3.722 -1.5399  0.1329 -1.1624
 9344SOL    HW239666   2.408   1.679   3.625 -2.1007 -0.4363  0.7040
 9345SOL     OW39667   2.558   0.976  17.534 -0.4358 -0.5189  0.0316
 9345SOL    HW139668   2.567   0.882  17.521  1.4651 -0.3303 -0.0267
 9345SOL    HW239669   2.649   1.004  17.546 -0.1510 -1.3938 -0.0688
 9346SOL     OW39670   3.556   2.622   2.469 -0.0648  0.0135  0.5534
 9346SOL    HW139671   3.572   2.561   2.398  0.3960  1.0267 -0.2227
 9346SOL    HW239672   3.461   2.609   2.477  0.0222 -0.5649  0.6198
 9347SOL     OW39673   4.562   0.786   3.688 -0.3354  0.2051  0.1448
 9347SOL    HW139674   4.613   0.706   3.695  0.0763  0.5673  1.4498
 9347SOL    HW239675   4.479   0.747   3.715 -0.8282  1.1118 -0.0340
 9348SOL     OW39676   3.413   1.956  10.855 -0.5449 -0.2334 -0.1580
 9348SOL    HW139677   3.369   1.874  10.832  0.9921 -1.0341 -0.2762
 9348SOL    HW239678   3.402   1.952  10.950 -0.8124 -1.3136 -0.2305
 9349SOL     OW39679   3.308   0.736   2.531 -0.3536  0.3965 -0.3397
 9349SOL    HW139680   3.370   0.727   2.459 -1.1062 -0.5640 -0.8868
 9349SOL    HW239681   3.246   0.670   2.499  1.5280 -1.6874  0.2473
 9350SOL     OW39682   1.364   2.886   8.738  0.4357 -0.5250 -0.2309
 9350SOL    HW139683   1.394   2.920   8.822 -2.0205 -0.7351  0.7191
 9350SOL    HW239684   1.297   2.948   8.711  1.5571  1.0594  0.5985
 9351SOL     OW39685   3.914   1.801   3.010  0.8659  0.1165  0.1873
 9351SOL    HW139686   3.999   1.798   3.053  0.7107 -1.8192  0.3417
 9351SOL    HW239687   3.895   1.708   3.019  0.0155  0.1803 -0.9396
 9352SOL     OW39688   2.828   1.069   9.320  0.7467 -0.5071 -0.4479
 9352SOL    HW139689   2.733   1.062   9.321  0.7130  0.0912  0.5693
 9352SOL    HW239690   2.849   1.015   9.396 -0.8350  0.8546  0.9665
 9353SOL     OW39691   2.572   2.395   9.350  0.5495 -0.3689 -0.2827
 9353SOL    HW139692   2.620   2.332   9.404 -0.4419  0.4196  1.5166
 9353SOL    HW239693   2.486   2.354   9.349  0.8543 -1.0076 -0.2427
 9354SOL     OW39694   0.872   1.278   6.282 -0.5219  0.1110 -0.0504
 9354SOL    HW139695   0.780   1.300   6.269 -0.5716 -0.9992 -1.5562
 9354SOL    HW239696   0.908   1.364   6.303  0.2100  0.2780 -1.9937
 9355SOL     OW39697   3.887   2.740   5.898 -0.0525  0.0882 -0.2637
 9355SOL    HW139698   3.879   2.722   5.992 -1.8385 -0.4719 -0.5395
 9355SOL    HW239699   3.919   2.831   5.893 -3.6919  1.3010 -1.4892
 9356SOL     OW39700   2.767   2.427   3.760 -0.1760  0.0051  0.2443
 9356SOL    HW139701   2.742   2.506   3.808  0.0289  0.0071  0.3483
 9356SOL    HW239702   2.852   2.404   3.799  0.4073  1.3090 -0.2398
 9357SOL     OW39703   0.297   4.419   8.067  0.9201  0.2378 -0.0031
 9357SOL    HW139704   0.244   4.435   7.989 -0.3536 -2.3866  0.3366
 9357SOL    HW239705   0.385   4.438   8.032  0.5901  0.5870 -0.6471
 9358SOL     OW39706   0.869   2.548  12.947 -0.4215 -0.0171  0.6563
 9358SOL    HW139707   0.901   2.488  12.880 -0.2483 -0.4249  1.1090
 9358SOL    HW239708   0.798   2.492  12.977 -0.6412  0.0814  0.3140
 9359SOL     OW39709   3.481   0.789   7.114  0.0154 -0.2440  0.4374
 9359SOL    HW139710   3.552   0.831   7.162  0.6940  0.2292 -1.0226
 9359SOL    HW239711   3.526   0.789   7.030 -1.7065  0.3857 -0.4722
 9360SOL     OW39712   3.480   4.620   6.391 -0.1316 -0.1605 -0.2182
 9360SOL    HW139713   3.570   4.601   6.418 -0.4047  1.1325  1.6022
 9360SOL    HW239714   3.429   4.612   6.471 -0.6199 -0.7879 -0.5937
 9361SOL     OW39715   3.813   3.163   8.416  0.0246  0.0254 -0.4794
 9361SOL    HW139716   3.902   3.179   8.385  0.3009  1.2430  0.9481
 9361SOL    HW239717   3.817   3.077   8.459 -1.2778  0.1837 -0.0390
 9362SOL     OW39718   0.507   3.530   9.642  0.4467 -0.3166  0.1647
 9362SOL    HW139719   0.548   3.519   9.728  0.7637 -0.1582  0.0341
 9362SOL    HW239720   0.528   3.447   9.601  1.1353 -0.9137  1.7398
 9363SOL     OW39721   2.708   3.206   5.046 -0.4501  0.3391 -0.3861
 9363SOL    HW139722   2.680   3.152   5.120 -0.9318 -0.1254 -0.9134
 9363SOL    HW239723   2.647   3.176   4.979  2.1537 -1.1192 -2.1366
 9364SOL     OW39724   3.472   0.796   1.906 -0.5684 -0.1360  0.2610
 9364SOL    HW139725   3.432   0.723   1.860  0.0484  1.2275 -2.4608
 9364SOL    HW239726   3.418   0.798   1.985  1.3747 -0.1415  1.5871
 9365SOL     OW39727   3.448   0.443  17.465 -0.3586 -0.1518  0.0687
 9365SOL    HW139728   3.517   0.428  17.399 -0.6786  0.2799 -0.3561
 9365SOL    HW239729   3.426   0.351  17.483 -0.2354 -0.2013 -0.0278
 9366SOL     OW39730   2.892   4.384  12.787 -0.7710 -0.3896  0.1582
 9366SOL    HW139731   2.985   4.363  12.779 -0.6529 -0.3613  1.4175
 9366SOL    HW239732   2.848   4.351  12.708 -0.5680 -1.6136  0.5573
 9367SOL     OW39733   0.261   1.944  16.718 -0.1737  0.0013 -0.1252
 9367SOL    HW139734   0.171   1.929  16.749  0.3826  0.1008  1.5104
 9367SOL    HW239735   0.267   1.890  16.639  1.4750  2.1210 -1.4227
 9368SOL     OW39736   0.163   1.944   8.755  0.5113  0.7958 -0.1964
 9368SOL    HW139737   0.208   1.936   8.839  0.2693  0.2583 -0.1141
 9368SOL    HW239738   0.075   1.931   8.790  0.0312  1.9016 -1.0027
 9369SOL     OW39739   0.107   4.573   7.886  0.2411 -0.9357  0.2216
 9369SOL    HW139740   0.141   4.532   7.807  1.2987 -0.2318  0.2988
 9369SOL    HW239741   0.033   4.613   7.841  0.5774 -0.4073  0.1250
 9370SOL     OW39742   4.543   0.846   8.619 -0.5154 -0.4399 -0.3420
 9370SOL    HW139743   4.532   0.808   8.706  2.7438  0.8599  0.6383
 9370SOL    HW239744   4.515   0.776   8.560 -0.7240 -0.2330 -0.4837
 9371SOL     OW39745   3.790   3.572  14.883 -0.5432  0.1644 -0.2169
 9371SOL    HW139746   3.771   3.623  14.804  0.5241 -1.6455 -1.6514
 9371SOL    HW239747   3.880   3.547  14.864 -0.1408  2.3865 -1.1692
 9372SOL     OW39748   2.872   3.338  14.352  0.1961 -0.5404  0.3315
 9372SOL    HW139749   2.849   3.288  14.430 -0.3844 -1.3032 -0.3334
 9372SOL    HW239750   2.798   3.319  14.294  1.3132  0.0271 -1.2829
 9373SOL     OW39751   0.730   2.726   5.470  0.4807 -0.1884  0.4653
 9373SOL    HW139752   0.776   2.680   5.540 -0.2985  0.1099  1.1753
 9373SOL    HW239753   0.788   2.803   5.463 -0.0773  0.1846 -0.0785
 9374SOL     OW39754   0.735   0.130   7.990 -0.0339  0.3794 -0.5795
 9374SOL    HW139755   0.823   0.130   8.027 -0.9361 -0.8983  1.5759
 9374SOL    HW239756   0.688   0.117   8.072  0.1847 -1.6228 -0.7832
 9375SOL     OW39757   2.425   2.767   6.590  0.1254  0.0326  0.5398
 9375SOL    HW139758   2.349   2.709   6.582  0.6195 -0.3714 -1.1748
 9375SOL    HW239759   2.391   2.846   6.547  2.9658  1.0014  0.0576
 9376SOL     OW39760   4.618   0.934  11.630  0.2881 -0.5367 -0.3228
 9376SOL    HW139761   4.703   0.935  11.585  0.5411  1.7399  0.2211
 9376SOL    HW239762   4.651   0.902  11.714  0.6576 -2.0343 -1.0345
 9377SOL     OW39763   1.279   4.628   2.867 -0.3847  0.2797  0.4107
 9377SOL    HW139764   1.269   4.534   2.881  1.9065 -0.1885 -0.9905
 9377SOL    HW239765   1.359   4.638   2.815 -1.2201  0.8998 -0.7744
 9378SOL     OW39766   2.031   2.934  11.783 -0.6222 -0.0485 -0.5603
 9378SOL    HW139767   1.991   2.849  11.805  0.2239 -0.0158  1.0862
 9378SOL    HW239768   2.034   2.918  11.689 -1.2796 -1.5595 -0.3379
 9379SOL     OW39769   3.339   4.131  12.864  0.5783 -0.2713  0.3393
 9379SOL    HW139770   3.364   4.177  12.944  1.4888 -0.0712 -0.0627
 9379SOL    HW239771   3.278   4.069  12.904  1.7482 -1.0800  0.8404
 9380SOL     OW39772   0.358   2.214   1.159 -0.4293 -0.1740 -0.2708
 9380SOL    HW139773   0.431   2.154   1.173 -0.4214  0.3770  2.1664
 9380SOL    HW239774   0.311   2.174   1.086 -1.4163  2.9258 -1.3238
 9381SOL     OW39775   2.210   3.860  12.669 -0.4280 -0.2101 -0.1172
 9381SOL    HW139776   2.251   3.946  12.666 -1.2213  0.1527 -0.7181
 9381SOL    HW239777   2.129   3.867  12.619  1.6187 -0.0260 -3.4323
 9382SOL     OW39778   2.512   1.917  17.397 -0.3733 -0.5549  0.0144
 9382SOL    HW139779   2.573   1.910  17.470 -0.3332  1.7740  0.2099
 9382SOL    HW239780   2.432   1.884  17.439 -0.0847 -1.8338 -0.4484
 9383SOL     OW39781   1.424   4.023   6.249 -0.1950  0.3690  0.3399
 9383SOL    HW139782   1.474   3.992   6.174  0.6493 -0.7009  1.3364
 9383SOL    HW239783   1.361   4.070   6.196 -0.0480 -0.3346 -0.4627
 9384SOL     OW39784   1.839   2.419   6.303 -0.1860  0.2445 -0.2634
 9384SOL    HW139785   1.867   2.368   6.379  0.1521  0.1616 -0.4434
 9384SOL    HW239786   1.923   2.452   6.270 -0.0786  1.1033  0.8423
 9385SOL     OW39787   3.159   2.903  14.034  0.2288  0.8927 -0.3114
 9385SOL    HW139788   3.234   2.918  14.092  1.7737  2.2351 -2.6517
 9385SOL    HW239789   3.203   2.855  13.964  0.0710 -0.3576  0.4370
 9386SOL     OW39790   4.651   3.336  15.997  0.2749  0.5346  0.1692
 9386SOL    HW139791   4.622   3.365  16.083  1.3972 -3.1190  1.8084
 9386SOL    HW239792   4.661   3.419  15.952 -0.1607 -0.5139 -1.8540
 9387SOL     OW39793   2.524   4.580   4.322  0.0224  0.7325  0.3614
 9387SOL    HW139794   2.455   4.626   4.370 -1.5997 -1.3337 -0.0088
 9387SOL    HW239795   2.486   4.493   4.316 -1.2652  1.4226 -1.4026
 9388SOL     OW39796   3.862   1.513   4.364  0.4470 -0.1255 -0.4332
 9388SOL    HW139797   3.835   1.566   4.439 -0.4404 -0.6855 -0.3588
 9388SOL    HW239798   3.830   1.566   4.291 -0.1697 -0.9405 -0.7509
 9389SOL     OW39799   2.870   0.691  13.191 -0.5718 -0.2657  0.2649
 9389SOL    HW139800   2.871   0.756  13.261  1.0029 -3.4777  3.2091
 9389SOL    HW239801   2.802   0.633  13.225 -0.3600 -0.9373 -0.4601
 9390SOL     OW39802   0.051   0.430   7.852 -0.2772  0.9448 -0.0254
 9390SOL    HW139803   0.045   0.335   7.861  1.5704  1.0949  2.5868
 9390SOL    HW239804   0.122   0.436   7.787  0.7231  1.3808  1.1209
 9391SOL     OW39805   3.305   4.267   4.760 -0.2452  0.1647 -0.0554
 9391SOL    HW139806   3.242   4.315   4.813 -0.0074 -0.2808  0.6285
 9391SOL    HW239807   3.374   4.328   4.785  1.1394 -0.4686 -2.2757
 9392SOL     OW39808   4.142   0.858   6.158 -0.1004 -0.1388 -0.5621
 9392SOL    HW139809   4.206   0.794   6.190 -1.8645 -1.6283  0.0104
 9392SOL    HW239810   4.167   0.922   6.225  2.1719 -1.5631 -0.0434
 9393SOL     OW39811   2.007   2.726   7.732 -0.4194  0.5506 -0.1872
 9393SOL    HW139812   2.018   2.777   7.651 -0.0548  0.8524  0.0516
 9393SOL    HW239813   1.919   2.693   7.716 -0.5049  1.2821 -1.2438
 9394SOL     OW39814   1.953   3.296   5.923 -0.8952  0.4145  0.3603
 9394SOL    HW139815   2.011   3.334   5.990 -1.4234  0.8401  0.5805
 9394SOL    HW239816   1.882   3.267   5.981  0.4305 -2.4073  0.5264
 9395SOL     OW39817   0.543   4.091   8.372  0.1922  0.1281  0.4643
 9395SOL    HW139818   0.462   4.040   8.368  0.3825 -0.0981 -0.5880
 9395SOL    HW239819   0.553   4.098   8.277  0.4123  1.3332  0.5822
 9396SOL     OW39820   0.229   3.595  17.541  0.1543 -0.5352  0.2974
 9396SOL    HW139821   0.323   3.607  17.527  0.2390 -1.6130 -0.0402
 9396SOL    HW239822   0.217   3.500  17.535 -0.5303 -0.2462 -3.0002
 9397SOL     OW39823   0.005   2.895  10.786 -0.5441 -0.1638 -0.3165
 9397SOL    HW139824   4.649   2.904  10.773 -0.2017  1.5282 -1.5887
 9397SOL    HW239825   0.025   2.964  10.723  0.8211 -0.9178 -0.7048
 9398SOL     OW39826   1.955   3.899   9.239  0.0477  0.0827  0.3258
 9398SOL    HW139827   2.013   3.919   9.166  0.7744 -1.0778  0.5857
 9398SOL    HW239828   2.011   3.862   9.307 -1.2326  0.4559  1.5768
 9399SOL     OW39829   3.269   0.865  16.812  0.2689  0.1962 -0.5986
 9399SOL    HW139830   3.291   0.847  16.721  2.0945  1.4787 -0.3999
 9399SOL    HW239831   3.292   0.958  16.812  0.3991  0.1641  1.0995
 9400SOL     OW39832   2.505   0.374   9.597  0.4119  0.3196 -0.0804
 9400SOL    HW139833   2.524   0.304   9.660 -4.1359 -1.8601 -1.1201
 9400SOL    HW239834   2.411   0.382   9.611  0.3286  1.6692 -1.3484
 9401SOL     OW39835   2.869   0.842  13.426  0.5641 -0.1681 -0.0627
 9401SOL    HW139836   2.912   0.926  13.409 -0.0680 -0.1871 -1.7016
 9401SOL    HW239837   2.838   0.861  13.515  0.2883 -1.4628  0.1194
 9402SOL     OW39838   3.003   0.245   4.706 -0.1693 -0.0457 -0.7260
 9402SOL    HW139839   2.911   0.223   4.692  0.0456 -0.2506 -1.8060
 9402SOL    HW239840   2.998   0.334   4.741 -1.5350 -0.0824 -0.8318
 9403SOL     OW39841   0.160   0.162   7.024  0.1633  0.1557  0.2402
 9403SOL    HW139842   0.153   0.256   7.035  1.3276  0.0182  2.1206
 9403SOL    HW239843   0.067   0.147   7.041  0.5014 -0.3509  1.6636
 9404SOL     OW39844   1.544   1.284   1.057  0.7314  0.0409 -0.2012
 9404SOL    HW139845   1.475   1.278   0.990  2.1583  1.0064 -1.7463
 9404SOL    HW239846   1.552   1.378   1.072 -1.0494  0.4557 -1.7913
 9405SOL     OW39847   3.860   4.213  17.403  0.9672  0.2830  0.4153
 9405SOL    HW139848   3.926   4.215  17.473  1.5655 -0.8506 -0.1265
 9405SOL    HW239849   3.847   4.308  17.405  1.5035  0.3500  1.1299
 9406SOL     OW39850   4.567   2.983   6.166  0.2118 -0.1558 -0.2665
 9406SOL    HW139851   4.559   2.931   6.085  1.2598  1.7217 -1.5763
 9406SOL    HW239852   4.484   2.965   6.210  0.1471  2.0409  0.5088
 9407SOL     OW39853   4.141   0.958   1.917 -0.1490  0.4582  0.1476
 9407SOL    HW139854   4.116   0.916   2.000 -1.7663 -2.0455 -1.6124
 9407SOL    HW239855   4.154   1.051   1.934  1.4605  0.3266 -0.3098
 9408SOL     OW39856   2.036   1.109   2.191 -0.0394 -0.2044 -0.0924
 9408SOL    HW139857   1.952   1.093   2.233 -0.6717  0.9342 -0.9189
 9408SOL    HW239858   2.086   1.134   2.268 -1.2102  1.4899  0.1185
 9409SOL     OW39859   2.213   2.143   7.852  0.3512  0.0203 -0.1727
 9409SOL    HW139860   2.301   2.146   7.889  1.2327 -0.9153 -2.2241
 9409SOL    HW239861   2.159   2.143   7.931 -1.4556  1.1807 -1.4231
 9410SOL     OW39862   0.612   3.480   7.120  0.0086 -0.2152 -0.2118
 9410SOL    HW139863   0.563   3.560   7.136  2.7389  1.3848  0.1735
 9410SOL    HW239864   0.660   3.467   7.203 -0.5535  0.9085  0.2820
 9411SOL     OW39865   0.418   1.405   2.839  0.7193 -0.2371 -0.1742
 9411SOL    HW139866   0.512   1.409   2.857  0.9567  3.6760 -2.2658
 9411SOL    HW239867   0.410   1.475   2.775 -0.3021  0.7034  0.9710
 9412SOL     OW39868   4.572   4.360  15.207  0.3544 -0.9511 -0.0052
 9412SOL    HW139869   4.622   4.366  15.288  1.0738 -0.8253 -0.4575
 9412SOL    HW239870   4.643   4.348  15.144  1.3114 -2.0887  1.2799
 9413SOL     OW39871   3.326   1.677   2.724  0.2360 -0.3639 -0.2107
 9413SOL    HW139872   3.348   1.589   2.693 -0.8316  0.2896 -2.8525
 9413SOL    HW239873   3.287   1.661   2.809 -0.8167  1.0761 -0.4085
 9414SOL     OW39874   0.084   0.346   1.918 -0.4076  0.1543  0.0090
 9414SOL    HW139875   0.162   0.293   1.933 -1.2388 -0.5691  1.7875
 9414SOL    HW239876   0.027   0.303   1.982 -3.0834  3.2076 -0.3402
 9415SOL     OW39877   3.940   4.602  12.703  0.0142 -0.2236  0.2247
 9415SOL    HW139878   3.994   4.677  12.677  0.2851  0.0796  1.6273
 9415SOL    HW239879   3.885   4.600  12.625  0.6091  0.7343 -0.2099
 9416SOL     OW39880   1.081   4.367   2.470  0.5621 -0.0599  0.4509
 9416SOL    HW139881   1.156   4.393   2.522  1.2949 -4.0959  1.3942
 9416SOL    HW239882   1.030   4.324   2.539  0.9761 -1.6412 -0.2247
 9417SOL     OW39883   4.420   2.841   2.603 -0.1885 -0.0472  0.2826
 9417SOL    HW139884   4.358   2.855   2.531  1.5434 -0.1919 -1.2442
 9417SOL    HW239885   4.395   2.917   2.656 -1.4810 -1.8051  2.2001
 9418SOL     OW39886   3.843   0.458   5.129 -0.1790  0.3644 -0.2343
 9418SOL    HW139887   3.809   0.433   5.043  0.1351 -0.0421 -0.2403
 9418SOL    HW239888   3.932   0.484   5.105  0.0927 -1.0781 -0.7528
 9419SOL     OW39889   0.650   3.979   4.040 -0.1084  0.4655 -0.4933
 9419SOL    HW139890   0.631   4.040   3.968 -0.9357  1.8758  0.9173
 9419SOL    HW239891   0.724   4.023   4.081 -0.0859 -0.1278  0.0971
 9420SOL     OW39892   3.064   2.350   7.858 -0.7991 -0.2235 -0.0118
 9420SOL    HW139893   3.027   2.326   7.773  0.6409  0.5556 -0.8587
 9420SOL    HW239894   2.981   2.373   7.899 -1.2324 -2.9246  0.6300
 9421SOL     OW39895   3.524   1.933   6.238 -0.1429  0.2817 -0.1253
 9421SOL    HW139896   3.429   1.933   6.255  0.0233 -0.6338  0.7934
 9421SOL    HW239897   3.532   2.028   6.224  1.3409  0.3455  1.1961
 9422SOL     OW39898   1.808   2.408  16.298  0.0999 -0.0144  0.0273
 9422SOL    HW139899   1.887   2.388  16.348  1.0506 -0.3242 -1.5879
 9422SOL    HW239900   1.840   2.469  16.232 -1.8005 -0.3651 -1.2245
 9423SOL     OW39901   2.254   3.196  11.475 -1.0493 -0.4690 -0.3169
 9423SOL    HW139902   2.284   3.199  11.566 -1.7145  1.6546 -0.1573
 9423SOL    HW239903   2.329   3.246  11.442 -0.2262 -2.0593 -0.8651
 9424SOL     OW39904   4.175   3.664   8.255 -0.2825  0.7736  0.5686
 9424SOL    HW139905   4.191   3.619   8.172 -1.0839 -0.1935  0.9265
 9424SOL    HW239906   4.123   3.731   8.211 -1.3177 -0.2477  0.2148
 9425SOL     OW39907   1.212   3.520   7.490  0.2782 -0.2547 -0.6043
 9425SOL    HW139908   1.162   3.600   7.471  0.9971  0.3581  0.1033
 9425SOL    HW239909   1.278   3.510   7.421  1.3436  2.0813  0.0827
 9426SOL     OW39910   3.707   3.844   4.056  0.2509 -0.3251  0.3980
 9426SOL    HW139911   3.674   3.894   3.981  1.7472  0.4228  0.2436
 9426SOL    HW239912   3.776   3.896   4.098  1.1547 -1.6648  0.5981
 9427SOL     OW39913   2.636   0.611   8.632  0.4301  0.2428  0.3380
 9427SOL    HW139914   2.615   0.689   8.684 -1.7852  0.7192 -1.2551
 9427SOL    HW239915   2.614   0.639   8.544  0.2344  1.1900  0.6885
 9428SOL     OW39916   2.499   2.424   8.973 -0.0846 -0.3021  0.4592
 9428SOL    HW139917   2.528   2.338   8.942  0.0292  0.1617 -0.7356
 9428SOL    HW239918   2.413   2.401   9.009  0.3012 -3.7286 -0.7151
 9429SOL     OW39919   0.865   4.516   2.404  0.0916 -0.3269 -0.3562
 9429SOL    HW139920   0.929   4.454   2.439 -0.5349 -0.3600  0.7071
 9429SOL    HW239921   0.893   4.604   2.430  2.0801 -0.9089 -0.5158
 9430SOL     OW39922   0.444   3.878   6.134  0.6519 -0.4386  0.2946
 9430SOL    HW139923   0.516   3.817   6.146  1.7870  0.6641 -0.8562
 9430SOL    HW239924   0.418   3.865   6.042 -2.6527 -0.7559  1.2821
 9431SOL     OW39925   0.448   2.937   6.625 -0.6623 -0.0740 -0.1645
 9431SOL    HW139926   0.513   2.947   6.555  0.1951  1.1228  0.8149
 9431SOL    HW239927   0.399   2.858   6.599  0.4989 -0.8749  0.0594
 9432SOL     OW39928   2.742   0.267  16.520 -0.8121 -0.4630 -0.3945
 9432SOL    HW139929   2.714   0.214  16.595  1.5967  0.2696  1.0351
 9432SOL    HW239930   2.806   0.214  16.473 -0.8281 -0.3808 -0.5080
 9433SOL     OW39931   4.375   0.953   3.903  0.4982 -0.4184 -0.2860
 9433SOL    HW139932   4.403   0.902   3.979  0.8493  0.5265  0.2348
 9433SOL    HW239933   4.411   0.905   3.829 -0.3667 -0.6537 -0.5422
 9434SOL     OW39934   1.183   4.069   6.629  0.3695 -0.6160  0.2747
 9434SOL    HW139935   1.190   4.147   6.572 -0.0851 -0.4555  0.4388
 9434SOL    HW239936   1.089   4.052   6.631 -0.0710  1.6964  0.3263
 9435SOL     OW39937   3.032   1.180   6.054  0.3302 -0.3526  0.5166
 9435SOL    HW139938   3.105   1.132   6.093  2.1717 -0.2403 -2.7603
 9435SOL    HW239939   2.985   1.211   6.131 -1.0659 -1.0952 -0.0368
 9436SOL     OW39940   3.714   2.968   5.939  0.7914 -0.7078 -0.5018
 9436SOL    HW139941   3.721   3.043   5.879  1.8386 -0.6095 -0.2645
 9436SOL    HW239942   3.725   2.890   5.885 -2.6565 -0.8548 -0.9936
 9437SOL     OW39943   3.231   1.193   1.422 -0.1987  0.0107  1.2069
 9437SOL    HW139944   3.276   1.189   1.506 -0.0905  0.0524  1.1502
 9437SOL    HW239945   3.140   1.178   1.448 -0.4304  1.1358  1.0380
 9438SOL     OW39946   1.583   3.029   5.376  0.4631 -0.3801  0.0570
 9438SOL    HW139947   1.585   2.936   5.355  1.2601  0.0088 -1.5775
 9438SOL    HW239948   1.496   3.054   5.345  0.1074  1.0097  2.1159
 9439SOL     OW39949   3.145   4.264   5.794 -0.0865 -0.2387  0.1991
 9439SOL    HW139950   3.205   4.237   5.725 -0.7241 -0.7949 -0.1321
 9439SOL    HW239951   3.203   4.328   5.836 -0.6572  1.0951 -1.0595
 9440SOL     OW39952   1.124   3.995   9.812  0.2227  0.2277  0.4121
 9440SOL    HW139953   1.185   4.059   9.848  0.0142  0.6333  0.0521
 9440SOL    HW239954   1.064   3.989   9.887 -0.0509 -3.9926 -0.1690
 9441SOL     OW39955   4.298   1.629   0.960  0.2174  0.6753  0.3598
 9441SOL    HW139956   4.333   1.550   0.919  1.5774  2.6541 -2.2421
 9441SOL    HW239957   4.350   1.705   0.935  0.2296  0.4545 -0.2948
 9442SOL     OW39958   2.872   0.246  14.102 -0.3750  0.1772 -0.3143
 9442SOL    HW139959   2.906   0.332  14.126 -0.8343  0.8670 -2.1485
 9442SOL    HW239960   2.868   0.259  14.008 -2.0081 -2.8627 -0.6495
 9443SOL     OW39961   0.371   3.518   0.058  0.6649 -0.1067  0.1861
 9443SOL    HW139962   0.420   3.534  17.732  0.0463 -1.5250 -0.4781
 9443SOL    HW239963   0.445   3.525   0.118  1.2051  0.2445 -0.5242
 9444SOL     OW39964   1.346   0.224   2.260 -0.4980 -0.3263 -0.0505
 9444SOL    HW139965   1.300   0.278   2.197  0.0715 -1.2463 -1.2669
 9444SOL    HW239966   1.390   0.288   2.316  2.1226 -2.0987 -0.0383
 9445SOL     OW39967   2.881   2.282   6.671  0.0782  0.2486 -0.4729
 9445SOL    HW139968   2.927   2.330   6.602 -0.4809  2.8083  0.9637
 9445SOL    HW239969   2.942   2.210   6.688 -2.4953 -2.1046 -1.1134
 9446SOL     OW39970   1.266   0.733   5.511  0.6501  0.2144  0.2974
 9446SOL    HW139971   1.214   0.693   5.581 -3.1862  2.1761 -1.4184
 9446SOL    HW239972   1.190   0.784   5.484  1.2559  1.8584  1.7104
 9447SOL     OW39973   2.597   0.740   0.336  0.3505 -0.4626 -0.5432
 9447SOL    HW139974   2.585   0.730   0.431  1.9744 -2.0620 -0.5167
 9447SOL    HW239975   2.659   0.672   0.311  0.1522  0.0980 -2.5131
 9448SOL     OW39976   0.106   2.431   5.337  0.0911 -0.2751 -0.2729
 9448SOL    HW139977   0.192   2.442   5.376  0.3200 -3.5832  0.1150
 9448SOL    HW239978   0.050   2.478   5.399  0.6222 -0.6075  0.4534
 9449SOL     OW39979   2.922   3.925  10.978 -0.7198  0.2205  0.2637
 9449SOL    HW139980   2.943   3.935  11.071  2.1668  1.0535 -0.4803
 9449SOL    HW239981   2.889   3.836  10.987  1.5727 -0.5406  1.0942
 9450SOL     OW39982   3.930   0.374   4.188  0.1235  0.1127 -0.3796
 9450SOL    HW139983   3.860   0.404   4.129 -0.0075  0.4041 -0.0787
 9450SOL    HW239984   3.955   0.456   4.230 -1.8299  1.6361 -2.1471
 9451SOL     OW39985   0.003   4.339  17.222 -0.5319 -0.1199  0.4800
 9451SOL    HW139986   0.050   4.297  17.150 -1.6444 -0.9530  0.2482
 9451SOL    HW239987   0.069   4.336  17.291 -1.2672 -1.4503  1.1188
 9452SOL     OW39988   0.278   2.301   8.081 -0.2518 -0.1681 -0.4880
 9452SOL    HW139989   0.190   2.338   8.093  0.3942  0.5398  2.2233
 9452SOL    HW239990   0.323   2.344   8.154  0.0394  1.4562 -1.6336
 9453SOL     OW39991   3.891   2.031   5.497  0.5523  0.3801 -0.1202
 9453SOL    HW139992   3.807   2.059   5.534  1.1998  2.5821 -0.3503
 9453SOL    HW239993   3.862   2.018   5.406 -1.7710 -2.3766  0.9871
 9454SOL     OW39994   2.793   0.364  14.783 -0.2404  0.6681 -0.3044
 9454SOL    HW139995   2.870   0.391  14.833 -1.3162  0.1225  1.6477
 9454SOL    HW239996   2.756   0.452  14.777 -1.9824 -0.0430  0.0473
 9455SOL     OW39997   4.644   3.936   5.363 -0.3196 -0.5380 -0.1136
 9455SOL    HW139998   4.712   3.869   5.369  1.2435  1.1392  0.6398
 9455SOL    HW239999   4.662   3.992   5.439  0.7953 -0.4331 -0.4524
 9456SOL     OW40000   0.685   4.446  13.819 -0.1578 -0.6552  0.5229
 9456SOL    HW140001   0.617   4.514  13.816  0.1878 -0.4280 -1.9767
 9456SOL    HW240002   0.632   4.366  13.828  0.2019 -1.1143 -1.5192
 9457SOL     OW40003   3.051   2.244  15.116 -0.0592  0.4921  0.0153
 9457SOL    HW140004   3.033   2.216  15.026 -0.1590  0.8812 -0.0843
 9457SOL    HW240005   2.960   2.252  15.145 -1.3460  0.6582 -4.0092
 9458SOL     OW40006   1.393   3.016  14.892 -0.2543 -0.5833  0.0394
 9458SOL    HW140007   1.297   3.017  14.891 -0.2134  0.2449 -3.5307
 9458SOL    HW240008   1.413   3.109  14.881  0.6481 -0.7447  0.3572
 9459SOL     OW40009   3.979   0.316   4.718  0.1115 -0.6717 -0.3535
 9459SOL    HW140010   4.050   0.379   4.726  0.4764 -1.0029 -0.9510
 9459SOL    HW240011   3.979   0.291   4.626  1.6801 -1.4697 -0.1303
 9460SOL     OW40012   2.178   1.683   2.847  0.2682 -0.1101 -0.2616
 9460SOL    HW140013   2.201   1.691   2.940  0.2191 -3.1975  0.0123
 9460SOL    HW240014   2.133   1.598   2.847 -0.5172  0.3102 -1.4688
 9461SOL     OW40015   0.692   4.447   8.170  0.6434 -0.6530 -0.1080
 9461SOL    HW140016   0.702   4.541   8.188  0.4962 -0.8353  0.9234
 9461SOL    HW240017   0.646   4.440   8.086 -3.1315 -0.9394  1.9807
 9462SOL     OW40018   3.074   4.250   7.351 -0.4815  0.2616  0.5708
 9462SOL    HW140019   3.065   4.345   7.359 -0.2295  0.4127 -1.0052
 9462SOL    HW240020   2.989   4.227   7.388  0.0371 -1.7022  0.5300
 9463SOL     OW40021   0.345   2.371   5.928 -0.0303 -0.1494  0.1720
 9463SOL    HW140022   0.419   2.332   5.882 -0.4907 -0.2010 -0.5372
 9463SOL    HW240023   0.343   2.316   6.006 -1.8410 -1.7152 -0.9648
 9464SOL     OW40024   3.952   0.052  15.502 -0.1641  0.1101 -0.1299
 9464SOL    HW140025   4.018   0.038  15.571  0.7511 -0.7185 -1.1672
 9464SOL    HW240026   3.998   0.119  15.452  1.1538 -0.3686  0.4247
 9465SOL     OW40027   2.544   3.496   2.781  0.2117 -0.0850 -0.8471
 9465SOL    HW140028   2.593   3.423   2.818 -1.7597  0.5438  2.9809
 9465SOL    HW240029   2.608   3.566   2.770 -0.0063  0.4105  1.0313
 9466SOL     OW40030   2.981   1.961   0.970  0.1902 -0.7623 -0.0480
 9466SOL    HW140031   2.973   1.983   1.062  1.2467 -0.9796  0.0902
 9466SOL    HW240032   2.888   1.940   0.962  0.0354  0.9798 -2.9331
 9467SOL     OW40033   2.227   1.399   0.820 -0.0727 -0.0669  0.3148
 9467SOL    HW140034   2.278   1.471   0.857  2.1086 -0.3173 -2.2090
 9467SOL    HW240035   2.143   1.441   0.805  1.2631  1.2594 -3.4441
 9468SOL     OW40036   1.767   2.414  17.068  0.1162  0.0695 -0.4800
 9468SOL    HW140037   1.855   2.378  17.071  0.9641  1.9890 -2.4633
 9468SOL    HW240038   1.752   2.420  17.162 -0.0268 -0.3583 -0.4750
 9469SOL     OW40039   0.441   3.696   7.185  0.1527 -0.2856 -0.5217
 9469SOL    HW140040   0.364   3.752   7.170  0.9597  0.4767 -1.8739
 9469SOL    HW240041   0.418   3.657   7.269 -1.9374  0.2376 -0.8594
 9470SOL     OW40042   1.239   2.356   4.342 -0.1032  0.1650  0.5035
 9470SOL    HW140043   1.191   2.347   4.423  0.7233  0.7282  1.0612
 9470SOL    HW240044   1.209   2.288   4.281 -1.9371  2.0697 -0.6961
 9471SOL     OW40045   3.300   1.465   8.765 -0.5497  0.3959  0.2193
 9471SOL    HW140046   3.357   1.481   8.840  0.8145  0.7077 -0.8813
 9471SOL    HW240047   3.350   1.528   8.713  0.1909 -0.1860  0.2304
 9472SOL     OW40048   1.766   2.057   9.760 -0.4803  0.0688 -0.0137
 9472SOL    HW140049   1.682   2.012   9.760  0.3782 -1.5382  0.6865
 9472SOL    HW240050   1.772   2.113   9.838 -2.2672  0.7539 -0.3668
 9473SOL     OW40051   1.845   3.412   1.955  0.1778  0.0620  0.5552
 9473SOL    HW140052   1.897   3.467   2.013  0.1886 -0.1172  0.7119
 9473SOL    HW240053   1.758   3.453   1.948 -1.3765 -3.4204 -0.6957
 9474SOL     OW40054   0.131   0.285  11.465 -0.0925  0.6264  0.2130
 9474SOL    HW140055   0.220   0.250  11.452 -0.3176 -0.4522  1.5257
 9474SOL    HW240056   0.076   0.235  11.404  2.0415 -1.2622 -0.1831
 9475SOL     OW40057   2.917   1.413  15.268 -0.2600 -0.0614  0.1918
 9475SOL    HW140058   2.975   1.485  15.294 -0.1232 -0.9647  2.3923
 9475SOL    HW240059   2.967   1.342  15.309  0.8946  0.9524  0.5454
 9476SOL     OW40060   2.087   2.073   2.230  0.2136  0.1374  0.2609
 9476SOL    HW140061   2.113   2.125   2.305  1.2337  0.2825 -0.2000
 9476SOL    HW240062   2.136   1.991   2.236 -1.1002 -0.4599  2.9245
 9477SOL     OW40063   0.710   2.511  10.327 -0.4681 -0.1354  0.6196
 9477SOL    HW140064   0.700   2.573  10.255  1.9349  0.2732  0.6376
 9477SOL    HW240065   0.773   2.563  10.377 -0.4767  1.0044 -0.5555
 9478SOL     OW40066   1.780   4.215   3.981  0.5440 -0.5658  0.0148
 9478SOL    HW140067   1.771   4.179   3.893  2.0531  0.2228 -0.4670
 9478SOL    HW240068   1.822   4.148   4.035  0.2037 -2.8123 -2.5288
 9479SOL     OW40069   1.778   3.493  16.083 -0.6155 -1.1304 -0.1320
 9479SOL    HW140070   1.730   3.526  16.158  0.5063 -0.2000  0.1705
 9479SOL    HW240071   1.869   3.503  16.111 -1.0849  1.1686  0.5585
 9480SOL     OW40072   1.497   0.607   5.103  0.1939  0.0107 -0.1802
 9480SOL    HW140073   1.452   0.523   5.093 -0.6420  0.5480 -0.9145
 9480SOL    HW240074   1.434   0.659   5.053  1.6477 -0.0186 -2.0512
 9481SOL     OW40075   2.897   2.429   6.925 -0.0133  0.1484 -0.1309
 9481SOL    HW140076   2.859   2.383   6.850 -3.4346 -1.0355  2.3270
 9481SOL    HW240077   2.939   2.501   6.877  1.3331 -0.7103 -0.2324
 9482SOL     OW40078   0.022   3.278  10.694 -0.0100  0.3713  0.2437
 9482SOL    HW140079   0.043   3.366  10.662 -1.8211  0.2847 -1.1983
 9482SOL    HW240080   0.025   3.286  10.789  1.5073 -2.5933  0.4454
 9483SOL     OW40081   0.363   3.074   4.384  0.1026  0.2955  0.8556
 9483SOL    HW140082   0.430   3.031   4.331  0.5717  1.3373  0.6072
 9483SOL    HW240083   0.280   3.061   4.336 -0.3028 -0.4377  1.7572
 9484SOL     OW40084   4.713   4.647   2.690 -0.7143  0.8080  0.0795
 9484SOL    HW140085   4.733   4.644   2.783  0.8703 -1.3652 -0.3415
 9484SOL    HW240086   0.028   4.723   2.667  0.0565  0.0499 -0.6384
 9485SOL     OW40087   1.599   1.124   1.522  0.6404 -0.8901  0.6265
 9485SOL    HW140088   1.653   1.052   1.556  0.0537 -1.0622  1.1999
 9485SOL    HW240089   1.518   1.116   1.572 -2.3362  2.7905 -3.6165
 9486SOL     OW40090   0.642   0.901  17.744 -0.6837 -0.5046 -0.2508
 9486SOL    HW140091   0.600   0.869   0.069  1.1008 -1.5982  0.2477
 9486SOL    HW240092   0.708   0.834  17.729  0.9992  1.0197  0.2948
 9487SOL     OW40093   2.544   0.646   1.485  0.3506  0.1084  0.2557
 9487SOL    HW140094   2.534   0.609   1.398 -0.2508 -0.3710  0.5294
 9487SOL    HW240095   2.629   0.690   1.475  0.0169  0.5775 -0.4712
 9488SOL     OW40096   1.189   1.058   3.635 -0.3015  0.3763  0.1603
 9488SOL    HW140097   1.283   1.059   3.618 -0.1480  1.2802  1.0967
 9488SOL    HW240098   1.163   1.048   3.543  1.0061 -0.0732 -0.1595
 9489SOL     OW40099   0.717   2.174   8.144 -0.1311 -0.2808  0.0636
 9489SOL    HW140100   0.716   2.237   8.216  2.6640  1.2058 -1.1499
 9489SOL    HW240101   0.704   2.240   8.076  0.0125 -0.5446 -0.2188
 9490SOL     OW40102   3.724   3.453   4.473 -0.0388 -0.2514  0.5334
 9490SOL    HW140103   3.654   3.497   4.522  0.6412 -0.7033  1.8968
 9490SOL    HW240104   3.802   3.508   4.485 -0.1653 -0.0008  0.2235
 9491SOL     OW40105   3.737   0.746   9.116 -0.6823 -0.2703 -0.2330
 9491SOL    HW140106   3.797   0.799   9.169 -0.4699  0.5428 -1.2853
 9491SOL    HW240107   3.784   0.662   9.112 -0.8745 -0.4073  0.3687
 9492SOL     OW40108   0.592   1.396   9.630 -0.2057 -0.3118  0.1789
 9492SOL    HW140109   0.641   1.442   9.562 -0.7306  0.2699  0.2011
 9492SOL    HW240110   0.614   1.308   9.598  1.2939  0.1933 -0.2001
 9493SOL     OW40111   1.488   3.248   0.236  0.1001  0.1018 -0.4873
 9493SOL    HW140112   1.557   3.247   0.303 -0.1628  1.5912 -0.1852
 9493SOL    HW240113   1.464   3.336   0.264 -1.3703 -1.4257  3.0206
 9494SOL     OW40114   2.060   0.850   5.991 -0.0655  0.0211  0.2149
 9494SOL    HW140115   1.984   0.904   5.971 -0.9227 -1.0828  0.5332
 9494SOL    HW240116   2.034   0.758   5.993 -0.6600  0.2045  0.9069
 9495SOL     OW40117   4.290   1.960   1.961  0.0543 -0.0385  0.1740
 9495SOL    HW140118   4.377   2.000   1.964 -0.4247  1.0960 -0.8386
 9495SOL    HW240119   4.308   1.880   2.011 -0.6456 -0.7179 -0.6661
 9496SOL     OW40120   2.036   1.233   5.690 -0.1153 -0.5433 -0.4003
 9496SOL    HW140121   2.059   1.231   5.783  1.7050  1.2812 -0.8061
 9496SOL    HW240122   2.126   1.231   5.657  0.4260  0.4998  1.0015
 9497SOL     OW40123   3.013   2.065   6.727  0.0098  0.3685  0.0164
 9497SOL    HW140124   3.106   2.071   6.705  0.3467 -1.0637  1.0277
 9497SOL    HW240125   2.997   1.979   6.766 -0.6641  0.6171  0.2938
 9498SOL     OW40126   4.597   1.379   3.952  0.3336  0.1237  0.1748
 9498SOL    HW140127   4.655   1.432   3.897 -0.3364 -2.3267 -2.8841
 9498SOL    HW240128   4.622   1.289   3.934 -1.5556 -0.6795  1.6536
 9499SOL     OW40129   0.792   1.144   7.744 -0.1206  0.1073  0.1031
 9499SOL    HW140130   0.865   1.188   7.786  0.2225 -0.2050 -0.1727
 9499SOL    HW240131   0.723   1.143   7.810 -1.4637  2.1816 -1.2653
 9500SOL     OW40132   1.490   3.583  11.121  0.0534  0.2430 -0.2529
 9500SOL    HW140133   1.504   3.499  11.077  1.5794  0.4979 -0.2447
 9500SOL    HW240134   1.531   3.572  11.207 -1.3177  2.6435  0.6925
 9501SOL     OW40135   2.925   3.557  14.588  0.0445  0.2725 -0.0680
 9501SOL    HW140136   2.871   3.601  14.523 -2.0573  0.1911  1.6334
 9501SOL    HW240137   2.857   3.541  14.653  1.1771  0.8256  1.2633
 9502SOL     OW40138   0.157   2.484   2.023  0.0966  0.1983 -0.1680
 9502SOL    HW140139   0.077   2.519   2.061 -0.6068 -2.2299  0.5809
 9502SOL    HW240140   0.170   2.538   1.945  0.9538  0.9245  0.4612
 9503SOL     OW40141   2.619   3.949  10.602  0.0365 -0.2340 -0.2739
 9503SOL    HW140142   2.594   4.023  10.657  1.4396  1.1168 -1.4595
 9503SOL    HW240143   2.532   3.913  10.584 -0.5792  0.6988  0.8070
 9504SOL     OW40144   4.511   2.230   2.369  0.6339 -0.5461  0.0085
 9504SOL    HW140145   4.432   2.266   2.328  1.9119  1.9589 -0.2299
 9504SOL    HW240146   4.482   2.230   2.460 -0.6818 -1.6490 -0.3887
 9505SOL     OW40147   4.101   4.188  16.257  0.2358  0.5262  0.1277
 9505SOL    HW140148   4.071   4.165  16.344 -0.2562 -0.5839 -0.3416
 9505SOL    HW240149   4.045   4.265  16.249 -0.8687 -0.2889  0.0603
 9506SOL     OW40150   3.159   3.418   6.844 -0.2772  0.0673 -0.0996
 9506SOL    HW140151   3.227   3.435   6.780  0.7627  0.1968  1.0379
 9506SOL    HW240152   3.156   3.323   6.833 -1.6422 -0.1154  1.7572
 9507SOL     OW40153   3.462   1.617  13.258 -0.2856 -0.1321  0.1080
 9507SOL    HW140154   3.384   1.581  13.218  0.2673  0.9018 -1.8888
 9507SOL    HW240155   3.428   1.681  13.321 -1.3702  0.3765 -1.0199
 9508SOL     OW40156   0.499   0.359  12.083 -0.0930 -0.0915 -0.6483
 9508SOL    HW140157   0.548   0.440  12.074  0.9051 -0.8463 -1.9806
 9508SOL    HW240158   0.486   0.357  12.178  2.7793  0.0328 -0.2642
 9509SOL     OW40159   0.885   0.100   7.124 -0.4594 -0.1970 -0.0508
 9509SOL    HW140160   0.968   0.077   7.166 -0.0247 -0.7491 -1.2341
 9509SOL    HW240161   0.883   0.194   7.142  1.1674  0.2000 -1.9573
 9510SOL     OW40162   0.076   1.918   1.984 -0.2996 -0.0955 -0.4058
 9510SOL    HW140163   0.102   2.007   2.011  1.8733  0.1868 -3.4119
 9510SOL    HW240164   4.737   1.905   2.038  1.0740 -0.3620  1.4815
 9511SOL     OW40165   2.657   3.395   7.649  0.2094 -0.1758 -0.4235
 9511SOL    HW140166   2.703   3.361   7.573 -0.9607  0.8356 -1.5968
 9511SOL    HW240167   2.588   3.331   7.663  0.1612  0.6789  3.2395
 9512SOL     OW40168   1.295   1.623   8.173  0.1925 -0.2577 -0.1278
 9512SOL    HW140169   1.291   1.697   8.112  0.5240 -0.0548  0.1032
 9512SOL    HW240170   1.304   1.665   8.258 -0.7883  0.0187 -0.1619
 9513SOL     OW40171   2.900   3.448  13.967  0.6741  0.1207 -0.5175
 9513SOL    HW140172   2.963   3.495  13.913 -0.5748 -0.3820 -2.3981
 9513SOL    HW240173   2.824   3.445  13.909  1.2471 -0.7961 -1.2079
 9514SOL     OW40174   4.513   2.662   3.721 -0.4431  0.0535 -0.7463
 9514SOL    HW140175   4.555   2.590   3.673 -0.0817 -0.0291 -0.3103
 9514SOL    HW240176   4.591   2.717   3.734 -0.2578 -0.1005 -1.2221
 9515SOL     OW40177   2.643   4.391   1.799  0.1886 -0.3430 -0.1712
 9515SOL    HW140178   2.554   4.368   1.825 -0.0114 -1.5364 -1.9603
 9515SOL    HW240179   2.677   4.455   1.862  0.4647 -0.8461  0.1829
 9516SOL     OW40180   2.725   2.593  11.441  0.1766 -0.0709 -0.1058
 9516SOL    HW140181   2.675   2.560  11.366 -0.5664 -1.0244  0.8237
 9516SOL    HW240182   2.800   2.534  11.433 -0.8730 -1.5538  1.0811
 9517SOL     OW40183   1.507   3.184   1.436 -0.4067  0.0570  0.2582
 9517SOL    HW140184   1.530   3.171   1.344 -0.2230  1.0918  0.1541
 9517SOL    HW240185   1.568   3.253   1.462 -2.2184  1.9207 -0.4402
 9518SOL     OW40186   1.802   2.133   6.084  0.3886  0.2124  0.2260
 9518SOL    HW140187   1.823   2.138   5.991  0.0834 -0.3386  0.1280
 9518SOL    HW240188   1.799   2.226   6.105 -1.5520  0.0783  0.5603
 9519SOL     OW40189   4.697   3.587  15.848  0.0758 -0.1647  0.8611
 9519SOL    HW140190   4.660   3.616  15.931 -0.1985  1.0728  0.3034
 9519SOL    HW240191   4.676   3.665  15.797  1.3898 -1.4083 -1.6306
 9520SOL     OW40192   1.463   2.390   6.799  0.4278  0.3562  0.4138
 9520SOL    HW140193   1.429   2.362   6.884  1.1255  0.7224  0.8144
 9520SOL    HW240194   1.442   2.484   6.798  0.5973  0.3921  0.1381
 9521SOL     OW40195   3.277   0.021   0.242 -0.1855 -0.6311  0.6981
 9521SOL    HW140196   3.322   0.104   0.260 -1.0949  0.0419 -0.1522
 9521SOL    HW240197   3.311   4.704   0.312 -1.7673 -2.7575 -0.2370
 9522SOL     OW40198   2.585   4.475   2.256  0.3547  0.5801 -0.1133
 9522SOL    HW140199   2.532   4.487   2.177  0.4115  0.0747 -0.2306
 9522SOL    HW240200   2.612   4.565   2.275  0.4815  0.2167  1.4108
 9523SOL     OW40201   1.522   3.887   5.031 -0.3847 -0.2186  1.0409
 9523SOL    HW140202   1.537   3.981   5.035 -1.2931 -0.0108 -0.5797
 9523SOL    HW240203   1.542   3.876   4.938  1.2598  0.8516  1.2830
 9524SOL     OW40204   2.204   0.734   8.053 -0.1654  0.2849  0.0877
 9524SOL    HW140205   2.218   0.728   7.958 -0.9537 -0.8786  0.0402
 9524SOL    HW240206   2.133   0.671   8.069  0.1124  0.0428  0.3705
 9525SOL     OW40207   1.939   0.200   3.530 -0.2525  0.0561 -0.7595
 9525SOL    HW140208   1.975   0.266   3.470 -0.4967  1.3402  0.5080
 9525SOL    HW240209   1.844   0.205   3.528 -0.3110  0.2512  2.3826
 9526SOL     OW40210   1.533   3.255  16.750 -0.0010  0.4869  0.4654
 9526SOL    HW140211   1.469   3.189  16.777 -0.0749  0.9763  1.4564
 9526SOL    HW240212   1.514   3.260  16.656 -1.4278 -1.2699  0.6453
 9527SOL     OW40213   3.460   4.516   5.091 -0.0985 -0.6721  0.0690
 9527SOL    HW140214   3.513   4.542   5.166 -0.4064 -0.2268  0.1318
 9527SOL    HW240215   3.374   4.550   5.118  1.5611  1.2256  2.9720
 9528SOL     OW40216   3.566   0.600   2.087 -0.4838  0.1757  0.1968
 9528SOL    HW140217   3.579   0.665   2.018  0.3996 -1.7531 -1.4808
 9528SOL    HW240218   3.494   0.544   2.058 -0.2157  0.5169 -1.1193
 9529SOL     OW40219   2.750   0.721  10.109 -0.3724 -0.0321  0.0474
 9529SOL    HW140220   2.818   0.667  10.151 -0.8567 -0.8210 -0.1954
 9529SOL    HW240221   2.714   0.665  10.041 -0.3169  1.4487 -1.1902
 9530SOL     OW40222   3.322   0.229   3.308 -0.0157  0.3560 -0.2435
 9530SOL    HW140223   3.349   0.137   3.318 -1.7427 -0.3803 -2.2643
 9530SOL    HW240224   3.394   0.269   3.355  0.9435 -0.1448 -1.2737
 9531SOL     OW40225   0.057   3.084   7.083  0.2507 -0.1037 -0.2529
 9531SOL    HW140226   0.099   3.148   7.025 -0.3836 -0.4932 -1.1416
 9531SOL    HW240227   0.026   3.138   7.155  0.8789  0.0481 -0.0940
 9532SOL     OW40228   0.371   0.122  15.073 -0.4095  0.0410  0.1357
 9532SOL    HW140229   0.355   0.177  14.996 -0.2834 -0.5571 -0.3215
 9532SOL    HW240230   0.298   0.150  15.129  1.0332  0.4414  1.8227
 9533SOL     OW40231   2.198   0.159   9.945 -0.5969  0.6194 -0.5952
 9533SOL    HW140232   2.177   0.085  10.001  1.5236 -1.5902 -2.7441
 9533SOL    HW240233   2.205   0.116   9.860  1.6923 -0.9080  0.3649
 9534SOL     OW40234   1.448   2.242   1.015  0.0002  0.4287 -0.3812
 9534SOL    HW140235   1.544   2.252   1.014 -0.1434  1.7480  0.4221
 9534SOL    HW240236   1.428   2.243   0.921  0.3184  0.8575 -0.4431
 9535SOL     OW40237   2.904   0.375   2.803  0.0873  0.2834  0.0557
 9535SOL    HW140238   2.936   0.288   2.826  0.6238  0.1592 -1.1566
 9535SOL    HW240239   2.915   0.376   2.708 -0.7545 -0.8678 -0.0416
 9536SOL     OW40240   0.050   0.578   4.609 -0.9218  0.3742  0.0055
 9536SOL    HW140241   0.062   0.575   4.514 -1.4707  0.1498 -0.0539
 9536SOL    HW240242   0.111   0.511   4.638  1.1563  2.3780  0.2653
 9537SOL     OW40243   1.582   2.475  11.080 -0.3230 -0.2614 -0.0124
 9537SOL    HW140244   1.622   2.390  11.063  0.1923  0.1882 -1.0284
 9537SOL    HW240245   1.588   2.524  10.998  2.4338 -2.3252 -1.0298
 9538SOL     OW40246   1.233   2.342   9.042 -0.6037 -0.6699  0.0844
 9538SOL    HW140247   1.222   2.311   8.952  2.2196 -0.7823 -0.2322
 9538SOL    HW240248   1.295   2.272   9.064  1.4386  0.5980 -1.6414
 9539SOL     OW40249   0.480   2.917  11.655 -0.2677 -0.7562  0.0563
 9539SOL    HW140250   0.446   2.875  11.733  1.5463 -0.8483  0.7892
 9539SOL    HW240251   0.553   2.856  11.645  0.4027  0.1258 -0.5109
 9540SOL     OW40252   4.175   0.016   5.802  0.2652  0.3535  0.5668
 9540SOL    HW140253   4.214   0.068   5.732  0.2305 -0.8027 -0.3100
 9540SOL    HW240254   4.156   0.076   5.874  2.2107 -0.1431  1.5009
 9541SOL     OW40255   2.176   1.519  17.086 -0.1012  0.0806  0.2603
 9541SOL    HW140256   2.224   1.490  17.009 -1.1323 -1.8051  0.3224
 9541SOL    HW240257   2.096   1.543  17.039  0.8500  1.9407 -0.4273
 9542SOL     OW40258   3.580   3.136   7.902 -0.2641 -0.5265  0.0567
 9542SOL    HW140259   3.596   3.080   7.978  2.6167 -0.9882 -0.9004
 9542SOL    HW240260   3.655   3.112   7.848 -0.0088 -0.4580  0.3810
 9543SOL     OW40261   4.674   3.977   6.568 -0.2705 -0.6227 -0.4712
 9543SOL    HW140262   4.586   3.946   6.551 -0.4985 -0.4567  0.3943
 9543SOL    HW240263   4.642   4.047   6.624  0.0813  0.7522 -2.0054
 9544SOL     OW40264   1.866   0.638   5.326 -0.3259  1.0153 -0.1679
 9544SOL    HW140265   1.920   0.654   5.249 -0.3450 -0.3696 -0.4571
 9544SOL    HW240266   1.816   0.567   5.287 -0.7577  1.0556  0.3147
 9545SOL     OW40267   0.265   0.202  13.820  0.0356  0.1323  0.7324
 9545SOL    HW140268   0.227   0.118  13.846 -2.3988  1.1365  0.4158
 9545SOL    HW240269   0.270   0.249  13.903  1.1287  0.5320  0.4457
 9546SOL     OW40270   0.441   4.680   7.110  0.4815 -0.0297 -0.8105
 9546SOL    HW140271   0.410   0.030   7.125 -1.4541 -0.8293  0.0549
 9546SOL    HW240272   0.366   4.628   7.140 -0.2475 -0.0288 -2.6071
 9547SOL     OW40273   1.780   2.124   5.782 -0.6709 -0.0832 -0.4238
 9547SOL    HW140274   1.771   2.215   5.751  0.1097 -0.2121 -1.0254
 9547SOL    HW240275   1.734   2.077   5.712 -0.5062 -0.0965 -0.5225
 9548SOL     OW40276   0.838   2.184   2.888 -0.6782 -0.9516  0.0514
 9548SOL    HW140277   0.884   2.121   2.833  0.3923  0.8053 -1.0648
 9548SOL    HW240278   0.826   2.258   2.829  2.5600  0.2534  0.8538
 9549SOL     OW40279   3.787   0.349   8.094 -0.0810  0.9306  0.3764
 9549SOL    HW140280   3.783   0.411   8.021 -1.3949 -0.3230 -0.6276
 9549SOL    HW240281   3.733   0.398   8.155 -1.1729  2.7575 -2.0533
 9550SOL     OW40282   1.902   3.745  15.031  0.1513  0.1563 -0.4505
 9550SOL    HW140283   1.994   3.760  15.007 -0.1761  0.5521 -1.4910
 9550SOL    HW240284   1.869   3.685  14.963  1.7026 -1.5394  0.2841
 9551SOL     OW40285   1.063   1.715   5.588 -0.2855  0.1691 -0.0860
 9551SOL    HW140286   1.152   1.747   5.603 -0.7829  1.1268  0.7814
 9551SOL    HW240287   1.057   1.706   5.493  2.4711 -0.5980 -0.2083
 9552SOL     OW40288   1.487   2.298   8.901  0.3737 -0.3151 -0.1152
 9552SOL    HW140289   1.507   2.208   8.928 -0.8693 -0.2556  0.9829
 9552SOL    HW240290   1.538   2.297   8.820  1.8337 -0.4163  0.8057
 9553SOL     OW40291   3.869   2.452   1.129 -0.4912 -0.5348 -0.4259
 9553SOL    HW140292   3.916   2.521   1.082 -0.7163  0.2113  0.4471
 9553SOL    HW240293   3.946   2.415   1.173 -1.5778 -0.9628  1.1037
 9554SOL     OW40294   2.422   3.197  10.235  0.3619 -0.1579 -0.2408
 9554SOL    HW140295   2.466   3.272  10.273  1.9926 -1.0186 -0.4369
 9554SOL    HW240296   2.490   3.133  10.212 -1.0678 -1.6905 -0.2179
 9555SOL     OW40297   0.312   3.311   7.507  0.3114 -0.3480 -0.0930
 9555SOL    HW140298   0.244   3.335   7.444 -1.1047 -0.0074  1.5972
 9555SOL    HW240299   0.331   3.221   7.481 -1.3870 -1.1364  1.4162
 9556SOL     OW40300   1.902   3.525  14.536  0.3353  0.1633  0.4079
 9556SOL    HW140301   1.914   3.432  14.554 -0.9828 -0.5828 -2.5222
 9556SOL    HW240302   1.976   3.540  14.477  1.6649 -2.3623  1.4030
 9557SOL     OW40303   0.088   4.682   2.407  0.3616 -0.2889 -0.1150
 9557SOL    HW140304   0.061   4.640   2.489 -2.0971  0.2369 -0.6510
 9557SOL    HW240305   0.122   0.024   2.446  0.8591  0.7681 -2.7813
 9558SOL     OW40306   4.322   4.229   2.007  0.5247  0.2819  0.5942
 9558SOL    HW140307   4.381   4.261   2.076  2.0373  0.9024 -0.9856
 9558SOL    HW240308   4.247   4.281   2.037  0.8525  1.0767  0.0650
 9559SOL     OW40309   2.141   1.342   5.161 -0.4441  0.2080 -0.0211
 9559SOL    HW140310   2.188   1.272   5.206  1.4484  0.8388 -0.9785
 9559SOL    HW240311   2.049   1.318   5.170 -0.8151  1.6171 -0.0345
 9560SOL     OW40312   3.636   2.344   9.094 -0.2124 -0.1496  0.2243
 9560SOL    HW140313   3.718   2.393   9.107  0.5688 -1.2886 -0.3606
 9560SOL    HW240314   3.610   2.357   9.002 -2.4124  0.2040  0.8982
 9561SOL     OW40315   0.045   3.447   2.225  0.4170  0.1179 -0.6252
 9561SOL    HW140316   0.042   3.400   2.308  1.5963  1.2951  0.0861
 9561SOL    HW240317   4.712   3.405   2.178 -0.0388  0.3659 -0.1397
 9562SOL     OW40318   4.426   4.701  12.385 -0.0717 -0.2073  0.3025
 9562SOL    HW140319   4.367   4.716  12.458  0.4211  2.1502  0.2308
 9562SOL    HW240320   4.376   4.731  12.309 -0.5252  1.2197  1.1614
 9563SOL     OW40321   3.842   3.522   6.162  0.0634 -0.3470 -0.1822
 9563SOL    HW140322   3.847   3.440   6.212  1.2067 -1.9819 -2.9923
 9563SOL    HW240323   3.890   3.501   6.082 -1.4072 -3.6412 -0.2212
 9564SOL     OW40324   4.028   1.510   0.937  0.8255 -0.1679 -0.5835
 9564SOL    HW140325   3.989   1.541   1.018  1.2701  0.6695 -0.6893
 9564SOL    HW240326   4.121   1.512   0.960  0.8046 -0.6575 -0.4578
 9565SOL     OW40327   1.428   3.294   6.469  0.5575 -0.0744 -0.1762
 9565SOL    HW140328   1.478   3.223   6.510 -0.9928 -0.8003  0.4591
 9565SOL    HW240329   1.383   3.324   6.548  0.3964  1.3506 -0.8109
 9566SOL     OW40330   2.883   2.851   6.066 -0.0917  0.1074 -0.2758
 9566SOL    HW140331   2.908   2.763   6.037 -1.8975  0.0448 -1.5852
 9566SOL    HW240332   2.800   2.842   6.113 -0.7379  0.2000 -1.4164
 9567SOL     OW40333   3.153   1.693   7.652  0.7545  0.5421  0.5496
 9567SOL    HW140334   3.229   1.673   7.707 -1.1367 -1.9498  2.2563
 9567SOL    HW240335   3.194   1.737   7.577  1.9624  0.2932  1.0741
 9568SOL     OW40336   0.174   4.481   5.677 -0.0252 -0.2045 -0.1067
 9568SOL    HW140337   0.180   4.402   5.731 -0.2356  0.1558  0.4413
 9568SOL    HW240338   0.083   4.511   5.679  1.0859  3.1809 -1.0334
 9569SOL     OW40339   4.668   4.683   2.191 -0.6894 -0.1676 -0.6283
 9569SOL    HW140340   4.594   4.722   2.239 -1.8296  0.1030 -2.5833
 9569SOL    HW240341   4.725   4.664   2.265 -1.4326 -0.3448 -0.1034
 9570SOL     OW40342   1.259   0.413  13.933  0.1436  0.1973  0.0059
 9570SOL    HW140343   1.269   0.480  14.001  0.0613  1.3632 -1.1240
 9570SOL    HW240344   1.227   0.464  13.858 -1.0725 -0.6743 -0.0636
 9571SOL     OW40345   3.969   3.891  12.499  0.5873  0.8234 -0.5322
 9571SOL    HW140346   3.882   3.851  12.496  0.4969  1.0590 -1.0696
 9571SOL    HW240347   3.970   3.952  12.424  0.4101 -0.7394 -1.8038
   4.73914   4.73914  17.75440
