Membrane in water
40347
    1TMC1    C1    1   1.203   3.629  11.281  0.4645  0.9105 -0.3257
    1TMC1    C2    2   1.283   3.688  11.186  0.2620  0.1745 -0.0786
    1TMC1    C3    3   1.258   3.818  11.149  0.0855 -0.5338  0.1344
    1TMC1    C4    4   1.104   3.700  11.346 -0.0252  0.0142 -0.3938
    1TMC1    C5    5   1.084   3.831  11.313  0.4109 -0.0716 -0.1254
    1TMC1    C6    6   1.159   3.890  11.214  0.5027 -1.1715 -0.6847
    1TMC1     C    7   1.223   3.491  11.326  0.2850 -0.2203 -0.1639
    1TMC1     O    8   1.147   3.448  11.412  0.2110  0.1708  0.2422
    1TMC1     H    9   1.346   3.627  11.122 -0.6558  0.4078 -1.1934
    1TMC1    H1   10   1.034   3.655  11.416 -0.5980  0.7457 -0.5026
    1TMC1    H2   11   1.149   3.994  11.187  0.9312 -0.9573 -0.0098
    1TMC1    C7   12   0.975   3.904  11.371 -0.3781  0.7151 -0.0846
    1TMC1    C8   13   1.378   3.891  11.125  0.8165 -0.4345  0.5495
    1TMC1    O1   14   0.921   4.006  11.330  0.2994  0.1869  0.0704
    1TMC1    O2   15   1.432   3.969  11.205  0.1815  0.1834  0.2143
    1TMC1    O3   16   1.031   3.907  11.497 -0.3354 -0.7609  0.7588
    1TMC1    H3   17   1.093   3.835  11.521  2.1902  1.1292 -0.1002
    1TMC1    O5   18   1.437   3.820  11.029  0.1932 -0.1595 -0.3500
    1TMC1    H5   19   1.367   3.788  10.969 -0.7098  0.6616  0.2626
    2MPD2     C   20   1.504   3.038  11.388 -0.7723  0.2742 -0.1042
    2MPD2    C1   21   1.395   3.095  11.455  0.1242  0.2321 -0.3612
    2MPD2    C2   22   1.348   3.221  11.417 -0.1767 -0.1177  0.7491
    2MPD2    C3   23   1.384   3.298  11.305  0.2645 -0.3523  0.0655
    2MPD2    C4   24   1.493   3.234  11.238 -0.3692 -0.0307  0.1282
    2MPD2    C5   25   1.555   3.121  11.287  0.4372  0.3024  0.1743
    2MPD2     H   26   1.273   3.272  11.477  0.0366  1.2163 -0.1261
    2MPD2    H1   27   1.550   3.285  11.161  0.0702 -0.0062  0.4634
    2MPD2    H2   28   1.548   2.941  11.408  0.4894  0.6969 -0.8595
    2MPD2    H3   29   1.645   3.094  11.233  0.4249 -0.2626  0.4315
    2MPD2     N   30   1.330   3.423  11.265 -0.1174 -0.5910 -0.3925
    2MPD2    H5   31   1.379   3.463  11.186  1.3172 -2.3406 -0.3843
    2MPD2    N1   32   1.321   3.039  11.565  0.4752 -0.4739 -0.4739
    2MPD2    H7   33   1.242   3.088  11.606 -1.5059 -2.6585 -1.6978
    3TMC1    C1   34   0.272   3.033  10.529  0.1625 -0.8095  0.5849
    3TMC1    C2   35   0.306   3.139  10.453 -0.2398  0.6082  0.0494
    3TMC1    C3   36   0.319   3.116  10.318  0.5144  0.0578 -0.4913
    3TMC1    C4   37   0.238   2.912  10.475 -0.4466 -0.0586  0.0951
    3TMC1    C5   38   0.242   2.901  10.341 -0.1565 -0.3291  0.0152
    3TMC1    C6   39   0.281   3.005  10.262 -0.0376  0.6207  0.1553
    3TMC1     C   40   0.221   3.046  10.663  0.7918  0.6314  0.1857
    3TMC1     O   41   0.208   2.940  10.717  0.3010 -0.8629 -0.1010
    3TMC1     H   42   0.339   3.235  10.490 -1.2539  0.5958  0.9649
    3TMC1    H1   43   0.191   2.834  10.534 -2.3160 -0.3179 -1.7591
    3TMC1    H2   44   0.301   2.984  10.158  0.9775  3.2341 -0.1898
    3TMC1    C7   45   0.169   2.786  10.285 -0.9839  0.9197 -0.0094
    3TMC1    C8   46   0.418   3.210  10.266 -0.0243 -0.7192 -0.5339
    3TMC1    O1   47   0.143   2.686  10.352 -0.1485 -0.7552  0.7177
    3TMC1    O2   48   0.417   3.325  10.307  0.0687 -0.0540  0.0048
    3TMC1    O3   49   0.083   2.836  10.197 -0.0089 -0.2028 -0.9502
    3TMC1    H3   50   0.091   2.920  10.147 -1.8744  0.6266  0.1615
    3TMC1    O5   51   0.509   3.149  10.186  0.0644 -0.4326  0.1798
    3TMC1    H5   52   0.504   3.052  10.179 -2.5168 -0.3371  0.5507
    4MPD2     C   53   4.733   3.291  11.045  0.0547  0.1679 -0.1012
    4MPD2    C1   54   0.062   3.387  10.967  0.1417  0.0291  0.5028
    4MPD2    C2   55   0.136   3.337  10.857 -0.2429  0.1865 -0.0299
    4MPD2    C3   56   0.123   3.207  10.815 -0.1689 -0.5422 -0.8924
    4MPD2    C4   57   0.049   3.117  10.894 -0.7793  0.1921 -0.3095
    4MPD2    C5   58   4.736   3.163  11.010 -0.1296  0.0845  0.0492
    4MPD2     H   59   0.213   3.399  10.811 -0.4838 -0.6425 -1.5544
    4MPD2    H1   60   0.040   3.011  10.874 -1.1132  0.5124 -1.8706
    4MPD2    H2   61   4.677   3.311  11.136  0.4195 -0.3869  0.2504
    4MPD2    H3   62   4.687   3.087  11.070 -1.8771  2.6021  1.8565
    4MPD2     N   63   0.194   3.174  10.705  0.1480  0.2286 -0.2146
    4MPD2    H5   64   0.251   3.244  10.659  1.1881 -0.6626 -0.2849
    4MPD2    N1   65   0.066   3.520  11.008  0.1522  0.1557 -0.1642
    4MPD2    H7   66   0.118   3.587  10.953  0.9863 -1.2141 -1.0652
    5TCq1    O1   67   0.587   1.178  10.144  0.1796  0.3841  0.5059
    5TCq1    C1   68   0.483   1.149  10.062 -0.7216 -0.9937  0.6081
    5TCq1    O2   69   0.477   1.161   9.941  0.3429  0.2665  0.5647
    5TCq1    C2   70   0.446   1.019  10.114 -0.3701  0.0922  0.2068
    5TCq1    C3   71   0.412   0.914  10.028  0.1861 -0.5037 -0.1743
    5TCq1    C4   72   0.398   0.787  10.082  0.0836  0.2804  0.5347
    5TCq1    C5   73   0.426   0.757  10.214 -0.2228 -0.9418  0.7972
    5TCq1    C6   74   0.441   0.864  10.299  0.4441  0.8844  0.5926
    5TCq1    C7   75   0.459   0.993  10.249 -0.2350 -0.0018  0.1296
    5TCq1    C8   76   0.471   0.823  10.431 -0.3883 -0.7945 -0.3055
    5TCq1    O4   77   0.458   0.707  10.468  0.3189 -0.3889  0.5497
    5TCq1    C9   78   0.352   0.684   9.998 -0.3558  0.2484 -0.0059
    5TCq1    O5   79   0.356   0.571  10.048  0.5203 -0.4194 -0.0130
    5TCq1    O6   80   0.354   0.700   9.876  0.5331 -0.2545  0.7689
    5TCq1    H1   81   0.547   1.185  10.234  0.8769 -0.4475  0.8890
    5TCq1    H2   82   0.391   0.932   9.923  0.4880  1.1678  0.0581
    5TCq1    H3   83   0.429   0.656  10.253  0.9420 -0.4961  1.8911
    5TCq1    H4   84   0.481   1.072  10.320  0.2382 -0.3958  0.4218
    6MPD2     C   85   0.599   1.036  10.704  0.8026  0.0063 -0.0603
    6MPD2    C1   86   0.593   0.924  10.626  0.1410 -1.6528 -0.3298
    6MPD2    C2   87   0.670   0.816  10.663  0.2370 -0.2555 -0.1129
    6MPD2    C3   88   0.750   0.823  10.780  0.0247  0.5285  0.9772
    6MPD2    C4   89   0.761   0.937  10.849  0.2386  0.4874  0.7221
    6MPD2    C5   90   0.672   1.040  10.821 -0.2911 -0.0468  0.0469
    6MPD2     H   91   0.658   0.728  10.600  1.0107 -1.8612  1.9831
    6MPD2    H1   92   0.823   0.952  10.937  1.3817 -1.2097  0.2019
    6MPD2    H2   93   0.532   1.117  10.679 -0.2032 -0.5711  0.7745
    6MPD2    H3   94   0.678   1.124  10.889  0.5633  0.5657 -0.7768
    6MPD2     N   95   0.819   0.707  10.829  0.5786 -0.1011 -0.0175
    6MPD2    H5   96   0.806   0.626  10.768  1.3251 -1.3018  1.4226
    6MPD2    N1   97   0.512   0.929  10.506 -0.2312  0.0225  0.6708
    6MPD2    H7   98   0.474   1.021  10.484 -0.2243  0.1937  1.3678
    7TCq1    O1   99   2.738   0.223  13.314  0.3768  0.2160 -0.0925
    7TCq1    C1  100   2.811   0.235  13.203 -0.0537  0.1226  0.1422
    7TCq1    O2  101   2.787   0.324  13.119 -0.0193  0.4056 -0.0614
    7TCq1    C2  102   2.840   0.099  13.163 -0.4781 -0.5388  0.4190
    7TCq1    C3  103   2.803   0.069  13.033  0.2720  0.5166  0.2053
    7TCq1    C4  104   2.849   4.688  12.987 -0.6374 -0.2666  0.2309
    7TCq1    C5  105   2.918   4.598  13.063 -0.0362 -0.2541  0.4373
    7TCq1    C6  106   2.926   4.625  13.199 -1.5388  0.4933 -0.2113
    7TCq1    C7  107   2.887   0.010  13.253  0.5245  1.2035 -0.3073
    7TCq1    C8  108   3.006   4.527  13.274 -0.2853 -0.4101 -0.0656
    7TCq1    O4  109   3.077   4.447  13.211  0.4816  0.1192 -0.5630
    7TCq1    C9  110   2.805   4.640  12.858 -0.2802  0.4207 -0.2089
    7TCq1    O5  111   2.799   4.518  12.843  0.0268 -0.1296 -0.8139
    7TCq1    O6  112   2.745   4.727  12.792 -0.2329 -0.1946 -0.0398
    7TCq1    H1  113   2.721   0.132  13.347 -1.0936  1.0865  1.5957
    7TCq1    H2  114   2.752   0.141  12.970  0.1062  0.4160  0.2228
    7TCq1    H3  115   2.938   4.500  13.020 -2.3096 -0.6033  0.1577
    7TCq1    H4  116   2.933   0.045  13.345  1.7548 -0.4228 -0.3033
    8MPD2     C  117   3.121   4.294  13.712 -0.0989 -0.0265 -0.7173
    8MPD2    C1  118   3.140   4.257  13.583  0.8415  0.2681  0.4406
    8MPD2    C2  119   3.097   4.335  13.479  0.1760 -0.8037  0.2941
    8MPD2    C3  120   3.028   4.449  13.503  0.1354 -0.4587 -0.5494
    8MPD2    C4  121   3.007   4.491  13.630  0.1044  0.7892  0.6945
    8MPD2    C5  122   3.058   4.416  13.733 -0.0365  0.4119 -0.1430
    8MPD2     H  123   3.094   4.288  13.381  1.4483 -1.0230  0.3608
    8MPD2    H1  124   2.958   4.586  13.652 -1.2381 -0.1324  1.7141
    8MPD2    H2  125   3.166   4.237  13.792 -0.5138  2.1700  1.0858
    8MPD2    H3  126   3.051   4.446  13.837  2.4802 -1.5033  0.5833
    8MPD2     N  127   2.968   4.527  13.405 -0.0732 -0.0997  0.5838
    8MPD2    H5  128   2.896   4.595  13.428 -0.8564 -0.6312 -0.3183
    8MPD2    N1  129   3.204   4.135  13.568  0.1416 -0.2370 -0.1466
    8MPD2    H7  130   3.233   4.082  13.649 -1.2323  0.2212  0.6551
    9TMC1    C1  131   0.853   3.607  10.756  0.5676  0.5364 -0.3745
    9TMC1    C2  132   0.764   3.713  10.775 -0.2687 -0.0268  0.2053
    9TMC1    C3  133   0.780   3.808  10.680 -0.6488 -0.2786  0.5654
    9TMC1    C4  134   0.949   3.600  10.665  0.7254  0.0163  1.2166
    9TMC1    C5  135   0.950   3.699  10.570 -0.6156  0.2572 -0.1343
    9TMC1    C6  136   0.872   3.805  10.580  0.0744  0.2297 -0.3492
    9TMC1     C  137   0.857   3.491  10.840  0.4094 -0.0723 -0.0166
    9TMC1     O  138   0.910   3.392  10.794  0.5303 -0.3306  0.5638
    9TMC1     H  139   0.685   3.711  10.850 -2.5463 -0.1118 -2.2132
    9TMC1    H1  140   1.027   3.525  10.659 -1.6451 -2.1996 -1.7128
    9TMC1    H2  141   0.885   3.895  10.521  0.3044  0.2810 -0.2165
    9TMC1    C7  142   1.048   3.684  10.465  0.1931 -0.9307  0.0220
    9TMC1    C8  143   0.680   3.919  10.684 -0.1501 -0.6102  0.0936
    9TMC1    O1  144   1.133   3.597  10.464  0.1170 -0.1646 -0.1113
    9TMC1    O2  145   0.609   3.950  10.776  0.2595 -0.1357 -0.0225
    9TMC1    O3  146   0.985   3.725  10.356 -0.0374 -0.8211 -0.5661
    9TMC1    H3  147   0.900   3.772  10.372  0.6959  0.2873  0.0856
    9TMC1    O5  148   0.648   3.956  10.555 -0.3647 -0.3768 -0.2545
    9TMC1    H5  149   0.712   3.931  10.485 -1.1317  1.5383 -1.6290
   10MPD2     C  150   0.797   3.286  11.044  0.7355  0.1457  0.2120
   10MPD2    C1  151   0.792   3.422  11.070  0.4880 -0.7781  0.2269
   10MPD2    C2  152   0.766   3.472  11.190 -0.5976 -0.5449  0.5419
   10MPD2    C3  153   0.747   3.392  11.300 -0.7835  0.0231  0.2098
   10MPD2    C4  154   0.736   3.254  11.277  0.1769  0.4616  0.2808
   10MPD2    C5  155   0.757   3.202  11.148 -0.4997 -0.4923  0.2521
   10MPD2     H  156   0.776   3.580  11.200 -1.8022 -0.4766  1.0396
   10MPD2    H1  157   0.703   3.183  11.351  5.3171 -1.4832  0.6764
   10MPD2    H2  158   0.815   3.244  10.946  0.7663  1.8514 -0.5111
   10MPD2    H3  159   0.738   3.097  11.129  2.1534 -0.8592 -0.3703
   10MPD2     N  160   0.701   3.445  11.426 -0.1877 -0.0415 -0.7159
   10MPD2    H5  161   0.679   3.374  11.495  0.6265  0.2311 -0.1787
   10MPD2    N1  162   0.807   3.516  10.968  0.3654 -0.2562 -0.0278
   10MPD2    H7  163   0.771   3.607  10.993 -1.1528 -1.0948  0.7973
   11TCq1    O1  164   1.614   4.084  14.193  0.5067 -0.2438 -0.6112
   11TCq1    C1  165   1.699   3.991  14.233 -0.4926 -0.2772 -0.5783
   11TCq1    O2  166   1.812   4.014  14.281  0.2081 -0.4659  0.3101
   11TCq1    C2  167   1.640   3.859  14.222  0.0676  0.0188 -0.4094
   11TCq1    C3  168   1.690   3.757  14.307 -0.6444  0.1450  0.2584
   11TCq1    C4  169   1.632   3.632  14.305  0.6977  0.3364 -0.2359
   11TCq1    C5  170   1.536   3.604  14.217  0.4181 -0.0511  0.3534
   11TCq1    C6  171   1.492   3.703  14.130  0.0924  0.1202 -0.1328
   11TCq1    C7  172   1.544   3.829  14.131  0.4147  0.3444  0.1303
   11TCq1    C8  173   1.372   3.683  14.055  0.5501  0.4296 -0.9791
   11TCq1    O4  174   1.287   3.770  14.044 -0.0116  0.1064  0.1133
   11TCq1    C9  175   1.691   3.528  14.390  0.9599  0.1361 -0.3927
   11TCq1    O5  176   1.777   3.560  14.475  0.4738 -0.7180 -0.6028
   11TCq1    O6  177   1.649   3.415  14.377  0.8348  0.3409 -0.1407
   11TCq1    H1  178   1.521   4.064  14.166  0.7872 -1.9882 -0.2808
   11TCq1    H2  179   1.776   3.788  14.365 -0.1300 -0.5260 -0.1410
   11TCq1    H3  180   1.480   3.511  14.224  0.3982 -0.2703 -2.4887
   11TCq1    H4  181   1.513   3.898  14.054 -0.4812 -0.9621 -0.6895
   12MPD2     C  182   1.202   3.601  13.817  0.5673  0.1359 -0.7603
   12MPD2    C1  183   1.281   3.515  13.892  0.1896  0.0672 -0.4627
   12MPD2    C2  184   1.292   3.384  13.843 -0.1337 -0.4648  0.6039
   12MPD2    C3  185   1.232   3.344  13.725 -0.1585  0.2162  0.0748
   12MPD2    C4  186   1.158   3.428  13.653 -0.2981 -0.4220  0.0383
   12MPD2    C5  187   1.141   3.556  13.696  0.0226  0.3099  0.3755
   12MPD2     H  188   1.356   3.316  13.897 -0.5106  0.4764  2.2639
   12MPD2    H1  189   1.101   3.399  13.565 -1.8632 -0.4578  1.0749
   12MPD2    H2  190   1.167   3.701  13.843  1.4226  0.4648 -0.8838
   12MPD2    H3  191   1.070   3.627  13.655  0.0095 -1.5546 -2.8755
   12MPD2     N  192   1.238   3.208  13.676 -0.7814 -0.1490  0.2165
   12MPD2    H5  193   1.181   3.209  13.593  0.4233 -1.7524 -0.6189
   12MPD2    N1  194   1.364   3.556  14.002 -0.0705 -0.2030 -0.1682
   12MPD2    H7  195   1.445   3.495  14.010  0.6598  0.9133  0.9766
   13TCq1    O1  196   0.904   3.321  10.079 -0.3214  0.3434 -0.8375
   13TCq1    C1  197   0.784   3.370  10.049 -0.2359  0.1414 -0.7081
   13TCq1    O2  198   0.751   3.401   9.932  0.3942 -0.1845 -0.2484
   13TCq1    C2  199   0.734   3.443  10.159  0.0374  0.5199  0.1380
   13TCq1    C3  200   0.739   3.578  10.148 -0.3189  0.2265  0.0014
   13TCq1    C4  201   0.709   3.655  10.252  0.8851  0.6883  0.7560
   13TCq1    C5  202   0.690   3.602  10.379  0.2918 -0.4529  0.1779
   13TCq1    C6  203   0.696   3.466  10.392  0.0724 -0.3607  0.3208
   13TCq1    C7  204   0.715   3.387  10.281  0.2277 -0.2127 -0.3309
   13TCq1    C8  205   0.637   3.405  10.511 -0.5153 -0.4043  0.1700
   13TCq1    O4  206   0.585   3.479  10.593 -0.3871  0.0129  0.3096
   13TCq1    C9  207   0.701   3.796  10.237 -0.9024  0.8446 -0.4161
   13TCq1    O5  208   0.755   3.867  10.332 -0.1184  0.0825  0.4071
   13TCq1    O6  209   0.667   3.842  10.120  0.3197  0.1544  0.2009
   13TCq1    H1  210   0.900   3.338  10.176  1.4763 -0.8810 -0.5685
   13TCq1    H2  211   0.757   3.626  10.052 -1.0540 -1.0074 -0.7572
   13TCq1    H3  212   0.652   3.664  10.459  1.5859  1.5204 -0.7190
   13TCq1    H4  213   0.704   3.279  10.283 -1.0465 -0.0835  0.2900
   14MPD2     C  214   0.659   3.050  10.590  0.1304  0.4353  0.1270
   14MPD2    C1  215   0.621   3.178  10.609  0.5056  0.0921 -0.7825
   14MPD2    C2  216   0.549   3.213  10.723 -0.6253  0.4188 -0.3503
   14MPD2    C3  217   0.521   3.119  10.820 -0.4941  0.3021 -0.3062
   14MPD2    C4  218   0.586   2.993  10.804 -0.1897 -1.5426  0.6014
   14MPD2    C5  219   0.642   2.958  10.689 -0.4522 -0.8261  0.9421
   14MPD2     H  220   0.524   3.316  10.743 -0.7780  0.4566 -0.7335
   14MPD2    H1  221   0.575   2.918  10.881  0.2223 -2.8561 -0.6160
   14MPD2    H2  222   0.709   3.020  10.499  0.0043 -0.4742  0.3609
   14MPD2    H3  223   0.689   2.861  10.681  1.8002  0.2417  1.3345
   14MPD2     N  224   0.449   3.144  10.936  0.2968 -0.0487  0.3520
   14MPD2    H5  225   0.416   3.238  10.958  0.1192  0.2968 -1.4076
   14MPD2    N1  226   0.666   3.270  10.513 -0.1201 -0.0854 -0.2704
   14MPD2    H7  227   0.722   3.233  10.437 -0.4401 -0.3432 -0.3806
   15TCq1    O1  228   3.681   3.055   1.003 -0.3326 -0.2375 -0.5356
   15TCq1    C1  229   3.678   2.931   0.946 -0.6071 -0.0700 -0.4934
   15TCq1    O2  230   3.730   2.896   0.841 -0.0357 -0.1773  0.4874
   15TCq1    C2  231   3.569   2.865   1.016 -0.3845 -0.5042 -0.0355
   15TCq1    C3  232   3.560   2.876   1.151  0.7515 -0.0979  0.8108
   15TCq1    C4  233   3.462   2.803   1.210  0.4611 -0.9795  0.7946
   15TCq1    C5  234   3.383   2.711   1.146 -0.2968 -0.1122 -0.3582
   15TCq1    C6  235   3.407   2.699   1.009 -0.3212 -0.4912  0.4451
   15TCq1    C7  236   3.489   2.782   0.940  0.0891 -0.0720 -1.3293
   15TCq1    C8  237   3.359   2.579   0.937  0.2220 -0.3110  0.4933
   15TCq1    O4  238   3.414   2.547   0.834  0.4488  0.0121  0.1078
   15TCq1    C9  239   3.456   2.807   1.355 -0.1540  0.2044 -0.0276
   15TCq1    O5  240   3.382   2.724   1.412  0.1000 -1.1148  0.0248
   15TCq1    O6  241   3.549   2.875   1.412  0.5991 -0.0345 -0.4665
   15TCq1    H1  242   3.616   3.055   1.076 -1.6959  1.8793 -1.7163
   15TCq1    H2  243   3.641   2.922   1.207 -0.4875  1.3507  1.4087
   15TCq1    H3  244   3.336   2.626   1.197 -0.8516  1.0289  1.0315
   15TCq1    H4  245   3.519   2.773   0.836  1.7289 -0.5208 -0.8188
   16MPD2     C  246   3.055   2.376   0.967 -0.1601  0.9588 -0.1179
   16MPD2    C1  247   3.188   2.398   0.938 -0.0047  0.0922 -0.4770
   16MPD2    C2  248   3.256   2.307   0.857 -0.1859  0.2968 -0.4551
   16MPD2    C3  249   3.184   2.196   0.811  0.7248  0.3820 -0.1056
   16MPD2    C4  250   3.049   2.175   0.835 -0.6709 -0.3747 -1.0595
   16MPD2    C5  251   2.987   2.265   0.918 -1.1711 -0.0127 -0.5550
   16MPD2     H  252   3.362   2.318   0.839  0.2907  1.1490  3.0326
   16MPD2    H1  253   2.980   2.094   0.814  0.0080 -1.2336  0.0171
   16MPD2    H2  254   3.006   2.456   1.020  0.1705 -0.9522  3.0912
   16MPD2    H3  255   2.884   2.242   0.943 -1.0450 -0.6385 -0.5951
   16MPD2     N  256   3.255   2.090   0.747 -0.4115 -0.2037 -0.2705
   16MPD2    H5  257   3.356   2.097   0.747 -0.3340 -1.3589 -0.3987
   16MPD2    N1  258   3.245   2.524   0.991 -0.9179  0.3409  0.1853
   16MPD2    H7  259   3.194   2.581   1.058  0.7202  0.4660  1.3344
   17TMC1    C1  260   0.980   2.420  11.725  0.0090 -0.1795  0.1388
   17TMC1    C2  261   0.928   2.462  11.846  0.0514 -0.4590 -0.4155
   17TMC1    C3  262   0.894   2.368  11.941 -0.1612  0.0045  0.6570
   17TMC1    C4  263   1.005   2.290  11.696 -0.4283 -0.2728  0.2880
   17TMC1    C5  264   0.954   2.200  11.785  0.3090 -0.3889 -0.4145
   17TMC1    C6  265   0.907   2.236  11.908 -0.2016  0.4075  0.0499
   17TMC1     C  266   1.016   2.528  11.633 -0.1212  0.6129 -0.3079
   17TMC1     O  267   0.942   2.626  11.631  0.6010  0.4277 -0.1170
   17TMC1     H  268   0.899   2.567  11.849  2.1870  0.1317 -0.1302
   17TMC1    H1  269   1.042   2.257  11.599  1.1025 -0.5950  0.9750
   17TMC1    H2  270   0.877   2.159  11.978 -1.3699  0.6202 -0.2296
   17TMC1    C7  271   0.995   2.059  11.772 -0.0777 -0.2212  0.5117
   17TMC1    C8  272   0.800   2.406  12.039 -0.6344  0.2439  0.5944
   17TMC1    O1  273   1.000   1.987  11.873 -0.4607 -0.2609 -0.2321
   17TMC1    O2  274   0.826   2.511  12.099 -0.0435 -0.0265 -0.0823
   17TMC1    O3  275   1.016   2.012  11.648 -0.5813  0.0280  0.1642
   17TMC1    H3  276   0.974   2.070  11.581  0.4261 -0.4828 -0.9172
   17TMC1    O5  277   0.679   2.348  12.015  0.3534 -0.1468 -0.3520
   17TMC1    H5  278   0.678   2.275  11.948  1.7008 -0.1939 -0.3261
   18MPD2     C  279   1.160   2.716  11.440 -0.5691 -0.3472 -0.0432
   18MPD2    C1  280   1.201   2.588  11.469  0.3486 -0.7167 -0.2647
   18MPD2    C2  281   1.309   2.543  11.400 -0.3409  0.3375  0.2905
   18MPD2    C3  282   1.382   2.622  11.311 -0.1363  0.1318  0.4614
   18MPD2    C4  283   1.329   2.747  11.280 -0.0092 -0.0016 -0.8518
   18MPD2    C5  284   1.219   2.796  11.345 -0.7229  0.2846 -0.4792
   18MPD2     H  285   1.348   2.443  11.418 -0.9190 -0.1064 -0.9396
   18MPD2    H1  286   1.383   2.817  11.218  2.0905 -1.3522 -0.5616
   18MPD2    H2  287   1.068   2.755  11.480 -0.2147 -0.7779  1.1758
   18MPD2    H3  288   1.179   2.895  11.325 -1.4284  0.6443  2.6892
   18MPD2     N  289   1.482   2.573  11.223 -0.2189 -0.5611  0.1078
   18MPD2    H5  290   1.511   2.635  11.148  0.9532 -0.9474  0.2336
   18MPD2    N1  291   1.133   2.500  11.561 -0.1481 -0.3303 -0.0393
   18MPD2    H7  292   1.173   2.407  11.571  0.7113  0.0817  0.3415
   19TMC2    C1  293   2.402   3.324  14.287 -0.5386 -0.9450 -0.3831
   19TMC2    C2  294   2.362   3.445  14.230 -0.2996 -0.8709 -0.6232
   19TMC2    C3  295   2.277   3.435  14.125  0.7516  0.0321  0.4763
   19TMC2    C4  296   2.349   3.205  14.260  0.6197 -0.0575 -0.0124
   19TMC2    C5  297   2.250   3.207  14.167  0.0614  0.4070 -0.5620
   19TMC2    C6  298   2.215   3.319  14.095  0.4482 -0.1747  0.1401
   19TMC2     C  299   2.503   3.330  14.396 -0.0127 -0.3508 -0.3506
   19TMC2     O  300   2.531   3.446  14.427  0.6069 -0.1430  0.0094
   19TMC2     H  301   2.400   3.540  14.267  0.6075 -0.8339 -1.6410
   19TMC2    H1  302   2.366   3.106  14.303  0.5483 -0.7536 -1.5942
   19TMC2    H2  303   2.144   3.323  14.013 -0.4042 -0.7898  0.8493
   19TMC2    C7  304   2.177   3.084  14.134 -0.2636 -0.4044  0.9824
   19TMC2    C8  305   2.261   3.544  14.033 -0.6675 -0.6236  0.3034
   19TMC2    O1  306   2.237   2.979  14.153 -0.3101  0.3574 -0.4110
   19TMC2    O2  307   2.197   3.526  13.927  0.1910  0.8515  0.1076
   19TMC2    O5  308   2.383   3.606  14.031 -0.0660  0.9080 -0.3129
   19TMC2    H5  309   2.409   3.611  14.126 -0.0960  0.4083 -0.2803
   20MPD2     C  310   2.750   3.311  14.550 -0.0573  0.2046 -0.1679
   20MPD2    C1  311   2.683   3.204  14.495  0.2878 -0.0699 -0.1464
   20MPD2    C2  312   2.744   3.074  14.508  0.0869 -0.1836 -0.1337
   20MPD2    C3  313   2.871   3.057  14.560 -0.5090 -0.0722 -0.0287
   20MPD2    C4  314   2.936   3.169  14.608  0.5269  0.2400 -0.0448
   20MPD2    C5  315   2.873   3.285  14.608  0.4064 -1.2150 -0.2330
   20MPD2     H  316   2.691   2.982  14.487  0.8937 -0.6414 -0.1586
   20MPD2    H1  317   3.036   3.165  14.650 -0.3133  0.4584  1.9519
   20MPD2    H2  318   2.723   3.416  14.544 -0.3041  0.2557  1.7869
   20MPD2    H3  319   2.924   3.370  14.651  0.1201  0.2336 -2.7362
   20MPD2     N  320   2.933   2.933  14.566 -0.4493  0.6939 -0.0955
   20MPD2    H5  321   3.029   2.934  14.600 -0.7984 -1.3627  0.9310
   20MPD2    N1  322   2.564   3.212  14.420 -0.5411  1.0717  0.0904
   20MPD2    H7  323   2.532   3.127  14.374  1.0275  0.1819  0.6561
   21TMC2    C1  324   0.171   3.131  14.145  0.2972 -0.0222 -0.9181
   21TMC2    C2  325   0.215   3.003  14.116  0.2613  0.0814  0.1992
   21TMC2    C3  326   0.165   2.900  14.196 -0.5254  0.4556 -0.2054
   21TMC2    C4  327   0.074   3.147  14.241  0.0442  0.3054 -0.0957
   21TMC2    C5  328   0.022   3.040  14.312 -0.1605  0.1929  0.6182
   21TMC2    C6  329   0.075   2.920  14.294  0.0331  0.4595  0.0263
   21TMC2     C  330   0.262   3.238  14.106  0.3183 -0.5149 -0.6424
   21TMC2     O  331   0.346   3.207  14.023 -0.0185 -0.5043  0.0244
   21TMC2     H  332   0.301   2.985  14.053  0.9676  1.3331  0.7965
   21TMC2    H1  333   0.052   3.250  14.266  0.0267  0.7645 -1.9545
   21TMC2    H2  334   0.054   2.828  14.348  1.3347  0.1575 -0.0023
   21TMC2    C7  335   4.721   3.068  14.443 -0.7983 -0.9167  0.1939
   21TMC2    C8  336   0.228   2.774  14.205  0.2699  0.1099 -0.2080
   21TMC2    O1  337   0.004   2.983  14.526  0.9620  0.5224 -0.4339
   21TMC2    O2  338   0.245   2.708  14.304 -0.1455  0.3055  0.3471
   21TMC2    O5  339   0.265   2.736  14.075  0.5264 -0.4938 -0.3236
   21TMC2    H5  340   0.245   2.809  14.013  0.2851 -0.5479 -0.3097
   22MPD2     C  341   0.539   3.643  14.274  0.6047  0.0875 -0.9167
   22MPD2    C1  342   0.575   3.536  14.192 -0.1481  0.4467 -0.3372
   22MPD2    C2  343   0.483   3.440  14.160 -0.4723 -0.3020  0.2936
   22MPD2    C3  344   0.347   3.454  14.192  0.1397 -0.1638 -0.4820
   22MPD2    C4  345   0.312   3.560  14.272  0.1954 -0.9451 -0.5161
   22MPD2    C5  346   0.405   3.658  14.305  0.4795 -0.2066  0.1868
   22MPD2     H  347   0.518   3.353  14.105  0.4276  2.1551 -3.0182
   22MPD2    H1  348   0.210   3.570  14.306  0.1980  1.7675 -1.2947
   22MPD2    H2  349   0.612   3.718  14.301 -1.7018  1.7997  0.5083
   22MPD2    H3  350   0.384   3.752  14.355 -0.6184 -0.9335  1.0838
   22MPD2     N  351   0.253   3.353  14.187  0.1678 -0.4592 -0.2296
   22MPD2    H5  352   0.170   3.362  14.245  0.2300  1.2037 -0.4202
   22MPD2    N1  353   0.711   3.508  14.152  0.0948  0.4187 -0.3696
   22MPD2    H7  354   0.726   3.437  14.081  0.2470  1.1459 -1.0655
   23TMC2    C1  355   1.387   4.606  14.524 -0.0610 -0.2865  0.4949
   23TMC2    C2  356   1.407   4.697  14.425 -0.6452  0.4258  0.4177
   23TMC2    C3  357   1.295   4.728  14.352 -0.2764 -0.1816 -0.3219
   23TMC2    C4  358   1.265   4.545  14.562 -0.2920  0.4525 -1.0551
   23TMC2    C5  359   1.160   4.576  14.478 -0.0457  0.2612 -0.8458
   23TMC2    C6  360   1.173   4.678  14.384 -0.1920  0.0801  0.6768
   23TMC2     C  361   1.504   4.557  14.594 -0.1363  0.1087 -0.0160
   23TMC2     O  362   1.500   4.445  14.644  0.7335  0.5504  0.0140
   23TMC2     H  363   1.501   4.730  14.383 -1.3212 -0.5493 -1.8288
   23TMC2    H1  364   1.262   4.464  14.634 -1.6774  0.9858 -0.5125
   23TMC2    H2  365   1.089   4.712  14.323 -0.0837 -2.3161 -0.8023
   23TMC2    C7  366   1.034   4.509  14.502  0.2864  0.3553 -0.5092
   23TMC2    C8  367   1.316   0.056  14.225 -0.0848  0.0081  0.1703
   23TMC2    O1  368   1.026   4.438  14.602  0.2898  0.5321 -0.3685
   23TMC2    O2  369   1.423   0.055  14.165  0.3795  0.5880  0.1457
   23TMC2    O5  370   1.219   0.149  14.215  0.1067 -0.2730  0.1631
   23TMC2    H5  371   1.148   0.152  14.283 -1.8754 -0.8771 -1.8651
   24MPD2     C  372   1.950   4.622  14.846  0.3638 -0.7859  0.5334
   24MPD2    C1  373   1.859   4.517  14.855 -0.4181  0.0057 -0.1818
   24MPD2    C2  374   1.750   4.529  14.770 -0.4123 -0.0968  0.2490
   24MPD2    C3  375   1.727   4.635  14.679  0.0810 -0.1700 -0.0482
   24MPD2    C4  376   1.827   4.731  14.679 -0.2429 -0.9536  0.0672
   24MPD2    C5  377   1.949   4.716  14.748  0.0896 -0.0387 -0.6525
   24MPD2     H  378   1.681   4.445  14.773  1.4885 -1.6731  0.4864
   24MPD2    H1  379   1.821   0.074  14.611  0.6346 -1.6514 -0.8760
   24MPD2    H2  380   2.044   4.615  14.900  0.4605 -1.0393  0.3323
   24MPD2    H3  381   2.027   0.050  14.739 -1.0028  0.9959 -1.6202
   24MPD2     N  382   1.607   4.651  14.597  0.1826  0.2815 -0.2036
   24MPD2    H5  383   1.606   4.734  14.538  0.9219  2.2792  2.6169
   24MPD2    N1  384   1.860   4.422  14.960 -0.5448  0.5115  0.0021
   24MPD2    H7  385   1.768   4.382  14.971 -0.2838  0.0057  0.3555
   25TMC2    C1  386   0.876   1.469  11.656  0.0675 -0.3734 -0.8240
   25TMC2    C2  387   0.995   1.524  11.690 -0.1258 -0.2122 -0.1336
   25TMC2    C3  388   0.987   1.635  11.766  0.4957 -0.0201 -0.1557
   25TMC2    C4  389   0.754   1.525  11.695  0.4202 -0.2070 -0.8466
   25TMC2    C5  390   0.754   1.639  11.771 -0.8085 -0.0781  0.0021
   25TMC2    C6  391   0.873   1.697  11.810  0.3186 -0.5335  1.1800
   25TMC2     C  392   0.876   1.343  11.582  0.2680 -0.5210  0.0631
   25TMC2     O  393   0.971   1.270  11.613 -0.3458  0.2058  0.0166
   25TMC2     H  394   1.094   1.487  11.667  0.0540  0.1857  0.0063
   25TMC2    H1  395   0.666   1.462  11.689 -0.3110  0.5309  1.9671
   25TMC2    H2  396   0.869   1.781  11.877 -1.9950 -1.4880  2.2446
   25TMC2    C7  397   0.628   1.697  11.818  0.4026  0.1877  0.4253
   25TMC2    C8  398   1.111   1.698  11.805 -0.7419 -0.2829  0.2983
   25TMC2    O1  399   0.637   1.786  11.903  0.0398 -0.4557  0.4681
   25TMC2    O2  400   1.201   1.702  11.725  0.1913 -0.5260  0.0299
   25TMC2    O5  401   1.111   1.665  11.934  0.0115  1.3271 -0.3767
   25TMC2    H5  402   1.021   1.660  11.971 -0.1570  0.5831 -0.8896
   26MPD2     C  403   0.722   0.989  11.249  0.2979 -0.5778  0.5803
   26MPD2    C1  404   0.614   1.068  11.281 -0.1623 -0.0595  0.7624
   26MPD2    C2  405   0.631   1.179  11.367 -0.4806 -0.2954  0.8798
   26MPD2    C3  406   0.750   1.211  11.423 -0.4021 -0.2346 -0.1136
   26MPD2    C4  407   0.856   1.131  11.396 -0.5459  0.3862 -0.0817
   26MPD2    C5  408   0.840   1.019  11.311 -0.1675  0.9239 -0.6990
   26MPD2     H  409   0.545   1.232  11.406  1.3169  0.9996  3.1025
   26MPD2    H1  410   0.960   1.139  11.428 -0.5269  4.1117 -1.0466
   26MPD2    H2  411   0.706   0.897  11.195 -4.0066  0.3555  0.2731
   26MPD2    H3  412   0.926   0.956  11.290 -0.5958  0.1207 -0.0428
   26MPD2     N  413   0.765   1.322  11.503 -0.4866  1.1239 -0.3317
   26MPD2    H5  414   0.688   1.388  11.509 -1.9218 -0.3546 -2.5647
   26MPD2    N1  415   0.492   1.030  11.229  0.2275 -0.4230  0.0195
   26MPD2    H7  416   0.488   0.961  11.155  1.2599  0.8202 -1.2065
   27TMC2    C1  417   4.232   3.798  12.071 -0.7673  0.2328 -0.6335
   27TMC2    C2  418   4.167   3.888  11.993  0.1723  0.1657 -0.2419
   27TMC2    C3  419   4.246   3.992  11.953  0.3680 -0.3444 -0.2829
   27TMC2    C4  420   4.358   3.813  12.120  0.3827  0.2828 -0.2738
   27TMC2    C5  421   4.426   3.922  12.080 -0.6469  0.5207  0.4400
   27TMC2    C6  422   4.374   4.011  11.995  0.6452  0.3300  0.3921
   27TMC2     C  423   4.154   3.708  12.155 -0.0197 -0.5906 -0.0747
   27TMC2     O  424   4.203   3.601  12.194 -0.1727  0.1411  0.4040
   27TMC2     H  425   4.064   3.881  11.959  0.4571  1.7635 -1.4776
   27TMC2    H1  426   4.409   3.738  12.179  2.4349  0.4027 -1.8893
   27TMC2    H2  427   4.439   4.088  11.956  1.9563  0.1416  2.2130
   27TMC2    C7  428   4.514   3.974  12.176 -0.1395 -0.3841  0.1616
   27TMC2    C8  429   4.188   4.079  11.852 -0.3552  0.2492 -0.3541
   27TMC2    O1  430   4.591   4.065  12.132 -0.1296 -0.0038 -0.4815
   27TMC2    O2  431   4.101   4.042  11.774 -0.1369  0.0256 -0.1583
   27TMC2    O5  432   4.212   4.205  11.892 -0.2997  0.1963  0.4357
   27TMC2    H5  433   4.267   4.204  11.974 -1.8162 -3.4418  1.3856
   28MPD2     C  434   3.762   3.639  12.494 -0.8661 -0.2064 -0.0903
   28MPD2    C1  435   3.740   3.761  12.426  0.4697  0.4671  0.4999
   28MPD2    C2  436   3.838   3.796  12.327 -0.2303 -0.0471 -0.7695
   28MPD2    C3  437   3.950   3.714  12.296  0.0496  0.1947 -0.3696
   28MPD2    C4  438   3.959   3.597  12.363 -0.1187 -0.1254 -0.5631
   28MPD2    C5  439   3.872   3.563  12.461  0.2202  0.1614 -0.3421
   28MPD2     H  440   3.828   3.895  12.284  1.7389 -0.0827 -1.3079
   28MPD2    H1  441   4.045   3.532  12.349  0.1167  0.0553  0.0345
   28MPD2    H2  442   3.689   3.616  12.571 -1.0384  0.1686 -0.1413
   28MPD2    H3  443   3.901   3.470  12.509 -1.9832  0.8523  2.2949
   28MPD2     N  444   4.038   3.768  12.197  0.0334 -0.2886 -0.0765
   28MPD2    H5  445   4.012   3.861  12.165 -1.0163 -0.2176  0.9639
   28MPD2    N1  446   3.629   3.844  12.458  0.2366 -0.2744  0.0907
   28MPD2    H7  447   3.569   3.808  12.532 -0.4784 -0.5692 -0.6251
   29TMC2    C1  448   3.195   1.690  14.034 -1.0602  0.7448  0.4869
   29TMC2    C2  449   3.124   1.670  13.920  0.5063  0.1055  0.5026
   29TMC2    C3  450   3.079   1.783  13.852 -0.5156 -1.0446 -0.3984
   29TMC2    C4  451   3.249   1.815  14.072 -0.0384 -0.0458 -0.0609
   29TMC2    C5  452   3.207   1.920  13.997  0.0354 -1.0196 -0.1682
   29TMC2    C6  453   3.116   1.905  13.898  0.3593  0.1241  0.1598
   29TMC2     C  454   3.282   1.578  14.068  0.1756  0.0533  0.3815
   29TMC2     O  455   3.329   1.563  14.178  0.3089 -0.3872  0.1210
   29TMC2     H  456   3.085   1.575  13.886  0.6448  0.3233 -0.2730
   29TMC2    H1  457   3.302   1.817  14.167 -0.7876  1.0153  0.3365
   29TMC2    H2  458   3.092   1.988  13.832 -0.7054 -0.0140  0.3761
   29TMC2    C7  459   3.220   2.057  14.046 -0.7926 -0.0930 -0.5741
   29TMC2    C8  460   3.001   1.765  13.730  0.0649  0.1347 -0.4786
   29TMC2    O1  461   3.147   2.138  13.994  0.2756  0.2317 -0.0051
   29TMC2    O2  462   2.985   1.656  13.674  0.0615  0.2368  0.3112
   29TMC2    O5  463   2.906   1.860  13.736  0.2245 -0.2764  0.0379
   29TMC2    H5  464   2.903   1.903  13.825  1.2026  0.4793 -0.2995
   30MPD2     C  465   3.449   1.141  13.860  0.2602 -0.1781  0.2927
   30MPD2    C1  466   3.449   1.175  13.993 -0.4305 -0.7200  0.0568
   30MPD2    C2  467   3.414   1.305  14.019 -0.5491 -0.3034  0.6258
   30MPD2    C3  468   3.374   1.393  13.925 -1.0952 -0.5760 -0.5607
   30MPD2    C4  469   3.388   1.356  13.793  0.2804  0.3930 -0.5240
   30MPD2    C5  470   3.425   1.232  13.762 -0.3723 -0.0220 -0.6026
   30MPD2     H  471   3.407   1.332  14.124 -1.3274 -1.0477  0.7665
   30MPD2    H1  472   3.360   1.419  13.709 -2.0955  0.3982  0.2785
   30MPD2    H2  473   3.460   1.041  13.819  3.7930 -0.1259  1.1768
   30MPD2    H3  474   3.410   1.194  13.661  1.2500  1.8764 -1.5664
   30MPD2     N  475   3.308   1.516  13.947  0.2678 -0.6229  0.8753
   30MPD2    H5  476   3.273   1.566  13.867  0.3058 -2.1113 -0.0659
   30MPD2    N1  477   3.490   1.085  14.097 -0.2149  0.0728  0.1718
   30MPD2    H7  478   3.505   1.134  14.184 -0.0832  0.8996 -0.3121
   31TMC2    C1  479   1.392   0.314  15.288  0.7710  0.5487 -0.7717
   31TMC2    C2  480   1.314   0.425  15.295  0.1777 -0.0898  0.4548
   31TMC2    C3  481   1.244   0.453  15.406 -0.2589 -0.0504  0.0645
   31TMC2    C4  482   1.417   0.236  15.388 -0.4473 -0.1194 -0.0357
   31TMC2    C5  483   1.349   0.271  15.506 -0.1691 -0.5845 -1.0376
   31TMC2    C6  484   1.259   0.377  15.519  0.6233  0.6399 -0.1602
   31TMC2     C  485   1.457   0.278  15.165 -0.4217  0.2374 -0.0475
   31TMC2     O  486   1.388   0.317  15.074  0.1686  0.2056  0.3396
   31TMC2     H  487   1.326   0.485  15.205 -1.1861  1.0410  1.0302
   31TMC2    H1  488   1.469   0.141  15.381  0.5471  0.3711  0.6903
   31TMC2    H2  489   1.192   0.397  15.602  0.1748 -0.1251 -0.3406
   31TMC2    C7  490   1.400   0.219  15.633 -0.0613 -0.3300  0.6716
   31TMC2    C8  491   1.217   0.596  15.418  0.7293  0.1031 -0.1597
   31TMC2    O1  492   1.458   0.110  15.622 -0.5138  0.3900 -0.1411
   31TMC2    O2  493   1.211   0.658  15.523  0.3167  0.3326  0.5237
   31TMC2    O5  494   1.113   0.602  15.334 -0.3405 -0.1911  0.2044
   31TMC2    H5  495   1.108   0.546  15.254 -2.6661 -1.2671  1.0967
   32MPD2     C  496   1.867   0.258  14.854  0.5524  0.3474  0.3478
   32MPD2    C1  497   1.740   0.302  14.830  0.0628 -0.3754 -0.2920
   32MPD2    C2  498   1.646   0.295  14.933  1.3146  0.3352 -0.1114
   32MPD2    C3  499   1.676   0.240  15.062  0.4441 -0.2972  0.0727
   32MPD2    C4  500   1.809   0.197  15.080  0.1352 -0.5609 -0.5219
   32MPD2    C5  501   1.899   0.203  14.979 -0.4522 -0.6673  0.3525
   32MPD2     H  502   1.550   0.346  14.924  1.5724  0.7278 -0.6721
   32MPD2    H1  503   1.843   0.156  15.175 -1.2607 -1.4254 -0.3877
   32MPD2    H2  504   1.948   0.282  14.785 -0.7264  1.5179 -0.7618
   32MPD2    H3  505   2.001   0.167  14.990 -0.0986  0.1398 -0.3033
   32MPD2     N  506   1.589   0.241  15.171  0.0801  0.1050  0.3698
   32MPD2    H5  507   1.624   0.207  15.260 -1.5801 -1.4256  0.4417
   32MPD2    N1  508   1.716   0.378  14.711  0.3992 -0.3267  0.0421
   32MPD2    H7  509   1.796   0.396  14.651  1.0122  2.0542  1.5515
   33TMC2    C1  510   1.503   3.359  10.748  0.3166  0.3905 -0.4650
   33TMC2    C2  511   1.396   3.408  10.812 -0.3191  0.2589  0.0249
   33TMC2    C3  512   1.333   3.516  10.770 -0.0263 -0.1403 -0.5636
   33TMC2    C4  513   1.534   3.426  10.629 -0.3148  0.1737 -0.3027
   33TMC2    C5  514   1.467   3.532  10.589  0.9302  0.8328 -0.2881
   33TMC2    C6  515   1.365   3.594  10.662 -0.0185  0.7430 -0.2628
   33TMC2     C  516   1.558   3.230  10.782  0.2539  0.6370  0.1823
   33TMC2     O  517   1.488   3.159  10.856  0.3293  0.0344  0.1520
   33TMC2     H  518   1.372   3.363  10.907 -0.1915  2.9075  1.2979
   33TMC2    H1  519   1.612   3.397  10.559 -0.2160 -1.5670  0.5506
   33TMC2    H2  520   1.312   3.685  10.638 -0.4656 -0.1483 -2.5677
   33TMC2    C7  521   1.509   3.597  10.469  0.0022  0.4373 -0.0729
   33TMC2    C8  522   1.240   3.587  10.859 -0.2040  0.8368 -0.1760
   33TMC2    O1  523   1.618   3.572  10.414  0.0949  0.4196  0.0754
   33TMC2    O2  524   1.255   3.702  10.875  0.0268 -0.1652 -0.6214
   33TMC2    O5  525   1.203   3.502  10.956  0.3763 -0.0322 -0.2185
   33TMC2    H5  526   1.191   3.411  10.924 -1.2948  1.0480 -2.6871
   34MPD2     C  527   1.840   2.823  10.654  0.1083 -0.0865 -0.4697
   34MPD2    C1  528   1.723   2.828  10.730  0.8588  0.4014  0.2888
   34MPD2    C2  529   1.657   2.947  10.735 -0.0994 -0.6451  0.7080
   34MPD2    C3  530   1.719   3.064  10.698  0.3181  0.5152 -0.2661
   34MPD2    C4  531   1.839   3.058  10.635  0.4396 -0.5789 -0.1746
   34MPD2    C5  532   1.905   2.942  10.615  0.2198 -0.1048  0.1228
   34MPD2     H  533   1.557   2.950  10.776 -0.4213  1.3810 -0.1966
   34MPD2    H1  534   1.884   3.146  10.592  0.3799  0.0889  1.1379
   34MPD2    H2  535   1.889   2.728  10.638  0.8639 -0.0331  1.5559
   34MPD2    H3  536   1.995   2.929  10.557 -0.6821 -0.8074 -1.1398
   34MPD2     N  537   1.669   3.199  10.711  0.0741  0.3083  0.2821
   34MPD2    H5  538   1.707   3.276  10.656 -1.6507 -0.0069 -1.3555
   34MPD2    N1  539   1.673   2.718  10.804  0.2700  0.8875  0.9297
   34MPD2    H7  540   1.596   2.738  10.867  0.3918 -0.2096  1.4318
   35TMC2    C1  541   2.391   3.849  10.998  0.3032 -0.3218  0.3520
   35TMC2    C2  542   2.380   3.764  10.896 -0.3936  0.1600 -0.2290
   35TMC2    C3  543   2.262   3.709  10.883 -0.3917 -0.8014  0.7256
   35TMC2    C4  544   2.281   3.899  11.075  0.0842 -0.0881  0.1906
   35TMC2    C5  545   2.163   3.841  11.049  0.2866  0.1579 -0.0006
   35TMC2    C6  546   2.151   3.738  10.956  0.5654 -0.4850  0.1579
   35TMC2     C  547   2.527   3.885  11.028 -0.4726 -0.4406  0.3057
   35TMC2     O  548   2.598   3.906  10.930  0.2508 -1.0269 -0.2518
   35TMC2     H  549   2.462   3.746  10.828 -0.3802 -0.9165  0.0680
   35TMC2    H1  550   2.301   3.978  11.146 -0.5658  1.7754 -1.7173
   35TMC2    H2  551   2.057   3.687  10.936  0.4613 -0.4775  0.6217
   35TMC2    C7  552   2.043   3.857  11.131 -0.1275  0.3754 -0.5539
   35TMC2    C8  553   2.230   3.641  10.764 -0.0087  0.2273 -0.0159
   35TMC2    O1  554   1.966   3.763  11.136  0.0139  0.6940  0.1805
   35TMC2    O2  555   2.217   3.524  10.737  0.3454  0.1314 -1.1512
   35TMC2    O5  556   2.247   3.735  10.665  0.5961  0.0537  0.5144
   35TMC2    H5  557   2.261   3.826  10.697 -0.6086 -0.5566  2.8008
   36MPD2     C  558   2.947   3.927  11.306  0.0920 -0.0298 -0.0668
   36MPD2    C1  559   2.848   3.882  11.393  1.0049 -0.6123  0.1435
   36MPD2    C2  560   2.721   3.851  11.339  0.1559 -0.3046 -0.7413
   36MPD2    C3  561   2.691   3.870  11.203  0.4383  0.1145  0.0080
   36MPD2    C4  562   2.794   3.928  11.126  0.0223  0.3419  0.0601
   36MPD2    C5  563   2.917   3.942  11.169 -0.8617  0.3715 -0.2771
   36MPD2     H  564   2.641   3.838  11.411 -1.8764  0.2839 -2.8938
   36MPD2    H1  565   2.787   3.948  11.020  1.3885  2.1050  0.3021
   36MPD2    H2  566   3.047   3.943  11.346 -0.2495  0.6287  0.5087
   36MPD2    H3  567   2.986   3.988  11.100  0.8955  0.4269  1.5129
   36MPD2     N  568   2.558   3.864  11.161 -0.3185 -0.6688  0.0094
   36MPD2    H5  569   2.494   3.817  11.225 -0.6422 -0.4049 -0.1225
   36MPD2    N1  570   2.882   3.877  11.532 -0.6608  0.4266  0.1667
   36MPD2    H7  571   2.959   3.933  11.567 -1.4359  1.3799  0.3218
   37TMC2    C1  572   0.308   4.302  11.869 -0.0065  0.7000 -0.6288
   37TMC2    C2  573   0.236   4.240  11.772  0.0175 -0.5537  0.6934
   37TMC2    C3  574   0.282   4.248  11.646  0.0219 -0.4801  0.8510
   37TMC2    C4  575   0.398   4.402  11.843  0.5456 -0.6835 -0.2207
   37TMC2    C5  576   0.430   4.422  11.710 -0.3071  0.2195  0.7235
   37TMC2    C6  577   0.369   4.351  11.605  0.7244  0.3856  0.2053
   37TMC2     C  578   0.252   4.294  12.002  0.1050  0.3714 -0.0148
   37TMC2     O  579   0.135   4.258  12.009  0.3767 -0.6067 -0.0800
   37TMC2     H  580   0.157   4.171  11.799 -1.2912  0.7765  0.3287
   37TMC2    H1  581   0.431   4.465  11.924  1.2415 -1.0596 -0.2029
   37TMC2    H2  582   0.398   4.350  11.501 -0.9446  0.4704 -0.2600
   37TMC2    C7  583   0.499   4.552  11.686 -0.0417 -0.5526 -0.1106
   37TMC2    C8  584   0.208   4.164  11.547  0.3427 -0.9180 -0.0058
   37TMC2    O1  585   0.569   4.598  11.776 -0.1025 -0.5610 -0.5682
   37TMC2    O2  586   0.153   4.060  11.578  0.3143  0.4950 -0.2833
   37TMC2    O5  587   0.172   4.238  11.442  0.4964  0.3486  0.3779
   37TMC2    H5  588   0.202   4.331  11.456  1.7314 -0.0621  0.4938
   38MPD2     C  589   0.280   4.288  12.522  0.7255  0.6535 -0.0494
   38MPD2    C1  590   0.403   4.322  12.463 -0.2666 -0.0252 -0.3052
   38MPD2    C2  591   0.420   4.323  12.332  0.6683 -0.7698  0.6471
   38MPD2    C3  592   0.316   4.297  12.244  0.4315  1.0882 -0.2088
   38MPD2    C4  593   0.193   4.262  12.297 -0.0892 -0.0094 -0.3783
   38MPD2    C5  594   0.174   4.267  12.436 -0.1793  0.3507 -0.4143
   38MPD2     H  595   0.522   4.322  12.294 -0.1480  1.8324 -1.5835
   38MPD2    H1  596   0.108   4.248  12.232 -0.1755 -1.5819  0.0844
   38MPD2    H2  597   0.250   4.290  12.627  1.4240  3.1812  0.0905
   38MPD2    H3  598   0.078   4.244  12.482 -0.8648  0.2601 -1.8815
   38MPD2     N  599   0.344   4.312  12.102  0.4238 -0.5954  0.1373
   38MPD2    H5  600   0.439   4.337  12.077  0.6657 -3.0303 -1.2913
   38MPD2    N1  601   0.510   4.368  12.538  0.4091  0.1131  0.2439
   38MPD2    H7  602   0.597   4.374  12.487 -0.2453 -2.4132 -1.1912
   39TMC2    C1  603   3.213   1.983   1.171  0.0970  0.9516 -0.1619
   39TMC2    C2  604   3.129   2.062   1.239  0.0475 -0.0410  0.8505
   39TMC2    C3  605   3.168   2.187   1.265  0.8146  0.1460  0.1997
   39TMC2    C4  606   3.328   2.029   1.115 -0.2461  0.3584  0.3977
   39TMC2    C5  607   3.356   2.163   1.132  0.7306 -0.5292 -0.4025
   39TMC2    C6  608   3.277   2.243   1.214 -0.6721  0.1498 -0.6709
   39TMC2     C  609   3.174   1.853   1.131 -0.6029 -0.4768  0.7140
   39TMC2     O  610   3.055   1.847   1.112 -0.7646  0.5038 -0.2694
   39TMC2     H  611   3.029   2.028   1.264 -0.6929  1.1257 -0.5183
   39TMC2    H1  612   3.387   1.974   1.042 -1.5567 -2.0116  1.1385
   39TMC2    H2  613   3.301   2.346   1.236  1.9408 -0.4395 -0.7975
   39TMC2    C7  614   3.475   2.216   1.079  0.1151  0.0367 -0.3120
   39TMC2    C8  615   3.103   2.272   1.360  0.1455 -0.7649 -0.8770
   39TMC2    O1  616   3.518   2.155   0.978 -0.1525 -0.6416  0.0245
   39TMC2    O2  617   3.086   2.393   1.353 -0.2585 -0.6999 -0.0097
   39TMC2    O5  618   3.086   2.195   1.468 -0.6705 -0.2926  0.0842
   39TMC2    H5  619   3.114   2.105   1.442 -0.1135 -0.7545  2.3287
   40MPD2     C  620   3.414   1.572   1.070 -0.0057  0.3001 -0.0481
   40MPD2    C1  621   3.293   1.636   1.071  0.8387 -0.2863 -0.0381
   40MPD2    C2  622   3.179   1.573   1.033 -0.1032 -0.0784  0.4353
   40MPD2    C3  623   3.177   1.440   0.981  0.7271  0.0842  0.5782
   40MPD2    C4  624   3.299   1.379   0.971 -0.2996 -0.4697 -0.0877
   40MPD2    C5  625   3.415   1.446   1.016  0.6157 -0.3198  0.7352
   40MPD2     H  626   3.086   1.625   1.052 -0.7556 -0.8662 -0.6107
   40MPD2    H1  627   3.303   1.282   0.922 -0.9061 -0.6150  0.1591
   40MPD2    H2  628   3.512   1.607   1.101 -0.1288 -1.3486  2.2028
   40MPD2    H3  629   3.513   1.410   0.987 -0.2912 -2.3072  0.1841
   40MPD2     N  630   3.069   1.368   0.929  0.4854  0.3426 -0.8470
   40MPD2    H5  631   3.085   1.271   0.904 -1.5961  0.6921 -3.4863
   40MPD2    N1  632   3.286   1.763   1.121 -0.0583 -0.0745  0.2672
   40MPD2    H7  633   3.372   1.805   1.154 -0.4860  0.7856  0.2941
   41TMC2    C1  634   1.627   4.505  13.302  0.5964  0.1963  0.6268
   41TMC2    C2  635   1.555   4.590  13.225 -0.0945  0.1661  0.3279
   41TMC2    C3  636   1.612   4.645  13.113  0.4128 -0.3950  0.3216
   41TMC2    C4  637   1.751   4.466  13.258 -1.0651 -0.1060  0.3383
   41TMC2    C5  638   1.800   4.520  13.144  0.0238  0.2000  0.4232
   41TMC2    C6  639   1.742   4.624  13.077 -0.6703  0.0125 -0.2784
   41TMC2     C  640   1.565   4.447  13.424  0.1916  0.7651  0.0747
   41TMC2     O  641   1.446   4.435  13.417  0.7306 -0.4442 -0.2104
   41TMC2     H  642   1.455   4.621  13.255  0.1709  0.9828  0.3678
   41TMC2    H1  643   1.796   4.377  13.300 -0.9458 -0.2273 -0.0444
   41TMC2    H2  644   1.783   4.663  12.985  1.6475  0.4662  0.9586
   41TMC2    C7  645   1.937   4.485  13.111  0.2709 -0.3639  0.3499
   41TMC2    C8  646   1.536   0.006  13.044  0.3022  0.3189 -0.4154
   41TMC2    O1  647   2.007   4.437  13.199  0.3145 -0.1430  0.1514
   41TMC2    O2  648   1.414   4.740  13.038 -0.3718 -0.6135 -0.7320
   41TMC2    O5  649   1.614   0.115  13.026 -0.3122  0.3617  0.4130
   41TMC2    H5  650   1.710   0.108  13.045  0.4214  2.5448 -2.4912
   42MPD2     C  651   1.500   4.285  13.672 -1.0397  0.2229 -0.1607
   42MPD2    C1  652   1.619   4.344  13.641 -0.4437  0.5280 -0.1136
   42MPD2    C2  653   1.722   4.345  13.738 -0.7428 -0.2929 -0.4151
   42MPD2    C3  654   1.696   4.281  13.864  0.6794  0.2031  0.6435
   42MPD2    C4  655   1.577   4.210  13.887 -0.4572  0.4036 -0.8093
   42MPD2    C5  656   1.480   4.219  13.792  0.1790  0.3626 -0.2231
   42MPD2     H  657   1.819   4.390  13.718 -0.6785 -0.6857 -0.9963
   42MPD2    H1  658   1.555   4.160  13.980 -1.0451  0.3022 -0.9984
   42MPD2    H2  659   1.424   4.275  13.595 -1.2697  1.3301 -0.0725
   42MPD2    H3  660   1.389   4.164  13.813 -1.3025  1.6285 -3.4140
   42MPD2     N  661   1.786   4.292  13.974 -0.4792 -0.4992  0.4798
   42MPD2    H5  662   1.758   4.248  14.061  2.4883 -0.3406  1.4945
   42MPD2    N1  663   1.649   4.408  13.523  0.0738 -1.0765  0.4544
   42MPD2    H7  664   1.746   4.438  13.529 -0.6612  1.2394  0.5394
   43TMC2    C1  665   3.784   2.216   0.280 -0.4078 -0.3078  0.3079
   43TMC2    C2  666   3.701   2.310   0.229  0.7106  0.2022  0.0518
   43TMC2    C3  667   3.681   2.412   0.318  0.4297  0.2678  0.3939
   43TMC2    C4  668   3.852   2.221   0.398 -1.1607  0.1240  0.0916
   43TMC2    C5  669   3.831   2.331   0.475 -0.0601 -0.4727 -0.1120
   43TMC2    C6  670   3.749   2.433   0.437 -0.3051 -0.6174 -0.3584
   43TMC2     C  671   3.846   2.111   0.193 -0.7476 -0.1752 -0.1613
   43TMC2     O  672   3.902   2.017   0.244  0.2586 -0.0354 -0.1736
   43TMC2     H  673   3.645   2.308   0.136  2.3123  0.9160 -0.9268
   43TMC2    H1  674   3.934   2.154   0.420 -1.0987  0.2291  0.1801
   43TMC2    H2  675   3.725   2.522   0.494  0.1018 -1.3019  0.8765
   43TMC2    C7  676   3.930   2.350   0.577  0.1643 -0.9956  0.0894
   43TMC2    C8  677   3.589   2.518   0.272 -0.4211 -0.2196 -0.0809
   43TMC2    O1  678   4.000   2.256   0.605 -0.3443  0.4610  0.2106
   43TMC2    O2  679   3.565   2.541   0.153  0.2529 -0.1868  0.8234
   43TMC2    O5  680   3.526   2.575   0.379  0.0341 -0.0997  0.3034
   43TMC2    H5  681   3.527   2.519   0.459 -1.1445  0.8486  0.9736
   44MPD2     C  682   4.113   2.081  17.514 -0.2680 -0.6400  0.0630
   44MPD2    C1  683   4.129   2.021  17.638  0.3950 -0.1754  0.0191
   44MPD2    C2  684   4.047   2.044  17.743 -0.3808 -0.9436  0.2597
   44MPD2    C3  685   3.939   2.133  17.728 -0.2992 -0.2640  0.6645
   44MPD2    C4  686   3.922   2.200  17.609  0.0507 -0.3602  0.2807
   44MPD2    C5  687   4.009   2.172  17.503 -0.2609  1.1041 -0.1552
   44MPD2     H  688   4.061   1.990   0.075  1.6313 -0.4966  0.2246
   44MPD2    H1  689   3.841   2.271  17.598 -0.3228 -0.5787  1.6322
   44MPD2    H2  690   4.176   2.066  17.426 -0.4994  0.9901 -0.3755
   44MPD2    H3  691   3.999   2.219  17.406  0.4668 -0.1728 -0.8477
   44MPD2     N  692   3.845   2.167   0.070 -0.0704  0.6185  0.2679
   44MPD2    H5  693   3.790   2.250   0.050 -2.3524 -0.5837  1.6809
   44MPD2    N1  694   4.232   1.928  17.661  0.2170 -0.0358  0.3003
   44MPD2    H7  695   4.237   1.886  17.753  0.4484 -1.2734 -0.2784
   45TMC2    C1  696   4.494   4.366   9.516  0.2322  0.2160  0.1218
   45TMC2    C2  697   4.549   4.253   9.558  0.3527 -0.0663 -0.2015
   45TMC2    C3  698   4.646   4.265   9.653  0.0220  0.1763  0.5066
   45TMC2    C4  699   4.548   4.488   9.536  1.5188 -0.1730  0.5181
   45TMC2    C5  700   4.662   4.491   9.602  0.1172 -0.2956  0.1329
   45TMC2    C6  701   4.702   4.388   9.680 -0.5223 -0.0912  0.4940
   45TMC2     C  702   4.380   4.360   9.423  0.0890  0.6004 -0.7790
   45TMC2     O  703   4.368   4.263   9.353  0.2787 -0.4775  0.7197
   45TMC2     H  704   4.498   4.158   9.545 -0.5332  0.4453 -0.5166
   45TMC2    H1  705   4.524   4.587   9.500 -1.2340 -1.3377 -0.8907
   45TMC2    H2  706   0.037   4.406   9.755 -1.5117 -2.1269  1.9878
   45TMC2    C7  707   4.710   4.620   9.641 -0.5526  0.8093  0.1817
   45TMC2    C8  708   4.713   4.149   9.703 -0.3694  0.0246 -0.1329
   45TMC2    O1  709   4.739   4.628   9.761  0.1077 -0.3509 -0.3642
   45TMC2    O2  710   4.666   4.036   9.714  0.2247  0.0506 -0.2057
   45TMC2    O5  711   0.100   4.178   9.687 -0.5378  0.0066  0.4891
   45TMC2    H5  712   0.117   4.268   9.653  1.5780 -0.2587  0.8072
   46MPD2     C  713   4.118   4.414   9.274  0.3135  0.9557  0.5808
   46MPD2    C1  714   4.164   4.480   9.381 -1.0450 -0.8391  0.2948
   46MPD2    C2  715   4.090   4.587   9.425  0.0996  0.0381 -0.2083
   46MPD2    C3  716   3.965   4.627   9.382  0.0723 -0.5032  0.8452
   46MPD2    C4  717   3.918   4.554   9.275 -0.9132  0.1806  0.3602
   46MPD2    C5  718   3.995   4.446   9.228  0.4429 -0.1039  0.1241
   46MPD2     H  719   4.148   4.656   9.484  2.3980 -1.4347 -0.7260
   46MPD2    H1  720   3.829   4.562   9.214 -1.4287 -2.9456  0.6905
   46MPD2    H2  721   4.176   4.340   9.220 -0.2278 -0.3748  1.8078
   46MPD2    H3  722   3.951   4.395   9.143  0.6511 -0.7960  0.4368
   46MPD2     N  723   3.890   4.735   9.440 -0.1592 -0.1380  0.0133
   46MPD2    H5  724   3.934   0.062   9.501 -0.3648 -0.1774  0.2042
   46MPD2    N1  725   4.296   4.468   9.435  0.5053 -0.0121  0.2580
   46MPD2    H7  726   4.321   4.532   9.510 -0.9158  0.6883  0.1345
   47TMC2    C1  727   1.755   0.947   9.606  0.0264 -0.2049 -0.6266
   47TMC2    C2  728   1.683   1.034   9.683 -0.3078  0.4002 -0.5992
   47TMC2    C3  729   1.546   1.025   9.665 -0.1261  0.2822  0.3135
   47TMC2    C4  730   1.705   0.863   9.510 -0.3728 -0.4650  0.1503
   47TMC2    C5  731   1.570   0.865   9.492  0.5470  0.3695 -0.1321
   47TMC2    C6  732   1.487   0.947   9.569 -0.0979 -0.9529  0.1063
   47TMC2     C  733   1.896   0.976   9.608 -0.5526 -0.5051  0.2003
   47TMC2     O  734   1.931   1.087   9.649 -0.3164  0.0913  0.0149
   47TMC2     H  735   1.725   1.111   9.747 -2.5192  0.5446  0.6829
   47TMC2    H1  736   1.775   0.819   9.439 -0.7708 -1.5327  0.4220
   47TMC2    H2  737   1.379   0.948   9.563 -0.0824 -1.4232 -0.2579
   47TMC2    C7  738   1.501   0.764   9.421 -0.3467  0.0250 -0.3969
   47TMC2    C8  739   1.457   1.087   9.757  0.5023 -0.0668 -0.6983
   47TMC2    O1  740   1.381   0.791   9.412 -0.1410  0.3853  0.6775
   47TMC2    O2  741   1.333   1.087   9.746  0.2866 -0.3596 -0.6345
   47TMC2    O5  742   1.521   1.092   9.873 -0.3239  0.0316 -0.0927
   47TMC2    H5  743   1.614   1.062   9.865 -0.1949 -0.1652  2.2420
   48MPD2     C  744   2.179   0.950   9.600  0.3360 -0.2481  0.1159
   48MPD2    C1  745   2.096   0.839   9.593  0.0108  0.6526 -0.3523
   48MPD2    C2  746   2.138   0.714   9.564  0.5613  0.5054 -0.4841
   48MPD2    C3  747   2.275   0.693   9.541  0.6729  0.4161  0.0881
   48MPD2    C4  748   2.365   0.797   9.544  1.1145 -0.1572  0.0695
   48MPD2    C5  749   2.314   0.924   9.573  0.1333 -0.0947 -0.1594
   48MPD2     H  750   2.068   0.631   9.561  2.5694 -1.1429 -1.6922
   48MPD2    H1  751   2.472   0.787   9.526  1.3995  0.9592  1.1219
   48MPD2    H2  752   2.152   1.052   9.626  1.7731  0.3736 -0.8566
   48MPD2    H3  753   2.373   1.014   9.556 -0.8922  0.8859  1.4870
   48MPD2     N  754   2.320   0.562   9.512  0.3717  0.0971  0.1072
   48MPD2    H5  755   2.242   0.497   9.510 -1.2142  2.0112 -0.4360
   48MPD2    N1  756   1.960   0.855   9.598 -0.0849 -0.4526 -0.7780
   48MPD2    H7  757   1.912   0.766   9.591  0.3640 -0.8052  0.6127
   49TMC2    C1  758   4.476   1.752  10.236 -0.1894 -0.7737  0.7250
   49TMC2    C2  759   4.410   1.794  10.353  0.3082 -0.1667 -0.0370
   49TMC2    C3  760   4.326   1.705  10.399  0.4140  0.9058 -0.3957
   49TMC2    C4  761   4.455   1.636  10.176  0.2895  0.1798 -0.2906
   49TMC2    C5  762   4.349   1.560  10.217  0.4458  0.2410  0.5037
   49TMC2    C6  763   4.276   1.595  10.328 -0.1604 -0.3163 -0.0961
   49TMC2     C  764   4.613   1.807  10.228 -0.6109  0.1324  0.1884
   49TMC2     O  765   4.699   1.755  10.162 -0.0543 -0.3946  0.2594
   49TMC2     H  766   4.429   1.880  10.416  2.1244 -1.0659  0.6412
   49TMC2    H1  767   4.522   1.622  10.092  1.5715 -0.2655  0.7994
   49TMC2    H2  768   4.188   1.541  10.361 -0.4861  0.9036  1.0162
   49TMC2    C7  769   4.332   1.431  10.166  0.5116  0.7006 -0.5256
   49TMC2    C8  770   4.263   1.720  10.532 -0.6328 -0.3223 -0.0004
   49TMC2    O1  771   4.250   1.359  10.225 -0.7714  0.7062 -0.0188
   49TMC2    O2  772   4.274   1.830  10.580  0.1420  0.3711 -0.1508
   49TMC2    O5  773   4.194   1.612  10.577 -0.3054 -1.2106  0.0700
   49TMC2    H5  774   4.195   1.527  10.529 -1.9605 -0.8048 -0.6744
   50MPD2     C  775   0.118   1.968  10.242 -0.8092  0.3678  0.3175
   50MPD2    C1  776   4.736   2.009  10.298  0.3442  0.4021 -0.3669
   50MPD2    C2  777   4.728   2.128  10.373 -0.9656 -0.1770 -0.3364
   50MPD2    C3  778   0.105   2.202  10.401 -1.0262  0.2016 -0.2291
   50MPD2    C4  779   0.218   2.155  10.344 -0.6528 -0.1187  0.1313
   50MPD2    C5  780   0.229   2.043  10.267 -0.1516  0.1406  0.5313
   50MPD2     H  781   4.631   2.164  10.406 -0.8931  2.5468 -3.1640
   50MPD2    H1  782   0.312   2.205  10.362 -0.2413 -0.7534 -0.2434
   50MPD2    H2  783   0.128   1.877  10.185 -1.3404  0.9506 -0.7187
   50MPD2    H3  784   0.331   2.026  10.235  0.3977  0.9501  1.8320
   50MPD2     N  785   0.113   2.330  10.475  0.4564  0.0634 -0.1025
   50MPD2    H5  786   0.209   2.356  10.496  0.7026 -2.4694  1.9626
   50MPD2    N1  787   4.618   1.928  10.277  0.1732 -0.2281 -0.9906
   50MPD2    H7  788   4.531   1.968  10.310 -0.7478 -2.7507 -0.3917
   51TMC2    C1  789   0.951   0.881   0.415 -0.9857 -0.6426 -0.3803
   51TMC2    C2  790   0.872   0.818   0.320  0.0836 -0.5905  0.5791
   51TMC2    C3  791   0.797   0.906   0.244  0.8606 -1.0201  0.5923
   51TMC2    C4  792   0.974   1.013   0.428 -0.6062  0.2590 -0.1849
   51TMC2    C5  793   0.901   1.094   0.344 -0.6963 -0.4048  0.3807
   51TMC2    C6  794   0.807   1.042   0.255 -0.2537  0.3071 -0.0513
   51TMC2     C  795   0.960   0.816   0.541 -0.2240  0.8466 -0.3176
   51TMC2     O  796   0.996   0.891   0.627  0.1770 -0.4767  0.0728
   51TMC2     H  797   0.835   0.717   0.336 -0.2682 -0.8384 -1.7904
   51TMC2    H1  798   1.046   1.053   0.499  1.3606  0.0439 -2.0247
   51TMC2    H2  799   0.738   1.105   0.201  0.6215  0.9534 -0.4054
   51TMC2    C7  800   0.894   1.234   0.384 -0.0579  0.2623 -0.2182
   51TMC2    C8  801   0.724   0.864   0.128  0.1523 -0.3266  0.8376
   51TMC2    O1  802   0.958   1.252   0.489  0.1706 -0.0099 -0.4660
   51TMC2    O2  803   0.672   0.752   0.126 -0.0489  0.4574  0.2732
   51TMC2    O5  804   0.783   0.913   0.015  0.4453 -0.3127  0.5992
   51TMC2    H5  805   0.855   0.977   0.030 -0.0681 -0.0784  2.1625
   52MPD2     C  806   0.851   0.436   0.871  1.0448  0.0740 -0.0317
   52MPD2    C1  807   0.856   0.572   0.888  0.3280 -0.2512 -0.0609
   52MPD2    C2  808   0.879   0.656   0.782 -0.1644 -0.4188  0.2069
   52MPD2    C3  809   0.893   0.605   0.652  0.2534 -0.2372  0.8070
   52MPD2    C4  810   0.873   0.469   0.635 -0.2233  0.2498  0.0328
   52MPD2    C5  811   0.855   0.385   0.745 -0.5213  0.0227 -0.1276
   52MPD2     H  812   0.891   0.761   0.802  0.4604 -0.5966  0.7419
   52MPD2    H1  813   0.875   0.416   0.540 -1.4591  0.8488 -0.3313
   52MPD2    H2  814   0.838   0.371   0.956 -1.7977 -0.2660 -0.7240
   52MPD2    H3  815   0.834   0.280   0.730  1.2657 -0.3655  0.0276
   52MPD2     N  816   0.915   0.690   0.540  0.3044  0.5498 -0.1849
   52MPD2    H5  817   0.908   0.646   0.449  0.2891 -4.2011  2.1165
   52MPD2    N1  818   0.857   0.627   1.011  0.1692  0.3358  0.2342
   52MPD2    H7  819   0.883   0.725   1.013  1.3054  0.0368  0.3128
   53TMC2    C1  820   0.832   0.477  11.688  0.0001 -0.6528  0.4034
   53TMC2    C2  821   0.960   0.510  11.688 -0.0614  0.2788  0.0970
   53TMC2    C3  822   1.016   0.520  11.803 -0.7696 -0.0541 -0.0354
   53TMC2    C4  823   0.753   0.471  11.796 -0.2229  0.0389 -0.1632
   53TMC2    C5  824   0.809   0.504  11.919  0.9325 -0.3641 -0.0712
   53TMC2    C6  825   0.945   0.515  11.924  0.0889 -0.9015  0.3542
   53TMC2     C  826   0.780   0.400  11.570 -0.0943  0.3370 -1.0962
   53TMC2     O  827   0.802   0.444  11.455 -0.2469  0.5209 -0.0421
   53TMC2     H  828   1.020   0.500  11.598 -0.0062  2.2954 -0.0951
   53TMC2    H1  829   0.651   0.437  11.788 -0.0741 -1.0140  2.6705
   53TMC2    H2  830   0.990   0.515  12.023  3.3898  0.0731 -1.1274
   53TMC2    C7  831   0.735   0.448  12.031 -0.1836  0.0278  0.6202
   53TMC2    C8  832   1.144   0.459  11.824  0.4251 -0.1432 -0.4117
   53TMC2    O1  833   0.644   0.374  11.999  0.4957 -0.1741  0.1394
   53TMC2    O2  834   1.204   0.489  11.926  0.0183 -0.0933 -0.2697
   53TMC2    O5  835   1.133   0.340  11.774 -0.7824  0.0984 -0.6361
   53TMC2    H5  836   1.087   0.329  11.688  0.4882  0.2870 -1.3384
   54MPD2     C  837   0.614   0.219  11.394  0.1544  0.2357  0.1322
   54MPD2    C1  838   0.639   0.196  11.526  0.9925 -0.4885 -1.0602
   54MPD2    C2  839   0.596   0.076  11.585  0.1777 -0.3777 -0.4682
   54MPD2    C3  840   0.530   4.718  11.506  0.9241 -0.1610  0.5519
   54MPD2    C4  841   0.494   0.010  11.377 -0.0388 -0.4424 -0.9320
   54MPD2    C5  842   0.539   0.125  11.321 -0.3117 -0.1874 -0.5129
   54MPD2     H  843   0.621   0.061  11.690  2.2681  0.1047 -0.9012
   54MPD2    H1  844   0.434   4.684  11.316 -0.7825  1.9498 -2.8394
   54MPD2    H2  845   0.643   0.312  11.348  1.4786  0.7731  2.0585
   54MPD2    H3  846   0.516   0.129  11.215 -1.2573  0.8416 -0.2771
   54MPD2     N  847   0.484   4.591  11.556 -0.0679  0.2001 -0.4819
   54MPD2    H5  848   0.417   4.548  11.493 -3.7227  2.0636  2.1268
   54MPD2    N1  849   0.721   0.280  11.609  0.3638 -0.1109 -0.5444
   54MPD2    H7  850   0.736   0.256  11.706 -1.6507  1.0664  0.0420
   55TMC2    C1  851   1.988   2.361  17.578 -0.6061 -0.0938 -0.2797
   55TMC2    C2  852   2.025   2.345  17.448  0.1930 -0.0430  0.7444
   55TMC2    C3  853   2.053   2.222  17.402  0.1151  0.2429  0.4749
   55TMC2    C4  854   1.995   2.258  17.667 -0.4918  0.1401 -0.3577
   55TMC2    C5  855   2.039   2.139  17.624  1.1683  0.4485 -0.7045
   55TMC2    C6  856   2.070   2.120  17.492 -0.1717  0.0594 -0.3464
   55TMC2     C  857   1.956   2.495  17.635  0.0465  0.5662 -0.8694
   55TMC2     O  858   1.944   2.505  17.757  0.3025 -0.1465 -0.3520
   55TMC2     H  859   2.022   2.427  17.377  0.1983 -1.7168 -1.1832
   55TMC2    H1  860   1.975   2.279   0.011 -1.8603  1.5588 -0.9005
   55TMC2    H2  861   2.106   2.022  17.460  2.2865  1.2817 -1.3194
   55TMC2    C7  862   2.098   2.054  17.730  0.5153 -0.3046  0.3607
   55TMC2    C8  863   2.074   2.195  17.267 -0.0691  0.5517  0.2205
   55TMC2    O1  864   2.191   1.985  17.692  0.7742  0.4044 -0.3314
   55TMC2    O2  865   2.152   2.105  17.241  0.0768 -0.3062  0.7051
   55TMC2    O5  866   2.014   2.283  17.182  0.3924 -0.2498  0.3434
   55TMC2    H5  867   1.951   2.350  17.217  1.0072  1.3146 -1.5322
   56MPD2     C  868   1.932   2.816  17.462 -0.2468  0.0511  0.3768
   56MPD2    C1  869   1.911   2.727  17.567  0.4046  0.5329  0.7018
   56MPD2    C2  870   1.846   2.769  17.683 -0.4466 -0.7677  0.5071
   56MPD2    C3  871   1.814   2.903  17.704  0.4572  0.2354  0.3682
   56MPD2    C4  872   1.852   2.989  17.609  0.7437 -0.1332 -0.1048
   56MPD2    C5  873   1.916   2.947  17.492 -0.0608  0.0823  0.5200
   56MPD2     H  874   1.818   2.697  17.760 -2.2225 -0.0319  0.5613
   56MPD2    H1  875   1.821   3.093  17.598 -0.6468 -0.6112 -0.6697
   56MPD2    H2  876   1.966   2.794  17.362 -2.4446 -2.2681  0.1369
   56MPD2    H3  877   1.924   3.014  17.408  0.6069 -2.1911 -1.2313
   56MPD2     N  878   1.737   2.943   0.055 -0.3582  0.0117 -0.3569
   56MPD2    H5  879   1.684   2.873   0.105  0.4778 -1.4869 -1.5512
   56MPD2    N1  880   1.942   2.590  17.540 -0.6953 -0.4705  0.1764
   56MPD2    H7  881   1.961   2.570  17.442 -0.2564  0.0261  0.1553
   57TMC2    C1  882   0.810   3.785  13.086 -0.7036 -0.5731 -0.3693
   57TMC2    C2  883   0.751   3.785  12.967 -0.0261  0.0782  0.3727
   57TMC2    C3  884   0.826   3.819  12.859 -0.3048  0.5011 -0.4399
   57TMC2    C4  885   0.939   3.826  13.102 -1.0583  0.2978 -0.6079
   57TMC2    C5  886   1.004   3.871  12.993 -0.4399  0.2814  0.3239
   57TMC2    C6  887   0.952   3.866  12.872  0.1175  0.4781 -0.3370
   57TMC2     C  888   0.750   3.725  13.201 -0.4962  0.5613 -0.1971
   57TMC2     O  889   0.781   3.753  13.316 -0.6217 -0.4336  0.3604
   57TMC2     H  890   0.648   3.754  12.958 -0.5389  2.3490 -1.5309
   57TMC2    H1  891   0.990   3.826  13.198 -2.6383  4.0555  0.2132
   57TMC2    H2  892   1.024   3.887  12.793  1.4462 -0.8295  0.5207
   57TMC2    C7  893   1.150   3.874  13.002 -0.6623 -0.3628  0.5210
   57TMC2    C8  894   0.760   3.826  12.733 -0.4440 -0.9322 -0.0679
   57TMC2    O1  895   1.196   3.980  13.050 -0.5359 -0.3055 -0.6139
   57TMC2    O2  896   0.641   3.805  12.726  0.2013 -0.4448 -0.4525
   57TMC2    O5  897   0.813   3.922  12.660  0.0967 -0.0779 -0.0957
   57TMC2    H5  898   0.911   3.930  12.662 -0.0558  1.8685  0.0991
   58MPD2     C  899   0.428   3.355  13.351  0.2168 -0.4287 -0.8436
   58MPD2    C1  900   0.485   3.452  13.432  0.5289  0.7403 -0.9419
   58MPD2    C2  901   0.575   3.538  13.368  0.4401  0.0674  0.2785
   58MPD2    C3  902   0.598   3.530  13.230  0.3281 -0.6934 -1.0004
   58MPD2    C4  903   0.549   3.417  13.158  0.3200  0.5612 -1.0557
   58MPD2    C5  904   0.461   3.332  13.223  0.1204 -0.3269  0.4159
   58MPD2     H  905   0.628   3.610  13.429  2.2872 -0.7822 -0.3468
   58MPD2    H1  906   0.572   3.391  13.055  0.2591  0.0313 -0.9347
   58MPD2    H2  907   0.357   3.282  13.388 -0.0336  0.5697  0.6288
   58MPD2    H3  908   0.430   3.243  13.170 -0.7209  1.0616 -1.4254
   58MPD2     N  909   0.678   3.618  13.157  0.2254  0.1056  0.2150
   58MPD2    H5  910   0.688   3.606  13.057 -1.2791 -2.7574  0.4142
   58MPD2    N1  911   0.465   3.473  13.566  0.0321 -0.3499 -0.1330
   58MPD2    H7  912   0.520   3.548  13.608  0.2505  0.2657 -1.5048
   59TMC2    C1  913   3.180   3.452  12.982  0.1101  0.5514  0.4591
   59TMC2    C2  914   3.301   3.512  12.943  0.2986  0.2261  0.4946
   59TMC2    C3  915   3.312   3.553  12.811  0.3246 -0.5033  0.5833
   59TMC2    C4  916   3.076   3.448  12.893  0.2528 -0.0227 -0.2392
   59TMC2    C5  917   3.096   3.492  12.762  0.3379  0.1725  0.7306
   59TMC2    C6  918   3.217   3.535  12.715 -0.1617 -0.0239 -0.3440
   59TMC2     C  919   3.156   3.409  13.117 -0.1482  0.1422  0.3257
   59TMC2     O  920   3.041   3.411  13.153  0.5920 -0.4689  0.0779
   59TMC2     H  921   3.380   3.534  13.014 -0.2738  0.6032  1.0266
   59TMC2    H1  922   2.989   3.390  12.922 -1.8064  2.9095 -0.5027
   59TMC2    H2  923   3.233   3.575  12.616 -0.2484 -1.5340 -0.9667
   59TMC2    C7  924   2.981   3.470  12.678  0.1419  0.5952 -0.7683
   59TMC2    C8  925   3.401   3.657  12.773  0.0332 -0.3568 -0.5163
   59TMC2    O1  926   2.873   3.426  12.723  0.9743 -0.0866 -0.3125
   59TMC2    O2  927   3.461   3.664  12.664 -0.5925  0.5636 -0.1985
   59TMC2    O5  928   3.348   3.765  12.841  0.8131  0.1218  0.0666
   59TMC2    H5  929   3.284   3.740  12.910 -0.1736 -0.3216 -1.0197
   60MPD2     C  930   3.197   3.392  13.407  0.1755  0.2652 -0.3140
   60MPD2    C1  931   3.301   3.387  13.320 -0.6564 -0.4971 -0.1609
   60MPD2    C2  932   3.431   3.392  13.365  0.0370 -0.0229 -0.8558
   60MPD2    C3  933   3.455   3.405  13.499  0.4606  0.2439 -0.1624
   60MPD2    C4  934   3.350   3.408  13.588 -0.1155  0.7826  0.5444
   60MPD2    C5  935   3.222   3.398  13.540 -0.3859  0.3828 -0.6628
   60MPD2     H  936   3.511   3.398  13.293 -1.5899  0.7573 -2.5894
   60MPD2    H1  937   3.361   3.407  13.695  1.4855  0.4716  0.3679
   60MPD2    H2  938   3.093   3.399  13.379  0.6405 -1.3549 -2.3981
   60MPD2    H3  939   3.140   3.409  13.610 -0.3103  0.0898 -0.5293
   60MPD2     N  940   3.584   3.431  13.550 -0.5243  0.1200  0.1959
   60MPD2    H5  941   3.584   3.485  13.636  1.2779 -0.3299  0.4673
   60MPD2    N1  942   3.276   3.386  13.181 -0.0102  0.3183 -0.1229
   60MPD2    H7  943   3.364   3.383  13.131 -0.4340  3.1416 -1.0395
   61TMC2    C1  944   2.561   4.551  15.323  0.3695 -0.1881 -0.1767
   61TMC2    C2  945   2.480   4.515  15.424 -0.1481 -0.2035  0.8423
   61TMC2    C3  946   2.398   4.613  15.472  0.0042  0.1153  0.6858
   61TMC2    C4  947   2.554   4.678  15.261 -0.3207  0.8903 -0.1651
   61TMC2    C5  948   2.462   0.026  15.310 -0.2877  0.3390 -0.4734
   61TMC2    C6  949   2.378   4.736  15.421  0.2099 -0.6682  0.2684
   61TMC2     C  950   2.676   4.468  15.304 -0.2902  0.4397  0.0738
   61TMC2     O  951   2.714   4.410  15.406 -0.5575  0.5077  0.1220
   61TMC2     H  952   2.493   4.416  15.466  1.1519 -0.0174  0.8594
   61TMC2    H1  953   2.627   4.716  15.192 -1.6049  1.3301 -1.2760
   61TMC2    H2  954   2.322   0.072  15.473 -0.5983 -2.4670  2.0551
   61TMC2    C7  955   2.478   0.174  15.265  0.2035 -0.2417  0.3294
   61TMC2    C8  956   2.352   4.605  15.608  0.1770  0.1368 -0.0001
   61TMC2    O1  957   2.587   0.205  15.220 -0.1168  0.5545 -0.4954
   61TMC2    O2  958   2.272   4.689  15.653 -1.0576 -0.1746  0.5389
   61TMC2    O5  959   2.447   4.551  15.685 -0.0325  0.4230 -0.0250
   61TMC2    H5  960   2.525   4.509  15.643 -1.0276 -0.3589 -1.1118
   62MPD2     C  961   2.959   4.403  15.246  0.0008 -0.4630 -0.5640
   62MPD2    C1  962   2.870   4.460  15.150  0.5499  0.4371 -0.3324
   62MPD2    C2  963   2.911   4.489  15.021  0.5433  0.1540 -0.0337
   62MPD2    C3  964   3.038   4.455  14.986  0.2329 -0.5311 -0.1003
   62MPD2    C4  965   3.125   4.396  15.074  0.1683 -0.4425 -0.3643
   62MPD2    C5  966   3.089   4.377  15.201 -0.3136  0.5038 -0.1641
   62MPD2     H  967   2.846   4.540  14.951  1.1883  3.5337  1.8202
   62MPD2    H1  968   3.229   4.378  15.049  0.6932  1.0321  0.7724
   62MPD2    H2  969   2.939   4.395  15.352 -1.4859  1.1613 -0.7251
   62MPD2    H3  970   3.156   4.340  15.277  0.6982 -0.7656 -1.6797
   62MPD2     N  971   3.089   4.495  14.858 -0.0793 -0.2533 -0.0589
   62MPD2    H5  972   3.190   4.502  14.851 -0.1213 -0.1617 -0.6194
   62MPD2    N1  973   2.738   4.499  15.186 -0.2281  0.6116  0.2854
   62MPD2    H7  974   2.685   4.553  15.119 -2.7283 -0.8345  1.0801
   63TMC2    C1  975   2.658   0.253  10.803  0.1591 -0.0325 -0.2720
   63TMC2    C2  976   2.771   0.319  10.848  0.0520  0.2232 -0.0618
   63TMC2    C3  977   2.805   0.432  10.773 -0.0641  0.3083 -0.2183
   63TMC2    C4  978   2.595   0.285  10.690  0.1018  0.8067  0.2380
   63TMC2    C5  979   2.639   0.395  10.622  0.0621 -0.3065  0.6368
   63TMC2    C6  980   2.737   0.479  10.669 -0.4039  0.3167  0.3448
   63TMC2     C  981   2.569   0.212  10.909  0.2813  0.0667  0.0070
   63TMC2     O  982   2.584   0.265  11.017  0.2205 -0.2618 -0.0863
   63TMC2     H  983   2.822   0.286  10.938  0.9578  1.7701  0.0048
   63TMC2    H1  984   2.513   0.232  10.644 -0.6947  0.4788  2.0634
   63TMC2    H2  985   2.770   0.569  10.619  1.3635  0.1762  1.2919
   63TMC2    C7  986   2.553   0.432  10.512 -0.3904 -0.0988  0.4697
   63TMC2    C8  987   2.909   0.522  10.823  0.3396  0.5931 -0.3616
   63TMC2    O1  988   2.464   0.356  10.474 -0.3707 -0.4533 -0.6940
   63TMC2    O2  989   2.893   0.640  10.833 -0.0123  0.2444 -0.0293
   63TMC2    O5  990   3.025   0.461  10.808  0.6326  0.0163 -0.8147
   63TMC2    H5  991   3.008   0.365  10.801  0.1564  0.0612 -0.2848
   64MPD2     C  992   2.156   4.712  11.111 -0.3562  0.3518  0.4421
   64MPD2    C1  993   2.182   4.663  10.984 -0.3913  0.8403 -0.0120
   64MPD2    C2  994   2.281   4.725  10.906 -0.1791  0.1831 -0.0187
   64MPD2    C3  995   2.365   0.077  10.955 -0.0706  0.0233 -0.3442
   64MPD2    C4  996   2.340   0.124  11.089 -0.5503 -0.2072  0.3552
   64MPD2    C5  997   2.236   0.078  11.165 -0.0411 -0.1387  0.5085
   64MPD2     H  998   2.296   4.678  10.809 -0.3434  0.5151 -0.2058
   64MPD2    H1  999   2.390   0.206  11.139 -0.1030  0.6118 -1.4180
   64MPD2    H2 1000   2.078   4.678  11.179 -1.0616  1.8849  0.3936
   64MPD2    H3 1001   2.212   0.128  11.258  0.7532 -1.2639  1.3190
   64MPD2     N 1002   2.469   0.125  10.867  0.0786  0.5491 -0.4186
   64MPD2    H5 1003   2.459   0.095  10.771  0.5630  1.0290 -0.6215
   64MPD2    N1 1004   2.116   4.547  10.936 -0.1803  0.1708 -0.1143
   64MPD2    H7 1005   2.137   4.523  10.840  0.0901  1.4032 -0.3692
   65TMC2    C1 1006   3.553   4.437  15.205 -0.5763  0.2917 -0.8496
   65TMC2    C2 1007   3.640   4.427  15.100  0.1350 -0.1364 -0.0107
   65TMC2    C3 1008   3.605   4.491  14.986 -0.7680 -0.1455 -0.0654
   65TMC2    C4 1009   3.446   4.527  15.201 -0.3468 -1.0700  1.0844
   65TMC2    C5 1010   3.433   4.600  15.086 -0.3918 -0.0777 -0.1921
   65TMC2    C6 1011   3.509   4.582  14.977  0.3713 -0.7578 -0.0176
   65TMC2     C 1012   3.599   4.381  15.326  0.0031 -0.3915 -0.3950
   65TMC2     O 1013   3.719   4.380  15.347 -0.3434  0.3654 -0.5733
   65TMC2     H 1014   3.727   4.362  15.110  1.1566  1.2188 -0.1055
   65TMC2    H1 1015   3.388   4.548  15.290 -0.1898  2.7662  0.3092
   65TMC2    H2 1016   3.479   4.623  14.881  0.1404 -0.1292  0.3281
   65TMC2    C7 1017   3.325   4.695  15.066 -0.2681 -0.7168  0.0513
   65TMC2    C8 1018   3.664   4.432  14.870 -0.3893 -0.4581 -0.7488
   65TMC2    O1 1019   3.289   4.733  14.956  0.3185 -0.8374  0.0358
   65TMC2    O2 1020   3.709   4.317  14.879 -0.5172 -0.0876  0.1906
   65TMC2    O5 1021   3.679   4.511  14.757  0.2635  0.0393 -0.1891
   65TMC2    H5 1022   3.660   4.606  14.773  0.4593 -0.0922  0.8385
   66MPD2     C 1023   3.614   4.246  15.583 -0.1436  0.5502  0.3314
   66MPD2    C1 1024   3.499   4.239  15.510 -0.0615  0.6570  0.2732
   66MPD2    C2 1025   3.410   4.139  15.549 -0.5678  0.1405 -0.1222
   66MPD2    C3 1026   3.438   4.042  15.648  0.1362  0.8416 -0.7167
   66MPD2    C4 1027   3.557   4.058  15.711 -0.0473 -0.5105  0.0133
   66MPD2    C5 1028   3.640   4.157  15.682 -0.2369  0.2730 -0.0115
   66MPD2     H 1029   3.317   4.135  15.494  0.8177 -0.1786 -2.4472
   66MPD2    H1 1030   3.584   3.994  15.794  0.4355 -0.8530 -0.4066
   66MPD2    H2 1031   3.687   4.325  15.570 -2.6704  2.6164 -1.2479
   66MPD2    H3 1032   3.731   4.171  15.738  0.5936 -0.1467 -1.2775
   66MPD2     N 1033   3.354   3.930  15.671  0.8734  0.4294  0.2865
   66MPD2    H5 1034   3.383   3.860  15.739  0.0561 -2.0763 -1.9403
   66MPD2    N1 1035   3.490   4.314  15.389 -0.5589  0.4374  0.1346
   66MPD2    H7 1036   3.402   4.311  15.338 -0.4460 -1.2747  0.0261
   67TMC2    C1 1037   3.421   3.443  14.301  0.2239 -1.0296  0.3062
   67TMC2    C2 1038   3.349   3.564  14.297 -0.3495  0.4385 -0.3341
   67TMC2    C3 1039   3.380   3.663  14.383  0.2901 -0.2563  0.3881
   67TMC2    C4 1040   3.506   3.427  14.405  0.6642 -0.1857  0.4935
   67TMC2    C5 1041   3.545   3.534  14.485  0.3294 -0.3292 -0.5784
   67TMC2    C6 1042   3.487   3.656  14.470  0.8071 -0.4212  0.2323
   67TMC2     C 1043   3.404   3.326  14.224  0.3188  0.6416  0.5847
   67TMC2     O 1044   3.445   3.216  14.265  0.0855  0.6216  0.2580
   67TMC2     H 1045   3.254   3.572  14.247 -1.0712  1.5354  1.2091
   67TMC2    H1 1046   3.560   3.333  14.416  0.5528 -0.4884 -1.5628
   67TMC2    H2 1047   3.495   3.740  14.538  1.5567 -1.9510  2.0388
   67TMC2    C7 1048   3.661   3.512  14.574 -0.3789  0.6308 -0.7424
   67TMC2    C8 1049   3.319   3.793  14.371 -0.2362 -0.0750 -0.2313
   67TMC2    O1 1050   3.733   3.419  14.542 -0.4749  0.0872  0.1852
   67TMC2    O2 1051   3.332   3.888  14.451 -0.1881 -0.2527  0.0359
   67TMC2    O5 1052   3.293   3.823  14.243  0.0283  0.2366 -0.3860
   67TMC2    H5 1053   3.307   3.752  14.177  2.8638  0.1645  0.2572
   68MPD2     C 1054   3.312   3.110  14.017 -0.1033 -0.5386  0.1763
   68MPD2    C1 1055   3.264   3.240  14.029 -0.4543 -0.0767  0.7385
   68MPD2    C2 1056   3.157   3.284  13.950 -0.4872  0.1033 -0.0665
   68MPD2    C3 1057   3.095   3.198  13.865  0.4501  0.7479 -0.2931
   68MPD2    C4 1058   3.147   3.073  13.855 -0.2345 -0.5585 -0.6543
   68MPD2    C5 1059   3.255   3.028  13.923 -0.8475  0.2793  0.3747
   68MPD2     H 1060   3.122   3.386  13.961 -1.2647 -0.2584  0.7550
   68MPD2    H1 1061   3.097   3.004  13.788  0.0764 -2.0337  0.6488
   68MPD2    H2 1062   3.383   3.069  14.088  0.3591  0.0798  0.0740
   68MPD2    H3 1063   3.290   2.929  13.895 -0.0206  0.3327  1.2215
   68MPD2     N 1064   2.986   3.217  13.774  0.2229  0.0055 -0.1275
   68MPD2    H5 1065   2.965   3.136  13.717 -0.7269  1.8433 -2.3813
   68MPD2    N1 1066   3.322   3.339  14.114 -0.2138 -0.4814  0.2196
   68MPD2    H7 1067   3.310   3.437  14.090  0.1724 -1.0511 -2.2362
   69TMC2    C1 1068   0.290   0.657  12.304  0.1980 -0.8847  0.3365
   69TMC2    C2 1069   0.191   0.631  12.223 -0.2392  0.2837 -0.2203
   69TMC2    C3 1070   0.192   0.685  12.097 -0.2096  0.2134  0.1750
   69TMC2    C4 1071   0.403   0.725  12.260  0.9116  0.5011 -0.1609
   69TMC2    C5 1072   0.412   0.760  12.126 -0.4696  0.3680 -0.3694
   69TMC2    C6 1073   0.305   0.742  12.040  0.5685  0.8614 -0.3829
   69TMC2     C 1074   0.305   0.566  12.415  0.3632  1.0667  0.6777
   69TMC2     O 1075   0.276   0.446  12.410  0.0016  0.2494 -0.3855
   69TMC2     H 1076   0.127   0.548  12.254  2.3177 -0.7096  2.3792
   69TMC2    H1 1077   0.488   0.738  12.326  0.6231  1.1013  0.0852
   69TMC2    H2 1078   0.309   0.774  11.937 -1.4734 -0.0479 -0.7431
   69TMC2    C7 1079   0.536   0.821  12.083  0.8179 -0.2937 -0.9419
   69TMC2    C8 1080   0.086   0.656  11.992  0.4758  0.4727  0.4931
   69TMC2    O1 1081   0.612   0.864  12.168 -0.6801  0.7847 -0.2861
   69TMC2    O2 1082   0.116   0.645  11.875 -0.2496  0.6112 -0.3866
   69TMC2    O5 1083   4.699   0.663  12.036  0.7619 -0.3310 -0.5939
   69TMC2    H5 1084   4.697   0.671  12.134  0.7635 -1.4598 -0.4956
   70MPD2     C 1085   0.424   0.683  12.749  1.0049  0.2906  0.3688
   70MPD2    C1 1086   0.386   0.589  12.651 -0.1296 -0.2126  0.0244
   70MPD2    C2 1087   0.404   0.455  12.678  0.5729  0.3858 -0.1262
   70MPD2    C3 1088   0.446   0.426  12.808 -0.0431  0.8753 -0.1213
   70MPD2    C4 1089   0.483   0.518  12.902 -0.6177 -0.2191  0.4102
   70MPD2    C5 1090   0.469   0.652  12.875  0.1750 -0.0325 -0.0708
   70MPD2     H 1091   0.398   0.379  12.601 -4.0921 -0.3547  0.9794
   70MPD2    H1 1092   0.532   0.496  12.997  1.2607  0.1606 -0.4750
   70MPD2    H2 1093   0.416   0.790  12.732 -0.0639  0.0724 -0.4810
   70MPD2    H3 1094   0.491   0.726  12.951  1.8618 -1.8498  1.1929
   70MPD2     N 1095   0.456   0.297  12.850  0.7402  0.1550  0.1161
   70MPD2    H5 1096   0.498   0.291  12.942 -0.2835 -0.3899  0.5486
   70MPD2    N1 1097   0.358   0.637  12.522 -0.0049  0.1563 -0.7668
   70MPD2    H7 1098   0.359   0.738  12.508  0.2631  0.2074 -0.3805
   71TMC2    C1 1099   3.029   0.591   1.235  0.4815  0.3921 -0.1526
   71TMC2    C2 1100   3.091   0.680   1.317 -0.1968 -0.7768 -0.1779
   71TMC2    C3 1101   3.024   0.753   1.414 -0.5641 -0.0303 -0.2736
   71TMC2    C4 1102   2.892   0.571   1.257  0.5395  0.6411 -0.1532
   71TMC2    C5 1103   2.827   0.648   1.348  0.2604 -0.0005 -0.0127
   71TMC2    C6 1104   2.890   0.734   1.437 -0.0205 -0.2410  0.4096
   71TMC2     C 1105   3.083   0.572   1.104  0.8887  0.4673 -0.2126
   71TMC2     O 1106   3.181   0.636   1.069 -0.2326 -0.4928 -0.1636
   71TMC2     H 1107   3.194   0.704   1.295 -0.5530  1.6396  0.7780
   71TMC2    H1 1108   2.830   0.505   1.198  0.1959  1.2757 -0.5116
   71TMC2    H2 1109   2.837   0.783   1.518  2.1181  1.0849  0.9905
   71TMC2    C7 1110   2.693   0.620   1.384  0.3792 -0.2815  0.1309
   71TMC2    C8 1111   3.100   0.863   1.470  0.1840  0.2726  0.5572
   71TMC2    O1 1112   2.666   0.621   1.502  0.9004  0.4707  0.6179
   71TMC2    O2 1113   3.151   0.954   1.404  0.3247 -0.9698  0.1280
   71TMC2    O5 1114   3.037   0.872   1.588  0.6784 -0.1975  0.1101
   71TMC2    H5 1115   3.031   0.782   1.627 -0.3869 -1.2976 -2.5552
   72MPD2     C 1116   3.036   0.362   0.650  0.2836  0.0253  0.9762
   72MPD2    C1 1117   3.102   0.485   0.680 -0.1235  0.4315 -0.1112
   72MPD2    C2 1118   3.091   0.528   0.813 -0.0348 -0.8933  0.1853
   72MPD2    C3 1119   3.014   0.460   0.902  0.1325  0.4608 -0.0129
   72MPD2    C4 1120   2.957   0.342   0.867  0.4838  1.0179  1.0206
   72MPD2    C5 1121   2.973   0.288   0.744 -0.1646  0.1509 -0.0601
   72MPD2     H 1122   3.147   0.619   0.833 -2.5524  0.2041  2.2234
   72MPD2    H1 1123   2.875   0.296   0.921  0.2968  0.5752  0.3588
   72MPD2    H2 1124   3.045   0.322   0.549  0.3027  0.6500  0.7321
   72MPD2    H3 1125   2.926   0.193   0.720  2.0961 -0.1744 -3.2591
   72MPD2     N 1126   3.012   0.480   1.036 -0.2630  0.4351 -0.0821
   72MPD2    H5 1127   2.966   0.404   1.084 -0.2861  0.3641 -0.2156
   72MPD2    N1 1128   3.172   0.562   0.584 -0.0143 -0.1762 -0.4018
   72MPD2    H7 1129   3.214   0.650   0.614 -2.0058  0.2869  1.0456
   73TMC2    C1 1130   2.393   2.615  14.159 -0.1328 -0.5188 -0.3394
   73TMC2    C2 1131   2.399   2.717  14.252  0.2592  0.0773  0.1378
   73TMC2    C3 1132   2.472   2.686  14.369  0.3688  0.2227 -0.9115
   73TMC2    C4 1133   2.468   2.503  14.173 -0.1479 -0.6601 -0.1358
   73TMC2    C5 1134   2.568   2.502  14.263  0.6725  0.0024 -0.4718
   73TMC2    C6 1135   2.565   2.585  14.370  0.3290 -1.3620  0.1735
   73TMC2     C 1136   2.398   2.665  14.025  0.0609  0.0705  0.2337
   73TMC2     O 1137   2.424   2.577  13.948  0.3206  0.2140  0.3824
   73TMC2     H 1138   2.309   2.777  14.255  0.2966  0.1796 -0.7468
   73TMC2    H1 1139   2.467   2.423  14.099 -0.7798 -0.0386 -0.7955
   73TMC2    H2 1140   2.646   2.591  14.442 -1.9351 -1.2313  2.7284
   73TMC2    C7 1141   2.700   2.485  14.194  0.9389  0.8033  0.2189
   73TMC2    C8 1142   2.467   2.780  14.479  1.0783  0.0196 -0.0798
   73TMC2    O1 1143   2.793   2.450  14.268  0.0142 -0.2715  0.4578
   73TMC2    O2 1144   2.523   2.756  14.586 -0.0001 -0.1752  0.2291
   73TMC2    O5 1145   2.471   2.897  14.403  0.0517 -0.4175 -0.5533
   73TMC2    H5 1146   2.487   2.871  14.309  1.1771  1.7175 -0.9451
   74MPD2     C 1147   2.417   3.005  13.627  0.7936  0.2501  0.0016
   74MPD2    C1 1148   2.436   2.866  13.631  0.1360  0.3371 -0.2951
   74MPD2    C2 1149   2.425   2.797  13.752  0.7052  0.2489 -0.6666
   74MPD2    C3 1150   2.388   2.865  13.871  0.1712 -0.0808 -0.3448
   74MPD2    C4 1151   2.367   3.001  13.860  0.5367 -0.6602  0.3366
   74MPD2    C5 1152   2.393   3.073  13.743 -0.7022 -0.1025  0.2351
   74MPD2     H 1153   2.440   2.690  13.746 -2.9190 -0.1916 -2.4037
   74MPD2    H1 1154   2.334   3.061  13.944  1.8444 -0.3777  0.6596
   74MPD2    H2 1155   2.421   3.058  13.532 -0.2907  0.7673  0.2519
   74MPD2    H3 1156   2.393   3.181  13.730 -2.0444 -0.4620 -2.9112
   74MPD2     N 1157   2.367   2.800  13.999  0.1461  0.0409  0.0084
   74MPD2    H5 1158   2.346   2.853  14.083 -1.6499  0.9417 -1.0171
   74MPD2    N1 1159   2.494   2.812  13.517  0.3692 -0.5243 -0.1422
   74MPD2    H7 1160   2.516   2.874  13.440  0.5333 -1.7880 -1.1131
   75TMC2    C1 1161   2.846   3.360  13.641 -0.6760  0.4323  0.3607
   75TMC2    C2 1162   2.831   3.252  13.561  0.3024  0.2649 -0.8143
   75TMC2    C3 1163   2.770   3.262  13.443  0.0569 -0.1424 -0.5249
   75TMC2    C4 1164   2.803   3.484  13.606  0.3491 -0.1849  0.9588
   75TMC2    C5 1165   2.748   3.490  13.478  0.2942 -1.2858  0.4214
   75TMC2    C6 1166   2.733   3.385  13.393 -0.1641  0.6641  0.1444
   75TMC2     C 1167   2.922   3.341  13.765 -0.1025  0.2928  0.0788
   75TMC2     O 1168   2.937   3.444  13.828  0.6705 -0.2089 -0.5216
   75TMC2     H 1169   2.857   3.152  13.595 -1.3832  0.3861  0.9065
   75TMC2    H1 1170   2.809   3.564  13.680 -0.4364 -0.1806  1.0099
   75TMC2    H2 1171   2.701   3.391  13.289 -0.3930  1.9946  0.2913
   75TMC2    C7 1172   2.682   3.611  13.435  1.1885 -0.2196  0.3050
   75TMC2    C8 1173   2.715   3.138  13.390 -0.0364  0.6167 -0.1020
   75TMC2    O1 1174   2.653   3.621  13.319 -0.3007  0.3935 -0.0837
   75TMC2    O2 1175   2.698   3.038  13.457 -0.0708 -0.1402 -0.1256
   75TMC2    O5 1176   2.696   3.141  13.257  0.1740 -0.5531  0.1159
   75TMC2    H5 1177   2.735   3.218  13.212 -0.0533 -1.2867 -1.3302
   76TMC2    C1 1178   0.964   0.001  12.179 -0.2124  0.8337 -0.9911
   76TMC2    C2 1179   0.824   4.711  12.176  0.2880  0.0546  0.2629
   76TMC2    C3 1180   0.787   4.596  12.108  0.5446 -0.0267  0.9841
   76TMC2    C4 1181   1.052   4.665  12.109 -0.3317  0.3077  0.1436
   76TMC2    C5 1182   1.015   4.549  12.049  0.1283  0.1865  0.4750
   76TMC2    C6 1183   0.882   4.524  12.042 -0.8752 -0.4498 -0.0898
   76TMC2     C 1184   1.012   0.130  12.186 -0.6457  0.7963  0.2868
   76TMC2     O 1185   1.011   0.195  12.080  0.1792  0.0500 -0.3729
   76TMC2     H 1186   0.750   0.035  12.221 -0.7044 -0.4169 -0.7043
   76TMC2    H1 1187   1.154   4.701  12.111  0.6526 -2.3852 -2.1491
   76TMC2    H2 1188   0.848   4.436  11.988 -2.3318 -0.3845  0.7127
   76TMC2    C7 1189   1.107   4.482  11.957  0.6045  0.0794 -0.0156
   76TMC2    C8 1190   0.668   4.535  12.148 -0.5148  0.2789  0.3319
   76TMC2    O1 1191   1.053   4.432  11.859  0.6618  0.3443  0.8183
   76TMC2    O2 1192   0.616   4.436  12.097 -0.0335  0.1893 -0.2568
   76TMC2    O5 1193   0.678   4.567  12.277  0.1411  0.3445 -0.2433
   76TMC2    H5 1194   0.771   4.573  12.308  0.1711  0.8054 -0.4325
   77MPD2     C 1195   1.296   0.483  12.423 -0.3329 -0.7716  0.1528
   77MPD2    C1 1196   1.269   0.464  12.289 -0.7416 -0.4750  0.1251
   77MPD2    C2 1197   1.192   0.358  12.255  0.3127 -0.0218  0.6813
   77MPD2    C3 1198   1.136   0.274  12.345 -0.4880  0.1845  0.7602
   77MPD2    C4 1199   1.163   0.293  12.480 -0.6078 -0.4909 -0.2864
   77MPD2    C5 1200   1.247   0.394  12.518  0.7879 -1.0870 -0.3863
   77MPD2     H 1201   1.148   0.352  12.156  0.3810 -0.8481  0.7047
   77MPD2    H1 1202   1.117   0.232  12.556 -1.0887 -0.4372 -0.5335
   77MPD2    H2 1203   1.360   0.565  12.453 -0.2172 -1.3370  1.4879
   77MPD2    H3 1204   1.254   0.418  12.623 -0.6202  1.5172 -0.8782
   77MPD2     N 1205   1.054   0.166  12.309  0.1920  0.0190  0.3383
   77MPD2    H5 1206   1.024   0.098  12.379  2.9020 -0.5974  0.9033
   77MPD2    N1 1207   1.312   0.549  12.180  0.1493 -0.5097  0.4966
   77MPD2    H7 1208   1.289   0.529  12.083 -1.3299 -0.4421  0.8366
   78TMC2    C1 1209   3.037   1.260   1.278 -0.2695  0.0082  0.2135
   78TMC2    C2 1210   3.004   1.387   1.306  0.6267  0.2450  0.5596
   78TMC2    C3 1211   3.106   1.469   1.346  0.5567  0.1024  0.2454
   78TMC2    C4 1212   3.162   1.209   1.283 -0.3168 -0.5063 -1.2423
   78TMC2    C5 1213   3.266   1.294   1.323 -0.0074  0.1189 -0.3995
   78TMC2    C6 1214   3.237   1.430   1.353 -0.0059 -0.5351  0.2703
   78TMC2     C 1215   2.920   1.180   1.233 -0.4480 -0.3466 -0.1336
   78TMC2     O 1216   2.809   1.229   1.261 -0.4600 -0.3741 -0.8136
   78TMC2     H 1217   2.907   1.434   1.291  0.4605  0.3864  2.1314
   78TMC2    H1 1218   3.188   1.112   1.241 -0.5445 -0.5394 -1.3118
   78TMC2    H2 1219   3.308   1.493   1.405  0.2963 -1.4731  0.9881
   78TMC2    C7 1220   3.400   1.247   1.305 -0.8512  1.3471  0.7321
   78TMC2    C8 1221   3.067   1.593   1.406 -0.6119 -0.4662 -0.1706
   78TMC2    O1 1222   3.422   1.130   1.301 -0.3056  0.2245  0.3942
   78TMC2    O2 1223   3.141   1.689   1.417 -0.6635 -0.2195  0.1437
   78TMC2    O5 1224   2.952   1.565   1.463 -0.1933  1.4811  0.3927
   78TMC2    H5 1225   2.920   1.473   1.453 -1.0438  1.8062  0.0873
   79MPD1     C 1226   2.716   0.766   1.007 -0.3853  0.9954 -0.0997
   79MPD1    C1 1227   2.661   0.862   1.096  0.6861  0.5121 -0.7919
   79MPD1    C2 1228   2.735   0.957   1.157  0.1852  0.4112 -0.8043
   79MPD1    C3 1229   2.868   0.963   1.120 -0.4513 -0.1334 -0.1559
   79MPD1    C4 1230   2.931   0.864   1.049 -0.6022  0.4585  0.9439
   79MPD1    C5 1231   2.850   0.770   0.997  0.1922  0.0536  0.0776
   79MPD1     H 1232   2.679   1.035   1.208  0.8464  0.4851 -0.1862
   79MPD1    H1 1233   3.039   0.870   1.034 -0.6338  0.9737  0.9157
   79MPD1    H2 1234   2.662   0.691   0.951  0.4507  0.8104 -0.6488
   79MPD1    H3 1235   2.907   0.696   0.941  0.6016  1.2929 -1.1314
   79MPD1     N 1236   2.955   1.067   1.166  0.4231 -0.1589  0.0411
   79MPD1    H5 1237   3.054   1.055   1.149  0.0597 -2.2081 -0.6069
   79MPD1    N1 1238   2.521   0.864   1.102 -0.4937  0.3293 -0.4518
   79MPD1    H6 1239   2.473   0.776   1.084  0.8965  0.0005 -2.5314
   79MPD1    H7 1240   2.493   0.905   1.191  2.2504 -1.0109  1.0367
   80TMC2    C1 1241   1.026   4.085  11.829 -0.4871  0.2766  0.4247
   80TMC2    C2 1242   1.084   4.140  11.717 -0.0096  0.4796  0.5750
   80TMC2    C3 1243   0.997   4.206  11.631 -0.3874 -0.1260  0.5073
   80TMC2    C4 1244   0.899   4.087  11.859  1.0955  0.3144 -0.3013
   80TMC2    C5 1245   0.813   4.154  11.766 -0.3256 -0.5806  0.0294
   80TMC2    C6 1246   0.865   4.214  11.652 -0.2105 -0.6939  0.6796
   80TMC2     C 1247   1.122   4.097  11.938  0.2921 -0.1571 -0.0580
   80TMC2     O 1248   1.240   4.073  11.913 -0.2905  0.4881  0.0149
   80TMC2     H 1249   1.189   4.136  11.694 -0.4551  0.9917 -1.5035
   80TMC2    H1 1250   0.868   4.029  11.945 -0.4757 -0.5097 -1.4394
   80TMC2    H2 1251   0.803   4.267  11.581  2.2401 -1.0559 -1.6832
   80TMC2    C7 1252   0.675   4.115  11.753  0.1596 -0.2953  0.0230
   80TMC2    C8 1253   1.050   4.258  11.504  0.2756  0.3562  0.1069
   80TMC2    O1 1254   0.613   4.134  11.646  0.0028 -0.7251  0.2155
   80TMC2    O2 1255   1.162   4.225  11.461 -0.1954  0.0616  0.2257
   80TMC2    O5 1256   1.019   4.393  11.512  0.2129 -0.1585  0.3519
   80TMC2    H5 1257   0.967   4.422  11.590 -0.7665 -0.8733 -0.0366
   81MPD2     C 1258   1.278   4.156  12.182 -0.3977  0.2688  0.0963
   81MPD2    C1 1259   1.141   4.156  12.170  0.1619  0.4182  0.5534
   81MPD2    C2 1260   1.072   4.204  12.282 -0.0670 -0.4177  0.0524
   81MPD2    C3 1261   1.129   4.241  12.403 -0.0406  0.1407  0.1907
   81MPD2    C4 1262   1.269   4.238  12.413 -0.6377  0.2084 -0.4622
   81MPD2    C5 1263   1.341   4.200  12.298 -0.3775  0.0754 -0.7093
   81MPD2     H 1264   0.969   4.235  12.270  0.4886  0.5477 -2.1168
   81MPD2    H1 1265   1.322   4.264  12.504  1.5893  1.1836 -2.0464
   81MPD2    H2 1266   1.341   4.128  12.098  0.5769 -0.6184  1.1304
   81MPD2    H3 1267   1.448   4.180  12.301 -0.5231 -0.6008  0.1831
   81MPD2     N 1268   1.059   4.295  12.510  0.0196 -0.0910  0.2492
   81MPD2    H5 1269   1.102   4.287  12.602  1.8550  0.8695 -0.5217
   81MPD2    N1 1270   1.064   4.126  12.056 -0.1098 -0.5161  0.4752
   81MPD2    H7 1271   0.964   4.144  12.062  0.0427  0.7369 -0.6214
   82TMC2    C1 1272   3.800   3.090  11.003 -0.4188 -1.0378 -0.3666
   82TMC2    C2 1273   3.917   3.105  11.070 -0.9411  0.2774  0.7904
   82TMC2    C3 1274   3.925   3.047  11.195 -0.5781 -0.3563 -0.1227
   82TMC2    C4 1275   3.690   3.021  11.054  0.2710  0.9970  0.2769
   82TMC2    C5 1276   3.706   2.969  11.183 -0.0419 -0.4641 -0.1272
   82TMC2    C6 1277   3.819   2.987  11.258 -0.3319 -0.8996  0.0624
   82TMC2     C 1278   3.764   3.173  10.890  0.1356 -0.3283 -0.4745
   82TMC2     O 1279   3.664   3.150  10.830 -0.1652 -0.8084 -0.6122
   82TMC2     H 1280   4.006   3.146  11.024 -0.1724 -1.9086  0.3478
   82TMC2    H1 1281   3.597   3.017  10.999 -0.6854 -1.1230  2.0415
   82TMC2    H2 1282   3.830   2.933  11.351 -1.8446  0.0524  0.8004
   82TMC2    C7 1283   3.604   2.881  11.236 -0.0967  0.6366  0.1533
   82TMC2    C8 1284   4.055   3.035  11.249 -0.2336 -0.4788  0.6644
   82TMC2    O1 1285   3.604   2.868  11.358  0.2107  0.1390 -0.3393
   82TMC2    O2 1286   4.148   3.018  11.168 -0.0749 -0.1331 -0.1607
   82TMC2    O5 1287   4.050   3.140  11.334 -0.4242  0.1942 -0.0090
   82TMC2    H5 1288   3.967   3.153  11.385 -0.9493  0.3902 -0.9109
   83MPD2     C 1289   3.821   3.544  10.570  0.2030 -0.0755 -0.3626
   83MPD2    C1 1290   3.706   3.508  10.637 -0.5816  0.8036 -0.1258
   83MPD2    C2 1291   3.721   3.406  10.729  1.1978  0.3271 -0.1835
   83MPD2    C3 1292   3.850   3.357  10.758 -0.5985  0.3392 -0.6439
   83MPD2    C4 1293   3.962   3.411  10.702 -0.0994 -0.0271  0.7016
   83MPD2    C5 1294   3.948   3.504  10.607  0.4913  0.1477  0.3331
   83MPD2     H 1295   3.633   3.374  10.785  1.7985 -1.1597 -0.0954
   83MPD2    H1 1296   4.060   3.369  10.721  0.1610  0.8170  1.2252
   83MPD2    H2 1297   3.823   3.621  10.493  2.7792  1.0125  0.8036
   83MPD2    H3 1298   4.043   3.527  10.560 -0.4505  0.7757 -1.2386
   83MPD2     N 1299   3.867   3.259  10.855 -0.6172 -0.6979 -0.2304
   83MPD2    H5 1300   3.957   3.268  10.901 -0.3733 -1.2019 -0.6120
   83MPD2    N1 1301   3.580   3.549  10.590 -0.5008 -0.3216 -0.2409
   83MPD2    H7 1302   3.582   3.614  10.513  1.7136  2.3965  2.1053
   84TMC2    C1 1303   0.024   2.681  10.772 -0.0321 -0.4478  0.6592
   84TMC2    C2 1304   0.149   2.669  10.817  0.4280  0.0379 -0.6377
   84TMC2    C3 1305   0.236   2.594  10.746 -0.2053  0.0294 -0.3939
   84TMC2    C4 1306   4.718   2.593  10.673  0.2017  0.0577  0.2883
   84TMC2    C5 1307   0.066   2.514  10.607  0.2787 -0.0511 -0.3050
   84TMC2    C6 1308   0.199   2.520  10.637  0.0928  0.6225 -0.2203
   84TMC2     C 1309   4.663   2.776  10.831 -0.7861 -0.6731 -0.4783
   84TMC2     O 1310   4.677   2.813  10.948  0.4168  0.0544  0.6351
   84TMC2     H 1311   0.175   2.741  10.895  0.9702  1.2780 -1.9562
   84TMC2    H1 1312   4.613   2.586  10.647 -0.3703 -0.3182  2.6207
   84TMC2    H2 1313   0.277   2.486  10.570  0.5328 -0.4927  0.8543
   84TMC2    C7 1314   0.013   2.402  10.537  0.3835  0.4420 -0.4847
   84TMC2    C8 1315   0.376   2.615  10.760 -0.7853 -0.6596  0.5299
   84TMC2    O1 1316   4.633   2.375  10.539 -0.1655 -0.0896 -0.1286
   84TMC2    O2 1317   0.463   2.539  10.717  0.2470 -0.0193  0.2267
   84TMC2    O5 1318   0.387   2.747  10.765  0.1900 -0.1887  0.1859
   84TMC2    H5 1319   0.310   2.799  10.794  1.1131  0.1597  2.0013
   85TMC2    C1 1320   1.194   1.117  16.052  0.4632 -0.3353 -0.7397
   85TMC2    C2 1321   1.187   1.232  16.130  0.4664  0.3429  0.1755
   85TMC2    C3 1322   1.252   1.344  16.096 -0.6204  0.5695 -0.1960
   85TMC2    C4 1323   1.267   1.122  15.938  0.2290 -0.7229 -0.5310
   85TMC2    C5 1324   1.323   1.245  15.898 -0.2104 -0.4259  0.6007
   85TMC2    C6 1325   1.323   1.355  15.980  0.0335 -0.2371  0.1649
   85TMC2     C 1326   1.206   0.995  16.124 -0.7620  0.4198  0.2892
   85TMC2     O 1327   1.265   1.005  16.228  0.3138 -0.4968 -0.0279
   85TMC2     H 1328   1.132   1.228  16.223 -0.5331 -0.5672 -0.4480
   85TMC2    H1 1329   1.272   1.035  15.873  0.0852  0.4512 -2.1059
   85TMC2    H2 1330   1.372   1.447  15.953  0.7456 -0.7234 -0.1871
   85TMC2    C7 1331   1.382   1.242  15.766  0.1824 -0.0978  0.0147
   85TMC2    C8 1332   1.232   1.468  16.184 -0.2353 -0.1006 -0.0481
   85TMC2    O1 1333   1.343   1.175  15.678  0.2537 -0.0799  0.1065
   85TMC2    O2 1334   1.318   1.551  16.194 -0.6086 -0.3212  0.2209
   85TMC2    O5 1335   1.117   1.474  16.249  0.1861 -0.0001 -0.3323
   85TMC2    H5 1336   1.053   1.404  16.223  1.4584 -1.8862  1.6073
   86MPD2     C 1337   1.051   0.528  16.246 -0.4289  0.0372  0.7324
   86MPD2    C1 1338   1.000   0.557  16.122 -0.1451  0.3164 -0.0774
   86MPD2    C2 1339   1.037   0.670  16.054 -0.1888 -0.0776  0.2125
   86MPD2    C3 1340   1.112   0.768  16.129  0.0468  0.2740 -0.2903
   86MPD2    C4 1341   1.139   0.747  16.262 -0.2416  0.2226  0.0038
   86MPD2    C5 1342   1.118   0.622  16.311 -0.3688  0.3872  0.1912
   86MPD2     H 1343   1.001   0.692  15.954 -0.5117  0.0693  0.3616
   86MPD2    H1 1344   1.187   0.816  16.332  1.2661  0.1917 -0.9879
   86MPD2    H2 1345   1.034   0.435  16.299 -0.3995  0.1062  0.8633
   86MPD2    H3 1346   1.147   0.612  16.415  0.7830 -0.6521 -0.2225
   86MPD2     N 1347   1.132   0.894  16.070 -0.5401 -0.0768 -0.0117
   86MPD2    H5 1348   1.082   0.919  15.986 -1.3437 -2.9946 -0.4265
   86MPD2    N1 1349   0.927   0.458  16.043 -0.0168 -0.6941  0.0521
   86MPD2    H7 1350   0.888   0.472  15.951  0.5440 -2.2585 -0.4268
   87TMC2    C1 1351   3.369   3.540  17.542 -0.0656 -0.2430 -0.1055
   87TMC2    C2 1352   3.481   3.611  17.577 -0.5859 -0.3412 -0.0456
   87TMC2    C3 1353   3.479   3.703  17.677  0.5318  0.2062  0.0234
   87TMC2    C4 1354   3.252   3.556  17.614 -0.0057  0.5849 -0.3653
   87TMC2    C5 1355   3.256   3.653  17.713  0.4434 -0.1629  0.2939
   87TMC2    C6 1356   3.368   3.724  17.752  0.6832 -0.3151  0.6509
   87TMC2     C 1357   3.404   3.409  17.491  0.1581 -0.4268  0.6723
   87TMC2     O 1358   3.524   3.397  17.460  0.1315 -0.2849  0.3658
   87TMC2     H 1359   3.581   3.591  17.539  0.2356  2.5123  0.5481
   87TMC2    H1 1360   3.160   3.509  17.584  2.5710 -4.3125 -0.4871
   87TMC2    H2 1361   3.364   3.775   0.087 -1.3656  1.6137 -0.4618
   87TMC2    C7 1362   3.130   3.703   0.004  0.7998 -0.1305  1.0385
   87TMC2    C8 1363   3.605   3.763  17.720  0.8256 -0.7165  0.2916
   87TMC2    O1 1364   3.146   3.816   0.052 -0.3735 -0.1014 -0.0539
   87TMC2    O2 1365   3.719   3.738  17.678  0.5500 -0.7097 -0.3315
   87TMC2    O5 1366   3.573   3.844   0.065  0.0747  0.1964 -0.7223
   87TMC2    H5 1367   3.486   3.888   0.063 -0.6768 -1.3653 -2.3731
   88MPD2     C 1368   2.808   3.540   0.048 -0.1177 -0.5049  0.0418
   88MPD2    C1 1369   2.891   3.644   0.050 -0.2738 -0.0527 -0.0003
   88MPD2    C2 1370   2.847   3.775   0.092 -0.1251  0.0527 -0.1697
   88MPD2    C3 1371   2.718   3.780   0.145  0.5924 -0.1234 -0.5151
   88MPD2    C4 1372   2.643   3.664   0.157 -0.1296 -0.3612  0.3802
   88MPD2    C5 1373   2.682   3.549   0.094 -0.6082  0.0505 -0.5679
   88MPD2     H 1374   2.920   3.855   0.099 -0.1032 -0.0303  0.5192
   88MPD2    H1 1375   2.542   3.660   0.196  0.0857  0.5141  1.0175
   88MPD2    H2 1376   2.835   3.444   0.006  0.7619 -0.3191  0.2000
   88MPD2    H3 1377   2.617   3.463   0.106 -1.0867  0.2465 -1.6901
   88MPD2     N 1378   2.659   3.890   0.210  1.1834 -0.0169 -0.4532
   88MPD2    H5 1379   2.570   3.874   0.255  0.0916  1.0342 -2.2349
   88MPD2    N1 1380   3.021   3.618  17.756  0.2690  0.2933 -0.1193
   88MPD2    H7 1381   3.040   3.524  17.725  0.3745 -0.8525  3.3941
   89TMC2    C1 1382   3.896   2.898   1.355 -0.0571 -0.0534  0.0899
   89TMC2    C2 1383   3.821   2.877   1.467  0.1244 -0.8731  0.1897
   89TMC2    C3 1384   3.842   2.975   1.566  0.9592 -0.0332 -0.9832
   89TMC2    C4 1385   3.986   3.003   1.338 -0.0347 -0.4686  0.3610
   89TMC2    C5 1386   3.993   3.095   1.438 -0.5729  0.6952 -0.0088
   89TMC2    C6 1387   3.922   3.084   1.557  0.0674  0.6616  0.6369
   89TMC2     C 1388   3.892   2.804   1.247  0.6347 -0.1962 -0.0827
   89TMC2     O 1389   3.952   2.836   1.146  0.8193 -0.7479  0.1951
   89TMC2     H 1390   3.750   2.795   1.473 -1.1697  0.3436  1.5296
   89TMC2    H1 1391   4.034   3.024   1.244  1.8346 -1.3532  1.1248
   89TMC2    H2 1392   3.911   3.160   1.633 -2.2378 -2.9307  3.8774
   89TMC2    C7 1393   4.064   3.220   1.418  0.1690  0.2132 -0.3243
   89TMC2    C8 1394   3.750   2.989   1.675  0.8800 -0.1709 -0.1410
   89TMC2    O1 1395   4.027   3.317   1.479  0.2610 -0.5465  0.3542
   89TMC2    O2 1396   3.772   3.052   1.780 -0.7297 -0.3317 -0.1481
   89TMC2    O5 1397   3.640   2.924   1.649  0.1694  0.0710 -0.1292
   89TMC2    H5 1398   3.635   2.885   1.559  0.9475 -1.7572  0.6251
   90MPD2     C 1399   3.725   2.371   1.018  0.0300 -0.3622 -0.3786
   90MPD2    C1 1400   3.643   2.393   1.127  0.2601  0.5330  0.0065
   90MPD2    C2 1401   3.685   2.496   1.208  0.2969  0.5263 -0.0960
   90MPD2    C3 1402   3.784   2.587   1.180 -0.1678 -1.1381  0.0536
   90MPD2    C4 1403   3.866   2.557   1.074 -0.2453 -0.2295 -0.4750
   90MPD2    C5 1404   3.834   2.449   1.001  0.3664 -0.0519  0.3682
   90MPD2     H 1405   3.626   2.501   1.299  0.8106  0.9026  0.2156
   90MPD2    H1 1406   3.946   2.615   1.030  0.2317  0.5123  1.3709
   90MPD2    H2 1407   3.698   2.296   0.944 -0.9116 -1.4737  1.1129
   90MPD2    H3 1408   3.902   2.419   0.923  0.3269 -1.0636  0.7203
   90MPD2     N 1409   3.800   2.697   1.268 -0.2392 -0.0766  0.0284
   90MPD2    H5 1410   3.737   2.708   1.347 -0.6998  0.4634 -0.4165
   90MPD2    N1 1411   3.525   2.324   1.153 -0.3864  0.5597 -0.7271
   90MPD2    H7 1412   3.471   2.340   1.237  0.6519 -0.6973  0.1764
   91TMC2    C1 1413   0.646   1.851  16.014 -0.4656 -0.0839 -0.1875
   91TMC2    C2 1414   0.728   1.895  16.115 -0.0366 -0.6416 -0.1789
   91TMC2    C3 1415   0.690   1.874  16.248 -0.3417 -0.9529 -1.1916
   91TMC2    C4 1416   0.524   1.788  16.033  1.0176 -0.3018 -0.5542
   91TMC2    C5 1417   0.508   1.749  16.165 -0.0895 -0.3065 -0.3824
   91TMC2    C6 1418   0.594   1.776  16.269 -0.0470  0.1994  0.4756
   91TMC2     C 1419   0.712   1.788  15.895 -0.1313 -0.2935 -0.3168
   91TMC2     O 1420   0.660   1.696  15.838  0.6701 -0.5043  0.1939
   91TMC2     H 1421   0.812   1.964  16.114  1.7284 -2.8020 -1.0838
   91TMC2    H1 1422   0.459   1.747  15.956  0.2886 -0.2241  0.0219
   91TMC2    H2 1423   0.569   1.759  16.373  4.3776 -0.9560  1.3345
   91TMC2    C7 1424   0.440   1.622  16.174  0.3821  0.2712  0.1389
   91TMC2    C8 1425   0.797   1.886  16.339 -0.4300 -0.7779  1.1230
   91TMC2    O1 1426   0.502   1.532  16.232  0.2361 -0.1317 -0.2533
   91TMC2    O2 1427   0.834   1.804  16.421 -0.0884 -0.3694 -0.0736
   91TMC2    O5 1428   0.796   2.021  16.351  0.0399 -0.7033  0.5963
   91TMC2    H5 1429   0.749   2.064  16.278  1.2826 -0.1713  0.1077
   92MPD2     C 1430   0.956   1.602  15.791 -0.5403 -0.7482 -0.4050
   92MPD2    C1 1431   0.956   1.723  15.867  0.2142 -0.4642  0.2251
   92MPD2    C2 1432   1.076   1.783  15.891  0.8945  0.0806  0.2083
   92MPD2    C3 1433   1.196   1.727  15.855  0.0431 -0.8919  0.0745
   92MPD2    C4 1434   1.191   1.602  15.788 -0.3840  0.5534 -0.2484
   92MPD2    C5 1435   1.074   1.550  15.746 -0.4787 -0.4497  0.4544
   92MPD2     H 1436   1.077   1.882  15.936  2.0122  0.5900 -0.9147
   92MPD2    H1 1437   1.286   1.567  15.748  0.1869  0.8464  0.8640
   92MPD2    H2 1438   0.870   1.546  15.756 -0.0070 -1.6260 -0.3280
   92MPD2    H3 1439   1.079   1.459  15.687  0.4444 -1.0211  1.4029
   92MPD2     N 1440   1.318   1.793  15.884  0.2197 -0.1220 -0.3974
   92MPD2    H5 1441   1.313   1.875  15.943 -0.3354 -0.6392  0.2895
   92MPD2    N1 1442   0.847   1.800  15.915 -0.6682  0.0507  0.3612
   92MPD2    H7 1443   0.874   1.884  15.964  0.9978 -1.6506  2.3900
   93TMC2    C1 1444   2.741   1.792  13.450  0.9280  0.1621 -0.2528
   93TMC2    C2 1445   2.665   1.903  13.427  0.6049 -0.5608 -0.9384
   93TMC2    C3 1446   2.726   2.015  13.381 -0.2637  0.4244 -0.5046
   93TMC2    C4 1447   2.877   1.797  13.417  0.3363 -0.3381 -0.4724
   93TMC2    C5 1448   2.928   1.907  13.365  0.2109 -0.6115  0.1524
   93TMC2    C6 1449   2.854   2.018  13.343  0.0179  0.9165 -0.1121
   93TMC2     C 1450   2.672   1.662  13.483 -0.0025 -0.3803 -0.0201
   93TMC2     O 1451   2.706   1.578  13.406 -0.4360  0.4725 -0.5212
   93TMC2     H 1452   2.560   1.912  13.452  0.9819  0.8149  0.1758
   93TMC2    H1 1453   2.927   1.703  13.439  0.9559  0.3409  1.0082
   93TMC2    H2 1454   2.905   2.105  13.301  1.3754  0.2080  0.0871
   93TMC2    C7 1455   3.063   1.935  13.390 -0.2529  1.0606 -0.5228
   93TMC2    C8 1456   2.663   2.141  13.389  0.1732  0.1436  0.2380
   93TMC2    O1 1457   3.147   1.850  13.363  0.2414 -0.0867  0.5601
   93TMC2    O2 1458   2.686   2.235  13.311 -0.3169  0.4184 -0.5199
   93TMC2    O5 1459   2.606   2.148  13.515  0.3590 -0.2591 -0.4612
   93TMC2    H5 1460   2.604   2.069  13.572  1.3572 -1.0058 -1.4489
   94MPD2     C 1461   2.476   1.471  13.546 -0.3655  0.6129 -0.0367
   94MPD2    C1 1462   2.461   1.600  13.588 -0.2677  0.5433  0.7448
   94MPD2    C2 1463   2.343   1.638  13.646 -0.2787  0.4053 -0.9432
   94MPD2    C3 1464   2.240   1.537  13.660 -0.9969 -0.2144  1.2084
   94MPD2    C4 1465   2.266   1.412  13.611 -0.0457  0.5592 -0.6981
   94MPD2    C5 1466   2.383   1.379  13.555 -0.8856  0.7286  0.4288
   94MPD2     H 1467   2.324   1.741  13.675 -2.0507  0.3016 -1.6926
   94MPD2    H1 1468   2.200   1.330  13.638  1.7418 -0.9672 -0.9468
   94MPD2    H2 1469   2.567   1.438  13.496  0.7544  1.9690  1.1022
   94MPD2    H3 1470   2.408   1.281  13.515 -1.0127  1.6664 -2.0011
   94MPD2     N 1471   2.121   1.572  13.727  0.6486  0.1643  0.2783
   94MPD2    H5 1472   2.055   1.495  13.728  1.8363 -0.8443  2.2724
   94MPD2    N1 1473   2.556   1.690  13.554  0.7160  0.1523 -0.3804
   94MPD2    H7 1474   2.546   1.781  13.598  1.6900 -0.4102  1.0319
   95TMC2    C1 1475   2.494   3.350  16.208 -0.0774 -0.2972 -0.0813
   95TMC2    C2 1476   2.447   3.223  16.214  0.0461  0.0128  0.7588
   95TMC2    C3 1477   2.413   3.179  16.343 -0.0367 -0.4807  0.5871
   95TMC2    C4 1478   2.504   3.431  16.321  0.1328 -0.0058 -0.0766
   95TMC2    C5 1479   2.451   3.386  16.440 -1.0142 -0.0417 -0.3642
   95TMC2    C6 1480   2.411   3.258  16.452 -0.4350  0.5144 -0.3364
   95TMC2     C 1481   2.549   3.401  16.080 -0.4194 -0.6501  0.3427
   95TMC2     O 1482   2.609   3.511  16.082 -0.5777 -0.1218 -0.4544
   95TMC2     H 1483   2.480   3.157  16.135 -1.1860  0.0943  0.1831
   95TMC2    H1 1484   2.534   3.536  16.321 -0.3709  0.1384 -0.5748
   95TMC2    H2 1485   2.369   3.213  16.542 -3.1317 -1.3852 -2.5224
   95TMC2    C7 1486   2.452   3.482  16.548 -0.9991 -0.0601  0.1801
   95TMC2    C8 1487   2.376   3.039  16.370  0.0588 -0.5768  0.3894
   95TMC2    O1 1488   2.512   3.592  16.532 -0.7793  0.0517  0.5623
   95TMC2    O2 1489   2.352   3.000  16.482  0.5998 -0.0406 -0.0836
   95TMC2    O5 1490   2.324   2.983  16.259  0.7421  0.1559  0.3943
   95TMC2    H5 1491   2.333   3.034  16.176  0.1185  0.3286  0.4322
   96MPD2     C 1492   2.607   3.358  15.564  1.1839 -0.6857  0.4996
   96MPD2    C1 1493   2.672   3.436  15.657 -0.3153 -0.1417  0.1602
   96MPD2    C2 1494   2.635   3.429  15.790  0.2616  0.2703  0.6430
   96MPD2    C3 1495   2.525   3.354  15.833 -0.4408  0.6224 -0.2883
   96MPD2    C4 1496   2.461   3.280  15.737 -0.4647  0.7796 -0.0317
   96MPD2    C5 1497   2.503   3.278  15.607  0.6278 -0.3089 -0.5674
   96MPD2     H 1498   2.685   3.491  15.864 -0.7697  0.4637  1.1849
   96MPD2    H1 1499   2.378   3.211  15.751  1.0752 -0.7413  1.5059
   96MPD2    H2 1500   2.632   3.358  15.458 -2.2057  3.0660 -0.2883
   96MPD2    H3 1501   2.456   3.211  15.536  0.9579 -1.0337 -0.1021
   96MPD2     N 1502   2.492   3.331  15.970 -0.1470 -0.0022 -0.3150
   96MPD2    H5 1503   2.428   3.254  15.982 -0.0594  0.0756  0.6361
   96MPD2    N1 1504   2.787   3.509  15.614 -0.0194  0.1324 -0.0463
   96MPD2    H7 1505   2.820   3.483  15.522 -2.1073 -1.3919 -0.3703
   97TMC2    C1 1506   0.413   1.287   0.027  0.5975  0.0464  0.6369
   97TMC2    C2 1507   0.342   1.226  17.689  0.4635 -0.3729  0.2388
   97TMC2    C3 1508   0.324   1.301  17.578 -0.3178 -0.3534 -0.7913
   97TMC2    C4 1509   0.480   1.405   0.023  0.1683 -0.1412 -0.3774
   97TMC2    C5 1510   0.469   1.466  17.661 -0.2593  0.5032 -0.0130
   97TMC2    C6 1511   0.391   1.417  17.559 -0.6914  0.0425 -0.4220
   97TMC2     C 1512   0.450   1.195   0.129 -0.2983 -0.1507  0.2936
   97TMC2     O 1513   0.460   1.075   0.099 -0.5940 -0.2844  0.5718
   97TMC2     H 1514   0.292   1.131  17.707  1.1877 -0.6001  1.0081
   97TMC2    H1 1515   0.549   1.447   0.095 -0.0188 -0.4611 -0.0125
   97TMC2    H2 1516   0.372   1.478  17.471 -2.3672  1.5688  1.0087
   97TMC2    C7 1517   0.570   1.567  17.633  0.5592  0.7017 -0.4598
   97TMC2    C8 1518   0.273   1.230  17.461 -0.1898 -0.2791  0.4627
   97TMC2    O1 1519   0.582   1.632  17.733  1.1841 -0.1559  0.1592
   97TMC2    O2 1520   0.320   1.259  17.351  0.0134  0.1490 -0.2634
   97TMC2    O5 1521   0.161   1.162  17.503 -0.3559 -0.4355  0.5235
   97TMC2    H5 1522   0.116   1.184  17.587  3.0217  0.4992  2.0867
   98MPD2     C 1523   0.584   1.094   0.614 -0.2211  0.7501  0.3892
   98MPD2    C1 1524   0.540   1.010   0.515 -0.1304  0.4081  0.2446
   98MPD2    C2 1525   0.509   1.070   0.396 -0.7484 -0.3919  0.8421
   98MPD2    C3 1526   0.505   1.206   0.374 -0.2074 -0.0754 -0.0111
   98MPD2    C4 1527   0.542   1.284   0.480 -0.2022 -0.3398  0.3245
   98MPD2    C5 1528   0.587   1.229   0.599 -0.7051 -0.3384  0.0926
   98MPD2     H 1529   0.482   1.000   0.317 -2.2501  0.0026  1.0092
   98MPD2    H1 1530   0.541   1.392   0.471 -0.0061 -0.1588  2.6416
   98MPD2    H2 1531   0.612   1.053   0.711  1.6599  2.0539  0.4201
   98MPD2    H3 1532   0.612   1.299   0.678 -0.8140  0.4563 -0.5745
   98MPD2     N 1533   0.470   1.259   0.242  0.2291 -0.0816  0.0298
   98MPD2    H5 1534   0.443   1.357   0.246 -2.2973 -0.7973  0.5411
   98MPD2    N1 1535   0.526   0.868   0.547 -0.6617 -0.0115 -0.3498
   98MPD2    H7 1536   0.558   0.834   0.637  0.3126 -2.3572 -1.5919
   99TMC2    C1 1537   4.094   3.120   0.858 -0.3515  0.1856 -0.2663
   99TMC2    C2 1538   4.167   3.224   0.916 -0.2410 -0.7197 -0.2834
   99TMC2    C3 1539   4.116   3.352   0.901 -0.0266  0.1939 -0.0591
   99TMC2    C4 1540   3.977   3.130   0.784  0.0214 -0.4074  0.8087
   99TMC2    C5 1541   3.930   3.256   0.780 -0.6082  0.4461 -0.0397
   99TMC2    C6 1542   3.999   3.360   0.830 -0.7510  0.4150 -0.0751
   99TMC2     C 1543   4.141   2.980   0.874  0.4968  0.4809 -0.0676
   99TMC2     O 1544   4.250   2.963   0.934 -0.0287  0.3055  0.4448
   99TMC2     H 1545   4.262   3.200   0.962 -1.5165 -2.4152  1.4561
   99TMC2    H1 1546   3.931   3.052   0.723 -1.3634  0.9126  0.1746
   99TMC2    H2 1547   3.954   3.459   0.837 -1.1520  0.3905 -2.2023
   99TMC2    C7 1548   3.801   3.285   0.713 -0.3243 -0.7824 -0.1617
   99TMC2    C8 1549   4.163   3.464   0.967  0.1901  0.6142  0.3592
   99TMC2    O1 1550   3.777   3.407   0.713 -0.1513 -0.3424  0.3202
   99TMC2    O2 1551   4.140   3.578   0.930  0.3311 -0.2391  0.2468
   99TMC2    O5 1552   4.259   3.440   1.050  0.1662 -0.8470 -0.4303
   99TMC2    H5 1553   4.258   3.345   1.076 -1.0093 -0.9975 -0.9901
  100MPD2     C 1554   4.211   2.677   0.855  0.3002  0.8505  0.0397
  100MPD2    C1 1555   4.091   2.743   0.807  0.7433 -0.4168 -0.1713
  100MPD2    C2 1556   4.010   2.660   0.736 -0.0087 -0.4663 -1.0551
  100MPD2    C3 1557   4.032   2.530   0.712  0.5575  0.7938  0.2346
  100MPD2    C4 1558   4.155   2.469   0.741 -0.3547  0.2178 -0.3973
  100MPD2    C5 1559   4.239   2.544   0.818 -0.3052 -0.0257  0.1502
  100MPD2     H 1560   3.920   2.705   0.695  0.9314  0.3614 -2.2262
  100MPD2    H1 1561   4.187   2.372   0.705  0.3465 -0.3841  1.7932
  100MPD2    H2 1562   4.281   2.731   0.917  1.3466 -1.6221  1.0179
  100MPD2    H3 1563   4.331   2.490   0.833  0.2388  0.8748  0.0651
  100MPD2     N 1564   3.934   2.475   0.628 -0.3753  0.5294 -0.1018
  100MPD2    H5 1565   3.857   2.537   0.602  1.3836  2.5052 -0.6108
  100MPD2    N1 1566   4.062   2.879   0.815 -0.1298  0.7092 -0.5116
  100MPD2    H7 1567   3.974   2.910   0.776 -1.9281 -1.7851  1.5630
  101TMC2    C1 1568   4.429   4.334  13.282  1.1451 -0.4721 -1.0778
  101TMC2    C2 1569   4.552   4.327  13.340  0.8089 -0.1469 -0.1684
  101TMC2    C3 1570   4.621   4.446  13.347 -0.8281  0.3198  0.0697
  101TMC2    C4 1571   4.369   4.454  13.237  0.3891 -0.0619 -0.5508
  101TMC2    C5 1572   4.444   4.570  13.239  0.3420 -0.6615  0.2770
  101TMC2    C6 1573   4.574   4.563  13.289  0.1184 -0.0383 -0.0072
  101TMC2     C 1574   4.355   4.211  13.274 -0.3782  0.2689 -0.1961
  101TMC2     O 1575   4.242   4.216  13.325 -0.1540  0.1061  0.2735
  101TMC2     H 1576   4.602   4.239  13.379  2.2549  0.5426 -0.4440
  101TMC2    H1 1577   4.275   4.462  13.185  1.6096  1.7148 -2.5197
  101TMC2    H2 1578   4.620   4.659  13.311  0.5251 -0.4953  1.1115
  101TMC2    C7 1579   4.415   4.656  13.129  0.5450  0.1311  0.2389
  101TMC2    C8 1580   0.016   4.446  13.403  0.0608 -0.0627 -0.2462
  101TMC2    O1 1581   4.303   4.706  13.121 -0.0375 -0.0384  0.3937
  101TMC2    O2 1582   0.068   4.345  13.441 -0.6805 -0.6768 -0.0192
  101TMC2    O5 1583   0.070   4.569  13.382 -0.2180  0.0405  0.2848
  101TMC2    H5 1584   0.155   4.569  13.430  0.7314  1.9066 -1.3740
  102MPD2     C 1585   4.436   3.909  13.098 -0.3281  0.8217  0.5273
  102MPD2    C1 1586   4.364   3.990  13.184 -0.3670 -0.1121  0.1910
  102MPD2    C2 1587   4.266   3.930  13.263  0.4710  0.3897 -0.5747
  102MPD2    C3 1588   4.231   3.796  13.255 -0.1224  0.5740 -0.3535
  102MPD2    C4 1589   4.301   3.716  13.169 -0.0685  0.3785 -0.4674
  102MPD2    C5 1590   4.405   3.770  13.099  0.1189 -0.3172  0.4302
  102MPD2     H 1591   4.200   3.990  13.324  0.4591 -0.6006  0.4035
  102MPD2    H1 1592   4.281   3.610  13.157 -0.6321  0.3064  1.2057
  102MPD2    H2 1593   4.518   3.947  13.038 -0.0876  0.0760  0.3906
  102MPD2    H3 1594   4.457   3.697  13.038  0.7908  1.9220 -1.6929
  102MPD2     N 1595   4.121   3.756  13.336  0.5417  0.2156  0.4196
  102MPD2    H5 1596   4.077   3.826  13.396  0.0523 -0.3191  0.6870
  102MPD2    N1 1597   4.414   4.116  13.201  0.0884 -0.0370 -0.0656
  102MPD2    H7 1598   4.507   4.137  13.164 -0.8477  0.9628 -1.8831
  103TMC2    C1 1599   1.878   4.380  12.154 -0.4060 -0.1050  0.1983
  103TMC2    C2 1600   1.966   4.434  12.066  0.4441 -0.5851 -0.3493
  103TMC2    C3 1601   2.091   4.455  12.111  0.6143 -0.2367 -0.4584
  103TMC2    C4 1602   1.908   4.372  12.284  0.1886 -0.2050  0.6738
  103TMC2    C5 1603   2.034   4.398  12.334  0.3892 -0.3839 -0.2487
  103TMC2    C6 1604   2.125   4.441  12.241 -0.4864 -0.0223  0.1185
  103TMC2     C 1605   1.737   4.387  12.126  0.2562  0.2084  0.3038
  103TMC2     O 1606   1.661   4.376  12.221 -0.0065 -0.6377  0.2832
  103TMC2     H 1607   1.951   4.431  11.959  1.9275  1.4075 -0.5936
  103TMC2    H1 1608   1.836   4.328  12.352 -0.0935  1.0699  1.2173
  103TMC2    H2 1609   2.229   4.444  12.273 -0.4489 -1.2608  0.1164
  103TMC2    C7 1610   2.038   4.436  12.475 -0.0477  0.2671 -0.4649
  103TMC2    C8 1611   2.191   4.493  12.008 -0.5507 -0.0061  0.2785
  103TMC2    O1 1612   1.928   4.473  12.517 -0.4152 -0.8057  0.1442
  103TMC2    O2 1613   2.195   4.444  11.899 -0.0569 -0.2254 -0.6102
  103TMC2    O5 1614   2.295   4.541  12.080 -0.0773 -0.0179 -0.0143
  103TMC2    H5 1615   2.282   4.611  12.148 -0.4312 -0.3345  0.2437
  104MPD2     C 1616   1.568   4.333  11.798  0.5661  0.1762  0.8666
  104MPD2    C1 1617   1.573   4.372  11.930  0.1428 -0.0758 -0.0571
  104MPD2    C2 1618   1.466   4.423  11.996 -0.5366 -0.0534 -0.3231
  104MPD2    C3 1619   1.344   4.434  11.932 -0.5198  0.3244 -0.1106
  104MPD2    C4 1620   1.333   4.380  11.807 -0.3481  0.2451 -0.0628
  104MPD2    C5 1621   1.445   4.336  11.739 -0.1591 -0.4213 -0.4633
  104MPD2     H 1622   1.475   4.465  12.096  1.2591  0.4837 -0.7156
  104MPD2    H1 1623   1.242   4.392  11.750 -0.8924 -2.3406  0.2460
  104MPD2    H2 1624   1.648   4.292  11.738  0.5782  0.4386  0.7083
  104MPD2    H3 1625   1.434   4.307  11.635 -3.1009 -2.0024  0.2766
  104MPD2     N 1626   1.238   4.491  11.997 -0.1585 -0.5613 -0.5299
  104MPD2    H5 1627   1.260   4.534  12.086 -2.2409  0.2255 -0.3850
  104MPD2    N1 1628   1.708   4.370  11.990 -0.1799  0.3335  0.0040
  104MPD2    H7 1629   1.788   4.354  11.929 -1.1095  0.1047 -1.1653
  105TMC2    C1 1630   3.924   2.829  17.531  0.5160 -0.2000 -0.2354
  105TMC2    C2 1631   3.930   2.747  17.637 -0.3634  0.1115 -0.8755
  105TMC2    C3 1632   3.820   2.679  17.667  0.1222 -0.3264  0.0588
  105TMC2    C4 1633   3.809   2.839  17.452  0.5190  0.4634  1.2510
  105TMC2    C5 1634   3.702   2.754  17.486 -0.0556 -0.0236  0.3582
  105TMC2    C6 1635   3.706   2.672  17.596  0.6872  0.2928  0.3432
  105TMC2     C 1636   4.051   2.882  17.486 -0.2551 -0.1261 -0.0856
  105TMC2     O 1637   4.149   2.822  17.524  0.1839  0.2833 -0.0202
  105TMC2     H 1638   4.022   2.748  17.694  0.6898  1.4795 -2.6144
  105TMC2    H1 1639   3.809   2.897  17.360 -0.5430 -1.6615 -0.0814
  105TMC2    H2 1640   3.619   2.626  17.642 -0.6305 -0.5339 -2.9756
  105TMC2    C7 1641   3.568   2.780  17.440 -0.2892  0.8840  0.5464
  105TMC2    C8 1642   3.836   2.573   0.008  0.9566 -0.0551 -0.1438
  105TMC2    O1 1643   3.488   2.691  17.467  0.2977  0.3320 -0.0989
  105TMC2    O2 1644   3.924   2.578   0.094  0.5468 -0.0731 -0.6249
  105TMC2    O5 1645   3.785   2.461  17.708  0.3223 -0.3349 -0.4061
  105TMC2    H5 1646   3.768   2.464  17.611 -0.4228  0.8636 -0.2429
  106MPD2     C 1647   4.351   3.109  17.141 -0.0656 -0.1676  0.3498
  106MPD2    C1 1648   4.236   3.179  17.148 -0.1089  0.2032 -0.1230
  106MPD2    C2 1649   4.135   3.152  17.242  0.3077 -0.6726  0.5511
  106MPD2    C3 1650   4.158   3.041  17.325 -0.2733  0.4193 -0.1050
  106MPD2    C4 1651   4.275   2.973  17.315  0.0085  0.9631  0.5332
  106MPD2    C5 1652   4.381   3.016  17.233  0.3704  0.1149  0.7366
  106MPD2     H 1653   4.044   3.210  17.253  0.5718  0.1055 -1.2586
  106MPD2    H1 1654   4.297   2.886  17.376  1.3244  1.2759  0.5152
  106MPD2    H2 1655   4.439   3.137  17.085 -1.0737  0.9765 -0.6707
  106MPD2    H3 1656   4.473   2.959  17.230 -0.2608 -0.9204  1.1407
  106MPD2     N 1657   4.047   2.985  17.395 -0.1086 -0.6543  0.5016
  106MPD2    H5 1658   3.961   3.038  17.382 -0.5265 -0.8612  2.3960
  106MPD2    N1 1659   4.217   3.282  17.068 -0.0423 -0.2043 -0.7680
  106MPD2    H7 1660   4.130   3.329  17.090  0.6107  0.4907  0.3121
  107TMC2    C1 1661   4.181   3.429  11.314  0.5211  0.2243 -0.0313
  107TMC2    C2 1662   4.290   3.410  11.389  0.8518 -0.2587  0.0647
  107TMC2    C3 1663   4.396   3.342  11.333  0.3253 -0.1959  0.7869
  107TMC2    C4 1664   4.174   3.404  11.181 -0.5303  1.1705  0.3256
  107TMC2    C5 1665   4.283   3.349  11.127  0.5514  0.2706  0.1185
  107TMC2    C6 1666   4.396   3.320  11.198  0.0043  1.0893  0.2000
  107TMC2     C 1667   4.056   3.454  11.385 -0.2685 -1.2114 -0.1944
  107TMC2     O 1668   4.055   3.422  11.500  0.0822 -0.2019  0.3523
  107TMC2     H 1669   4.283   3.435  11.495 -2.0352  0.9001 -0.3972
  107TMC2    H1 1670   4.072   3.385  11.149  0.6771 -0.2712 -2.6150
  107TMC2    H2 1671   4.488   3.312  11.142  0.2674 -0.5898  0.8605
  107TMC2    C7 1672   4.269   3.285  11.000 -0.2815 -0.4571 -0.1546
  107TMC2    C8 1673   4.519   3.335  11.408  0.6139 -0.2800 -0.0309
  107TMC2    O1 1674   4.169   3.305  10.934 -0.0627  0.0731  0.1246
  107TMC2    O2 1675   4.537   3.382  11.519 -0.0116  0.2619  0.1906
  107TMC2    O5 1676   4.565   3.214  11.370 -0.3384 -0.2501  0.4735
  107TMC2    H5 1677   4.514   3.173  11.296  0.5948 -1.6187  0.6006
  108MPD2     C 1678   3.746   3.599  11.252 -0.0478  0.2672 -0.5804
  108MPD2    C1 1679   3.835   3.557  11.351 -0.0588  0.8432 -0.3389
  108MPD2    C2 1680   3.801   3.552  11.483  0.6557 -0.4369 -0.0041
  108MPD2    C3 1681   3.671   3.574  11.522 -0.2184  0.2385 -0.2440
  108MPD2    C4 1682   3.583   3.628  11.427  0.2387 -0.8421  0.2324
  108MPD2    C5 1683   3.622   3.638  11.294 -0.0740 -0.3731 -0.3825
  108MPD2     H 1684   3.871   3.529  11.562 -0.1672  2.3536  1.5441
  108MPD2    H1 1685   3.483   3.661  11.449  0.3049 -0.6912  0.3041
  108MPD2    H2 1686   3.774   3.612  11.148  0.8996  0.0858 -0.3469
  108MPD2    H3 1687   3.557   3.675  11.216 -1.9749 -3.3322 -0.1966
  108MPD2     N 1688   3.622   3.564  11.652 -0.7114 -0.0842 -0.5048
  108MPD2    H5 1689   3.542   3.620  11.680 -1.5316 -1.4972  0.0229
  108MPD2    N1 1690   3.959   3.507  11.314 -0.6709 -0.6096  0.2329
  108MPD2    H7 1691   3.968   3.526  11.214  0.7526 -0.0703  0.4477
  109TMC2    C1 1692   4.119   0.082   0.460 -0.0024  0.1079  0.0811
  109TMC2    C2 1693   4.113   4.690   0.420 -0.5801 -0.0805  0.3531
  109TMC2    C3 1694   4.204   4.642   0.334 -0.5284  0.1387 -0.2811
  109TMC2    C4 1695   4.210   0.163   0.408 -0.1341 -0.3179  0.6884
  109TMC2    C5 1696   4.296   0.106   0.315 -0.0277 -0.2849  0.4132
  109TMC2    C6 1697   4.302   4.714   0.283  1.1610  0.2260  0.0820
  109TMC2     C 1698   4.008   0.135   0.544 -0.0292  0.3976 -0.3306
  109TMC2     O 1699   3.911   0.062   0.557 -0.1140 -0.5364  0.1572
  109TMC2     H 1700   4.037   4.625   0.464 -0.5633 -1.3063 -1.4395
  109TMC2    H1 1701   4.208   0.271   0.422  1.2213 -0.3905  1.4617
  109TMC2    H2 1702   4.376   4.668   0.218  1.4215 -0.8342  1.1316
  109TMC2    C7 1703   4.416   0.183   0.305 -0.0515  0.3228 -0.1731
  109TMC2    C8 1704   4.213   4.499   0.308  0.0010  0.9972 -0.1768
  109TMC2    O1 1705   4.430   0.279   0.382 -0.1173 -0.1826 -0.0470
  109TMC2    O2 1706   4.225   4.457   0.193  0.2465  0.1428 -0.3624
  109TMC2    O5 1707   4.169   4.426   0.416  0.3924 -0.6505 -0.0964
  109TMC2    H5 1708   4.181   4.474   0.500 -0.7870  1.0424 -0.8811
  110MPD2     C 1709   3.777   0.478   0.844 -0.0289  0.2789  0.0280
  110MPD2    C1 1710   3.886   0.537   0.790 -0.4946 -0.4170  0.4645
  110MPD2    C2 1711   3.968   0.457   0.712  0.9545  1.1260  0.1552
  110MPD2    C3 1712   3.934   0.326   0.683  0.3934  0.6636 -0.3616
  110MPD2    C4 1713   3.811   0.278   0.726 -0.1715  0.6832 -0.3226
  110MPD2    C5 1714   3.742   0.347   0.821 -0.5223  0.9974  0.4962
  110MPD2     H 1715   4.069   0.493   0.694  1.0402  0.5561 -0.4909
  110MPD2    H1 1716   3.771   0.181   0.697 -1.4189  1.2186 -0.4005
  110MPD2    H2 1717   3.716   0.536   0.912  1.0231  1.4923 -0.0596
  110MPD2    H3 1718   3.647   0.308   0.856 -0.8915  1.5681  0.1359
  110MPD2     N 1719   4.029   0.258   0.607  0.0299 -0.1980  0.1605
  110MPD2    H5 1720   4.121   0.299   0.597  0.4528 -0.6582  2.1660
  110MPD2    N1 1721   3.934   0.666   0.827 -0.1020 -0.3674  0.4344
  110MPD2    H7 1722   3.883   0.715   0.899 -1.6030  0.0322 -0.9125
  111TMC2    C1 1723   4.389   4.493  11.519  0.2611 -0.2597 -1.0109
  111TMC2    C2 1724   4.363   4.354  11.527 -0.8005  0.0219 -0.0131
  111TMC2    C3 1725   4.466   4.267  11.547  0.0743  0.0876 -0.1343
  111TMC2    C4 1726   4.506   4.545  11.547 -0.2815 -0.1621  0.3442
  111TMC2    C5 1727   4.596   4.459  11.603 -0.4371  0.1811  0.2437
  111TMC2    C6 1728   4.584   4.323  11.597 -0.5923  0.4331  0.5962
  111TMC2     C 1729   4.300   4.576  11.444 -0.1374 -1.0205 -0.5445
  111TMC2     O 1730   4.339   4.679  11.390 -0.1758  0.2722 -0.6250
  111TMC2     H 1731   4.282   4.311  11.469 -2.3013  0.7654  1.5352
  111TMC2    H1 1732   4.517   4.653  11.548 -1.6996 -0.0225 -0.0762
  111TMC2    H2 1733   4.665   4.255  11.622  0.4579  0.8982 -1.6079
  111TMC2    C7 1734   4.710   4.500  11.683  0.0866 -0.1135 -0.6659
  111TMC2    C8 1735   4.435   4.126  11.556  0.1223 -0.2662  0.1381
  111TMC2    O1 1736   0.015   4.420  11.759  0.5527  0.5064  0.2085
  111TMC2    O2 1737   4.330   4.075  11.505  0.1744 -0.2465  0.0117
  111TMC2    O5 1738   4.484   4.087  11.672  0.4427  0.2380  0.5050
  111TMC2    H5 1739   4.556   4.138  11.716 -0.0924  1.5273 -0.1145
  112MPD2     C 1740   3.846   4.639  11.237  0.4254  0.4699  0.4705
  112MPD2    C1 1741   3.963   4.676  11.184  0.3813 -0.0867 -0.4845
  112MPD2    C2 1742   4.071   4.636  11.266  0.6567  0.3179 -0.2077
  112MPD2    C3 1743   4.061   4.581  11.394 -0.1699 -0.3007 -0.0990
  112MPD2    C4 1744   3.935   4.546  11.437  0.1157  0.4353  0.4491
  112MPD2    C5 1745   3.834   4.571  11.354 -0.4144 -0.3900 -0.0908
  112MPD2     H 1746   4.168   4.653  11.220  0.5634  3.0944  0.6067
  112MPD2    H1 1747   3.912   4.518  11.539 -0.3645 -2.3209 -0.4108
  112MPD2    H2 1748   3.751   4.653  11.188 -0.6358  2.3196  3.0095
  112MPD2    H3 1749   3.736   4.571  11.398  0.0294  0.7691  0.9006
  112MPD2     N 1750   4.172   4.535  11.464  0.1525 -0.4438 -0.5347
  112MPD2    H5 1751   4.151   4.484  11.549  1.0038 -1.2080 -0.7807
  112MPD2    N1 1752   3.978   0.019  11.070  0.0405 -0.3515 -0.0500
  112MPD2    H7 1753   4.074   0.023  11.037  0.2742  0.0052  0.6785
  113TMC2    C1 1754   2.620   2.399   0.243  0.3981 -0.3212  0.4435
  113TMC2    C2 1755   2.487   2.412   0.217  0.3517 -0.3302 -0.4400
  113TMC2    C3 1756   2.397   2.314   0.248  0.0806 -0.0586  0.4080
  113TMC2    C4 1757   2.666   2.295   0.318  0.0587 -0.0344  0.4057
  113TMC2    C5 1758   2.572   2.206   0.374  0.2066 -0.5238  0.3132
  113TMC2    C6 1759   2.439   2.212   0.331  0.5456 -0.3017 -0.6339
  113TMC2     C 1760   2.679   2.530   0.260 -0.2053  0.4793 -0.2821
  113TMC2     O 1761   2.602   2.605   0.317 -0.2011  0.1286 -0.2761
  113TMC2     H 1762   2.447   2.498   0.165  0.5907 -0.7169 -1.2602
  113TMC2    H1 1763   2.772   2.282   0.338 -0.2365  0.3745  2.2630
  113TMC2    H2 1764   2.358   2.143   0.348  1.4744 -0.9440  1.2114
  113TMC2    C7 1765   2.608   2.084   0.450  0.2357  0.2881 -0.5747
  113TMC2    C8 1766   2.258   2.342   0.226 -0.2115 -0.0308 -0.3770
  113TMC2    O1 1767   2.717   2.029   0.435 -0.1270 -0.1112 -0.0000
  113TMC2    O2 1768   2.167   2.301   0.298 -0.7546  0.4993 -0.3540
  113TMC2    O5 1769   2.243   2.391   0.100  0.5287 -0.6595 -0.4800
  113TMC2    H5 1770   2.327   2.384   0.051  0.0608 -2.5716 -1.0181
  114MPD2     C 1771   3.058   2.838   0.321 -0.9391 -0.5447 -0.0263
  114MPD2    C1 1772   2.923   2.861   0.346 -0.0751  0.0373 -0.0181
  114MPD2    C2 1773   2.838   2.766   0.308  0.7079  0.2895 -0.9199
  114MPD2    C3 1774   2.887   2.650   0.255  0.2505 -0.0625 -0.0871
  114MPD2    C4 1775   3.019   2.627   0.224 -0.5393  0.5313 -0.1379
  114MPD2    C5 1776   3.106   2.727   0.260  0.6644 -0.2422  0.6314
  114MPD2     H 1777   2.734   2.789   0.330  0.0669 -2.1179 -1.4262
  114MPD2    H1 1778   3.055   2.531   0.189  0.7659  0.5217  1.1789
  114MPD2    H2 1779   3.140   2.908   0.331 -0.2978 -1.1892 -0.8751
  114MPD2    H3 1780   3.213   2.710   0.259  0.6778 -0.1235  0.2029
  114MPD2     N 1781   2.809   2.535   0.239 -0.2258 -0.6071 -0.2213
  114MPD2    H5 1782   2.845   2.457   0.185  0.0203  0.4019 -1.5118
  114MPD2    N1 1783   2.860   2.984   0.382  0.1718 -0.4220  0.3376
  114MPD2    H7 1784   2.760   2.985   0.364 -0.0733 -1.2054  1.6705
  115TMC2    C1 1785   3.609   0.515  17.571  1.1187  0.9153  0.3802
  115TMC2    C2 1786   3.642   0.438  17.681 -0.5172 -0.2806 -0.2820
  115TMC2    C3 1787   3.672   0.507   0.033 -0.0602 -0.8589  0.1794
  115TMC2    C4 1788   3.616   0.647  17.571 -0.6527 -0.1001 -0.1848
  115TMC2    C5 1789   3.659   0.714  17.687 -0.1777  0.8418 -0.2652
  115TMC2    C6 1790   3.684   0.640   0.038 -0.0965  0.0371 -0.3053
  115TMC2     C 1791   3.569   0.443  17.452  0.4784 -0.2705  0.0723
  115TMC2     O 1792   3.548   0.325  17.465  0.1385 -0.3188  0.5349
  115TMC2     H 1793   3.647   0.331  17.672 -0.1442 -0.3381  0.6185
  115TMC2    H1 1794   3.572   0.710  17.494  0.7053 -0.7166 -1.4562
  115TMC2    H2 1795   3.734   0.685   0.124  0.0847  3.0855 -2.0056
  115TMC2    C7 1796   3.634   0.860  17.703 -0.1098 -0.3970 -0.8042
  115TMC2    C8 1797   3.728   0.448   0.150 -0.0507 -0.2085  0.1107
  115TMC2    O1 1798   3.624   0.903   0.060 -0.2558  0.3047 -0.1844
  115TMC2    O2 1799   3.729   0.497   0.258 -0.2524  0.0421  0.1098
  115TMC2    O5 1800   3.796   0.340   0.112 -0.6459  0.2710 -1.1144
  115TMC2    H5 1801   3.801   0.330   0.015 -0.2783 -0.0436 -1.0609
  116MPD2     C 1802   3.456   0.378  16.958 -0.4079  0.0775  0.0104
  116MPD2    C1 1803   3.430   0.297  17.064 -0.2336  0.0825  0.3949
  116MPD2    C2 1804   3.460   0.346  17.191  0.5057 -0.7738  0.1220
  116MPD2    C3 1805   3.523   0.468  17.210  0.5700  0.5235  0.0010
  116MPD2    C4 1806   3.545   0.548  17.102 -0.1667  0.2025  0.0884
  116MPD2    C5 1807   3.513   0.500  16.974  0.3055  0.1828  0.5004
  116MPD2     H 1808   3.427   0.287  17.275  1.7676 -1.4568  0.1265
  116MPD2    H1 1809   3.570   0.652  17.119  0.5392  0.1990 -0.8940
  116MPD2    H2 1810   3.409   0.358  16.862 -1.2005  0.9052  0.2257
  116MPD2    H3 1811   3.515   0.580  16.901 -1.9323  0.6274  0.9327
  116MPD2     N 1812   3.568   0.520  17.340  0.3701  0.3086 -0.4512
  116MPD2    H5 1813   3.591   0.619  17.338  0.0722  0.4225  1.9490
  116MPD2    N1 1814   3.344   0.182  17.038 -0.4376  0.9182 -0.2331
  116MPD2    H7 1815   3.338   0.155  16.940  1.3892 -0.9682  0.1699
  117TMC2    C1 1816   1.862   2.253  14.006  0.5824 -0.2764  0.0549
  117TMC2    C2 1817   1.980   2.175  14.027 -0.5835  0.3623  0.5612
  117TMC2    C3 1818   2.099   2.234  14.029 -0.3874 -0.0028  0.3598
  117TMC2    C4 1819   1.874   2.389  13.997  0.0127  0.3603 -0.0873
  117TMC2    C5 1820   2.000   2.443  14.013  0.3531 -0.2859 -0.0003
  117TMC2    C6 1821   2.113   2.369  14.029  0.4089  0.0249 -0.1576
  117TMC2     C 1822   1.753   2.191  13.933 -0.4646  0.1183  0.2116
  117TMC2     O 1823   1.735   2.069  13.938  0.5515  0.4271  0.0148
  117TMC2     H 1824   1.977   2.070  14.054 -1.5829  0.0270 -0.8849
  117TMC2    H1 1825   1.786   2.449  14.011  0.2133 -0.0025  2.6693
  117TMC2    H2 1826   2.213   2.408  14.044  0.1455  0.2980  0.8652
  117TMC2    C7 1827   2.018   2.586  14.034 -0.2590  0.5563  0.1517
  117TMC2    C8 1828   2.222   2.159  14.011 -0.4745 -0.6043  0.7426
  117TMC2    O1 1829   2.109   2.620  14.109  0.2821 -0.1264  0.7564
  117TMC2    O2 1830   2.333   2.201  14.039 -0.1213 -0.4659 -0.7804
  117TMC2    O5 1831   2.198   2.078  13.905  0.5308  0.4979 -0.1512
  117TMC2    H5 1832   2.104   2.077  13.877 -0.7032  2.7572  3.8379
  118MPD2     C 1833   1.762   2.854  13.950 -0.8587 -0.1626 -0.1291
  118MPD2    C1 1834   1.884   2.800  13.988 -0.0915 -0.3239 -0.1538
  118MPD2    C2 1835   1.974   2.887  14.036  0.3675 -0.6193 -0.7312
  118MPD2    C3 1836   1.948   3.018  14.047 -0.3369  0.4290  0.2037
  118MPD2    C4 1837   1.832   3.070  13.996 -0.3104 -0.0731 -0.3951
  118MPD2    C5 1838   1.741   2.985  13.934  0.5497  0.0741  0.5068
  118MPD2     H 1839   2.071   2.851  14.071 -1.5126 -2.1104  2.9209
  118MPD2    H1 1840   1.809   3.175  13.988  0.6478  0.2049  0.5777
  118MPD2    H2 1841   1.688   2.785  13.910 -1.7255  0.6228  0.1119
  118MPD2    H3 1842   1.656   3.025  13.879  1.1073  0.1312 -0.3111
  118MPD2     N 1843   2.048   3.112  14.096  0.2184  0.1468  0.1376
  118MPD2    H5 1844   2.017   3.208  14.105 -1.9736 -0.7821  2.5605
  118MPD2    N1 1845   1.904   2.655  13.989 -0.8221  1.3638  0.3806
  118MPD2    H7 1846   1.830   2.601  13.945  1.4055 -0.7929 -0.6455
  119TMC2    C1 1847   0.079   3.486  13.353  0.4078  0.5921 -0.0537
  119TMC2    C2 1848   0.131   3.463  13.229 -0.1341  0.3355 -0.0543
  119TMC2    C3 1849   0.077   3.375  13.155 -0.2922  0.6278  0.9966
  119TMC2    C4 1850   4.709   3.419  13.403 -0.9958  0.1364 -1.1261
  119TMC2    C5 1851   4.659   3.332  13.313  0.3294  0.8710 -0.5968
  119TMC2    C6 1852   4.707   3.307  13.192  0.6427 -1.1906 -0.1877
  119TMC2     C 1853   0.132   3.598  13.436 -0.1905  0.2876  0.0883
  119TMC2     O 1854   0.096   3.599  13.556 -0.1497  0.4367 -0.5359
  119TMC2     H 1855   0.224   3.502  13.190  0.0696 -0.4522 -0.3555
  119TMC2    H1 1856   4.680   3.441  13.505  3.6365  2.2948 -0.2535
  119TMC2    H2 1857   4.663   3.229  13.131  1.1485 -1.0076 -0.7901
  119TMC2    C7 1858   4.529   3.280  13.342  0.2596  0.0149  0.3198
  119TMC2    C8 1859   0.102   3.367  13.009  0.3219 -0.2529 -0.3016
  119TMC2    O1 1860   4.469   3.214  13.258 -0.2520  0.0824 -1.1210
  119TMC2    O2 1861   0.089   3.261  12.943  0.3901 -0.0030 -0.1947
  119TMC2    O5 1862   0.146   3.489  12.959 -0.3637  0.1715  0.2313
  119TMC2    H5 1863   0.130   3.564  13.020  1.8349  1.6613 -1.0106
  120MPD2     C 1864   0.521   3.915  13.554 -0.1808  0.5041 -0.4216
  120MPD2    C1 1865   0.435   3.848  13.643 -0.2019  0.2396  0.3262
  120MPD2    C2 1866   0.328   3.775  13.583 -1.1024  0.3585 -0.0255
  120MPD2    C3 1867   0.316   3.756  13.443 -0.1444  0.3939  0.0244
  120MPD2    C4 1868   0.410   3.818  13.366  0.3323  0.6320 -0.3130
  120MPD2    C5 1869   0.504   3.902  13.416  0.2872 -0.0385  0.3584
  120MPD2     H 1870   0.251   3.736  13.649 -0.9535  0.2764  0.1037
  120MPD2    H1 1871   0.396   3.810  13.259  3.4259 -1.6582 -0.5376
  120MPD2    H2 1872   0.605   3.974  13.591 -0.8489  0.5976  0.9399
  120MPD2    H3 1873   0.577   3.948  13.350 -0.4651  0.8627  0.1529
  120MPD2     N 1874   0.219   3.678  13.377  0.0439 -0.2167  0.3420
  120MPD2    H5 1875   0.235   3.661  13.278 -0.8158  0.9269 -0.0019
  120MPD2    N1 1876   0.452   3.876  13.770 -0.1462  0.2902 -0.3982
  120MPD2    H7 1877   0.506   3.961  13.779  1.2602 -0.6881  0.3494
  121TMC2    C1 1878   1.773   0.447  14.142  0.7885 -0.6245  0.2545
  121TMC2    C2 1879   1.753   0.359  14.241  0.7660  0.1706 -0.6455
  121TMC2    C3 1880   1.627   0.311  14.261  0.7276  0.5775  0.2552
  121TMC2    C4 1881   1.678   0.493  14.061  0.1981 -0.3696  0.7489
  121TMC2    C5 1882   1.553   0.441  14.080 -0.3429 -0.8811  0.1551
  121TMC2    C6 1883   1.522   0.349  14.174 -0.3912  0.3817 -0.2152
  121TMC2     C 1884   1.916   0.464  14.106 -0.8621  0.1091 -0.2748
  121TMC2     O 1885   1.987   0.366  14.121 -0.4499  0.3186  0.4751
  121TMC2     H 1886   1.836   0.330  14.304  0.4032  0.2395 -0.1344
  121TMC2    H1 1887   1.705   0.545  13.970 -0.7265  2.5285  2.1547
  121TMC2    H2 1888   1.423   0.311  14.201 -0.6487  0.9549 -0.3627
  121TMC2    C7 1889   1.454   0.513  14.013  0.0540  0.4350 -0.6254
  121TMC2    C8 1890   1.586   0.233  14.376  0.0478  0.0972 -0.2768
  121TMC2    O1 1891   1.492   0.605  13.941  0.5767  0.2476 -0.5300
  121TMC2    O2 1892   1.480   0.240  14.438  0.1657 -0.4956 -0.2301
  121TMC2    O5 1893   1.697   0.161  14.418 -0.6452  0.1540  0.5911
  121TMC2    H5 1894   1.751   0.134  14.341 -1.5309  0.2942 -0.0914
  122MPD2     C 1895   2.173   0.528  13.971  0.4966  0.4140 -0.2918
  122MPD2    C1 1896   2.059   0.605  13.964  0.2465  0.3068 -0.4281
  122MPD2    C2 1897   2.058   0.719  13.886  0.1120 -0.3079  0.1149
  122MPD2    C3 1898   2.170   0.746  13.805 -0.1169 -0.1284 -0.5445
  122MPD2    C4 1899   2.288   0.677  13.823  0.2881  0.6157 -0.3825
  122MPD2    C5 1900   2.287   0.570  13.901 -0.0999  0.6061 -0.5273
  122MPD2     H 1901   1.963   0.772  13.889  1.2083  1.6646 -0.1243
  122MPD2    H1 1902   2.386   0.706  13.788  0.0788 -0.9936 -2.3024
  122MPD2    H2 1903   2.177   0.446  14.041 -0.8117  0.5544 -0.0564
  122MPD2    H3 1904   2.378   0.513  13.911 -0.0430  0.8020  0.0646
  122MPD2     N 1905   2.160   0.842  13.700 -0.0616  0.0742  0.7390
  122MPD2    H5 1906   2.237   0.841  13.634  0.5778  1.6664  1.4724
  122MPD2    N1 1907   1.939   0.575  14.035 -0.5109 -0.1399 -0.4967
  122MPD2    H7 1908   1.862   0.641  14.030  1.0245  1.5424 -1.8557
  123TMC2    C1 1909   0.241   3.569  10.157 -0.1780  0.0612  0.4778
  123TMC2    C2 1910   0.265   3.695  10.201  0.4056 -0.2615 -0.1703
  123TMC2    C3 1911   0.347   3.771  10.123  1.1465  0.4273  0.1488
  123TMC2    C4 1912   0.316   3.513  10.061  0.3874  0.5963  1.0924
  123TMC2    C5 1913   0.399   3.591   9.985 -0.2690  0.5203  1.0952
  123TMC2    C6 1914   0.419   3.724  10.017  0.1257 -0.0196 -0.4933
  123TMC2     C 1915   0.158   3.483  10.235  0.2494 -0.3530  0.5335
  123TMC2     O 1916   0.137   3.509  10.352  0.2742  0.1796  0.1761
  123TMC2     H 1917   0.196   3.729  10.277  0.4373  0.8049 -0.6018
  123TMC2    H1 1918   0.297   3.408  10.038 -0.6682  1.6478 -2.7551
  123TMC2    H2 1919   0.470   3.795   9.952 -0.2183  1.9256  1.3476
  123TMC2    C7 1920   0.426   3.549   9.857 -0.9923 -0.0851  0.2146
  123TMC2    C8 1921   0.328   3.917  10.141  0.0292 -0.0037 -0.1184
  123TMC2    O1 1922   0.412   3.430   9.850 -0.1873  0.6897 -0.3973
  123TMC2    O2 1923   0.224   3.972  10.178  0.5587 -0.1081 -0.5426
  123TMC2    O5 1924   0.448   3.980  10.131 -0.1594 -0.0831  0.0601
  123TMC2    H5 1925   0.531   3.928  10.127 -0.2745 -0.3053  0.5108
  124MPD2     C 1926   4.566   3.105  10.307  0.3651  0.1119  0.3112
  124MPD2    C1 1927   4.581   3.122  10.174  0.0036  1.0096  0.9913
  124MPD2    C2 1928   4.671   3.217  10.139 -0.0028  0.4227  0.1920
  124MPD2    C3 1929   0.012   3.288  10.224  0.4773  0.0934  0.0346
  124MPD2    C4 1930   4.738   3.264  10.356  0.8364 -0.4023  0.9413
  124MPD2    C5 1931   4.646   3.172  10.393  0.1765  0.2199  0.3095
  124MPD2     H 1932   4.679   3.246  10.035 -1.6065  0.5021  0.0996
  124MPD2    H1 1933   0.056   3.303  10.439  1.9017 -2.0629  0.9740
  124MPD2    H2 1934   4.500   3.032  10.353  0.3287 -0.2404 -0.2946
  124MPD2    H3 1935   4.632   3.155  10.499 -2.6033 -0.7204 -0.2272
  124MPD2     N 1936   0.101   3.381  10.168 -0.0378 -0.1873  1.0177
  124MPD2    H5 1937   0.121   3.375  10.069 -1.1257  0.0571  0.7803
  124MPD2    N1 1938   4.494   3.045  10.085  0.5259  0.7135  0.2239
  124MPD2    H7 1939   4.408   3.008  10.124  0.3139  0.0903 -0.8374
  125TMC2    C1 1940   0.850   0.075   9.246 -0.8658 -0.0815 -0.2445
  125TMC2    C2 1941   0.836   0.106   9.117 -0.3559  0.5697  1.0371
  125TMC2    C3 1942   0.937   0.179   9.053 -0.0995  0.0097 -0.3964
  125TMC2    C4 1943   0.960   0.110   9.317 -0.7266  0.0532 -0.0459
  125TMC2    C5 1944   1.046   0.195   9.262 -0.2067 -0.2422  0.5541
  125TMC2    C6 1945   1.040   0.233   9.127  0.1099 -0.3616 -0.0932
  125TMC2     C 1946   0.762   4.714   9.299  0.0675 -0.0348  0.3697
  125TMC2     O 1947   0.695   4.656   9.217 -0.2416 -0.0739  0.0487
  125TMC2     H 1948   0.758   0.058   9.060  2.2342 -2.0752 -0.2794
  125TMC2    H1 1949   0.966   0.074   9.419  0.6419  0.5333  0.0401
  125TMC2    H2 1950   1.129   0.274   9.079  0.8275 -3.1567 -1.1661
  125TMC2    C7 1951   1.164   0.218   9.336 -1.0036 -0.1168 -0.0460
  125TMC2    C8 1952   0.929   0.228   8.914  0.0660  0.4789  0.3026
  125TMC2    O1 1953   1.192   0.129   9.417 -0.2890  0.2331  0.0030
  125TMC2    O2 1954   0.999   0.318   8.870 -0.0421  0.2336 -0.0906
  125TMC2    O5 1955   0.811   0.200   8.863 -0.3869  0.4223 -0.3727
  125TMC2    H5 1956   0.761   0.130   8.911 -1.7418  2.8861  1.8404
  126MPD1     C 1957   0.614   4.362   9.644  0.6401 -0.2494 -0.0526
  126MPD1    C1 1958   0.677   4.465   9.711 -0.0723 -0.5095  0.3019
  126MPD1    C2 1959   0.725   4.573   9.640 -0.1844 -0.2566 -0.0502
  126MPD1    C3 1960   0.718   4.582   9.504 -0.4266 -0.4644  0.3656
  126MPD1    C4 1961   0.663   4.475   9.436 -0.1892 -0.6662  0.5515
  126MPD1    C5 1962   0.609   4.368   9.505  0.5175  0.0231 -0.0859
  126MPD1     H 1963   0.768   4.654   9.697 -0.7519  0.6648 -0.9319
  126MPD1    H1 1964   0.658   4.473   9.328  1.0006 -1.9458  0.5226
  126MPD1    H2 1965   0.568   4.275   9.689 -0.7824  1.1908  1.2931
  126MPD1    H3 1966   0.574   4.281   9.451 -0.7373  0.5662 -0.1440
  126MPD1     N 1967   0.770   4.692   9.435  0.5598  0.4802 -0.1188
  126MPD1    H5 1968   0.823   0.022   9.485 -1.1988  1.0664  0.9361
  126MPD1    N1 1969   0.662   4.466   9.852  0.0872 -0.4884 -0.6232
  126MPD1    H6 1970   0.735   4.522   9.896  0.1133 -0.9409 -0.0833
  126MPD1    H7 1971   0.684   4.373   9.889 -0.0327  0.5305  2.0231
  127TMC2    C1 1972   1.971   4.343  10.072  0.3275 -0.0524  0.6646
  127TMC2    C2 1973   2.022   4.358  10.202  0.2335  0.1318  0.0115
  127TMC2    C3 1974   1.975   4.267  10.293 -1.0379  0.1688 -0.4396
  127TMC2    C4 1975   1.871   4.253  10.041  0.6496 -0.3042  0.3931
  127TMC2    C5 1976   1.817   4.177  10.140 -0.9564  0.2561 -0.6927
  127TMC2    C6 1977   1.864   4.188  10.265  0.6299  0.2249  1.0644
  127TMC2     C 1978   2.017   4.436   9.968 -0.1786 -0.2042  0.0918
  127TMC2     O 1979   2.120   4.504   9.991 -0.0072 -0.5181  0.5815
  127TMC2     H 1980   2.097   4.432  10.226 -0.5917  0.5274  1.3583
  127TMC2    H1 1981   1.854   4.234   9.936 -0.0526 -2.5985  0.9276
  127TMC2    H2 1982   1.811   4.152  10.352 -1.9114 -1.2500 -1.0722
  127TMC2    C7 1983   1.691   4.111  10.117  0.2857 -0.4266  0.1073
  127TMC2    C8 1984   2.020   4.274  10.429 -0.2387  0.2210  0.6030
  127TMC2    O1 1985   1.619   4.166  10.037 -0.1099  0.6194  0.0607
  127TMC2    O2 1986   2.096   4.369  10.463 -0.0714  0.2451 -0.4301
  127TMC2    O5 1987   2.052   4.145  10.432 -0.1162 -0.1768  0.0156
  127TMC2    H5 1988   1.980   4.083  10.408 -1.7677  1.3373  1.0399
  128MPD2     C 1989   1.876   4.483   9.633  0.9334 -0.5640  0.6083
  128MPD2    C1 1990   1.956   4.516   9.740  0.2075  0.6766  0.6143
  128MPD2    C2 1991   2.064   4.606   9.727  0.3006  0.0480  0.4511
  128MPD2    C3 1992   2.082   4.667   9.607  0.0140 -0.0054 -0.6780
  128MPD2    C4 1993   1.998   4.640   9.497 -0.2333 -0.2669  0.2040
  128MPD2    C5 1994   1.895   4.546   9.513 -0.3607  0.0787  0.5639
  128MPD2     H 1995   2.107   4.647   9.817 -0.1087 -0.0180  0.6776
  128MPD2    H1 1996   2.019   4.669   9.394  0.4505  0.3456  0.5146
  128MPD2    H2 1997   1.795   4.412   9.647  0.3508 -0.3257 -1.5362
  128MPD2    H3 1998   1.835   4.519   9.427 -1.4404 -0.7455  1.5783
  128MPD2     N 1999   2.200   0.004   9.601  0.0450 -0.1880  0.3564
  128MPD2    H5 2000   2.266   0.003   9.679  0.6304 -3.1834 -0.1660
  128MPD2    N1 2001   1.944   4.438   9.855 -0.8269  0.3479  0.3380
  128MPD2    H7 2002   1.870   4.368   9.854  1.4521 -2.0676 -0.8280
  129TMC2    C1 2003   0.537   4.540   1.168  0.4615  0.9340  0.4395
  129TMC2    C2 2004   0.446   4.643   1.152 -0.7732  0.5077  0.8766
  129TMC2    C3 2005   0.334   4.609   1.082  0.0685 -0.3006  0.5389
  129TMC2    C4 2006   0.527   4.411   1.120 -0.3105 -0.6845  0.4713
  129TMC2    C5 2007   0.410   4.386   1.052 -0.0606  0.6114  0.8594
  129TMC2    C6 2008   0.308   4.483   1.033 -0.9547 -0.7018 -0.2590
  129TMC2     C 2009   0.636   4.557   1.273 -0.3791  0.3859 -0.5244
  129TMC2     O 2010   0.683   4.459   1.326  0.3535  0.1437  0.3319
  129TMC2     H 2011   0.463   4.741   1.196 -0.0665  0.7029  0.1754
  129TMC2    H1 2012   0.600   4.335   1.146  0.6545  0.8685  2.2652
  129TMC2    H2 2013   0.216   4.453   0.983 -1.5035 -1.1108  1.0027
  129TMC2    C7 2014   0.382   4.249   1.010 -0.0359 -0.1957 -0.1732
  129TMC2    C8 2015   0.229   4.707   1.061 -0.0565  0.3165 -0.7201
  129TMC2    O1 2016   0.297   4.240   0.921 -0.0789 -0.1187  0.1418
  129TMC2    O2 2017   0.155   4.697   0.963 -0.2799  0.4512 -0.3525
  129TMC2    O5 2018   0.207   0.025   1.182 -0.3186  0.3307  0.1782
  129TMC2    H5 2019   0.258   0.010   1.264 -1.0671  0.3745  0.6594
  130MPD2     C 2020   0.822   4.662   1.481 -0.2640  0.9425  0.0718
  130MPD2    C1 2021   0.758   4.740   1.382  0.0329 -0.7790  0.2137
  130MPD2    C2 2022   0.801   0.128   1.362 -1.1856 -0.0901 -0.3091
  130MPD2    C3 2023   0.891   0.181   1.444  0.1883 -0.0445 -0.8601
  130MPD2    C4 2024   0.966   0.099   1.526 -0.0913 -0.0339 -0.7751
  130MPD2    C5 2025   0.929   4.706   1.549  0.2660  0.4465 -0.0505
  130MPD2     H 2026   0.773   0.168   1.265 -1.5857 -0.7351 -0.4623
  130MPD2    H1 2027   1.054   0.134   1.580 -1.7774 -0.4395  2.2369
  130MPD2    H2 2028   0.782   4.567   1.515 -3.0143  2.3119  0.5902
  130MPD2    H3 2029   0.989   4.643   1.614 -1.1177 -0.9224 -0.0971
  130MPD2     N 2030   0.923   0.317   1.414 -0.7508 -0.2014 -0.2801
  130MPD2    H5 2031   0.876   0.346   1.329  0.4733 -1.3224 -1.3542
  130MPD2    N1 2032   0.685   4.681   1.276 -0.7760  0.2059 -0.2419
  130MPD2    H7 2033   0.655   4.739   1.199 -0.2833 -0.7806 -1.1753
  131TMC2    C1 2034   4.658   3.629   9.525 -0.0361 -0.5168 -0.4573
  131TMC2    C2 2035   4.695   3.658   9.651 -0.5826 -0.1876  0.5976
  131TMC2    C3 2036   0.050   3.751   9.678 -0.1138 -0.1031  0.1000
  131TMC2    C4 2037   4.723   3.683   9.419  0.9712  0.6709 -0.5266
  131TMC2    C5 2038   0.084   3.777   9.457 -0.5867  0.1495  0.2929
  131TMC2    C6 2039   0.112   3.822   9.580 -0.5016  0.6769  0.2165
  131TMC2     C 2040   4.572   3.511   9.522  0.2236  0.0657 -0.2602
  131TMC2     O 2041   4.525   3.483   9.630 -0.0584 -0.0506  0.0811
  131TMC2     H 2042   4.649   3.613   9.738  0.2527  2.5678  2.4628
  131TMC2    H1 2043   4.712   3.649   9.317  2.8691 -0.8417 -0.2337
  131TMC2    H2 2044   0.204   3.872   9.607 -0.0436 -0.2223  0.3057
  131TMC2    C7 2045   0.127   3.856   9.348 -0.4117  0.0008 -0.7588
  131TMC2    C8 2046   0.089   3.765   9.817  0.2891 -0.0557  0.2365
  131TMC2    O1 2047   0.112   3.818   9.232 -0.3644  0.4294  0.3694
  131TMC2    O2 2048   0.116   3.667   9.880 -0.3984  0.5077  0.1245
  131TMC2    O5 2049   0.136   3.891   9.839 -0.0482  1.0917  0.1887
  131TMC2    H5 2050   0.088   3.953   9.779 -1.2058 -0.7426 -0.7783
  132MPD2     C 2051   4.417   3.326   9.247 -0.2570 -0.0570  0.6592
  132MPD2    C1 2052   4.456   3.358   9.373  0.4868  0.2433  0.0361
  132MPD2    C2 2053   4.437   3.261   9.473 -0.7105 -0.0639 -0.3674
  132MPD2    C3 2054   4.356   3.149   9.445  0.3642  0.8458 -0.0715
  132MPD2    C4 2055   4.317   3.117   9.315  0.0121 -0.3386  0.7285
  132MPD2    C5 2056   4.354   3.210   9.222  0.1308 -0.4158  0.9028
  132MPD2     H 2057   4.468   3.268   9.576  1.0818 -0.0642 -0.9085
  132MPD2    H1 2058   4.285   3.019   9.281  1.2648 -0.2280 -0.7836
  132MPD2    H2 2059   4.438   3.402   9.173 -1.1222  1.5177  2.0621
  132MPD2    H3 2060   4.343   3.179   9.118  2.2923  1.6931  0.0466
  132MPD2     N 2061   4.351   3.057   9.553 -0.1602  0.6788 -0.4157
  132MPD2    H5 2062   4.414   3.082   9.629  0.0839 -2.5877  0.4319
  132MPD2    N1 2063   4.546   3.467   9.392  0.5486  0.4383  0.1726
  132MPD2    H7 2064   4.578   3.513   9.307 -4.1771 -0.1704 -1.9149
  133TMC2    C1 2065   4.045   1.030   9.370 -0.5877  0.3979 -0.6966
  133TMC2    C2 2066   4.040   1.156   9.431 -0.3894  0.3255 -0.2152
  133TMC2    C3 2067   4.049   1.259   9.343 -0.4152 -0.3565 -0.2204
  133TMC2    C4 2068   4.063   1.008   9.240  0.0499 -0.6740 -0.1744
  133TMC2    C5 2069   4.058   1.117   9.158  0.5852 -0.0965 -0.5007
  133TMC2    C6 2070   4.060   1.242   9.210 -0.4319  0.1015  0.5598
  133TMC2     C 2071   3.982   0.920   9.431  0.2219 -0.2762  0.4917
  133TMC2     O 2072   4.000   0.804   9.387 -0.1467 -0.3555  0.1895
  133TMC2     H 2073   4.065   1.177   9.534  1.0058 -1.2181 -0.2390
  133TMC2    H1 2074   4.070   0.907   9.200  1.7978 -0.4935 -0.3532
  133TMC2    H2 2075   4.054   1.329   9.146  2.6875  0.4419  0.7705
  133TMC2    C7 2076   4.004   1.100   9.024  0.1323  1.0425  0.1142
  133TMC2    C8 2077   4.090   1.391   9.382 -0.2799  0.1419  0.5088
  133TMC2    O1 2078   4.021   1.188   8.946  0.4548 -0.1027 -0.0480
  133TMC2    O2 2079   4.129   1.471   9.298  0.2278 -0.2347  0.2255
  133TMC2    O5 2080   4.016   1.416   9.489  0.6268  0.1759 -0.1711
  133TMC2    H5 2081   3.944   1.351   9.503  0.6430 -0.4769 -3.1962
  134MPD2     C 2082   3.698   0.968   9.663  0.5619 -0.2145 -0.1628
  134MPD2    C1 2083   3.787   0.895   9.580  0.0666 -0.9953 -0.8994
  134MPD2    C2 2084   3.775   0.763   9.571 -0.0514  0.3710  0.3001
  134MPD2    C3 2085   3.678   0.697   9.649 -0.0648 -0.2671  0.0762
  134MPD2    C4 2086   3.593   0.767   9.720 -0.1167 -0.2137 -0.4014
  134MPD2    C5 2087   3.602   0.899   9.726 -0.3361  0.0225 -0.3431
  134MPD2     H 2088   3.844   0.701   9.515 -1.5998 -1.1529  0.0820
  134MPD2    H1 2089   3.512   0.722   9.776  0.5341  0.6099  1.2131
  134MPD2    H2 2090   3.692   1.077   9.660  0.8452 -0.2751 -3.0850
  134MPD2    H3 2091   3.541   0.962   9.789  0.5471  1.3312 -0.7886
  134MPD2     N 2092   3.660   0.559   9.647 -0.4544 -0.7389  0.2057
  134MPD2    H5 2093   3.582   0.525   9.704 -0.5322 -0.3142  0.3527
  134MPD2    N1 2094   3.886   0.976   9.517  0.0439 -0.8684 -0.0548
  134MPD2    H7 2095   3.877   1.076   9.528 -0.6852 -1.0746  1.2142
  135TMC2    C1 2096   1.107   1.389  10.543  0.3082 -0.0181  0.3950
  135TMC2    C2 2097   1.097   1.346  10.673 -0.2520 -0.4490  0.9002
  135TMC2    C3 2098   1.026   1.226  10.693 -0.1244  0.4805 -0.1721
  135TMC2    C4 2099   1.051   1.314  10.443  1.1791  0.0865 -0.0092
  135TMC2    C5 2100   0.989   1.193  10.463  0.2517 -0.0790  0.2711
  135TMC2    C6 2101   0.978   1.145  10.593 -0.5405  1.1074  0.0010
  135TMC2     C 2102   1.186   1.511  10.511 -0.2935  0.5845 -0.0233
  135TMC2     O 2103   1.205   1.591  10.603 -0.3671 -0.0499  0.3753
  135TMC2     H 2104   1.158   1.374  10.758 -0.1743  0.5559  0.5129
  135TMC2    H1 2105   1.047   1.349  10.340  0.4710  0.9932  0.3242
  135TMC2    H2 2106   0.926   1.055  10.624  0.9665 -0.7139 -2.7214
  135TMC2    C7 2107   0.938   1.111  10.354  0.5866  0.2097 -0.2196
  135TMC2    C8 2108   1.072   1.153  10.804 -0.1442 -0.7585 -0.5101
  135TMC2    O1 2109   0.940   1.168  10.246  0.9679 -0.2898 -0.0728
  135TMC2    O2 2110   1.020   1.163  10.914 -0.2571 -0.2274 -0.6401
  135TMC2    O5 2111   1.165   1.063  10.765 -0.6121  0.2120 -0.0199
  135TMC2    H5 2112   1.195   1.082  10.673 -3.0890  0.9521 -0.6515
  136MPD2     C 2113   1.283   1.744  10.353  0.7986  0.0921 -0.2077
  136MPD2    C1 2114   1.287   1.617  10.307  0.1602 -0.0467 -0.4984
  136MPD2    C2 2115   1.355   1.587  10.190 -0.2927  0.3387 -0.0263
  136MPD2    C3 2116   1.411   1.687  10.114  0.0154  0.6910 -0.1858
  136MPD2    C4 2117   1.405   1.812  10.155 -0.0782  0.1193  0.0768
  136MPD2    C5 2118   1.341   1.844  10.270 -0.2233  0.2559 -0.1793
  136MPD2     H 2119   1.369   1.480  10.174  1.7072  0.5940  0.0636
  136MPD2    H1 2120   1.445   1.896  10.098 -1.9459  0.7846 -0.2660
  136MPD2    H2 2121   1.224   1.775  10.439 -0.4825 -1.0971 -0.6579
  136MPD2    H3 2122   1.330   1.950  10.287  1.6595  0.4238 -0.0066
  136MPD2     N 2123   1.488   1.657   9.994 -0.1207  0.1746 -0.3684
  136MPD2    H5 2124   1.533   1.737   9.950 -0.4415  1.1554  1.0742
  136MPD2    N1 2125   1.231   1.508  10.381  0.3478  0.4273 -0.6642
  136MPD2    H7 2126   1.232   1.415  10.341 -0.7738  0.3101 -0.4119
  137TMC2    C1 2127   1.311   0.339   9.700  0.4006 -0.9038  0.2134
  137TMC2    C2 2128   1.409   0.429   9.748 -0.0961 -0.0081  0.1862
  137TMC2    C3 2129   1.380   0.556   9.716  0.7019 -0.2908 -0.5425
  137TMC2    C4 2130   1.198   0.380   9.639 -0.3685 -0.0867 -0.0683
  137TMC2    C5 2131   1.168   0.516   9.633 -0.0419  0.3106  0.2706
  137TMC2    C6 2132   1.260   0.602   9.669  0.5623  0.1661  0.7476
  137TMC2     C 2133   1.329   0.214   9.759 -0.0241 -0.5356 -0.2371
  137TMC2     O 2134   1.403   0.210   9.856  0.0118  0.5938  0.4215
  137TMC2     H 2135   1.503   0.400   9.794 -1.1298  1.7086  3.3807
  137TMC2    H1 2136   1.125   0.306   9.608 -1.5391  0.5535  1.1854
  137TMC2    H2 2137   1.254   0.708   9.644  1.4896  0.2019  0.6673
  137TMC2    C7 2138   1.071   0.559   9.533  0.4620 -0.1404 -0.1867
  137TMC2    C8 2139   1.478   0.644   9.762  0.2602  0.5184 -0.2900
  137TMC2    O1 2140   1.093   0.645   9.449  0.2266 -0.2831 -0.1171
  137TMC2    O2 2141   1.598   0.633   9.742 -0.6603  0.2139  0.2395
  137TMC2    O5 2142   1.415   0.733   9.831 -0.6144 -0.3650  0.2990
  137TMC2    H5 2143   1.326   0.697   9.848 -0.6474  0.7770  2.4625
  138MPD2     C 2144   1.162   4.632   9.670 -0.3020  0.5947  1.3472
  138MPD2    C1 2145   1.226   4.727   9.752 -0.0956 -0.4930 -0.4892
  138MPD2    C2 2146   1.274   4.682   9.880 -0.3189  0.1127  0.0454
  138MPD2    C3 2147   1.246   4.552   9.922  0.0344  0.0101  0.7359
  138MPD2    C4 2148   1.174   4.469   9.839  0.2042 -0.2139  0.3246
  138MPD2    C5 2149   1.132   4.505   9.713 -0.2464 -0.5055  0.4341
  138MPD2     H 2150   1.327   0.012   9.942  1.2598 -0.6405 -0.4531
  138MPD2    H1 2151   1.179   4.363   9.861 -1.5835 -0.0116  1.7309
  138MPD2    H2 2152   1.135   4.651   9.567  1.3139  0.2148  0.8551
  138MPD2    H3 2153   1.103   4.438   9.633 -3.8466  1.3470  0.1494
  138MPD2     N 2154   1.300   4.512  10.043  0.9310 -0.0091  0.0549
  138MPD2    H5 2155   1.381   4.568  10.067 -1.1337  2.4070  1.3780
  138MPD2    N1 2156   1.265   0.114   9.698  0.4043 -0.7321  0.7928
  138MPD2    H7 2157   1.232   0.127   9.603 -0.2173 -1.8411  0.8513
  139TMC2    C1 2158   1.892   3.443  13.435 -0.0038  0.1774 -0.7596
  139TMC2    C2 2159   2.003   3.508  13.485  0.5061 -0.4408 -0.0968
  139TMC2    C3 2160   1.987   3.639  13.502 -0.4496  0.3061 -0.6899
  139TMC2    C4 2161   1.770   3.495  13.425  0.2250  0.9218 -0.2551
  139TMC2    C5 2162   1.759   3.624  13.470  0.1632  0.2819  0.8482
  139TMC2    C6 2163   1.865   3.699  13.504 -0.3593  0.0773  0.5419
  139TMC2     C 2164   1.904   3.297  13.426 -1.0094 -0.5270  0.7408
  139TMC2     O 2165   1.834   3.248  13.340  0.0952  0.3951 -0.0847
  139TMC2     H 2166   2.097   3.453  13.492  0.9433  0.4774  1.1653
  139TMC2    H1 2167   1.685   3.429  13.408  0.8164 -0.1807  1.1462
  139TMC2    H2 2168   1.851   3.804  13.527  0.7539  0.0214  1.4783
  139TMC2    C7 2169   1.632   3.699  13.465 -0.4138 -0.4824  0.0649
  139TMC2    C8 2170   2.086   3.705  13.584  1.4647  0.7136  0.4498
  139TMC2    O1 2171   1.629   3.810  13.516  0.0682 -0.2148 -0.5739
  139TMC2    O2 2172   2.207   3.687  13.567  0.3057  0.0564  0.0479
  139TMC2    O5 2173   2.032   3.687  13.702  0.4159 -0.1716  0.1523
  139TMC2    H5 2174   1.936   3.668  13.700  0.4734 -0.2367 -2.0257
  140MPD2     C 2175   2.089   3.077  13.659  0.2109 -0.5034  0.3543
  140MPD2    C1 2176   2.034   3.113  13.533  0.0901 -0.2466 -1.0112
  140MPD2    C2 2177   2.028   3.021  13.429 -0.4543  0.3175 -0.0848
  140MPD2    C3 2178   2.056   2.886  13.463 -0.4198 -0.8813 -0.5461
  140MPD2    C4 2179   2.099   2.855  13.592  0.3923 -1.0517 -0.2358
  140MPD2    C5 2180   2.106   2.948  13.688 -0.1517 -0.3692 -0.6039
  140MPD2     H 2181   1.997   3.056  13.332 -1.2537  2.0537  0.7867
  140MPD2    H1 2182   2.121   2.754  13.625  0.4788 -0.7556  0.6299
  140MPD2    H2 2183   2.106   3.154  13.735  0.1939 -1.3526  1.2155
  140MPD2    H3 2184   2.131   2.920  13.789 -0.3437  0.7952 -0.2342
  140MPD2     N 2185   2.047   2.801  13.361  0.4476 -0.3849 -0.2089
  140MPD2    H5 2186   2.013   2.840  13.273 -1.7533 -1.0714  0.3197
  140MPD2    N1 2187   1.986   3.244  13.521  0.1640 -0.2087  0.2898
  140MPD2    H7 2188   2.002   3.303  13.602  2.4693  0.2797 -0.5085
  141TMC2    C1 2189   1.967   4.380  14.107 -0.5165  0.2468 -0.1753
  141TMC2    C2 2190   2.005   4.270  14.180  0.1009 -0.2082 -0.4751
  141TMC2    C3 2191   2.102   4.283  14.273 -0.0367 -1.3145 -0.7488
  141TMC2    C4 2192   2.031   4.496  14.127 -0.4007  0.0489 -0.4720
  141TMC2    C5 2193   2.128   4.507  14.224  0.2017 -0.3783  0.0863
  141TMC2    C6 2194   2.168   4.402  14.300  0.0846 -0.0790  0.2200
  141TMC2     C 2195   1.906   4.368  13.974 -0.2461 -0.3967 -1.1144
  141TMC2     O 2196   1.954   4.446  13.894 -0.0915 -0.0654  0.2110
  141TMC2     H 2197   1.956   4.176  14.155  0.4343 -1.0109  1.7808
  141TMC2    H1 2198   2.007   4.588  14.076  0.8728 -1.6495 -4.1221
  141TMC2    H2 2199   2.235   4.409  14.385 -2.0745  1.5888  1.7973
  141TMC2    C7 2200   2.245   4.562  14.158  0.1413  0.0801 -0.1683
  141TMC2    C8 2201   2.147   4.161  14.343  0.0688 -0.5393 -0.2104
  141TMC2    O1 2202   2.228   4.625  14.053 -0.0445 -0.0807 -0.1440
  141TMC2    O2 2203   2.244   4.166  14.417 -0.4834  0.3524  0.4104
  141TMC2    O5 2204   2.050   4.073  14.372  0.7011 -0.5063 -0.0765
  141TMC2    H5 2205   1.958   4.087  14.341  0.8820 -3.8505 -2.1669
  142TMC2    C1 2206   4.727   2.982   9.439 -0.8055  0.0107 -0.2005
  142TMC2    C2 2207   4.692   2.974   9.309  0.1190  0.4619 -0.1452
  142TMC2    C3 2208   4.726   3.084   9.234 -0.1353  0.7728 -0.5884
  142TMC2    C4 2209   0.061   3.080   9.490 -1.1249 -0.0918 -0.6597
  142TMC2    C5 2210   0.095   3.188   9.409  0.4109 -0.1326  0.4129
  142TMC2    C6 2211   0.065   3.184   9.278 -0.1072  0.4104  1.3111
  142TMC2     C 2212   4.675   2.877   9.517 -0.3364  0.7225 -0.3481
  142TMC2     O 2213   4.581   2.808   9.476 -0.2892 -0.3560 -0.0395
  142TMC2     H 2214   4.644   2.886   9.268 -1.8393  0.4379  2.2080
  142TMC2    H1 2215   0.061   3.088   9.598 -1.3061  2.4779 -0.8662
  142TMC2    H2 2216   0.099   3.256   9.203  1.8393 -2.7639 -0.8884
  142TMC2    C7 2217   0.145   3.310   9.475 -0.1916 -0.5925  0.4312
  142TMC2    C8 2218   4.685   3.088   9.087  0.3286 -0.5742 -0.8958
  142TMC2    O1 2219   0.143   3.300   9.594  0.1711  0.7667  0.0268
  142TMC2    O2 2220   4.681   3.195   9.028  0.3472 -0.2568  0.5964
  142TMC2    O5 2221   4.716   2.971   9.028 -0.3658 -0.1134  0.5310
  142TMC2    H5 2222   0.009   2.906   9.093  2.6268 -0.0594 -1.0093
  143MPD2     C 2223   4.723   2.583   9.945  0.0429  0.3697 -0.3837
  143MPD2    C1 2224   4.620   2.595   9.858 -0.7602 -0.3268  0.3401
  143MPD2    C2 2225   4.629   2.677   9.748  0.1016  0.4119  0.2790
  143MPD2    C3 2226   0.000   2.757   9.736  0.2561  0.2471  1.1896
  143MPD2    C4 2227   0.102   2.743   9.829 -0.5558  0.4940  0.1761
  143MPD2    C5 2228   0.096   2.655   9.931 -0.9296 -0.0068 -0.0904
  143MPD2     H 2229   4.552   2.686   9.672  0.6435 -1.6158 -0.5093
  143MPD2    H1 2230   0.197   2.794   9.824 -0.7543  0.6256 -2.2286
  143MPD2    H2 2231   4.721   2.508  10.024 -2.8153 -0.2666 -1.0768
  143MPD2    H3 2232   0.179   2.651  10.000 -1.1456  1.8822  0.2569
  143MPD2     N 2233   0.020   2.847   9.622  0.6568 -0.2914  0.1619
  143MPD2    H5 2234   0.107   2.900   9.620  2.6688 -3.5499  0.1147
  143MPD2    N1 2235   4.506   2.507   9.876 -0.0898  0.1821 -0.1278
  143MPD2    H7 2236   4.513   2.449   9.960  3.0710  0.8634  0.0725
  144TMC2    C1 2237   2.690   1.681   0.286 -0.1126 -0.8315  0.4609
  144TMC2    C2 2238   2.700   1.572   0.365  0.5929 -0.0527 -0.1997
  144TMC2    C3 2239   2.818   1.551   0.435  0.5569  0.0320  0.6998
  144TMC2    C4 2240   2.799   1.773   0.277 -0.5872  0.1304 -0.1369
  144TMC2    C5 2241   2.913   1.754   0.352 -0.7523 -0.1266  0.1452
  144TMC2    C6 2242   2.921   1.642   0.426  0.1851 -0.1281 -0.0908
  144TMC2     C 2243   2.574   1.709   0.206  0.5892  0.4128 -0.4324
  144TMC2     O 2244   2.583   1.805   0.133  0.8183 -0.0623  0.0853
  144TMC2     H 2245   2.624   1.497   0.380 -1.1855  1.6755 -0.5711
  144TMC2    H1 2246   2.787   1.868   0.226 -0.1478  0.6990  0.8086
  144TMC2    H2 2247   3.014   1.620   0.477  0.3151 -0.2214 -0.3698
  144TMC2    C7 2248   3.030   1.836   0.341 -0.6410  0.3170 -0.1205
  144TMC2    C8 2249   2.820   1.441   0.537  0.2747 -0.0121 -0.2545
  144TMC2    O1 2250   3.133   1.772   0.322  0.1416 -0.5272 -0.3063
  144TMC2    O2 2251   2.764   1.333   0.523 -0.2899  0.1472 -0.2589
  144TMC2    O5 2252   2.929   1.457   0.620  0.0687 -0.3854  0.6281
  144TMC2    H5 2253   2.935   1.548   0.656 -1.6000  0.3749 -0.9827
  145MPD2     C 2254   2.178   1.543  17.698 -0.0927  0.6152 -0.5157
  145MPD2    C1 2255   2.261   1.652  17.674  0.5499 -0.2370 -0.7128
  145MPD2    C2 2256   2.362   1.679   0.010  0.0837 -0.6818  0.2963
  145MPD2    C3 2257   2.374   1.605   0.125 -0.9252 -0.2871 -0.0212
  145MPD2    C4 2258   2.264   1.523   0.159 -0.1988 -0.6801 -0.1956
  145MPD2    C5 2259   2.165   1.497   0.062  0.6105 -0.3991 -0.3366
  145MPD2     H 2260   2.428   1.762  17.747 -1.4635  0.2172 -0.8299
  145MPD2    H1 2261   2.264   1.472   0.254  0.2464 -0.0203  0.1566
  145MPD2    H2 2262   2.104   1.505  17.629  0.3078 -0.1111 -0.5456
  145MPD2    H3 2263   2.086   1.428   0.087 -0.7914  1.0276 -0.8460
  145MPD2     N 2264   2.480   1.612   0.214  1.2816  0.6346  0.6280
  145MPD2    H5 2265   2.503   1.532   0.272 -1.7395 -0.4507  0.2954
  145MPD2    N1 2266   2.258   1.717  17.556  0.6036  0.5369 -0.3741
  145MPD2    H7 2267   2.334   1.781  17.533  1.0007  0.4307  0.6610
  146TMC2    C1 2268   3.621   1.152  12.420  0.0380 -0.2000  0.2150
  146TMC2    C2 2269   3.535   1.242  12.358 -0.0549 -0.1965 -0.0284
  146TMC2    C3 2270   3.491   1.209  12.236  0.8738  0.4572 -0.7134
  146TMC2    C4 2271   3.668   1.040  12.367  1.0707  0.2690  0.6216
  146TMC2    C5 2272   3.614   1.006  12.247  0.2159 -0.0455 -0.0462
  146TMC2    C6 2273   3.522   1.089  12.178 -0.0488  0.3917 -0.2501
  146TMC2     C 2274   3.667   1.193  12.555 -0.2229 -0.1573 -0.8168
  146TMC2     O 2275   3.627   1.299  12.597  0.3933  0.5192 -0.1381
  146TMC2     H 2276   3.495   1.327  12.412  2.0097  0.6212  0.2157
  146TMC2    H1 2277   3.750   0.985  12.411  1.8688  0.7752 -0.2306
  146TMC2    H2 2278   3.484   1.053  12.083  0.4063 -0.0919 -0.2489
  146TMC2    C7 2279   3.651   0.882  12.185 -0.5425 -0.5126 -0.2427
  146TMC2    C8 2280   3.398   1.293  12.167 -0.0635  1.5087  0.2976
  146TMC2    O1 2281   3.594   0.852  12.081  0.1011  0.0395 -0.8697
  146TMC2    O2 2282   3.294   1.256  12.107 -0.1695 -0.0253 -0.7064
  146TMC2    O5 2283   3.457   1.415  12.155 -0.3432  0.7407  0.4761
  146TMC2    H5 2284   3.545   1.431  12.195  0.3983  1.3778 -1.3946
  147MPD2     C 2285   3.896   0.436  12.179 -0.0491 -0.6272  1.0593
  147MPD2    C1 2286   3.959   0.511  12.274 -0.2603 -0.1331  0.3345
  147MPD2    C2 2287   3.906   0.639  12.294 -0.0821 -0.0837 -0.4774
  147MPD2    C3 2288   3.789   0.679  12.222  0.3344  0.2471  0.1373
  147MPD2    C4 2289   3.728   0.604  12.125 -0.2054 -0.3989  0.1485
  147MPD2    C5 2290   3.782   0.478  12.106 -0.8379  0.0661  0.5550
  147MPD2     H 2291   3.951   0.699  12.373 -0.0021  0.2040 -0.7436
  147MPD2    H1 2292   3.642   0.633  12.064 -0.3065  1.2331  1.0639
  147MPD2    H2 2293   3.913   0.329  12.171  0.6830 -0.7065  3.7841
  147MPD2    H3 2294   3.730   0.415  12.035 -2.0714  0.6465  0.9237
  147MPD2     N 2295   3.748   0.813  12.250 -0.1439  0.4203  0.5230
  147MPD2    H5 2296   3.802   0.865  12.318 -2.2925  2.6058  0.5244
  147MPD2    N1 2297   4.073   0.455  12.333 -0.2240 -0.4822  0.1147
  147MPD2    H7 2298   4.093   0.356  12.322 -0.0493 -0.3792 -0.5352
  148TMC2    C1 2299   4.252   4.279  10.661 -0.1836  0.3508 -0.2994
  148TMC2    C2 2300   4.345   4.367  10.716 -0.2344 -0.6376  0.0524
  148TMC2    C3 2301   4.464   4.309  10.753  0.0925 -0.0479 -0.7103
  148TMC2    C4 2302   4.275   4.142  10.666 -0.7570  0.5016 -0.0437
  148TMC2    C5 2303   4.390   4.089  10.711 -0.8480  0.1526  0.3527
  148TMC2    C6 2304   4.489   4.174  10.743 -0.4510  0.0937  0.2324
  148TMC2     C 2305   4.184   4.330  10.547  0.0819  0.1550  0.3110
  148TMC2     O 2306   4.121   4.431  10.550 -0.5145  0.1503  0.7084
  148TMC2     H 2307   4.330   4.475  10.717 -0.3600 -0.6393 -1.4889
  148TMC2    H1 2308   4.202   4.066  10.641  1.2396 -0.7415 -2.0926
  148TMC2    H2 2309   4.585   4.132  10.772 -0.7824 -0.6048  0.3277
  148TMC2    C7 2310   4.426   3.967  10.643  0.0504  0.1567  0.9982
  148TMC2    C8 2311   4.583   4.389  10.771 -0.2255 -0.7085 -0.5148
  148TMC2    O1 2312   4.381   3.950  10.529 -0.1494 -0.3108 -0.5123
  148TMC2    O2 2313   4.567   4.497  10.827 -0.5935 -0.1161 -0.4202
  148TMC2    O5 2314   4.671   4.360  10.665 -0.3135  0.1108  0.3447
  148TMC2    H5 2315   4.661   4.265  10.643  0.3323  0.2421 -0.5328
  149MPD2     C 2316   4.060   4.345  10.288  0.4922  0.5291  0.0120
  149MPD2    C1 2317   4.135   4.240  10.324  1.1469  0.1823 -0.8965
  149MPD2    C2 2318   4.130   4.123  10.252 -0.0981  0.2870  0.7208
  149MPD2    C3 2319   4.046   4.106  10.144 -0.4377 -0.0878  0.3504
  149MPD2    C4 2320   3.977   4.218  10.101 -0.9740 -0.1060  0.1634
  149MPD2    C5 2321   3.992   4.332  10.170 -0.8784  0.6430 -0.6284
  149MPD2     H 2322   4.196   4.045  10.287 -1.6352 -1.9673 -1.4220
  149MPD2    H1 2323   3.930   4.218  10.003  1.5040 -0.0958 -1.0385
  149MPD2    H2 2324   4.070   4.435  10.346  0.6809  0.5675 -0.0793
  149MPD2    H3 2325   3.943   4.420  10.130  0.8834  1.6339 -0.6115
  149MPD2     N 2326   4.008   3.974  10.102 -0.1071  0.3582  0.0220
  149MPD2    H5 2327   3.954   3.970  10.016 -1.0993 -1.5307  0.7256
  149MPD2    N1 2328   4.204   4.240  10.447 -0.6729 -0.0334 -0.2948
  149MPD2    H7 2329   4.268   4.162  10.461 -0.3692 -0.2804 -2.9847
  150TMC2    C1 2330   1.478   3.888  12.158 -0.3084 -0.5624  0.8055
  150TMC2    C2 2331   1.472   3.907  12.020  0.2113  0.8810  0.6701
  150TMC2    C3 2332   1.575   3.982  11.968  0.6177 -0.6721  0.6898
  150TMC2    C4 2333   1.575   3.931  12.235  0.4262  0.1556  0.1796
  150TMC2    C5 2334   1.680   3.995  12.180  0.4298  0.3678 -0.7141
  150TMC2    C6 2335   1.688   4.015  12.042 -0.2189  0.1480 -0.7479
  150TMC2     C 2336   1.363   3.837  12.225  0.7848 -0.0613  0.5853
  150TMC2     O 2337   1.380   3.792  12.337  0.1353 -0.7763  0.2281
  150TMC2     H 2338   1.409   3.845  11.957  0.7229  0.7391  0.3042
  150TMC2    H1 2339   1.570   3.926  12.343 -1.6695 -2.8462 -0.0554
  150TMC2    H2 2340   1.777   4.051  11.991  1.3158 -0.9018  1.1585
  150TMC2    C7 2341   1.809   3.988  12.248  0.4480  0.5458 -0.0277
  150TMC2    C8 2342   1.582   3.987  11.825  1.1329 -0.7245 -0.1965
  150TMC2    O1 2343   1.896   4.061  12.208 -0.0720  0.2045  0.6054
  150TMC2    O2 2344   1.687   3.956  11.770 -0.8615 -0.2874 -0.1628
  150TMC2    O5 2345   1.466   4.024  11.769 -0.1988 -0.3044 -0.1679
  150TMC2    H5 2346   1.399   4.048  11.835  1.0430  0.3294  0.8608
  151MPD2     C 2347   0.854   3.787  12.232 -0.4639  0.1663 -0.6783
  151MPD2    C1 2348   0.889   3.784  12.101 -0.2742  0.5997 -0.9788
  151MPD2    C2 2349   1.025   3.786  12.075  0.1900  0.3883 -0.0659
  151MPD2    C3 2350   1.122   3.804  12.179 -0.6157  0.4319  0.1500
  151MPD2    C4 2351   1.085   3.807  12.311 -0.0131 -0.4412 -0.7069
  151MPD2    C5 2352   0.947   3.788  12.335  0.0914  0.6590  0.3342
  151MPD2     H 2353   1.055   3.800  11.972  1.0146  2.6154  0.4713
  151MPD2    H1 2354   1.158   3.822  12.389  0.2376 -0.2988 -0.9693
  151MPD2    H2 2355   0.750   3.776  12.261 -0.3691  2.4654  0.4813
  151MPD2    H3 2356   0.918   3.799  12.439  2.3693  2.8062  0.7437
  151MPD2     N 2357   1.253   3.832  12.142 -0.4170 -0.3622 -0.5196
  151MPD2    H5 2358   1.259   3.874  12.050  2.6393  0.2472 -0.0354
  151MPD2    N1 2359   0.788   3.778  12.004  0.0078 -0.0453  1.0127
  151MPD2    H7 2360   0.689   3.789  12.024 -0.4081  0.4821 -1.3337
  152TMC2    C1 2361   1.196   3.566  12.664 -0.0130 -0.5062 -0.3505
  152TMC2    C2 2362   1.280   3.468  12.709 -0.4252 -0.0345 -0.0675
  152TMC2    C3 2363   1.414   3.497  12.705  0.1308 -0.0858  0.2061
  152TMC2    C4 2364   1.234   3.695  12.646 -0.3648  0.0491 -0.0892
  152TMC2    C5 2365   1.367   3.725  12.659 -0.1688 -0.2270 -0.4523
  152TMC2    C6 2366   1.458   3.625  12.685 -0.2056 -0.5161 -0.4293
  152TMC2     C 2367   1.048   3.544  12.667 -0.5111 -0.1389 -0.1068
  152TMC2     O 2368   0.980   3.635  12.623 -0.1002 -0.1123 -0.2042
  152TMC2     H 2369   1.254   3.367  12.739  0.2387 -0.1063  0.2785
  152TMC2    H1 2370   1.159   3.770  12.622  1.2713  1.2164 -1.5590
  152TMC2    H2 2371   1.563   3.649  12.696 -0.2071 -0.2965 -0.8982
  152TMC2    C7 2372   1.410   3.858  12.635 -0.3576 -0.2822 -0.0229
  152TMC2    C8 2373   1.488   3.376  12.657  0.1750  1.0761  0.1656
  152TMC2    O1 2374   1.330   3.948  12.601  0.4513  0.2349  0.0622
  152TMC2    O2 2375   1.414   3.284  12.621 -0.0694 -0.0751  0.2413
  152TMC2    O5 2376   1.586   3.428  12.578 -0.0843 -0.5428  0.0505
  152TMC2    H5 2377   1.635   3.499  12.625 -2.7224  2.4558 -1.7831
  153MPD2     C 2378   0.820   3.270  12.794  0.3500 -0.4765  0.5967
  153MPD2    C1 2379   0.864   3.380  12.713 -0.2356  0.0197  0.0433
  153MPD2    C2 2380   0.768   3.443  12.644 -0.9808  0.3096  0.4251
  153MPD2    C3 2381   0.636   3.408  12.642 -0.0640 -0.4713 -0.3341
  153MPD2    C4 2382   0.595   3.299  12.721  0.2320 -0.3462 -0.6382
  153MPD2    C5 2383   0.692   3.229  12.790 -0.0239  0.5664 -0.5090
  153MPD2     H 2384   0.798   3.524  12.579  2.0105 -0.6816  0.6041
  153MPD2    H1 2385   0.496   3.258  12.736  0.8473 -1.6325 -0.1170
  153MPD2    H2 2386   0.884   3.217  12.863  0.1841 -2.0055 -0.4313
  153MPD2    H3 2387   0.653   3.138  12.833  1.7587  0.2421  0.3941
  153MPD2     N 2388   0.544   3.484  12.563 -0.3946 -0.1217 -0.0633
  153MPD2    H5 2389   0.590   3.547  12.498 -1.4214  2.1140  1.3471
  153MPD2    N1 2390   1.000   3.424  12.718 -0.0972  0.4679  0.5098
  153MPD2    H7 2391   1.060   3.369  12.778  0.0140 -0.4256 -0.4157
  154TMC2    C1 2392   2.493   2.921  17.333 -0.1570  0.4288  0.1603
  154TMC2    C2 2393   2.548   2.881  17.456  0.4135  0.0173  0.1587
  154TMC2    C3 2394   2.614   2.759  17.455 -0.1830  0.0601  0.0389
  154TMC2    C4 2395   2.505   2.850  17.218  0.3694 -0.0446 -0.0875
  154TMC2    C5 2396   2.568   2.730  17.226  0.6029 -0.6343  0.2914
  154TMC2    C6 2397   2.615   2.683  17.343  0.5439  0.1844 -0.5018
  154TMC2     C 2398   2.380   3.013  17.357 -0.2529  1.1087  0.2525
  154TMC2     O 2399   2.382   3.077  17.457  0.1669  0.2693 -0.5837
  154TMC2     H 2400   2.552   2.946  17.543  1.0776  1.2113 -0.7646
  154TMC2    H1 2401   2.459   2.883  17.126 -1.6007  0.2127  0.9777
  154TMC2    H2 2402   2.657   2.583  17.343  0.2346  0.0598  0.7484
  154TMC2    C7 2403   2.574   2.628  17.119  0.9111 -0.2118  0.0259
  154TMC2    C8 2404   2.693   2.703  17.568 -0.0938  0.3825 -0.1171
  154TMC2    O1 2405   2.582   2.510  17.148 -0.1575 -0.4754  0.0445
  154TMC2    O2 2406   2.791   2.631  17.557 -0.2709 -0.2567 -0.0527
  154TMC2    O5 2407   2.658   2.762  17.678 -0.4134  0.0226  0.2470
  154TMC2    H5 2408   2.574   2.812  17.672 -0.7914 -0.8021 -1.2065
  155MPD2     C 2409   2.113   3.139  17.123 -0.4457 -0.3914  0.4873
  155MPD2    C1 2410   2.201   3.131  17.229 -0.3190  0.0682  0.2333
  155MPD2    C2 2411   2.166   3.221  17.331  0.0061  0.2281  0.3418
  155MPD2    C3 2412   2.071   3.321  17.318  0.1002  0.1454  0.2749
  155MPD2    C4 2413   1.990   3.319  17.202  0.5267  0.8462  0.4816
  155MPD2    C5 2414   2.012   3.225  17.106  0.5575  0.0799 -0.3508
  155MPD2     H 2415   2.208   3.215  17.430 -1.6715 -0.5552  1.0075
  155MPD2    H1 2416   1.901   3.379  17.187  1.0427  1.5324  0.1487
  155MPD2    H2 2417   2.120   3.066  17.043  1.0842 -0.0776  0.3466
  155MPD2    H3 2418   1.944   3.231  17.023 -1.9840  1.8674  1.8807
  155MPD2     N 2419   2.034   3.392  17.438  0.2741 -0.0542 -0.0013
  155MPD2    H5 2420   2.093   3.377  17.519  2.6666  1.8068 -1.4226
  155MPD2    N1 2421   2.300   3.028  17.245  0.0521  0.5514  0.1065
  155MPD2    H7 2422   2.304   2.957  17.172  2.6323  0.4644  0.3305
  156TMC2    C1 2423   1.520   1.155  12.032 -0.5920 -0.1925  0.9888
  156TMC2    C2 2424   1.599   1.046  12.022  0.8159 -0.2568 -0.0463
  156TMC2    C3 2425   1.664   1.021  11.904 -0.0631  0.3533  0.2188
  156TMC2    C4 2426   1.487   1.226  11.921 -0.8710 -0.0141 -0.5128
  156TMC2    C5 2427   1.553   1.200  11.805  0.5162  0.1553  0.4777
  156TMC2    C6 2428   1.627   1.086  11.792  0.1919 -0.1738 -0.4735
  156TMC2     C 2429   1.427   1.149  12.141 -0.2150 -0.2463 -0.0047
  156TMC2     O 2430   1.320   1.205  12.116 -0.5883  0.0106 -0.4157
  156TMC2     H 2431   1.635   0.990  12.108  0.5619 -0.1063  0.1585
  156TMC2    H1 2432   1.404   1.295  11.925 -0.7137  0.1285  0.3504
  156TMC2    H2 2433   1.680   1.077  11.697  1.0316  2.0180 -0.2152
  156TMC2    C7 2434   1.449   1.202  11.697 -0.3091  0.0437 -0.7700
  156TMC2    C8 2435   1.805   0.991  11.926  0.3382  0.0654 -0.0363
  156TMC2    O1 2436   1.431   1.101  11.631  0.1051  0.2385 -0.1147
  156TMC2    O2 2437   1.856   1.019  12.029  0.1422 -0.2307  0.2273
  156TMC2    O5 2438   1.864   0.988  11.805 -0.3871  0.4539  0.2090
  156TMC2    H5 2439   1.807   0.954  11.732  1.7697  0.1041 -1.2904
  157MPD2     C 2440   1.464   1.003  12.485 -0.4437 -0.6470  0.0297
  157MPD2    C1 2441   1.410   1.075  12.382  0.0184  0.2280  0.0622
  157MPD2    C2 2442   1.288   1.140  12.403 -0.0652 -0.3285 -0.4573
  157MPD2    C3 2443   1.218   1.122  12.519  0.0514  0.2232 -0.3341
  157MPD2    C4 2444   1.274   1.053  12.624  0.5081  1.0520 -0.0604
  157MPD2    C5 2445   1.399   0.993  12.604  0.0104  0.1461  0.1479
  157MPD2     H 2446   1.241   1.204  12.330 -0.2532  1.4832  1.2696
  157MPD2    H1 2447   1.208   1.018  12.702  0.5223  0.3525 -0.3571
  157MPD2    H2 2448   1.562   0.958  12.477 -1.1544 -2.4204  1.3384
  157MPD2    H3 2449   1.430   0.933  12.689 -1.0303  0.1756  0.5433
  157MPD2     N 2450   1.090   1.177  12.527  0.4163  0.3085  0.0481
  157MPD2    H5 2451   1.046   1.219  12.446  0.4491 -0.5470 -0.4143
  157MPD2    N1 2452   1.481   1.100  12.263 -0.4509 -0.6284 -0.1189
  157MPD2    H7 2453   1.580   1.082  12.249  0.4316  2.4854  2.2622
  158TMC2    C1 2454   1.180   0.222  13.238 -0.2588  0.6803  0.1034
  158TMC2    C2 2455   1.175   0.251  13.104  0.2862 -0.1845  0.3501
  158TMC2    C3 2456   1.061   0.213  13.034  0.5352 -0.4281  0.6299
  158TMC2    C4 2457   1.081   0.155  13.300  0.7980 -0.0167 -0.0330
  158TMC2    C5 2458   0.968   0.132  13.228 -0.4051 -0.1991 -0.3152
  158TMC2    C6 2459   0.950   0.161  13.098 -0.2704  0.3862 -0.0126
  158TMC2     C 2460   1.316   0.224  13.298  0.0878 -0.7173  0.0653
  158TMC2     O 2461   1.402   0.294  13.250 -0.1488  0.1851 -0.0433
  158TMC2     H 2462   1.259   0.304  13.061  0.6467 -3.0437 -2.4284
  158TMC2    H1 2463   1.093   0.137  13.407  1.4102  0.2842 -0.0528
  158TMC2    H2 2464   0.857   0.152  13.044 -0.2784 -1.6041  0.3313
  158TMC2    C7 2465   0.849   0.062  13.286  0.2231  0.5653  0.2106
  158TMC2    C8 2466   1.040   0.276  12.902  0.3457  0.3861 -0.3509
  158TMC2    O1 2467   0.743   0.068  13.225 -0.1977 -0.2395  0.0791
  158TMC2    O2 2468   1.116   0.366  12.866 -0.5469 -0.8018  0.1572
  158TMC2    O5 2469   1.016   0.164  12.833  0.2378  0.3621 -0.3374
  158TMC2    H5 2470   0.959   0.100  12.880  1.5743 -2.7964 -2.9796
  159MPD2     C 2471   1.676   0.038  13.619 -0.1347 -0.0975  0.4120
  159MPD2    C1 2472   1.551   4.725  13.658  0.0058 -0.2982  0.1544
  159MPD2    C2 2473   1.446   0.007  13.570 -0.4994  0.6391 -0.3350
  159MPD2    C3 2474   1.452   0.098  13.463  0.7552  0.5776  0.0963
  159MPD2    C4 2475   1.576   0.150  13.428 -0.4805 -0.8708  0.0780
  159MPD2    C5 2476   1.688   0.124  13.509 -0.5386 -0.5787 -0.1165
  159MPD2     H 2477   1.350   4.706  13.597 -0.3488  0.5010 -0.0062
  159MPD2    H1 2478   1.594   0.215  13.343 -2.7954  0.2137  0.4182
  159MPD2    H2 2479   1.771   0.020  13.669  0.3948 -1.4405 -1.0891
  159MPD2    H3 2480   1.776   0.182  13.482  0.0420 -0.8357  1.2477
  159MPD2     N 2481   1.330   0.136  13.399 -0.2735  0.2562  0.9683
  159MPD2    H5 2482   1.254   0.077  13.431 -0.7965 -1.3055 -3.1395
  159MPD2    N1 2483   1.535   4.646  13.776  0.2312 -0.2544  0.1495
  159MPD2    H7 2484   1.620   4.628  13.829  0.4304  2.1802  0.6838
  160TMC2    C1 2485   1.368   2.547   1.615 -0.4070 -0.2885  0.1423
  160TMC2    C2 2486   1.334   2.465   1.717  0.2299  0.2664  0.0505
  160TMC2    C3 2487   1.388   2.342   1.713 -0.6807  0.6250  0.8593
  160TMC2    C4 2488   1.454   2.514   1.513 -0.1457  0.1947  0.1167
  160TMC2    C5 2489   1.521   2.398   1.531 -0.9544 -0.0092  0.1859
  160TMC2    C6 2490   1.490   2.311   1.626 -0.4347 -0.0311  0.6781
  160TMC2     C 2491   1.294   2.670   1.603 -0.4321  0.0733 -0.2930
  160TMC2     O 2492   1.231   2.712   1.705 -0.5623 -0.2386 -0.0111
  160TMC2     H 2493   1.267   2.497   1.797 -1.2646 -3.7608  0.4070
  160TMC2    H1 2494   1.487   2.585   1.438  1.8523 -0.8357  0.0413
  160TMC2    H2 2495   1.550   2.225   1.651  0.6481  0.2380 -1.0262
  160TMC2    C7 2496   1.635   2.364   1.435 -0.3514  0.1856  0.0335
  160TMC2    C8 2497   1.398   2.290   1.845  0.3132 -0.1600 -0.3606
  160TMC2    O1 2498   1.684   2.253   1.456 -0.2654  0.5458  0.3388
  160TMC2    O2 2499   1.394   2.349   1.952 -0.2299  0.2094 -0.4751
  160TMC2    O5 2500   1.417   2.156   1.819  0.0921  0.1034  0.1198
  160TMC2    H5 2501   1.403   2.143   1.722  0.0711  3.0622 -0.2803
  161MPD2     C 2502   1.212   2.951   1.518 -0.1006 -0.0156 -0.0838
  161MPD2    C1 2503   1.227   2.840   1.430  0.2383  0.0135  0.0665
  161MPD2    C2 2504   1.201   2.866   1.297  0.7835  0.1956 -1.0208
  161MPD2    C3 2505   1.142   2.988   1.261  0.2896 -0.1554 -0.8631
  161MPD2    C4 2506   1.124   3.098   1.354  0.1423  0.3026  0.0325
  161MPD2    C5 2507   1.172   3.076   1.481 -0.7604 -0.2499 -0.3858
  161MPD2     H 2508   1.232   2.794   1.222  1.1969  1.1691 -1.7838
  161MPD2    H1 2509   1.087   3.198   1.334 -0.5516 -0.2784 -1.5365
  161MPD2    H2 2510   1.245   2.954   1.621  0.1446 -0.9014 -0.1321
  161MPD2    H3 2511   1.171   3.154   1.557  2.4582 -1.4264  0.8647
  161MPD2     N 2512   1.104   3.020   1.128  0.3035 -0.5839  0.0842
  161MPD2    H5 2513   1.050   3.103   1.108  2.0081  0.1570 -1.3795
  161MPD2    N1 2514   1.285   2.714   1.473 -0.5440 -0.5040  0.5214
  161MPD2    H7 2515   1.306   2.645   1.402 -1.8285 -2.3145  1.8881
  162TMC2    C1 2516   3.909   4.511   0.763  0.4905  0.3765 -0.7393
  162TMC2    C2 2517   3.813   4.609   0.797  0.4344 -1.2275 -0.1591
  162TMC2    C3 2518   3.810   4.639   0.931 -0.8036 -0.4983  0.0470
  162TMC2    C4 2519   3.981   4.442   0.858  0.7963 -0.4086  0.2487
  162TMC2    C5 2520   3.968   4.476   0.988  0.5006 -0.0870  0.3194
  162TMC2    C6 2521   3.885   4.577   1.023 -0.5577 -0.2583  0.0740
  162TMC2     C 2522   3.885   4.450   0.634  0.3883  0.4456 -0.5979
  162TMC2     O 2523   3.917   4.335   0.614 -0.0334 -0.2265  0.0111
  162TMC2     H 2524   3.737   4.657   0.736 -1.1024 -1.2180  1.7515
  162TMC2    H1 2525   4.061   4.375   0.828  1.4183  1.1823 -1.6933
  162TMC2    H2 2526   3.894   4.614   1.124  0.6226 -0.2426 -0.0345
  162TMC2    C7 2527   4.069   4.421   1.082 -0.0721  0.2965  0.2853
  162TMC2    C8 2528   3.714   0.010   0.957  0.2907  0.4098 -0.5718
  162TMC2    O1 2529   4.108   4.493   1.170 -0.2731  0.2930 -0.1185
  162TMC2    O2 2530   3.616   0.042   0.893 -0.0822 -0.1943 -0.5668
  162TMC2    O5 2531   3.752   0.073   1.068  0.1888 -0.2825  0.5946
  162TMC2    H5 2532   3.842   0.034   1.079 -0.1906 -1.6713 -1.2260
  163MPD2     C 2533   3.786   4.514   0.137  0.8228 -0.1245  0.3533
  163MPD2    C1 2534   3.835   4.400   0.201  0.1052  0.2508 -0.2687
  163MPD2    C2 2535   3.832   4.403   0.341  0.3363  0.5916 -0.2046
  163MPD2    C3 2536   3.787   4.512   0.410  0.2412  0.1839  0.8394
  163MPD2    C4 2537   3.756   4.625   0.339 -0.2033 -0.1294  0.0666
  163MPD2    C5 2538   3.749   4.625   0.203  0.0467  0.6508  0.0282
  163MPD2     H 2539   3.871   4.317   0.396  0.6389 -0.9880 -2.9266
  163MPD2    H1 2540   3.732   4.721   0.385  1.7686  0.2244  0.3417
  163MPD2    H2 2541   3.789   4.517   0.029  0.9896 -0.2919  0.3535
  163MPD2    H3 2542   3.727   4.717   0.149  0.7931 -1.8102 -4.4626
  163MPD2     N 2543   3.818   4.534   0.547  0.1823 -0.3941 -0.4863
  163MPD2    H5 2544   3.812   4.633   0.569  2.0585  0.0024 -1.7426
  163MPD2    N1 2545   3.906   4.305   0.120  0.2978  0.2479 -0.0701
  163MPD2    H7 2546   3.923   4.325   0.022  0.8809  0.9535  0.1823
  164TMC2    C1 2547   0.039   3.713  11.135 -0.6486 -0.4392 -0.4306
  164TMC2    C2 2548   0.154   3.764  11.084  0.2861  0.3288 -0.3443
  164TMC2    C3 2549   0.182   3.891  11.126 -0.2381 -0.0953  0.2061
  164TMC2    C4 2550   4.711   3.787  11.233  0.0698  1.0731  0.3252
  164TMC2    C5 2551   0.015   3.905  11.280  0.5510  0.6533 -0.1837
  164TMC2    C6 2552   0.128   3.959  11.227  0.2503 -0.4544 -0.3512
  164TMC2     C 2553   4.730   3.574  11.106  0.5673  0.2596 -0.0153
  164TMC2     O 2554   4.644   3.528  11.182 -0.5730 -0.7133 -0.0495
  164TMC2     H 2555   0.223   3.707  11.022  0.3418 -0.3258  0.3284
  164TMC2    H1 2556   4.622   3.741  11.275  0.4324  0.1125  0.0142
  164TMC2    H2 2557   0.177   4.053  11.251  1.7856 -1.6116  1.0074
  164TMC2    C7 2558   4.645   3.998  11.295 -0.0313 -0.5690  0.2353
  164TMC2    C8 2559   0.262   3.970  11.032 -0.5004 -0.0429 -0.9730
  164TMC2    O1 2560   4.528   3.956  11.276  0.7996  0.2478 -0.1367
  164TMC2    O2 2561   0.323   4.070  11.069  0.0490  0.6733  0.4210
  164TMC2    O5 2562   0.260   3.922  10.903  0.1870 -0.1406  0.2190
  164TMC2    H5 2563   0.199   3.847  10.885  0.7943 -0.5711 -0.0342
  165TMC2    C1 2564   0.883   1.744   0.833  0.2364  0.3883  0.4781
  165TMC2    C2 2565   0.802   1.847   0.843 -0.2524 -0.3482 -0.0055
  165TMC2    C3 2566   0.827   1.931   0.948 -0.0788  0.2931 -0.6919
  165TMC2    C4 2567   0.982   1.719   0.923  0.2928 -0.0798 -0.1684
  165TMC2    C5 2568   1.001   1.807   1.021  0.0834 -0.1697 -0.0508
  165TMC2    C6 2569   0.927   1.920   1.033  0.2517 -0.5704  0.7101
  165TMC2     C 2570   0.863   1.648   0.718 -0.2918 -0.3829 -0.9391
  165TMC2     O 2571   0.891   1.535   0.747  0.2605  0.3131  0.7140
  165TMC2     H 2572   0.710   1.859   0.786 -1.1346 -1.6610  1.1636
  165TMC2    H1 2573   1.038   1.626   0.921 -2.1675 -1.5793  0.6170
  165TMC2    H2 2574   0.949   2.006   1.095  1.6930  0.4617 -1.2380
  165TMC2    C7 2575   1.135   1.810   1.070 -1.2061 -0.1642 -0.2410
  165TMC2    C8 2576   0.729   2.039   0.956 -0.2811 -0.0760 -0.0602
  165TMC2    O1 2577   1.198   1.706   1.071  0.0409 -0.6587 -0.2749
  165TMC2    O2 2578   0.664   2.085   0.861  0.3055 -0.0992 -0.0964
  165TMC2    O5 2579   0.715   2.079   1.082 -0.5718 -0.5136 -0.0477
  165TMC2    H5 2580   0.752   2.032   1.161  0.9766  1.8266  0.6248
  166MPD2     C 2581   0.793   1.546   0.230  0.0619  0.5889  0.3042
  166MPD2    C1 2582   0.819   1.463   0.335  0.2815  0.1260 -0.3530
  166MPD2    C2 2583   0.831   1.510   0.460  0.6516 -0.1468 -0.7263
  166MPD2    C3 2584   0.810   1.649   0.478 -0.2870 -0.1699 -0.0809
  166MPD2    C4 2585   0.778   1.730   0.372 -0.4277 -0.1377  0.3755
  166MPD2    C5 2586   0.768   1.677   0.246 -0.4166 -0.4012  0.4184
  166MPD2     H 2587   0.852   1.439   0.539  0.7079  2.8118  1.9149
  166MPD2    H1 2588   0.770   1.838   0.377 -0.5824 -0.2092  1.6977
  166MPD2    H2 2589   0.792   1.502   0.131  0.4895 -2.0569  1.4640
  166MPD2    H3 2590   0.743   1.733   0.157  0.4232 -1.7264 -0.6470
  166MPD2     N 2591   0.818   1.710   0.604 -0.0933 -0.6875  0.1904
  166MPD2    H5 2592   0.805   1.810   0.616 -0.1121 -0.7252  0.4798
  166MPD2    N1 2593   0.846   1.328   0.300 -0.0445  0.3056 -0.2469
  166MPD2    H7 2594   0.830   1.308   0.202  0.9434  0.1765 -0.3861
  167TMC2    C1 2595   4.159   4.027  12.921  0.7981 -0.0815  0.5660
  167TMC2    C2 2596   4.083   4.087  13.028  0.0049  0.1014  0.1121
  167TMC2    C3 2597   3.986   4.011  13.086  0.1973 -0.5949 -0.5897
  167TMC2    C4 2598   4.129   3.894  12.884  0.2193 -0.4891  0.4438
  167TMC2    C5 2599   4.023   3.831  12.942 -0.4285  0.0226 -1.1378
  167TMC2    C6 2600   3.956   3.886  13.047  0.3351  0.7356  0.8200
  167TMC2     C 2601   4.248   4.108  12.846  0.2904 -0.0333  0.1567
  167TMC2     O 2602   4.273   4.219  12.882  0.0861  0.4701  0.0502
  167TMC2     H 2603   4.113   4.185  13.063  1.2755  0.4178 -1.8522
  167TMC2    H1 2604   4.202   3.849  12.818 -0.9177 -1.2914 -0.2632
  167TMC2    H2 2605   3.885   3.827  13.105 -1.5753 -0.6003 -2.8882
  167TMC2    C7 2606   4.001   3.696  12.909  0.7026 -0.2916 -1.2378
  167TMC2    C8 2607   3.939   4.042  13.213 -0.0668 -0.1003  0.0223
  167TMC2    O1 2608   3.926   3.633  12.983 -0.1371  0.3297 -0.4099
  167TMC2    O2 2609   3.900   3.959  13.292 -0.0986  0.4737 -0.3483
  167TMC2    O5 2610   3.909   4.177  13.219 -0.2071  0.4984  0.4825
  167TMC2    H5 2611   3.941   4.229  13.142  0.0594 -0.7270 -0.2385
  168MPD2     C 2612   4.451   4.206  12.637 -0.6453 -0.6067 -0.0342
  168MPD2    C1 2613   4.379   4.090  12.628  0.1443 -0.0095  0.0000
  168MPD2    C2 2614   4.389   4.010  12.520 -0.7334  0.0354 -0.3980
  168MPD2    C3 2615   4.463   4.046  12.407 -0.3955  0.2646 -0.4744
  168MPD2    C4 2616   4.542   4.158  12.423 -0.3377 -0.0473  0.6456
  168MPD2    C5 2617   4.545   4.229  12.536  0.2234  0.8587  0.1563
  168MPD2     H 2618   4.340   3.913  12.510  0.9345 -0.9811  1.3376
  168MPD2    H1 2619   4.603   4.181  12.336 -0.5759  1.5130  0.8906
  168MPD2    H2 2620   4.465   4.263  12.728  3.2492 -0.5034 -0.6912
  168MPD2    H3 2621   4.607   4.318  12.538 -0.4734  1.2923  2.2266
  168MPD2     N 2622   4.461   3.952  12.297 -0.1145 -0.2669 -0.5538
  168MPD2    H5 2623   4.393   3.877  12.310 -0.2918 -0.1023 -0.5408
  168MPD2    N1 2624   4.288   4.046  12.724 -0.6218 -0.2015  0.3484
  168MPD2    H7 2625   4.223   3.975  12.690  1.5237 -1.8228 -0.4239
  169MPD1     C 2626   1.247   4.426   8.802  0.2018  0.4156 -0.4061
  169MPD1    C1 2627   1.378   4.382   8.801 -0.5361  0.0596  0.1051
  169MPD1    C2 2628   1.413   4.284   8.889 -0.2465 -0.6983  0.0744
  169MPD1    C3 2629   1.321   4.240   8.986 -0.1857 -0.0319 -0.0001
  169MPD1    C4 2630   1.192   4.300   8.991  0.6468 -0.4768  0.0145
  169MPD1    C5 2631   1.157   4.395   8.899  0.3462  0.1513  0.7341
  169MPD1     H 2632   1.513   4.242   8.895 -0.8359 -1.5352  3.6953
  169MPD1    H1 2633   1.120   4.270   9.066 -0.5025 -0.8973 -1.2327
  169MPD1    H2 2634   1.223   4.502   8.729 -2.0895  2.3600  2.3733
  169MPD1    H3 2635   1.063   4.450   8.900  2.4004  3.6974 -0.4250
  169MPD1     N 2636   1.368   4.147   9.082 -0.4907  0.2409  0.4012
  169MPD1    H5 2637   1.467   4.127   9.080 -0.2724  1.2589  1.2897
  169MPD1    N1 2638   1.467   4.427   8.700  0.4313  0.1749 -0.1158
  169MPD1    H6 2639   1.471   4.527   8.683  0.6180 -0.1005 -1.7113
  169MPD1    H7 2640   1.567   4.408   8.708  0.1018 -1.1088  1.0016
  170MPD1     C 2641   0.812   1.314  13.181 -0.4388 -0.2471  0.3220
  170MPD1    C1 2642   0.818   1.369  13.311  0.3444  0.0423  0.3311
  170MPD1    C2 2643   0.706   1.445  13.352 -0.1474 -0.2863  0.1210
  170MPD1    C3 2644   0.591   1.456  13.279 -0.3844 -0.3617 -0.2990
  170MPD1    C4 2645   0.578   1.382  13.161  0.1138  0.7249  0.4649
  170MPD1    C5 2646   0.691   1.320  13.112 -0.4017  0.0935  0.1472
  170MPD1     H 2647   0.703   1.491  13.450 -0.9200 -0.7316  0.3035
  170MPD1    H1 2648   0.494   1.387  13.092  0.2664 -0.2525  0.1997
  170MPD1    H2 2649   0.886   1.249  13.134 -0.2672  1.3113 -1.6005
  170MPD1    H3 2650   0.683   1.288  13.009  2.9870 -0.9082  0.1834
  170MPD1     N 2651   0.478   1.524  13.337 -0.3692  0.2758  0.2514
  170MPD1    H5 2652   0.480   1.552  13.434 -1.0701 -0.2321  0.4140
  170MPD1    N1 2653   0.945   1.368  13.377  0.2714  0.0941 -0.4890
  170MPD1    H6 2654   0.944   1.381  13.478 -0.8664  0.7681 -0.5789
  170MPD1    H7 2655   1.001   1.285  13.358 -1.1272 -1.8737  3.9530
  171MPD1     C 2656   3.597   2.228  14.630  0.0055  0.1756 -0.0449
  171MPD1    C1 2657   3.465   2.229  14.686  0.5232 -0.7212  0.1097
  171MPD1    C2 2658   3.459   2.221  14.823 -0.0777  0.5261  0.2145
  171MPD1    C3 2659   3.573   2.207  14.907 -0.0235 -0.0300 -0.8685
  171MPD1    C4 2660   3.705   2.225  14.857  0.1559 -0.5791  0.8118
  171MPD1    C5 2661   3.711   2.245  14.714  0.1182  0.4514  0.4454
  171MPD1     H 2662   3.358   2.217  14.862  0.3456 -1.1748  1.1169
  171MPD1    H1 2663   3.793   2.204  14.917  0.6875  0.3077  0.3402
  171MPD1    H2 2664   3.601   2.205  14.524  1.2911 -0.2136  0.0942
  171MPD1    H3 2665   3.805   2.251  14.660  1.1262  0.9312  2.2451
  171MPD1     N 2666   3.556   2.184  15.046 -0.2424  0.0954 -0.1273
  171MPD1    H5 2667   3.643   2.188  15.098  0.0349 -0.3740 -0.5501
  171MPD1    N1 2668   3.344   2.204  14.606  0.2158 -0.2540  0.4481
  171MPD1    H6 2669   3.350   2.259  14.521 -0.1876 -0.1478  0.4926
  171MPD1    H7 2670   3.261   2.232  14.658  0.8301  0.3860  1.0798
  172MPD1     C 2671   2.741   1.379  17.600 -0.0143  0.5285 -0.1081
  172MPD1    C1 2672   2.627   1.441  17.593  0.6754  0.0764 -0.2676
  172MPD1    C2 2673   2.632   1.579  17.567 -0.3355  0.1963  0.3928
  172MPD1    C3 2674   2.744   1.659  17.577  0.0070 -0.1633 -0.3374
  172MPD1    C4 2675   2.865   1.591  17.591  0.0067  0.5573  0.8192
  172MPD1    C5 2676   2.862   1.455  17.605  0.1586  0.4815  0.4110
  172MPD1     H 2677   2.535   1.624  17.547  0.4019  1.1269 -1.0797
  172MPD1    H1 2678   2.955   1.648  17.608  1.0949 -0.3421 -1.8951
  172MPD1    H2 2679   2.740   1.271  17.612 -0.5569  0.6439  0.8666
  172MPD1    H3 2680   2.960   1.416  17.631 -0.2851  0.9004  2.7357
  172MPD1     N 2681   2.752   1.800  17.557  0.3444  0.1448 -0.4291
  172MPD1    H5 2682   2.838   1.850  17.573 -2.0450  4.4777 -1.1820
  172MPD1    N1 2683   2.505   1.376  17.610 -0.0734  0.4546 -0.1198
  172MPD1    H6 2684   2.421   1.431  17.627  0.1070  0.4031  0.9854
  172MPD1    H7 2685   2.511   1.295  17.672  0.5728 -0.4660 -1.3758
  173MPD1     C 2686   3.987   0.617  14.046 -0.3592 -0.0216 -0.9224
  173MPD1    C1 2687   4.050   0.690  14.149  0.2488  0.2514  0.7985
  173MPD1    C2 2688   4.017   0.823  14.163  0.8783  0.4452 -0.2551
  173MPD1    C3 2689   3.943   0.890  14.074  0.3420 -0.0799  0.7357
  173MPD1    C4 2690   3.887   0.823  13.964  0.4795  0.1793  0.3256
  173MPD1    C5 2691   3.907   0.687  13.953 -0.0785 -0.6417  0.9462
  173MPD1     H 2692   4.056   0.871  14.252  3.1381  0.8515 -1.4483
  173MPD1    H1 2693   3.832   0.880  13.889 -2.9204 -0.9979  1.9809
  173MPD1    H2 2694   4.003   0.510  14.040  0.9869 -0.0221  2.5811
  173MPD1    H3 2695   3.857   0.626  13.879  1.0761 -2.2942  1.5282
  173MPD1     N 2696   3.918   1.026  14.105  0.3090  0.5963  0.1432
  173MPD1    H5 2697   3.955   1.058  14.195  1.5189  0.8964 -0.4514
  173MPD1    N1 2698   4.112   0.619  14.258  0.0027 -0.0007 -0.2863
  173MPD1    H6 2699   4.200   0.669  14.272 -0.6314  0.5765  1.6909
  173MPD1    H7 2700   4.152   0.537  14.213  3.9222  0.2594  2.6768
  174MPD1     C 2701   3.425   1.770  13.630  0.5772 -0.1838 -0.6120
  174MPD1    C1 2702   3.474   1.839  13.737  0.1406 -0.3958 -0.3899
  174MPD1    C2 2703   3.546   1.766  13.834  0.0932 -0.3110  0.0893
  174MPD1    C3 2704   3.597   1.637  13.806  0.0870 -0.0065 -0.2468
  174MPD1    C4 2705   3.577   1.590  13.678 -0.6063 -0.1347 -0.0751
  174MPD1    C5 2706   3.485   1.654  13.600  0.2780 -0.2499 -0.0569
  174MPD1     H 2707   3.559   1.810  13.932 -0.0278  2.9978 -1.3771
  174MPD1    H1 2708   3.611   1.493  13.644 -0.7943 -0.4290  0.5660
  174MPD1    H2 2709   3.340   1.808  13.574  1.2480 -0.1599 -1.5923
  174MPD1    H3 2710   3.443   1.604  13.513 -0.0415 -0.6289  0.3180
  174MPD1     N 2711   3.675   1.561  13.892 -0.1036 -0.1164  1.0718
  174MPD1    H5 2712   3.722   1.483  13.847 -1.3650 -0.0312 -0.3934
  174MPD1    N1 2713   3.419   1.966  13.771 -0.7181  0.1402 -0.3583
  174MPD1    H6 2714   3.488   2.019  13.824 -1.2786 -0.2545  0.7693
  174MPD1    H7 2715   3.405   2.017  13.684 -0.0605 -0.2249 -0.6741
  175MPD1     C 2716   1.959   2.708  14.708  0.4077  0.7322  0.1658
  175MPD1    C1 2717   2.078   2.640  14.694 -0.4675 -0.3179  0.1975
  175MPD1    C2 2718   2.185   2.669  14.772  0.4453  0.2393 -0.0922
  175MPD1    C3 2719   2.188   2.786  14.839 -0.5235 -0.4274 -0.2795
  175MPD1    C4 2720   2.081   2.874  14.832  0.1773 -0.0888  0.0122
  175MPD1    C5 2721   1.968   2.822  14.777 -0.4806  0.2157 -0.5546
  175MPD1     H 2722   2.276   2.611  14.767  0.2458 -0.1332  0.5805
  175MPD1    H1 2723   2.086   2.964  14.893  1.1833 -0.4025  0.4040
  175MPD1    H2 2724   1.864   2.680  14.664  0.3534  1.5501 -0.2327
  175MPD1    H3 2725   1.876   2.873  14.804  0.0008  0.7867 -0.0072
  175MPD1     N 2726   2.280   2.822  14.938  0.3244 -0.0754 -0.2569
  175MPD1    H5 2727   2.266   2.909  14.989  1.2581 -0.6484  0.9832
  175MPD1    N1 2728   2.074   2.523  14.612  0.3000 -0.7320 -0.6638
  175MPD1    H6 2729   2.159   2.472  14.588  1.0664 -0.7957  2.2252
  175MPD1    H7 2730   2.018   2.539  14.529  0.0823  0.0587 -0.3637
  176MPD1     C 2731   4.525   4.318  16.629  0.2154  0.3625 -0.2119
  176MPD1    C1 2732   4.520   4.445  16.584 -0.4640 -0.2003  0.1794
  176MPD1    C2 2733   4.508   4.544  16.680 -0.6568  0.1551 -0.0056
  176MPD1    C3 2734   4.477   4.518  16.816  0.2139  0.1927  0.3521
  176MPD1    C4 2735   4.454   4.384  16.848 -0.2581 -0.4429 -0.0531
  176MPD1    C5 2736   4.478   4.286  16.753 -0.1346 -0.5610 -0.1049
  176MPD1     H 2737   4.521   4.646  16.646 -3.3564  0.6157  0.3762
  176MPD1    H1 2738   4.427   4.349  16.947 -0.5894 -0.8238 -0.2779
  176MPD1    H2 2739   4.558   4.240  16.562 -0.2047 -0.0678  0.0875
  176MPD1    H3 2740   4.471   4.180  16.772 -0.3282 -0.5936 -0.3612
  176MPD1     N 2741   4.448   4.619  16.903 -0.8384  0.3523  0.2338
  176MPD1    H5 2742   4.452   4.714  16.867  1.8797  1.4536  3.3540
  176MPD1    N1 2743   4.570   4.478  16.454 -0.0627 -0.0468 -0.6104
  176MPD1    H6 2744   4.547   4.413  16.379 -1.5165  0.8926 -0.9726
  176MPD1    H7 2745   4.542   4.574  16.433  0.8390  0.4443  0.4279
  177MPD1     C 2746   2.811   4.539  10.099  0.4483 -0.1332 -0.6288
  177MPD1    C1 2747   2.677   4.533  10.096  0.5502 -0.0842 -0.3941
  177MPD1    C2 2748   2.624   4.624  10.007 -0.0623 -0.6435  0.1213
  177MPD1    C3 2749   2.696   4.713   9.929 -0.2847  0.5633  0.1182
  177MPD1    C4 2750   2.833   4.721   9.939 -0.5911 -0.3937 -0.3554
  177MPD1    C5 2751   2.889   4.628  10.024 -0.0268  0.6668 -0.0190
  177MPD1     H 2752   2.516   4.630   9.996 -0.1416 -0.3161  1.1112
  177MPD1    H1 2753   2.893   0.041   9.873  0.2186 -2.2223 -1.3117
  177MPD1    H2 2754   2.861   4.485  10.178  1.6294 -0.0154 -1.3005
  177MPD1    H3 2755   2.996   4.617  10.038 -0.2270 -0.3350  0.7077
  177MPD1     N 2756   2.612   0.053   9.852  0.5947 -0.5561  0.3290
  177MPD1    H5 2757   2.514   0.035   9.869  0.6612  0.5260  1.8447
  177MPD1    N1 2758   2.596   4.474  10.192  0.2585  0.2690  0.4832
  177MPD1    H6 2759   2.632   4.381  10.208 -0.9273 -0.1822  0.5168
  177MPD1    H7 2760   2.497   4.469  10.166  0.0855 -0.5145  1.3143
  178MPD1     C 2761   0.527   0.305   0.450  1.2964  0.0514 -1.0376
  178MPD1    C1 2762   0.472   0.243   0.338 -0.3370 -0.0767 -0.8629
  178MPD1    C2 2763   0.476   0.313   0.221  0.2473  0.0370 -0.1901
  178MPD1    C3 2764   0.544   0.433   0.208 -0.6572 -0.0290  0.5655
  178MPD1    C4 2765   0.606   0.494   0.314  0.1977  0.0293 -0.4261
  178MPD1    C5 2766   0.586   0.429   0.438 -0.5055  0.0321 -0.4305
  178MPD1     H 2767   0.430   0.265   0.135  0.7413 -0.7282 -0.0231
  178MPD1    H1 2768   0.648   0.594   0.320 -1.1269  0.7442 -3.3788
  178MPD1    H2 2769   0.528   0.259   0.548 -3.2013 -3.2218 -2.5116
  178MPD1    H3 2770   0.631   0.481   0.523  0.7311 -0.4297 -0.7948
  178MPD1     N 2771   0.556   0.498   0.084  0.6933  0.1212 -0.4984
  178MPD1    H5 2772   0.594   0.591   0.084 -0.4724  0.5959  1.7768
  178MPD1    N1 2773   0.395   0.130   0.351  0.2556  0.0007 -0.3665
  178MPD1    H6 2774   0.385   0.080   0.263 -3.8603 -3.6805  2.1987
  178MPD1    H7 2775   0.440   0.068   0.418  2.7778  0.5184 -1.5892
  179MPD1     C 2776   0.325   2.958  15.036 -0.2486 -0.3002 -0.2035
  179MPD1    C1 2777   0.196   3.013  15.013  0.3401 -0.5821 -0.0541
  179MPD1    C2 2778   0.144   3.092  15.114 -0.1034 -0.2428 -0.2858
  179MPD1    C3 2779   0.208   3.115  15.237  0.0249 -0.4220  0.2892
  179MPD1    C4 2780   0.330   3.051  15.256  0.5170 -0.2050  0.8813
  179MPD1    C5 2781   0.386   2.975  15.154 -0.1210 -0.0879  0.4248
  179MPD1     H 2782   0.061   3.158  15.089  0.3163  0.0404 -0.9194
  179MPD1    H1 2783   0.391   3.059  15.345  1.8164  2.6131 -0.2456
  179MPD1    H2 2784   0.373   2.904  14.955  1.6389 -0.9265  1.3221
  179MPD1    H3 2785   0.485   2.935  15.166 -0.1587  0.1690  1.5333
  179MPD1     N 2786   0.170   3.198  15.343  0.1495  0.1780 -0.4096
  179MPD1    H5 2787   0.231   3.206  15.424 -0.9467  2.7419  0.1768
  179MPD1    N1 2788   0.139   3.013  14.879  1.0432  0.4421  0.2033
  179MPD1    H6 2789   0.039   3.028  14.890  0.7871 -2.6938  2.0277
  179MPD1    H7 2790   0.157   2.925  14.830  0.4108 -0.0410  0.8587
  180MPD1     C 2791   0.633   0.238  14.978  0.1947 -0.7055 -0.0970
  180MPD1    C1 2792   0.668   0.362  14.938  0.7238 -0.7495  0.0697
  180MPD1    C2 2793   0.602   0.409  14.824  0.2147  0.6928 -0.8168
  180MPD1    C3 2794   0.497   0.338  14.774 -0.0627  0.7431  0.0417
  180MPD1    C4 2795   0.459   0.215  14.821  0.5070  0.8386 -0.4110
  180MPD1    C5 2796   0.526   0.167  14.929 -0.1893 -0.3371  0.4281
  180MPD1     H 2797   0.640   0.500  14.779  2.4730 -0.2164 -0.7124
  180MPD1    H1 2798   0.379   0.151  14.786  0.3536  0.5767  0.4280
  180MPD1    H2 2799   0.683   0.191  15.062 -0.4652 -0.2048  0.5830
  180MPD1    H3 2800   0.512   0.068  14.972 -0.9663  0.2147  1.4550
  180MPD1     N 2801   0.431   0.400  14.666  0.0843 -0.3126  0.7533
  180MPD1    H5 2802   0.456   0.498  14.661 -1.9344  0.2455  1.5701
  180MPD1    N1 2803   0.781   0.424  14.992  0.2283 -0.3707  0.1520
  180MPD1    H6 2804   0.792   0.405  15.091  0.1417 -1.1814  0.0020
  180MPD1    H7 2805   0.762   0.524  15.001 -0.1686 -0.5794  1.6414
  181MPD1     C 2806   3.412   2.078   9.110 -0.5294  0.0532  0.2059
  181MPD1    C1 2807   3.420   2.182   9.203 -0.0875 -0.0976 -0.7023
  181MPD1    C2 2808   3.307   2.193   9.288  0.3846  0.3081 -0.1360
  181MPD1    C3 2809   3.208   2.093   9.294 -0.3155 -0.2890  0.5636
  181MPD1    C4 2810   3.211   1.994   9.205  0.5117 -0.5848 -0.0480
  181MPD1    C5 2811   3.309   1.989   9.109  0.3523  0.4369 -0.4372
  181MPD1     H 2812   3.306   2.269   9.365 -0.4225 -0.2610  0.4085
  181MPD1    H1 2813   3.137   1.914   9.208  0.3603 -0.3465  2.4331
  181MPD1    H2 2814   3.497   2.069   9.044 -0.3092 -1.9579  0.7941
  181MPD1    H3 2815   3.299   1.911   9.035 -1.3105  0.4590 -0.2364
  181MPD1     N 2816   3.101   2.085   9.378  0.1311  0.1091 -1.1276
  181MPD1    H5 2817   3.037   2.007   9.375  1.1800 -0.7478 -1.2272
  181MPD1    N1 2818   3.521   2.283   9.185  0.6389  0.2414 -0.1471
  181MPD1    H6 2819   3.608   2.259   9.138  1.2039 -0.7468  1.3768
  181MPD1    H7 2820   3.546   2.334   9.270 -0.2771 -0.7325  0.7144
  182MPD1     C 2821   2.582   0.038   0.815 -0.5067  0.3862  0.2034
  182MPD1    C1 2822   2.497   0.127   0.880  0.6892 -0.5819  0.3831
  182MPD1    C2 2823   2.495   0.259   0.844  0.4063  0.2594  0.1007
  182MPD1    C3 2824   2.570   0.309   0.738 -0.1794 -0.7298 -0.8495
  182MPD1    C4 2825   2.649   0.221   0.666 -0.6031 -0.3314 -0.2829
  182MPD1    C5 2826   2.662   0.091   0.714 -0.6302 -0.1932  0.4430
  182MPD1     H 2827   2.420   0.325   0.887  0.4219 -0.3068  0.9953
  182MPD1    H1 2828   2.708   0.255   0.582 -0.9824 -0.4837 -0.6134
  182MPD1    H2 2829   2.585   4.673   0.840  0.2975  1.0338  2.9309
  182MPD1    H3 2830   2.730   0.028   0.660 -1.6530 -1.2557  0.3919
  182MPD1     N 2831   2.580   0.441   0.685  0.2314  0.0117 -0.3521
  182MPD1    H5 2832   2.644   0.461   0.608 -2.8336  1.1064 -2.6010
  182MPD1    N1 2833   2.406   0.073   0.972  0.3051  0.1225  0.8999
  182MPD1    H6 2834   2.369   0.139   1.041 -1.1590  0.7033 -0.4262
  182MPD1    H7 2835   2.443   4.728   1.011 -3.4997 -1.6412  0.6430
  183MPD1     C 2836   2.662   0.918   9.711 -0.0229 -0.1570  0.0947
  183MPD1    C1 2837   2.770   0.992   9.663  0.0079  0.1940 -0.6394
  183MPD1    C2 2838   2.802   1.100   9.743 -0.4675 -0.2804  0.8507
  183MPD1    C3 2839   2.722   1.141   9.847  0.0832 -1.0317  0.3113
  183MPD1    C4 2840   2.600   1.077   9.882 -0.1873 -0.0657  0.1318
  183MPD1    C5 2841   2.576   0.958   9.809 -0.1399  0.3863 -0.2318
  183MPD1     H 2842   2.897   1.150   9.727 -0.5721 -1.0464 -2.1455
  183MPD1    H1 2843   2.525   1.106   9.955  0.5007  1.8503  0.0616
  183MPD1    H2 2844   2.628   0.825   9.667 -0.4066  0.6807 -1.3762
  183MPD1    H3 2845   2.487   0.900   9.832 -0.8247  1.6992  0.3937
  183MPD1     N 2846   2.755   1.262   9.912  0.3650  0.0158  0.9615
  183MPD1    H5 2847   2.846   1.298   9.885 -0.5402  0.2502 -1.7163
  183MPD1    N1 2848   2.863   0.937   9.572 -0.2316 -0.3232  0.1370
  183MPD1    H6 2849   2.829   0.861   9.514  1.5147 -0.8858 -0.1580
  183MPD1    H7 2850   2.925   0.997   9.518  1.3433 -0.8527  1.3474
  184MPD1     C 2851   1.794   4.501  10.560  1.1098 -0.3701 -0.2743
  184MPD1    C1 2852   1.719   4.442  10.463 -0.3742 -0.4025  0.1820
  184MPD1    C2 2853   1.717   4.493  10.338  0.0449 -0.4946  0.3540
  184MPD1    C3 2854   1.788   4.613  10.303  0.3393  1.0106  0.0382
  184MPD1    C4 2855   1.852   4.684  10.407 -0.3387 -0.2617 -0.5670
  184MPD1    C5 2856   1.853   4.622  10.530 -0.4967  0.2878  0.1286
  184MPD1     H 2857   1.660   4.442  10.261 -0.5225 -0.2879  0.6383
  184MPD1    H1 2858   1.910   0.032  10.389 -0.7434 -0.0953 -1.0699
  184MPD1    H2 2859   1.812   4.455  10.657 -0.4661 -0.6978 -0.1339
  184MPD1    H3 2860   1.914   4.664  10.609  1.6935  1.0882 -2.0048
  184MPD1     N 2861   1.784   4.667  10.175  0.0152  0.5233  0.2909
  184MPD1    H5 2862   1.851   0.000  10.159  1.5397 -1.2696 -1.5487
  184MPD1    N1 2863   1.651   4.316  10.492  0.5201 -0.0946  0.9278
  184MPD1    H6 2864   1.595   4.264  10.425 -2.7908  2.3862  1.8205
  184MPD1    H7 2865   1.706   4.249  10.546 -2.0753 -1.8108  1.4612
  185MPD1     C 2866   1.266   4.372   9.352  0.3374 -0.0886  0.2999
  185MPD1    C1 2867   1.286   4.508   9.355  0.0507 -0.6209  0.8066
  185MPD1    C2 2868   1.373   4.566   9.448 -0.4944  0.2664  0.2219
  185MPD1    C3 2869   1.460   4.491   9.523 -0.4711 -0.0254  0.9401
  185MPD1    C4 2870   1.443   4.355   9.519  1.4555 -0.0134  0.7357
  185MPD1    C5 2871   1.335   4.303   9.447 -0.1392 -0.6779  0.0904
  185MPD1     H 2872   1.374   4.673   9.465 -1.4725 -0.0572  2.4096
  185MPD1    H1 2873   1.515   4.299   9.577 -0.0317 -3.2403 -0.5303
  185MPD1    H2 2874   1.195   4.320   9.290 -0.0513  1.4420 -0.5378
  185MPD1    H3 2875   1.308   4.200   9.465  0.6263 -0.8783  0.1024
  185MPD1     N 2876   1.549   4.541   9.619 -0.1791  0.1608  0.7238
  185MPD1    H5 2877   1.595   4.484   9.690 -0.1444 -1.3068 -0.4700
  185MPD1    N1 2878   1.228   4.588   9.252 -0.8045  0.1737 -0.0187
  185MPD1    H6 2879   1.155   4.542   9.197 -1.5960 -0.8938  1.9276
  185MPD1    H7 2880   1.202   4.684   9.274  0.6012  0.4716  0.3870
  186MPD1     C 2881   4.642   3.738  15.471 -0.4087 -0.6803 -0.7826
  186MPD1    C1 2882   4.574   3.829  15.553 -0.9761 -0.6751 -0.1293
  186MPD1    C2 2883   4.644   3.895  15.649  0.3605 -0.3154  0.6083
  186MPD1    C3 2884   0.043   3.889  15.649 -0.0550 -0.2509  0.1477
  186MPD1    C4 2885   0.112   3.800  15.569 -0.2634  0.2455  0.4240
  186MPD1    C5 2886   0.036   3.728  15.484 -0.4080 -0.2724  0.6227
  186MPD1     H 2887   4.588   3.962  15.712 -1.7994 -1.1468 -0.4161
  186MPD1    H1 2888   0.220   3.788  15.575 -0.4480 -0.7907  1.4280
  186MPD1    H2 2889   4.591   3.673  15.400 -0.8334  0.7023 -1.7280
  186MPD1    H3 2890   0.091   3.665  15.415 -0.1838  0.0484  0.5068
  186MPD1     N 2891   0.103   3.976  15.740  0.0134 -0.6572  0.2158
  186MPD1    H5 2892   0.051   4.011  15.820  1.7898 -1.7719  1.8342
  186MPD1    N1 2893   4.427   3.832  15.557 -0.2150  0.3137  0.1824
  186MPD1    H6 2894   4.390   3.820  15.463 -1.3940  1.0469  0.5512
  186MPD1    H7 2895   4.400   3.925  15.589 -2.7037 -0.9365  1.7067
  187MPD1     C 2896   4.719   0.808   0.005 -0.1319 -0.6746 -0.0057
  187MPD1    C1 2897   4.609   0.724  17.734  0.0764  0.0837 -0.2048
  187MPD1    C2 2898   4.537   0.749  17.615 -0.5417  0.0492  0.1190
  187MPD1    C3 2899   4.558   0.870  17.544  0.4889  0.2287 -0.3463
  187MPD1    C4 2900   4.664   0.944  17.578 -0.8756  0.5878  0.0801
  187MPD1    C5 2901   4.733   0.924  17.691 -0.2961  0.0997 -0.0783
  187MPD1     H 2902   4.457   0.681  17.588 -0.2759  0.6894 -2.3264
  187MPD1    H1 2903   4.677   1.036  17.523  1.2438  0.5826  0.5866
  187MPD1    H2 2904   0.050   0.792   0.085  0.9675  1.7763 -0.4995
  187MPD1    H3 2905   0.078   0.987  17.713 -1.1671  2.1172 -2.4804
  187MPD1     N 2906   4.500   0.900  17.421  0.6663  0.1346  1.0872
  187MPD1    H5 2907   4.523   0.991  17.383 -0.5673 -0.4672 -1.0729
  187MPD1    N1 2908   4.589   0.612   0.054 -0.1104  0.1239 -0.4981
  187MPD1    H6 2909   4.608   0.636   0.151  0.9550 -0.6983 -0.4927
  187MPD1    H7 2910   4.494   0.577   0.041 -0.6337  1.1376  0.6701
  188MPD1     C 2911   4.165   1.567   9.790 -0.0272  1.0722  0.4078
  188MPD1    C1 2912   4.034   1.516   9.815  0.2314 -0.1385 -0.3066
  188MPD1    C2 2913   4.031   1.377   9.834  0.4976  0.2217 -0.2681
  188MPD1    C3 2914   4.130   1.291   9.789 -0.3413  0.4706  0.1286
  188MPD1    C4 2915   4.245   1.350   9.732 -0.9655 -0.6360 -0.2216
  188MPD1    C5 2916   4.263   1.486   9.738 -0.0175 -0.5915  0.2069
  188MPD1     H 2917   3.936   1.340   9.870  0.0855  2.3229  0.8145
  188MPD1    H1 2918   4.326   1.291   9.691  0.6194  0.7579  0.9337
  188MPD1    H2 2919   4.181   1.673   9.772 -0.0109  0.7457 -1.4504
  188MPD1    H3 2920   4.348   1.536   9.692  1.8276 -2.8227  1.1493
  188MPD1     N 2921   4.133   1.146   9.822 -0.1944  0.1443  0.0342
  188MPD1    H5 2922   4.215   1.097   9.788 -0.8168 -1.8850  1.4827
  188MPD1    N1 2923   3.926   1.595   9.856 -0.5842  0.1527  0.2964
  188MPD1    H6 2924   3.925   1.688   9.816  2.7368 -0.7478 -1.9024
  188MPD1    H7 2925   3.839   1.544   9.840 -1.5260  2.1927 -0.9570
  189MPD1     C 2926   1.286   2.502   0.666  0.1945  0.1713  0.0844
  189MPD1    C1 2927   1.211   2.595   0.597 -0.0758 -0.3570  0.5405
  189MPD1    C2 2928   1.141   2.547   0.488  0.0028  0.1642  0.3673
  189MPD1    C3 2929   1.125   2.415   0.461  0.0423  1.1009 -0.1866
  189MPD1    C4 2930   1.199   2.317   0.527 -0.5782 -0.0690 -0.3595
  189MPD1    C5 2931   1.283   2.369   0.626 -0.5527  0.3056 -0.0011
  189MPD1     H 2932   1.094   2.626   0.431  0.9734 -0.3078 -1.0752
  189MPD1    H1 2933   1.197   2.211   0.505  0.8564 -0.1306 -0.1732
  189MPD1    H2 2934   1.344   2.532   0.753  2.8127  4.1952 -3.0934
  189MPD1    H3 2935   1.346   2.295   0.675 -0.7005 -1.9347 -3.2275
  189MPD1     N 2936   1.051   2.387   0.348  0.0956  0.3195  0.5495
  189MPD1    H5 2937   1.015   2.468   0.300  2.4464  0.7883 -0.4013
  189MPD1    N1 2938   1.219   2.729   0.634  0.0050 -0.4571 -0.5360
  189MPD1    H6 2939   1.154   2.790   0.584 -0.3859 -0.8432 -0.4914
  189MPD1    H7 2940   1.239   2.757   0.730 -1.5945  3.7250 -1.4155
  190MPD1     C 2941   4.718   0.369  15.064  0.0721 -0.0269 -0.3664
  190MPD1    C1 2942   0.105   0.357  15.008  0.3729  0.3976  0.6783
  190MPD1    C2 2943   0.216   0.370  15.095 -0.7226  0.1219  0.0946
  190MPD1    C3 2944   0.199   0.406  15.227  0.3773 -0.4343  0.4088
  190MPD1    C4 2945   0.073   0.431  15.267  0.0213 -0.0022  1.1840
  190MPD1    C5 2946   4.705   0.412  15.188  1.1268 -0.4492  0.3758
  190MPD1     H 2947   0.318   0.359  15.060  0.0328  2.3987  1.5354
  190MPD1    H1 2948   0.050   0.454  15.371 -2.9631 -1.0296  0.7237
  190MPD1    H2 2949   4.624   0.350  15.014  0.0468  0.6091 -0.5700
  190MPD1    H3 2950   4.607   0.428  15.232  2.2590  0.2059  2.6788
  190MPD1     N 2951   0.307   0.397  15.306 -0.1429 -0.3090  0.6706
  190MPD1    H5 2952   0.393   0.366  15.263 -0.6726 -0.1884 -0.4532
  190MPD1    N1 2953   0.130   0.301  14.886  0.2861  0.5487  0.6779
  190MPD1    H6 2954   0.215   0.337  14.843  0.2515  2.1287  1.9369
  190MPD1    H7 2955   0.054   0.317  14.820 -0.4391  0.3881  1.4849
  191MPD1     C 2956   4.035   2.695  12.538  0.0308 -1.0201 -0.0539
  191MPD1    C1 2957   4.168   2.709  12.499  0.4354 -0.2580 -0.2044
  191MPD1    C2 2958   4.204   2.688  12.364 -0.3980  0.2695  0.6734
  191MPD1    C3 2959   4.111   2.679  12.268  0.1156  0.2662  0.2839
  191MPD1    C4 2960   3.975   2.698  12.300  0.2605 -0.1504  0.1074
  191MPD1    C5 2961   3.945   2.707  12.434 -0.1041  0.4018 -0.5343
  191MPD1     H 2962   4.309   2.696  12.340 -1.0170  0.8471 -1.9147
  191MPD1    H1 2963   3.891   2.703  12.230  0.7340  2.8836 -0.2343
  191MPD1    H2 2964   3.998   2.693  12.639  2.2426 -0.9565  0.7436
  191MPD1    H3 2965   3.841   2.712  12.465  0.0468  3.2903 -0.5387
  191MPD1     N 2966   4.164   2.669  12.134 -0.4010  0.4729 -0.3306
  191MPD1    H5 2967   4.260   2.642  12.118 -0.4845  0.5855 -1.0432
  191MPD1    N1 2968   4.262   2.713  12.600 -0.5220  0.0565 -0.3541
  191MPD1    H6 2969   4.237   2.784  12.669 -0.8310  0.4201 -0.8333
  191MPD1    H7 2970   4.355   2.743  12.569  0.6902 -2.0732  1.2754
  192MPD1     C 2971   3.600   2.100  11.720 -0.3179  0.8460 -0.1553
  192MPD1    C1 2972   3.673   2.139  11.606  0.3745  0.2423  0.3618
  192MPD1    C2 2973   3.795   2.208  11.634 -0.5480  0.2733  0.8348
  192MPD1    C3 2974   3.851   2.218  11.763  0.1158 -0.1881 -0.5677
  192MPD1    C4 2975   3.783   2.161  11.868  0.0330  0.9089 -0.0852
  192MPD1    C5 2976   3.657   2.106  11.847  0.6431  0.7316 -0.0106
  192MPD1     H 2977   3.853   2.258  11.557  0.1916 -1.1916  0.4463
  192MPD1    H1 2978   3.829   2.157  11.966 -0.1060 -0.2118 -0.0717
  192MPD1    H2 2979   3.500   2.057  11.712  0.0939 -0.0998 -0.1934
  192MPD1    H3 2980   3.602   2.067  11.932  1.6754  0.1361  0.3826
  192MPD1     N 2981   3.961   2.296  11.798 -0.3961  0.5825  0.1740
  192MPD1    H5 2982   3.982   2.308  11.897  0.6555 -0.0962  0.0270
  192MPD1    N1 2983   3.616   2.149  11.476  0.0451  0.7794  0.1818
  192MPD1    H6 2984   3.550   2.075  11.455 -1.0482  1.8189 -0.0113
  192MPD1    H7 2985   3.691   2.157  11.407 -0.3157 -0.0708 -0.3029
  193MPD1     C 2986   3.951   1.943  17.244  0.4189 -0.7060  0.0369
  193MPD1    C1 2987   3.876   2.052  17.235  0.2316 -0.8055  0.0018
  193MPD1    C2 2988   3.921   2.148  17.144 -0.9532 -0.3517 -0.3684
  193MPD1    C3 2989   4.045   2.141  17.073  0.7281  0.0631  0.3977
  193MPD1    C4 2990   4.126   2.029  17.096  0.5376 -0.0389 -0.6386
  193MPD1    C5 2991   4.071   1.933  17.171 -0.5554 -1.0631  0.5612
  193MPD1     H 2992   3.863   2.239  17.131  2.0634  1.7073  0.5882
  193MPD1    H1 2993   4.222   2.008  17.049  0.6789 -1.0325  0.1062
  193MPD1    H2 2994   3.917   1.862  17.308  2.4753 -2.1539 -0.7242
  193MPD1    H3 2995   4.133   1.844  17.182 -1.7382 -1.8115  1.2106
  193MPD1     N 2996   4.095   2.247  16.997  0.3804  0.1690  0.4338
  193MPD1    H5 2997   4.186   2.230  16.953  2.1930  0.8572  3.9080
  193MPD1    N1 2998   3.756   2.072  17.303 -0.1983 -0.2132 -0.1566
  193MPD1    H6 2999   3.754   2.030  17.396  1.9345  0.7410  0.3148
  193MPD1    H7 3000   3.731   2.169  17.321  0.9631 -0.1107  0.9223
  194MPD1     C 3001   1.529   4.235  17.061 -0.6832 -0.5048  0.3770
  194MPD1    C1 3002   1.543   4.234  16.921 -0.6671 -0.3846  1.0633
  194MPD1    C2 3003   1.504   4.118  16.853 -0.2185  0.1470 -0.0534
  194MPD1    C3 3004   1.469   4.005  16.919 -0.6127 -0.3318 -0.2539
  194MPD1    C4 3005   1.453   4.010  17.057 -0.5152  0.3232  0.2878
  194MPD1    C5 3006   1.493   4.124  17.125  0.1824 -0.8636  0.6937
  194MPD1     H 3007   1.497   4.113  16.745 -0.2438  2.6208 -0.1718
  194MPD1    H1 3008   1.429   3.924  17.117  0.7658  0.6024  1.1969
  194MPD1    H2 3009   1.555   4.320  17.123 -0.1442 -1.1066  0.9726
  194MPD1    H3 3010   1.486   4.126  17.233  0.8456  0.9510  0.6997
  194MPD1     N 3011   1.436   3.875  16.851 -0.4438 -0.0875 -0.3716
  194MPD1    H5 3012   1.407   3.795  16.906  0.3892 -1.5883 -2.1192
  194MPD1    N1 3013   1.561   4.354  16.847 -0.0059 -0.1405  0.4914
  194MPD1    H6 3014   1.585   4.341  16.748 -1.5665 -0.5057  0.1706
  194MPD1    H7 3015   1.626   4.423  16.884 -0.3734 -0.5900  1.9384
  195MPD1     C 3016   4.005   1.704  17.498  0.0969  0.3240 -0.6656
  195MPD1    C1 3017   3.936   1.667  17.613  0.2429  0.1886  0.1463
  195MPD1    C2 3018   3.934   1.535  17.651 -0.2791  0.1255 -0.1572
  195MPD1    C3 3019   4.003   1.438  17.573 -0.5335  0.1057  0.0223
  195MPD1    C4 3020   4.064   1.482  17.460  0.6342  0.1525  0.0203
  195MPD1    C5 3021   4.067   1.612  17.417  0.1535 -0.1287 -0.2793
  195MPD1     H 3022   3.864   1.518  17.733 -2.0924 -0.7611 -1.8934
  195MPD1    H1 3023   4.121   1.412  17.399 -0.8877  0.0125 -1.2218
  195MPD1    H2 3024   4.010   1.809  17.470 -1.5157  1.0595  1.9073
  195MPD1    H3 3025   4.108   1.643  17.321 -0.5300 -1.9045 -1.1386
  195MPD1     N 3026   4.010   1.302  17.610 -0.0621  0.0012 -0.0119
  195MPD1    H5 3027   4.051   1.238  17.543  0.2870 -0.0615  0.2589
  195MPD1    N1 3028   3.852   1.759  17.678 -0.5003  0.2655  0.3644
  195MPD1    H6 3029   3.893   1.852  17.674 -0.4573  0.1881 -0.9299
  195MPD1    H7 3030   3.833   1.733   0.014  0.1028 -1.9466 -0.1177
  196MPD1     C 3031   3.129   0.438  17.361 -0.0328  0.1842 -0.2503
  196MPD1    C1 3032   3.190   0.563  17.378  0.3043 -0.0547 -0.6786
  196MPD1    C2 3033   3.223   0.603  17.503 -0.1849 -0.0996 -0.7572
  196MPD1    C3 3034   3.236   0.504  17.606 -0.0827  0.4261 -0.2273
  196MPD1    C4 3035   3.185   0.374  17.582 -0.7317 -0.2734 -0.3335
  196MPD1    C5 3036   3.133   0.339  17.459  0.5928  0.1161 -0.0431
  196MPD1     H 3037   3.252   0.704  17.528 -2.8337  0.0953  1.6754
  196MPD1    H1 3038   3.198   0.296  17.657  0.0914 -1.8511 -2.1246
  196MPD1    H2 3039   3.082   0.415  17.266  3.0481 -2.1090 -1.2208
  196MPD1    H3 3040   3.089   0.242  17.443 -0.9342  0.6750  0.7465
  196MPD1     N 3041   3.284   0.540  17.739  0.0580  0.2204 -0.7361
  196MPD1    H5 3042   3.269   0.477   0.058 -1.3954  0.2168 -1.0144
  196MPD1    N1 3043   3.199   0.654  17.266  0.5622  0.0472  0.6718
  196MPD1    H6 3044   3.276   0.719  17.280  1.4640 -0.5504 -1.4360
  196MPD1    H7 3045   3.202   0.604  17.177  0.9300  0.8266  0.2497
  197MPD1     C 3046   2.808   3.114   0.049  0.2975 -0.7642  0.1742
  197MPD1    C1 3047   2.879   3.048  17.715 -0.1644 -0.3432 -0.2580
  197MPD1    C2 3048   2.843   3.063  17.579 -1.0664 -0.1920  0.1517
  197MPD1    C3 3049   2.738   3.140  17.545 -0.4352  0.4057  1.1374
  197MPD1    C4 3050   2.658   3.191  17.640  0.1365  0.6306 -0.4711
  197MPD1    C5 3051   2.700   3.187   0.011  0.1011 -0.5271 -0.3178
  197MPD1     H 3052   2.911   3.015  17.510 -0.1869  1.1714  0.0755
  197MPD1    H1 3053   2.566   3.239  17.610 -2.0382 -2.5812  1.1063
  197MPD1    H2 3054   2.830   3.112   0.156 -0.1296  0.4876  0.2885
  197MPD1    H3 3055   2.637   3.223   0.091 -0.9019  0.2172 -1.4307
  197MPD1     N 3056   2.701   3.157  17.409 -0.0443 -0.1438 -0.1963
  197MPD1    H5 3057   2.628   3.223  17.384 -0.5019  0.2469  2.1515
  197MPD1    N1 3058   2.995   2.989  17.752 -0.6813 -0.0292  0.7195
  197MPD1    H6 3059   2.979   2.936   0.077 -0.5475 -0.0799  0.7135
  197MPD1    H7 3060   3.021   2.920  17.682 -1.7324  0.9966 -0.6568
  198MPD1     C 3061   0.056   1.335  15.026 -0.1145 -0.2196 -0.0622
  198MPD1    C1 3062   0.098   1.279  15.142 -0.6777 -0.4443 -0.0000
  198MPD1    C2 3063   0.016   1.290  15.256  0.3977  0.4005  0.0857
  198MPD1    C3 3064   4.630   1.354  15.256 -0.2984 -0.1110  0.6365
  198MPD1    C4 3065   4.582   1.393  15.132  0.2208 -1.1264 -0.1887
  198MPD1    C5 3066   4.674   1.396  15.026  0.3496 -0.0940  0.1341
  198MPD1     H 3067   0.050   1.250  15.351 -0.7277 -0.3432  0.1731
  198MPD1    H1 3068   4.478   1.417  15.112  0.2210 -0.0504  1.0851
  198MPD1    H2 3069   0.100   1.343  14.928 -0.7577 -1.2808 -0.4349
  198MPD1    H3 3070   4.638   1.434  14.931  0.3788  1.0143  0.5711
  198MPD1     N 3071   4.564   1.384  15.376  0.0628  0.1857  0.0004
  198MPD1    H5 3072   4.611   1.356  15.462 -1.6951  0.7674  1.1702
  198MPD1    N1 3073   0.201   1.188  15.150  0.1875 -0.0341 -0.3374
  198MPD1    H6 3074   0.257   1.198  15.234 -1.3826  1.0837  0.5559
  198MPD1    H7 3075   0.272   1.207  15.079  0.8387  1.4383  0.7022
  199MPD1     C 3076   1.969   2.655  10.269 -0.5179  0.1405 -0.5792
  199MPD1    C1 3077   2.016   2.785  10.239 -0.3010  0.8072  0.1955
  199MPD1    C2 3078   1.922   2.889  10.242 -0.3104  0.2023  0.3493
  199MPD1    C3 3079   1.792   2.868  10.289 -0.0005 -0.0453 -0.7023
  199MPD1    C4 3080   1.755   2.740  10.316  0.9325 -0.1735 -0.7196
  199MPD1    C5 3081   1.838   2.633  10.297 -0.0202  0.1650  0.1393
  199MPD1     H 3082   1.957   2.986  10.210  0.4663 -0.3478 -0.4692
  199MPD1    H1 3083   1.659   2.729  10.365  2.1689  1.1354  2.0150
  199MPD1    H2 3084   2.035   2.570  10.262 -1.0731 -0.2334 -1.2361
  199MPD1    H3 3085   1.796   2.534  10.311 -0.5729  0.1791 -1.3546
  199MPD1     N 3086   1.696   2.973  10.304 -0.5836  0.3030  0.2070
  199MPD1    H5 3087   1.601   2.941  10.318 -0.0668 -1.1797  0.3760
  199MPD1    N1 3088   2.139   2.802  10.184  0.1164  0.6085  0.0105
  199MPD1    H6 3089   2.172   2.897  10.201  0.1121  1.0248 -2.3343
  199MPD1    H7 3090   2.214   2.738  10.207  0.6388  1.2014 -0.0671
  200MPD1     C 3091   0.397   2.328  14.607 -0.2495 -0.6246 -0.5403
  200MPD1    C1 3092   0.384   2.424  14.510 -0.2330  0.2117  0.6648
  200MPD1    C2 3093   0.478   2.420  14.408 -0.3260 -0.0159  0.7318
  200MPD1    C3 3094   0.593   2.346  14.413  0.1964  0.9452 -0.2776
  200MPD1    C4 3095   0.607   2.254  14.512 -0.8203  0.4675 -0.1860
  200MPD1    C5 3096   0.510   2.243  14.605  0.0804 -0.0949  0.0379
  200MPD1     H 3097   0.469   2.485  14.322  1.8369  0.9075  1.2043
  200MPD1    H1 3098   0.694   2.190  14.516 -1.7140 -0.7602 -0.1425
  200MPD1    H2 3099   0.329   2.314  14.690 -1.0417 -2.8397 -1.5398
  200MPD1    H3 3100   0.511   2.169  14.684  1.2510 -1.6348 -1.4477
  200MPD1     N 3101   0.696   2.376  14.311  0.3656 -0.0140  0.0332
  200MPD1    H5 3102   0.679   2.443  14.237  0.0204  0.9141  0.9524
  200MPD1    N1 3103   0.269   2.505  14.500 -0.3242 -0.2476  0.4619
  200MPD1    H6 3104   0.239   2.550  14.586 -0.6312  0.6537 -0.1074
  200MPD1    H7 3105   0.288   2.585  14.440 -0.1353 -2.2525 -2.1560
  201MPD1     C 3106   2.804   1.989  12.786 -0.5085  0.4092 -0.6971
  201MPD1    C1 3107   2.854   1.945  12.669 -0.2820  0.2480 -0.5451
  201MPD1    C2 3108   2.937   1.830  12.673  0.3545 -0.4017 -0.2765
  201MPD1    C3 3109   2.956   1.754  12.789 -0.7488  0.5257 -0.2717
  201MPD1    C4 3110   2.905   1.807  12.901  0.1169  0.0238 -0.4565
  201MPD1    C5 3111   2.827   1.919  12.906 -0.3284 -0.0865 -0.3683
  201MPD1     H 3112   2.991   1.792  12.587  0.2391 -1.6269  0.1912
  201MPD1    H1 3113   2.916   1.755  12.995  0.7448 -1.9236 -1.5965
  201MPD1    H2 3114   2.740   2.076  12.791 -0.2915  0.5596 -0.5205
  201MPD1    H3 3115   2.802   1.972  12.998 -1.1911 -0.4866 -0.3763
  201MPD1     N 3116   3.029   1.631  12.783  0.0538 -0.6171  0.1081
  201MPD1    H5 3117   3.081   1.605  12.700 -2.5817  0.0746 -1.7331
  201MPD1    N1 3118   2.859   2.025  12.557  0.5721  0.3521  0.3420
  201MPD1    H6 3119   2.785   2.093  12.539  1.8815  1.5325 -0.5893
  201MPD1    H7 3120   2.860   1.969  12.472  1.7535  1.5760 -0.4543
  202MPD1     C 3121   4.255   1.998  10.093 -0.4589 -0.6402  0.0548
  202MPD1    C1 3122   4.229   2.047  10.217  0.3069 -0.3284 -0.2461
  202MPD1    C2 3123   4.126   1.977  10.283  0.4410 -0.3334 -0.3866
  202MPD1    C3 3124   4.059   1.868  10.224  0.2730 -0.5607  0.1793
  202MPD1    C4 3125   4.064   1.843  10.091 -0.1517 -0.3940  0.1442
  202MPD1    C5 3126   4.162   1.921  10.029  0.0456 -0.5370 -0.4177
  202MPD1     H 3127   4.132   1.983  10.391 -1.4077 -1.1142 -0.2481
  202MPD1    H1 3128   4.003   1.771  10.037  0.8490 -1.7313  0.7966
  202MPD1    H2 3129   4.337   2.035  10.032  1.5636 -1.1729  2.4451
  202MPD1    H3 3130   4.173   1.892   9.925 -2.9180 -0.2536 -0.8317
  202MPD1     N 3131   3.977   1.777  10.298  0.3272 -0.3980  0.4125
  202MPD1    H5 3132   3.945   1.694  10.250 -0.4843 -0.0975  0.4292
  202MPD1    N1 3133   4.342   2.098  10.284 -0.1196  0.6184  0.5883
  202MPD1    H6 3134   4.325   2.145  10.373  1.2449 -0.1551  1.2521
  202MPD1    H7 3135   4.398   2.156  10.222 -0.7070 -0.4735 -0.9545
  203MPD1     C 3136   1.380   2.144  12.568  0.0291  0.2516 -0.3442
  203MPD1    C1 3137   1.368   2.044  12.659  0.3944 -0.2636 -0.6372
  203MPD1    C2 3138   1.481   1.972  12.681  0.2469 -0.3653 -0.0765
  203MPD1    C3 3139   1.594   1.977  12.598  0.0900 -0.8612  0.2288
  203MPD1    C4 3140   1.599   2.077  12.503 -0.8333  0.8402  0.2850
  203MPD1    C5 3141   1.492   2.158  12.489  0.0583  0.3174 -0.0757
  203MPD1     H 3142   1.483   1.891  12.754 -2.7086  0.1100  0.5535
  203MPD1    H1 3143   1.681   2.088  12.434 -0.4273  1.9526  0.9540
  203MPD1    H2 3144   1.303   2.218  12.550  0.0017 -0.4212 -2.9041
  203MPD1    H3 3145   1.496   2.235  12.412  2.9844 -1.1353 -1.3477
  203MPD1     N 3146   1.704   1.895  12.632 -0.0605 -0.0629 -0.3671
  203MPD1    H5 3147   1.695   1.825  12.705  1.4083 -2.0472 -2.0773
  203MPD1    N1 3148   1.249   2.031  12.737 -0.6607 -0.0509  0.5072
  203MPD1    H6 3149   1.167   2.069  12.690  0.1426 -1.0434 -1.7348
  203MPD1    H7 3150   1.233   1.931  12.749 -1.7981  0.3555  2.3517
  204MPD1     C 3151   1.128   3.316  17.183  0.4044  0.0043 -0.1361
  204MPD1    C1 3152   1.177   3.291  17.059 -0.0648 -0.0524  0.7611
  204MPD1    C2 3153   1.268   3.183  17.042 -0.6742 -0.1116  0.3180
  204MPD1    C3 3154   1.299   3.092  17.145  0.1631  0.3711 -0.5450
  204MPD1    C4 3155   1.244   3.119  17.268  0.0547 -0.8542  1.1442
  204MPD1    C5 3156   1.161   3.225  17.284 -0.0770  0.4086 -0.7814
  204MPD1     H 3157   1.321   3.174  16.948 -0.5394  0.2900  0.3549
  204MPD1    H1 3158   1.274   3.062  17.355  1.1413  1.2664  2.1571
  204MPD1    H2 3159   1.054   3.392  17.204  1.2801  1.0407 -0.8296
  204MPD1    H3 3160   1.119   3.254  17.380 -3.8233 -3.0488 -1.3820
  204MPD1     N 3161   1.387   2.985  17.118  0.8872  0.2211  0.4255
  204MPD1    H5 3162   1.432   2.989  17.027 -1.0979 -2.1089 -0.6407
  204MPD1    N1 3163   1.170   3.396  16.961  0.2229  0.2347  0.7607
  204MPD1    H6 3164   1.080   3.443  16.956 -0.4873 -1.2272 -0.3186
  204MPD1    H7 3165   1.187   3.360  16.868 -1.8650  1.0665  0.0552
  205MPD1     C 3166   1.416   1.663  16.541 -0.6751  0.1488 -0.4790
  205MPD1    C1 3167   1.401   1.560  16.626  0.0440  0.0790  0.0008
  205MPD1    C2 3168   1.430   1.579  16.756 -0.0957  1.1248  0.7810
  205MPD1    C3 3169   1.466   1.703  16.800 -0.0153 -0.1189 -0.1715
  205MPD1    C4 3170   1.497   1.802  16.711  0.7922  0.2760  0.5767
  205MPD1    C5 3171   1.466   1.786  16.583 -0.2730  0.5473  0.1368
  205MPD1     H 3172   1.423   1.491  16.820  0.3051  1.0274  0.6934
  205MPD1    H1 3173   1.530   1.901  16.741  0.7664  1.2039 -2.3816
  205MPD1    H2 3174   1.391   1.649  16.436  2.1560 -0.5000 -1.0621
  205MPD1    H3 3175   1.477   1.867  16.511  0.1971  1.3852  1.1571
  205MPD1     N 3176   1.495   1.726  16.934  0.3462  0.4831 -0.5938
  205MPD1    H5 3177   1.519   1.823  16.956  0.7872  0.0773  0.7459
  205MPD1    N1 3178   1.354   1.438  16.579 -0.0463 -0.1675  0.1252
  205MPD1    H6 3179   1.388   1.413  16.487 -1.3480  0.5826 -0.5640
  205MPD1    H7 3180   1.383   1.369  16.648  1.5736 -0.8683 -1.2700
  206MPD1     C 3181   2.035   4.140  16.833 -0.7654  0.0251 -0.2571
  206MPD1    C1 3182   2.076   4.266  16.808  0.6807  0.3728 -0.3117
  206MPD1    C2 3183   2.035   4.328  16.697 -0.4707 -0.1971 -0.8453
  206MPD1    C3 3184   1.928   4.276  16.616  0.2448  0.4099  0.3581
  206MPD1    C4 3185   1.892   4.147  16.646 -0.3790  0.4233  0.2075
  206MPD1    C5 3186   1.949   4.076  16.750 -0.2518  0.2535 -0.0089
  206MPD1     H 3187   2.067   4.428  16.672 -1.6028  0.3221 -0.2218
  206MPD1    H1 3188   1.822   4.089  16.587 -0.6048 -0.3190  1.2186
  206MPD1    H2 3189   2.093   4.072  16.896 -0.5990  0.4936  0.0918
  206MPD1    H3 3190   1.912   3.978  16.779  1.0775 -0.3155 -0.2176
  206MPD1     N 3191   1.876   4.346  16.500 -0.6147 -0.6057 -0.2988
  206MPD1    H5 3192   1.815   4.293  16.440  1.1854 -2.1766 -0.7358
  206MPD1    N1 3193   2.194   4.313  16.883 -0.0977 -0.0473  0.1424
  206MPD1    H6 3194   2.200   4.414  16.891 -0.9890  0.1003 -1.0452
  206MPD1    H7 3195   2.193   4.270  16.975 -1.0385 -0.6547 -0.1542
  207MPD1     C 3196   3.792   1.751   9.628  0.3770 -0.5827  0.1218
  207MPD1    C1 3197   3.921   1.788   9.595 -0.1098  0.5895 -1.3352
  207MPD1    C2 3198   3.972   1.898   9.651  0.1657  0.4786 -0.6456
  207MPD1    C3 3199   3.910   1.969   9.752  0.6235  1.2724 -0.8190
  207MPD1    C4 3200   3.790   1.926   9.799 -0.2136  0.5229  0.0999
  207MPD1    C5 3201   3.727   1.823   9.725 -0.2363  0.4777 -0.0305
  207MPD1     H 3202   4.063   1.931   9.604 -0.0359  0.3896 -1.1034
  207MPD1    H1 3203   3.741   1.967   9.886  0.2005 -0.8003  0.9554
  207MPD1    H2 3204   3.739   1.669   9.580  1.6892 -0.8659 -0.8719
  207MPD1    H3 3205   3.627   1.794   9.751 -0.5470  2.6034  1.1396
  207MPD1     N 3206   3.970   2.077   9.825  0.2133  0.0033 -0.5749
  207MPD1    H5 3207   3.914   2.118   9.898  0.2062  0.7585 -1.0027
  207MPD1    N1 3208   3.982   1.731   9.477 -0.5660  0.0078 -0.6028
  207MPD1    H6 3209   4.083   1.722   9.484 -0.5936  0.8909  1.1172
  207MPD1    H7 3210   3.948   1.637   9.462  1.6874 -0.9985  0.5623
  208MPD1     C 3211   3.206   1.347  17.280 -0.0449 -0.4919 -0.0491
  208MPD1    C1 3212   3.198   1.256  17.383  0.2928  0.6205 -0.5073
  208MPD1    C2 3213   3.078   1.188  17.390  0.2632  0.0137  0.3060
  208MPD1    C3 3214   2.962   1.230  17.320 -0.2291  0.6731  0.3009
  208MPD1    C4 3215   2.973   1.326  17.223 -0.3886 -0.4988 -0.1287
  208MPD1    C5 3216   3.094   1.379  17.197 -0.3141  0.4652  0.3438
  208MPD1     H 3217   3.069   1.105  17.459  0.4651  0.3621  0.7541
  208MPD1    H1 3218   2.891   1.353  17.157  0.1801  0.2981 -0.5056
  208MPD1    H2 3219   3.302   1.393  17.264 -0.2192  0.2854  1.1654
  208MPD1    H3 3220   3.107   1.440  17.108  0.5153  0.2500  0.3158
  208MPD1     N 3221   2.835   1.174  17.349  0.5022 -0.2235  0.5091
  208MPD1    H5 3222   2.840   1.096  17.414  1.5309 -0.1257  0.5482
  208MPD1    N1 3223   3.304   1.192  17.452 -0.3634 -0.0309  0.1771
  208MPD1    H6 3224   3.268   1.152  17.539  1.1356  1.4123  1.4714
  208MPD1    H7 3225   3.389   1.246  17.468 -0.0721 -0.2664 -0.5833
  209MPD1     C 3226   0.343   2.224  10.848 -0.0006  0.3333  1.1731
  209MPD1    C1 3227   0.239   2.173  10.777  0.0637 -0.7015  0.3338
  209MPD1    C2 3228   0.109   2.219  10.803 -0.1894 -0.4365 -0.1304
  209MPD1    C3 3229   0.091   2.304  10.910 -0.2764 -0.0662  0.2368
  209MPD1    C4 3230   0.193   2.352  10.985  0.7173 -0.0969  0.4919
  209MPD1    C5 3231   0.324   2.313  10.953 -0.1952 -0.9270  0.4721
  209MPD1     H 3232   0.028   2.201  10.734 -1.6936 -2.7574  2.2175
  209MPD1    H1 3233   0.195   2.424  11.066 -1.9609  2.4982 -1.7583
  209MPD1    H2 3234   0.447   2.202  10.826 -1.3207 -2.2736 -2.4104
  209MPD1    H3 3235   0.410   2.346  11.008  0.3344  0.0748 -0.9485
  209MPD1     N 3236   4.704   2.360  10.930 -0.1419 -0.6763 -0.3332
  209MPD1    H5 3237   4.632   2.317  10.874 -1.2227 -0.5989  0.9959
  209MPD1    N1 3238   0.277   2.111  10.659 -0.6032  0.3029 -0.5478
  209MPD1    H6 3239   0.201   2.062  10.612  0.5051 -1.0208 -0.9685
  209MPD1    H7 3240   0.355   2.048  10.679  0.4400  1.9684  0.6363
  210MPD1     C 3241   4.186   2.893  11.614 -0.2882 -0.4720 -0.9330
  210MPD1    C1 3242   4.098   2.813  11.548  0.6149 -0.1371  0.7049
  210MPD1    C2 3243   4.142   2.737  11.442  0.2254  0.1616 -0.4967
  210MPD1    C3 3244   4.270   2.761  11.386 -0.1563  0.0339 -0.2627
  210MPD1    C4 3245   4.349   2.852  11.452 -0.0522 -0.3365 -0.1746
  210MPD1    C5 3246   4.313   2.907  11.566 -0.5536 -0.0634  0.2829
  210MPD1     H 3247   4.062   2.678  11.398  0.2574  0.6536 -1.1932
  210MPD1    H1 3248   4.450   2.876  11.423 -0.0047 -1.1178 -0.6787
  210MPD1    H2 3249   4.168   2.938  11.711  0.6019 -2.8609  0.3460
  210MPD1    H3 3250   4.392   2.958  11.620  0.7209 -1.0906 -0.6071
  210MPD1     N 3251   4.315   2.701  11.266  0.6679  0.1594 -0.0578
  210MPD1    H5 3252   4.410   2.720  11.233  1.3650 -2.7362  0.3550
  210MPD1    N1 3253   3.961   2.833  11.567 -0.2199  0.4028  0.6540
  210MPD1    H6 3254   3.917   2.745  11.540 -1.0283  0.6908  1.0438
  210MPD1    H7 3255   3.943   2.856  11.665  0.8185  0.0856  0.9247
  211MPD1     C 3256   2.385   1.730  16.093  0.5280  0.1639 -0.3371
  211MPD1    C1 3257   2.315   1.834  16.151 -0.0908 -0.1210 -1.0716
  211MPD1    C2 3258   2.198   1.882  16.109  0.4882  0.0811 -0.2835
  211MPD1    C3 3259   2.133   1.817  16.002  0.8344  0.0563 -0.8837
  211MPD1    C4 3260   2.201   1.712  15.943 -0.3497  0.1657  0.2130
  211MPD1    C5 3261   2.325   1.673  15.987 -0.3561  0.6518  0.2065
  211MPD1     H 3262   2.155   1.968  16.159 -0.4752  1.0054 -2.6954
  211MPD1    H1 3263   2.160   1.662  15.856 -2.0988  1.8825  0.0459
  211MPD1    H2 3264   2.483   1.701  16.129  0.8351  1.3816 -0.1631
  211MPD1    H3 3265   2.366   1.585  15.940 -0.4105  0.3746  0.6681
  211MPD1     N 3266   2.007   1.869  15.955  0.3411  0.3512  0.3090
  211MPD1    H5 3267   1.985   1.961  15.993 -0.7591  0.5779 -0.8618
  211MPD1    N1 3268   2.382   1.896  16.249 -0.0518  0.2334  0.6505
  211MPD1    H6 3269   2.317   1.926  16.322  0.2640  0.5756  0.7947
  211MPD1    H7 3270   2.450   1.841  16.301  2.5651  0.7646 -2.2344
  212MPD1     C 3271   1.385   4.374  16.065 -0.2125  0.1215 -0.0283
  212MPD1    C1 3272   1.308   4.477  16.110  0.0966 -0.5777 -0.8118
  212MPD1    C2 3273   1.234   4.460  16.231  0.4861  0.2168 -0.1205
  212MPD1    C3 3274   1.240   4.339  16.304 -0.0279 -0.4362 -0.1286
  212MPD1    C4 3275   1.314   4.238  16.252  0.1490  0.2777  0.1796
  212MPD1    C5 3276   1.384   4.257  16.136  0.1950  0.1332  0.4910
  212MPD1     H 3277   1.165   4.538  16.262  0.9975  0.3672  0.6607
  212MPD1    H1 3278   1.313   4.146  16.309  0.1214 -1.5646 -2.8261
  212MPD1    H2 3279   1.443   4.378  15.973 -0.6739  2.3033 -0.2257
  212MPD1    H3 3280   1.442   4.178  16.090 -1.3002 -0.7465  0.1108
  212MPD1     N 3281   1.157   4.305  16.414 -0.0155 -0.5636  0.6864
  212MPD1    H5 3282   1.169   4.212  16.453 -1.8228 -1.3424 -0.6589
  212MPD1    N1 3283   1.290   4.585  16.018  0.5262  0.7721 -0.1837
  212MPD1    H6 3284   1.272   4.683  16.038 -0.1977  0.6610 -0.2663
  212MPD1    H7 3285   1.369   4.596  15.955  0.9751 -1.3654 -0.0173
  213MPD1     C 3286   4.610   0.625  16.009  0.3266 -0.0236  0.4992
  213MPD1    C1 3287   4.581   0.496  15.964 -0.4063  0.2096 -0.4975
  213MPD1    C2 3288   4.472   0.493  15.870 -0.2526 -0.0036  0.2997
  213MPD1    C3 3289   4.374   0.594  15.863 -0.6937  0.3082  0.2870
  213MPD1    C4 3290   4.396   0.709  15.934 -0.7181  0.3579 -0.0229
  213MPD1    C5 3291   4.510   0.717  16.007 -0.3194 -0.1589 -0.4892
  213MPD1     H 3292   4.452   0.404  15.812 -1.3630  1.5169 -1.6258
  213MPD1    H1 3293   4.331   0.796  15.932  0.2478  1.1134  1.1112
  213MPD1    H2 3294   4.691   0.637  16.081 -1.4755  0.9627  2.3823
  213MPD1    H3 3295   4.529   0.813  16.055 -1.5356 -0.5425  0.7689
  213MPD1     N 3296   4.263   0.575  15.780  0.3903  0.0938  0.5950
  213MPD1    H5 3297   4.269   0.492  15.722 -0.6467 -0.4897  1.3252
  213MPD1    N1 3298   4.688   0.413  15.944  0.4783 -0.2738  0.2693
  213MPD1    H6 3299   4.668   0.314  15.928  0.8709 -0.3912  0.4918
  213MPD1    H7 3300   0.020   0.415  16.016 -1.1055 -3.1807  1.9705
  214MPD1     C 3301   3.639   4.596  15.728  0.1407 -0.0509  0.0411
  214MPD1    C1 3302   3.695   4.677  15.825 -0.7456 -0.2469 -0.2671
  214MPD1    C2 3303   3.731   0.060  15.790  0.2770  0.2898 -0.0463
  214MPD1    C3 3304   3.721   0.107  15.660 -0.3114 -0.7121  0.0344
  214MPD1    C4 3305   3.667   0.025  15.571 -0.2201 -0.8801 -0.2699
  214MPD1    C5 3306   3.618   4.650  15.609 -0.5700 -0.0068  0.6816
  214MPD1     H 3307   3.772   0.127  15.864  2.3077 -2.4518  1.3057
  214MPD1    H1 3308   3.673   0.046  15.465 -1.4624 -0.4017 -0.2395
  214MPD1    H2 3309   3.587   4.504  15.754  2.2194 -1.1622  0.2734
  214MPD1    H3 3310   3.583   4.581  15.533  2.0657 -0.7234  0.1054
  214MPD1     N 3311   3.761   0.237  15.625 -0.2076 -0.0043 -0.4620
  214MPD1    H5 3312   3.741   0.267  15.530  0.6313  1.4697 -0.1810
  214MPD1    N1 3313   3.683   4.646  15.966  0.3603  0.1274 -0.1753
  214MPD1    H6 3314   3.704   4.547  15.978  0.6858  0.6628  3.5889
  214MPD1    H7 3315   3.750   4.699  16.020  2.2823 -1.5341 -0.9369
  215MPD1     C 3316   4.528   1.160  10.433 -0.6015  0.3001  0.5596
  215MPD1    C1 3317   4.491   1.154  10.567 -0.3633  0.1474  0.8434
  215MPD1    C2 3318   4.470   1.272  10.638 -0.2477 -0.1866  0.6679
  215MPD1    C3 3319   4.528   1.394  10.595 -0.2211 -0.0147  0.2307
  215MPD1    C4 3320   4.589   1.390  10.473  0.4367  0.2914  0.1592
  215MPD1    C5 3321   4.581   1.273  10.392 -0.0451 -0.2619  0.4367
  215MPD1     H 3322   4.423   1.264  10.735  0.1190 -0.0126  0.8582
  215MPD1    H1 3323   4.627   1.479  10.424  1.3309 -0.9045 -1.3249
  215MPD1    H2 3324   4.532   1.072  10.369  1.8481  0.8697 -0.0680
  215MPD1    H3 3325   4.637   1.282  10.299  0.7935  1.5945  1.1258
  215MPD1     N 3326   4.526   1.508  10.674  0.2670 -0.2941  0.9207
  215MPD1    H5 3327   4.474   1.513  10.760 -0.1164 -0.6283  0.7060
  215MPD1    N1 3328   4.426   1.033  10.611  0.8271 -0.3029  0.0644
  215MPD1    H6 3329   4.444   1.024  10.711 -1.1003  3.2945  0.7274
  215MPD1    H7 3330   4.463   0.950  10.566  1.3744  0.2002 -0.4021
  216MPD1     C 3331   1.025   0.143  16.760  0.4983  0.4012 -0.2154
  216MPD1    C1 3332   1.075   0.035  16.685 -0.0101 -0.0008 -0.3098
  216MPD1    C2 3333   1.124   4.668  16.752  0.1988  0.3543  0.8462
  216MPD1    C3 3334   1.099   4.644  16.885  0.5640  1.0658 -0.3954
  216MPD1    C4 3335   1.026   4.740  16.958  0.1146 -0.1340  0.4030
  216MPD1    C5 3336   0.998   0.120  16.892 -0.9141 -0.4858 -0.9506
  216MPD1     H 3337   1.184   4.591  16.707  0.1151 -0.1864  1.6535
  216MPD1    H1 3338   1.003   4.730  17.063 -1.9860  1.7794  0.1161
  216MPD1    H2 3339   0.994   0.231  16.706 -1.8626  1.3040  2.6246
  216MPD1    H3 3340   0.939   0.193  16.945  1.2210  1.3731 -1.1311
  216MPD1     N 3341   1.148   4.523  16.940  0.5208  0.6247 -0.7270
  216MPD1    H5 3342   1.195   4.455  16.881 -0.8327 -0.2533 -0.7739
  216MPD1    N1 3343   1.104   0.051  16.540  0.0995  0.0245  0.1679
  216MPD1    H6 3344   1.110   4.701  16.494  2.5038  0.1222  0.3097
  216MPD1    H7 3345   1.029   0.102  16.494 -1.3636 -1.0033  1.4084
  217MPD1     C 3346   2.376   1.803   9.528  0.2535  0.4828  1.0374
  217MPD1    C1 3347   2.298   1.881   9.609  0.2004 -0.3546 -0.5483
  217MPD1    C2 3348   2.174   1.825   9.645 -0.0946 -0.4324 -0.0080
  217MPD1    C3 3349   2.127   1.702   9.600  0.4130  0.2569 -0.5877
  217MPD1    C4 3350   2.216   1.630   9.525  0.4068  0.2812 -0.6827
  217MPD1    C5 3351   2.333   1.677   9.486 -0.0677 -0.0922 -0.8541
  217MPD1     H 3352   2.119   1.883   9.717 -1.4438 -0.7765 -0.7517
  217MPD1    H1 3353   2.181   1.540   9.475 -1.5195  1.0804 -0.7969
  217MPD1    H2 3354   2.476   1.826   9.494  0.8397 -0.4918  2.0930
  217MPD1    H3 3355   2.392   1.606   9.428  1.7227 -1.2222  2.3676
  217MPD1     N 3356   1.998   1.652   9.627  0.3990  0.1720  0.1023
  217MPD1    H5 3357   1.972   1.567   9.578  3.1399 -0.4482 -0.2878
  217MPD1    N1 3358   2.349   2.010   9.656  0.6704  0.1054  0.0210
  217MPD1    H6 3359   2.281   2.070   9.702  1.9974  0.2612  1.7617
  217MPD1    H7 3360   2.407   2.062   9.590 -0.2846  0.0463 -0.8770
  218MPD1     C 3361   3.397   2.714  12.711 -0.4478 -0.4344  0.4908
  218MPD1    C1 3362   3.417   2.598  12.780 -0.4801  0.0869  0.4261
  218MPD1    C2 3363   3.487   2.503  12.716 -0.5584  0.7560 -0.1179
  218MPD1    C3 3364   3.554   2.531  12.601 -1.0064 -0.6637 -0.5129
  218MPD1    C4 3365   3.535   2.651  12.534 -0.3470 -0.3011 -0.3611
  218MPD1    C5 3366   3.460   2.749  12.593  0.9237 -0.2362 -0.3571
  218MPD1     H 3367   3.489   2.401  12.753 -1.9771  0.2247 -1.5030
  218MPD1    H1 3368   3.589   2.688  12.448  0.5943 -1.9728 -0.5009
  218MPD1    H2 3369   3.353   2.798  12.763  1.5014  0.0337  1.4037
  218MPD1    H3 3370   3.455   2.851  12.556  3.3592  0.5742  1.5601
  218MPD1     N 3371   3.639   2.428  12.556  0.5280 -0.7231  0.2212
  218MPD1    H5 3372   3.660   2.352  12.620  1.4920 -0.9423 -0.3618
  218MPD1    N1 3373   3.341   2.569  12.900  0.2624 -0.3573 -0.6899
  218MPD1    H6 3374   3.343   2.650  12.962 -0.9075  1.3323 -2.8957
  218MPD1    H7 3375   3.392   2.501  12.957 -2.3902 -0.4738  1.5566
  219MPD1     C 3376   4.427   2.089  11.883 -0.2589  0.2572  0.0761
  219MPD1    C1 3377   4.290   2.081  11.869  0.3572 -0.6375 -0.7914
  219MPD1    C2 3378   4.222   2.144  11.969  0.2332  0.9956 -0.4005
  219MPD1    C3 3379   4.286   2.203  12.075  0.0054  0.3237 -0.5355
  219MPD1    C4 3380   4.420   2.201  12.090  0.0665 -1.0127  0.0031
  219MPD1    C5 3381   4.489   2.147  11.990 -0.4334 -0.0403 -0.0701
  219MPD1     H 3382   4.114   2.148  11.969  0.3112  2.8546  3.5967
  219MPD1    H1 3383   4.475   2.241  12.174  0.8322 -2.7707  0.3284
  219MPD1    H2 3384   4.490   2.051  11.804 -0.8648 -0.0057 -0.2777
  219MPD1    H3 3385   4.597   2.141  11.993 -0.4980  0.0373  2.1217
  219MPD1     N 3386   4.209   2.257  12.182 -0.6784  0.2628  0.3865
  219MPD1    H5 3387   4.248   2.300  12.265 -0.3649  0.6679  0.0273
  219MPD1    N1 3388   4.217   2.025  11.764 -0.8692  0.1038 -0.3725
  219MPD1    H6 3389   4.268   1.940  11.739 -1.6995 -0.6428  0.4682
  219MPD1    H7 3390   4.129   1.992  11.805 -1.0455  1.9412  0.7036
  220MPD1     C 3391   3.549   1.623  10.011  0.4227  0.1137 -0.3635
  220MPD1    C1 3392   3.426   1.650  10.053  0.0606 -0.1285 -0.8380
  220MPD1    C2 3393   3.409   1.764  10.130 -0.0421  0.0531  0.0812
  220MPD1    C3 3394   3.515   1.836  10.179 -0.8819  0.1033  0.2420
  220MPD1    C4 3395   3.646   1.798  10.140 -0.2364 -0.3659  0.1513
  220MPD1    C5 3396   3.652   1.692  10.055  0.5571  0.9993 -0.1756
  220MPD1     H 3397   3.309   1.790  10.162 -0.2129  0.1782 -0.5466
  220MPD1    H1 3398   3.736   1.855  10.157  0.3847 -0.6381 -2.1875
  220MPD1    H2 3399   3.567   1.538   9.945  1.7504 -1.7136  2.3699
  220MPD1    H3 3400   3.750   1.670  10.015  0.5371  2.2488 -0.9344
  220MPD1     N 3401   3.491   1.942  10.268 -0.7262 -0.2846 -0.1156
  220MPD1    H5 3402   3.395   1.965  10.290  0.0686 -0.3457  3.5606
  220MPD1    N1 3403   3.324   1.599   9.981  0.3663  0.3768  0.0422
  220MPD1    H6 3404   3.334   1.498   9.966 -0.6417  0.3194 -0.2665
  220MPD1    H7 3405   3.240   1.608  10.038  0.5348 -0.8488  0.5016
  221MPD1     C 3406   1.642   1.887  16.296  0.6836  0.2492  0.9394
  221MPD1    C1 3407   1.775   1.854  16.327  0.7712 -0.0657 -0.4736
  221MPD1    C2 3408   1.823   1.740  16.267  0.3852 -0.5319 -0.1552
  221MPD1    C3 3409   1.747   1.650  16.194 -0.2268  0.1514 -0.6569
  221MPD1    C4 3410   1.617   1.684  16.166 -1.1453 -0.3212  0.0983
  221MPD1    C5 3411   1.563   1.796  16.230  0.1964  0.1686  0.2907
  221MPD1     H 3412   1.923   1.706  16.294  1.4527  1.0743 -2.1113
  221MPD1    H1 3413   1.547   1.620  16.114 -0.6858 -3.3884  3.3090
  221MPD1    H2 3414   1.599   1.975  16.343  0.5784  0.1937  0.9459
  221MPD1    H3 3415   1.457   1.818  16.228  0.1047 -0.3783 -0.7626
  221MPD1     N 3416   1.815   1.536  16.151  0.2312  0.1320 -0.0368
  221MPD1    H5 3417   1.913   1.530  16.176 -0.0188 -1.2064  0.6315
  221MPD1    N1 3418   1.859   1.948  16.398  0.1933  0.1279  0.4427
  221MPD1    H6 3419   1.930   1.894  16.447  0.9520  1.1702  0.5054
  221MPD1    H7 3420   1.805   1.996  16.470 -0.9225  1.6537 -1.3823
  222MPD1     C 3421   0.263   4.155   0.388  0.2337  0.1147 -0.5773
  222MPD1    C1 3422   0.305   4.150   0.256 -0.2600  0.0141  0.2233
  222MPD1    C2 3423   0.386   4.254   0.216  0.1475  0.0002  0.2923
  222MPD1    C3 3424   0.426   4.366   0.296  0.1299  0.1058 -0.6376
  222MPD1    C4 3425   0.385   4.361   0.427 -0.4280  0.6503 -0.5082
  222MPD1    C5 3426   0.307   4.252   0.475 -0.8105 -0.1101  0.5307
  222MPD1     H 3427   0.410   4.250   0.110  0.5076  2.2047  0.2797
  222MPD1    H1 3428   0.399   4.451   0.484 -0.4295 -1.2631  2.5216
  222MPD1    H2 3429   0.217   4.071   0.439  0.6872  1.9860  2.9220
  222MPD1    H3 3430   0.264   4.249   0.574  0.7641 -0.2476  1.2128
  222MPD1     N 3431   0.486   4.482   0.242 -0.4777 -0.8155 -0.2366
  222MPD1    H5 3432   0.499   4.549   0.317  0.4289 -0.3421 -0.8093
  222MPD1    N1 3433   0.275   4.044   0.172  0.1365 -0.1362  0.0744
  222MPD1    H6 3434   0.275   4.082   0.078 -0.0414 -0.2935  0.0116
  222MPD1    H7 3435   0.189   3.995   0.193  0.4534 -0.7403 -0.0496
  223MPD1     C 3436   0.965   0.295  17.216 -0.0113 -0.1522 -0.2868
  223MPD1    C1 3437   1.025   0.330  17.336 -0.3185 -0.0447 -0.9349
  223MPD1    C2 3438   0.960   0.287  17.447 -0.1158 -0.0064 -0.2867
  223MPD1    C3 3439   0.836   0.225  17.442 -0.3418 -0.0140 -1.0202
  223MPD1    C4 3440   0.780   0.203  17.311 -0.9133  0.2112  0.9973
  223MPD1    C5 3441   0.856   0.224  17.202  0.1092 -0.4106  0.3285
  223MPD1     H 3442   1.010   0.305  17.542 -2.0727  0.4049  0.6691
  223MPD1    H1 3443   0.689   0.145  17.299 -0.5045  0.2916 -2.3050
  223MPD1    H2 3444   1.032   0.309  17.132  1.4647 -0.4022  0.8522
  223MPD1    H3 3445   0.823   0.213  17.099  1.5341 -1.2560 -0.0540
  223MPD1     N 3446   0.771   0.185  17.561  0.2838  0.3370 -1.0417
  223MPD1    H5 3447   0.829   0.202  17.643 -0.2760  1.9972 -0.9784
  223MPD1    N1 3448   1.150   0.389  17.344  0.8686  0.0518 -0.5048
  223MPD1    H6 3449   1.163   0.454  17.421 -0.2241 -0.9912  0.5452
  223MPD1    H7 3450   1.183   0.432  17.258  2.1103  1.5877  0.7298
  224MPD1     C 3451   3.433   1.006   8.965  0.0891  0.1667  0.0914
  224MPD1    C1 3452   3.354   0.903   9.007  0.2679  0.7288  1.1807
  224MPD1    C2 3453   3.236   0.941   9.069 -0.8177  0.3360 -0.0262
  224MPD1    C3 3454   3.184   1.075   9.075  0.1285  1.2038  0.7075
  224MPD1    C4 3455   3.261   1.172   9.012 -0.2475  0.0244  0.0634
  224MPD1    C5 3456   3.378   1.133   8.953  0.1772  0.2020 -0.0863
  224MPD1     H 3457   3.188   0.860   9.123 -0.2517 -0.1804 -0.2966
  224MPD1    H1 3458   3.221   1.272   9.014 -0.3736 -0.0239 -0.0332
  224MPD1    H2 3459   3.530   0.987   8.919 -0.9499  0.7623 -2.3476
  224MPD1    H3 3460   3.434   1.207   8.897 -1.7931  0.1227 -2.1764
  224MPD1     N 3461   3.060   1.112   9.135 -0.6473 -0.3082  0.1664
  224MPD1    H5 3462   3.018   1.204   9.125 -0.4926  0.0243  2.5776
  224MPD1    N1 3463   3.406   0.782   9.023 -0.0489 -0.2486  0.4557
  224MPD1    H6 3464   3.341   0.705   9.007  0.4987 -0.7768  0.7548
  224MPD1    H7 3465   3.481   0.763   8.957 -0.3685 -2.1431  0.6432
  225MPD1     C 3466   3.616   2.959  12.182 -0.5972 -0.1375  0.4150
  225MPD1    C1 3467   3.574   2.845  12.123  0.0705  0.2033 -0.2404
  225MPD1    C2 3468   3.445   2.807  12.153 -0.0713  0.0200 -0.0879
  225MPD1    C3 3469   3.366   2.867  12.249  0.1038 -0.6939  0.0541
  225MPD1    C4 3470   3.418   2.980  12.307  0.7042 -0.3884  0.2874
  225MPD1    C5 3471   3.537   3.026  12.274  0.2079  0.5019  0.3318
  225MPD1     H 3472   3.396   2.728  12.098  0.3286 -1.0641  1.1160
  225MPD1    H1 3473   3.352   3.031  12.377  2.0120  0.2188  1.0683
  225MPD1    H2 3474   3.717   2.998  12.173 -0.0706 -1.5494  0.2398
  225MPD1    H3 3475   3.578   3.117  12.316  1.5656  0.4177 -0.7876
  225MPD1     N 3476   3.237   2.834  12.290  0.1099 -0.8900  0.2135
  225MPD1    H5 3477   3.196   2.898  12.358  1.0600 -2.3434  2.1572
  225MPD1    N1 3478   3.645   2.796  12.012  0.3384 -0.0847 -0.3667
  225MPD1    H6 3479   3.646   2.696  11.995  0.0824 -0.4020  1.4593
  225MPD1    H7 3480   3.738   2.834  11.994  0.7376 -1.1019 -0.4122
  226MPD1     C 3481   4.103   2.548   9.501  0.5648 -0.2254  0.1805
  226MPD1    C1 3482   3.974   2.592   9.508 -0.7665 -0.3588 -0.5694
  226MPD1    C2 3483   3.865   2.502   9.491  0.8514 -0.4134 -0.5623
  226MPD1    C3 3484   3.890   2.371   9.457 -0.1025  0.1126  0.5677
  226MPD1    C4 3485   4.026   2.329   9.437  0.1909 -0.3348 -0.1723
  226MPD1    C5 3486   4.131   2.419   9.462 -0.2375 -0.2479 -0.4396
  226MPD1     H 3487   3.764   2.535   9.515  1.5039  0.8143  0.4736
  226MPD1    H1 3488   4.055   2.226   9.421  0.9791 -0.5183  2.4910
  226MPD1    H2 3489   4.187   2.613   9.521  0.7477 -0.2043 -0.6573
  226MPD1    H3 3490   4.236   2.395   9.445 -1.1062 -3.2091 -1.7179
  226MPD1     N 3491   3.780   2.291   9.453  0.0208  0.7625 -0.1257
  226MPD1    H5 3492   3.691   2.341   9.453 -0.2001  0.3667 -0.0325
  226MPD1    N1 3493   3.947   2.719   9.556  0.5936  0.0743  0.1591
  226MPD1    H6 3494   3.853   2.753   9.537  0.4735 -1.0307 -1.1737
  226MPD1    H7 3495   4.013   2.790   9.526  0.2371 -0.1274 -1.1100
  227MPD1     C 3496   3.703   1.366   9.082  0.2192  0.2233 -0.2795
  227MPD1    C1 3497   3.788   1.474   9.060  0.1111  0.0604  0.1505
  227MPD1    C2 3498   3.740   1.601   9.095  0.8887 -0.6026 -0.6714
  227MPD1    C3 3499   3.633   1.619   9.181 -0.1527  0.1193  0.2831
  227MPD1    C4 3500   3.570   1.506   9.230 -0.5380  0.5203 -0.1004
  227MPD1    C5 3501   3.600   1.382   9.173 -0.8588  0.1235 -0.6824
  227MPD1     H 3502   3.797   1.685   9.057  0.4686 -0.3549 -0.7585
  227MPD1    H1 3503   3.487   1.512   9.299 -0.5759 -1.3386  0.0165
  227MPD1    H2 3504   3.709   1.265   9.045  0.4466  0.0986  0.1034
  227MPD1    H3 3505   3.537   1.299   9.205 -1.2363 -0.4974 -3.0229
  227MPD1     N 3506   3.604   1.742   9.233 -0.3173  0.8536  0.1119
  227MPD1    H5 3507   3.642   1.821   9.182 -1.8930  1.8847  0.5097
  227MPD1    N1 3508   3.886   1.458   8.961  0.2715  0.0573  0.3032
  227MPD1    H6 3509   3.962   1.526   8.955  0.2662  0.0337 -0.0244
  227MPD1    H7 3510   3.910   1.359   8.964 -0.7094 -0.2094 -0.6410
  228MPD1     C 3511   4.436   4.632  11.913  0.3889  0.2144 -0.5927
  228MPD1    C1 3512   4.311   4.662  11.971  0.4842  0.1867 -0.2743
  228MPD1    C2 3513   4.310   0.015  12.071 -0.0184  0.4949  0.6623
  228MPD1    C3 3514   4.421   0.066  12.127  0.0014 -0.1856  0.0798
  228MPD1    C4 3515   4.547   0.026  12.079  0.3554 -0.3428 -0.6394
  228MPD1    C5 3516   4.546   4.683  11.974  0.2020 -0.2721 -0.8956
  228MPD1     H 3517   4.216   0.062  12.098 -0.9555 -0.8070 -0.3333
  228MPD1    H1 3518   4.644   0.056  12.117 -0.1077 -2.3142  2.1186
  228MPD1    H2 3519   4.442   4.563  11.830 -0.9574 -0.4462 -0.1269
  228MPD1    H3 3520   4.642   4.649  11.937 -0.5564  0.1882 -3.2639
  228MPD1     N 3521   4.399   0.158  12.237 -0.4555 -0.1424 -0.2597
  228MPD1    H5 3522   4.301   0.176  12.259 -0.8154 -0.0327 -1.9476
  228MPD1    N1 3523   4.198   4.621  11.896  0.7059 -0.9376 -0.4663
  228MPD1    H6 3524   4.196   4.532  11.846 -1.5327 -0.1981 -1.6948
  228MPD1    H7 3525   4.108   4.643  11.937  1.2147  0.4871 -0.0969
  229MPD1     C 3526   4.425   3.870  14.265 -0.2481 -0.3499 -0.1857
  229MPD1    C1 3527   4.482   3.928  14.377 -0.6977  0.4087  0.4674
  229MPD1    C2 3528   4.554   3.850  14.468  0.4002  0.5417  0.0374
  229MPD1    C3 3529   4.560   3.715  14.449  0.1121  0.0016 -0.2078
  229MPD1    C4 3530   4.484   3.655  14.349  0.0956  0.0366 -0.8554
  229MPD1    C5 3531   4.424   3.734  14.250  0.2901 -0.2892  0.1507
  229MPD1     H 3532   4.604   3.903  14.549  3.4513 -1.5836 -0.4656
  229MPD1    H1 3533   4.473   3.547  14.340  1.7410 -0.0955 -1.3035
  229MPD1    H2 3534   4.393   3.930  14.180 -0.3249  1.3383  1.0240
  229MPD1    H3 3535   4.369   3.683  14.173 -1.5085  1.2795  0.4084
  229MPD1     N 3536   4.628   3.629  14.538  0.1385  0.2109 -0.0459
  229MPD1    H5 3537   4.640   3.532  14.511 -1.0222 -0.4178  1.6595
  229MPD1    N1 3538   4.506   4.065  14.387 -0.0026  0.3828  0.0910
  229MPD1    H6 3539   4.519   4.090  14.485  0.5466 -0.8188  0.3277
  229MPD1    H7 3540   4.423   4.115  14.356  0.1719  0.7087  0.1494
  230MPD1     C 3541   0.515   3.348  15.402  0.2128 -0.7673  0.1041
  230MPD1    C1 3542   0.411   3.438  15.412 -0.2792 -0.2225  0.1933
  230MPD1    C2 3543   0.338   3.454  15.297 -0.0343 -0.6264  0.3710
  230MPD1    C3 3544   0.377   3.407  15.175  0.0857 -0.1176 -0.1474
  230MPD1    C4 3545   0.485   3.328  15.168  0.6773 -0.2612 -0.7791
  230MPD1    C5 3546   0.556   3.295  15.279 -0.1991 -0.4645  0.4256
  230MPD1     H 3547   0.240   3.502  15.295 -0.1294 -0.7865  1.0885
  230MPD1    H1 3548   0.520   3.293  15.071 -1.2360  0.7870 -1.8498
  230MPD1    H2 3549   0.569   3.320  15.491  0.1372  2.1912  1.0653
  230MPD1    H3 3550   0.645   3.236  15.265 -1.3717 -1.4673 -2.9279
  230MPD1     N 3551   0.311   3.420  15.051  0.5714  0.1215 -0.1513
  230MPD1    H5 3552   0.349   3.373  14.969 -1.5692 -2.2653  0.2124
  230MPD1    N1 3553   0.360   3.460  15.537  0.7778 -0.2239  0.2053
  230MPD1    H6 3554   0.425   3.467  15.615  0.6323  0.9245  0.2310
  230MPD1    H7 3555   0.316   3.552  15.532  2.1390  0.5614  2.6963
  231MPD1     C 3556   3.037   0.499  15.300 -0.6431  0.5011  0.3890
  231MPD1    C1 3557   3.084   0.468  15.170 -0.5291  0.3256 -0.5801
  231MPD1    C2 3558   3.192   0.531  15.123 -0.1488 -0.0460  0.6264
  231MPD1    C3 3559   3.256   0.624  15.205 -0.1685 -0.0691  0.3503
  231MPD1    C4 3560   3.199   0.663  15.328 -1.0084 -0.0059 -0.2753
  231MPD1    C5 3561   3.094   0.594  15.379  0.4642  0.5204 -0.3170
  231MPD1     H 3562   3.227   0.517  15.022 -0.0203  0.2367  0.6315
  231MPD1    H1 3563   3.248   0.732  15.396 -1.6748  1.3013 -1.1141
  231MPD1    H2 3564   2.962   0.441  15.352 -2.3405  0.5775 -1.9666
  231MPD1    H3 3565   3.059   0.616  15.480 -1.1844 -0.4744 -0.6800
  231MPD1     N 3566   3.380   0.658  15.148 -0.3755 -0.0872 -0.2466
  231MPD1    H5 3567   3.394   0.624  15.054  2.3115  1.3004 -0.3399
  231MPD1    N1 3568   3.004   0.381  15.088  0.9928 -0.0626  0.1416
  231MPD1    H6 3569   2.953   0.306  15.134  0.7980  1.8790  3.0831
  231MPD1    H7 3570   3.053   0.340  15.009  0.8279  2.6531 -1.3661
  232MPD1     C 3571   0.477   3.317  17.756  0.0226  0.1539  0.0597
  232MPD1    C1 3572   0.343   3.311   0.028  0.4009 -0.3007 -0.0129
  232MPD1    C2 3573   0.277   3.191   0.015 -0.3410 -0.2905 -0.6004
  232MPD1    C3 3574   0.346   3.082  17.741  0.5733  0.6619  0.1082
  232MPD1    C4 3575   0.478   3.090  17.700  0.0576  0.4898  0.7810
  232MPD1    C5 3576   0.543   3.207  17.712  0.3493  0.1041 -0.9844
  232MPD1     H 3577   0.175   3.194   0.050  0.2806 -0.2212  1.2123
  232MPD1    H1 3578   0.539   3.005  17.672  2.0628  1.4427  2.1767
  232MPD1    H2 3579   0.528   3.412   0.008 -1.6570  1.1852 -0.9104
  232MPD1    H3 3580   0.651   3.202  17.700  0.4020 -0.1745 -0.4115
  232MPD1     N 3581   0.276   2.960  17.756  0.5607 -0.2319  0.1376
  232MPD1    H5 3582   0.188   2.964   0.047  0.6475  1.7645  0.1087
  232MPD1    N1 3583   0.275   3.421   0.086  0.6874 -0.7522 -0.3844
  232MPD1    H6 3584   0.182   3.423   0.046  1.5915  2.3305 -2.3179
  232MPD1    H7 3585   0.327   3.504   0.059 -0.3528  0.6822  2.0120
  233MPD1     C 3586   1.391   2.167   0.250 -0.2489 -0.1846 -0.4984
  233MPD1    C1 3587   1.512   2.160   0.314 -0.3385  0.0337  1.0146
  233MPD1    C2 3588   1.563   2.035   0.357  0.3622  0.8488  0.0989
  233MPD1    C3 3589   1.473   1.932   0.373 -0.3356  0.4049  0.1607
  233MPD1    C4 3590   1.344   1.943   0.326  0.7861  0.0309  0.0966
  233MPD1    C5 3591   1.306   2.055   0.253  0.0160 -0.4056 -0.0634
  233MPD1     H 3592   1.669   2.017   0.371  0.2262 -1.2907 -1.7869
  233MPD1    H1 3593   1.279   1.856   0.332  0.4011  0.5108  2.8342
  233MPD1    H2 3594   1.359   2.256   0.197  0.4439 -0.1686 -0.8986
  233MPD1    H3 3595   1.205   2.067   0.216  0.2590 -1.8767 -1.1865
  233MPD1     N 3596   1.511   1.806   0.419  0.0236  0.3207 -0.0925
  233MPD1    H5 3597   1.441   1.734   0.403  1.3443 -1.0258  0.1691
  233MPD1    N1 3598   1.593   2.274   0.318  0.5511 -0.1102 -0.5361
  233MPD1    H6 3599   1.546   2.364   0.327  0.2576 -0.3516  0.3443
  233MPD1    H7 3600   1.662   2.273   0.393 -0.0137 -1.1925 -0.0231
  234MPD1     C 3601   1.309   0.030   8.899 -0.4701 -0.1269  0.3987
  234MPD1    C1 3602   1.409   0.027   8.998 -0.6561  0.3918  1.1439
  234MPD1    C2 3603   1.480   0.144   9.028  0.7493  0.1979  0.5460
  234MPD1    C3 3604   1.437   0.267   8.978  0.0736  0.2950 -0.6408
  234MPD1    C4 3605   1.334   0.265   8.884  0.6193  0.7358 -0.2278
  234MPD1    C5 3606   1.273   0.148   8.849  0.6041  0.3410  0.7581
  234MPD1     H 3607   1.560   0.148   9.101  0.2097  1.3929  1.0763
  234MPD1    H1 3608   1.295   0.355   8.836  0.7857  0.3039 -1.1723
  234MPD1    H2 3609   1.247   4.683   8.882  0.5025 -0.8708  0.6623
  234MPD1    H3 3610   1.189   0.142   8.782  1.4591  2.8283 -0.5361
  234MPD1     N 3611   1.517   0.378   9.014  0.4938  0.6798  0.5595
  234MPD1    H5 3612   1.603   0.362   9.066  1.8859 -0.1417 -1.9520
  234MPD1    N1 3613   1.454   4.646   9.033  0.3083 -0.6955 -0.0471
  234MPD1    H6 3614   1.381   4.575   9.024 -0.2257 -0.2939  1.0814
  234MPD1    H7 3615   1.491   4.644   9.127  0.7319  0.2943 -0.1974
  235MPD1     C 3616   3.674   2.470  10.015  0.0873 -0.1938 -0.4154
  235MPD1    C1 3617   3.702   2.482   9.879 -0.7070 -0.3942 -0.2852
  235MPD1    C2 3618   3.806   2.558   9.838 -0.0471 -0.1393  0.1216
  235MPD1    C3 3619   3.891   2.619   9.928  0.2842 -0.5278  0.6488
  235MPD1    C4 3620   3.874   2.603  10.063 -0.2300 -0.1532 -0.4455
  235MPD1    C5 3621   3.763   2.533  10.102 -0.2164 -0.1962 -0.4044
  235MPD1     H 3622   3.834   2.574   9.735 -2.2347  2.6202 -0.0634
  235MPD1    H1 3623   3.941   2.647  10.137  2.6774  1.6735 -4.1360
  235MPD1    H2 3624   3.591   2.416  10.058 -0.3496  1.0288  0.2865
  235MPD1    H3 3625   3.751   2.521  10.209  3.2442  2.2536  0.2503
  235MPD1     N 3626   4.009   2.690   9.880 -0.9459  0.0851  0.2908
  235MPD1    H5 3627   4.025   2.683   9.780 -0.0325 -0.2434  0.4554
  235MPD1    N1 3628   3.607   2.429   9.786 -0.7018  0.6921  0.4587
  235MPD1    H6 3629   3.582   2.332   9.804 -0.9867  1.1181  2.3376
  235MPD1    H7 3630   3.653   2.429   9.695 -0.0119  0.0620  0.8138
  236MPD1     C 3631   3.759   3.878   9.311 -0.2860 -0.0486 -0.4241
  236MPD1    C1 3632   3.769   3.741   9.330  0.4341  0.1888  0.3384
  236MPD1    C2 3633   3.801   3.699   9.463 -0.6043  0.3358  0.0240
  236MPD1    C3 3634   3.813   3.795   9.568 -0.0792  0.0616  0.2304
  236MPD1    C4 3635   3.792   3.930   9.546  0.2446  0.1270 -0.1996
  236MPD1    C5 3636   3.766   3.968   9.418 -0.9326 -0.0274 -0.1248
  236MPD1     H 3637   3.820   3.593   9.470 -3.8127 -0.1230  1.8103
  236MPD1    H1 3638   3.810   4.006   9.621 -4.7939 -0.0932  1.2039
  236MPD1    H2 3639   3.738   3.921   9.214 -0.3395 -0.5437 -0.6360
  236MPD1    H3 3640   3.768   4.075   9.397 -0.7534 -0.0516 -0.2313
  236MPD1     N 3641   3.855   3.760   9.699  0.4274  0.2061  1.5902
  236MPD1    H5 3642   3.861   3.837   9.765  0.8165 -0.0275  1.8267
  236MPD1    N1 3643   3.763   3.648   9.225  0.0574 -0.1277  0.1764
  236MPD1    H6 3644   3.706   3.569   9.255  1.2703 -0.9269  0.3667
  236MPD1    H7 3645   3.704   3.679   9.148  1.5691 -0.0683 -0.9532
  237MPD1     C 3646   4.010   2.028  14.619 -0.4695  0.8461  0.1688
  237MPD1    C1 3647   3.976   1.975  14.495 -0.3489 -0.3636 -0.3217
  237MPD1    C2 3648   3.868   1.888  14.501 -0.1837 -0.5143 -0.0804
  237MPD1    C3 3649   3.799   1.859  14.615  0.2990 -0.2944  0.2914
  237MPD1    C4 3650   3.856   1.892  14.733 -0.1748  0.7122 -0.3417
  237MPD1    C5 3651   3.949   1.986  14.736 -0.5022  0.0721 -0.0452
  237MPD1     H 3652   3.837   1.843  14.408  0.9865 -1.2641 -0.0952
  237MPD1    H1 3653   3.805   1.867  14.826 -0.0098  0.1514 -0.4070
  237MPD1    H2 3654   4.082   2.109  14.619  0.0555  0.3809  0.6537
  237MPD1    H3 3655   3.982   2.017  14.835  1.9291  1.5167 -1.3054
  237MPD1     N 3656   3.676   1.785  14.621  0.1336  0.9763  0.4045
  237MPD1    H5 3657   3.639   1.776  14.715 -1.4152 -1.1217 -0.4159
  237MPD1    N1 3658   4.037   2.016  14.374  0.5681 -0.6844 -0.5295
  237MPD1    H6 3659   4.043   1.928  14.324  1.0676  0.0518 -1.7690
  237MPD1    H7 3660   4.129   2.060  14.368  0.4025 -0.1679  0.5926
  238MPD1     C 3661   0.613   0.681  15.204 -0.3127  0.8616 -0.1792
  238MPD1    C1 3662   0.620   0.719  15.069  0.1652  0.2477 -0.4898
  238MPD1    C2 3663   0.509   0.716  14.997  0.0715 -0.2534 -0.3543
  238MPD1    C3 3664   0.383   0.714  15.059 -1.1450 -0.3245  0.2912
  238MPD1    C4 3665   0.380   0.699  15.195  0.9564 -0.5170  0.2995
  238MPD1    C5 3666   0.496   0.665  15.267  0.8411  0.1918 -0.1982
  238MPD1     H 3667   0.520   0.748  14.894 -1.7500  0.8883 -0.1952
  238MPD1    H1 3668   0.286   0.697  15.248  0.1668  2.1907 -1.0236
  238MPD1    H2 3669   0.699   0.669  15.269 -0.5267 -0.7584 -0.1841
  238MPD1    H3 3670   0.483   0.646  15.373 -3.3339 -1.4286 -0.9954
  238MPD1     N 3671   0.261   0.743  14.986  0.4729  0.0896 -0.2040
  238MPD1    H5 3672   0.182   0.759  15.047  1.0369  0.4548  0.4289
  238MPD1    N1 3673   0.747   0.739  15.008 -0.1524  0.3923  0.0383
  238MPD1    H6 3674   0.738   0.791  14.921 -1.3565  2.6448  1.4960
  238MPD1    H7 3675   0.822   0.763  15.074 -1.1901  1.1839  0.9395
  239MPD1     C 3676   0.384   1.517  15.198  0.4070  0.3662 -0.0434
  239MPD1    C1 3677   0.496   1.514  15.118 -0.1489  0.8075  0.2656
  239MPD1    C2 3678   0.480   1.578  14.999 -0.3570  0.0899  0.3006
  239MPD1    C3 3679   0.374   1.652  14.957 -0.4814  0.3143 -0.4363
  239MPD1    C4 3680   0.269   1.654  15.038  0.3071  0.9749 -0.5379
  239MPD1    C5 3681   0.273   1.581  15.157  0.1766 -0.6223  0.4814
  239MPD1     H 3682   0.559   1.566  14.925 -1.1629 -0.0167 -0.5421
  239MPD1    H1 3683   0.175   1.702  15.014 -2.5679 -3.1114  2.5348
  239MPD1    H2 3684   0.379   1.464  15.293 -0.2350  0.4857 -0.0082
  239MPD1    H3 3685   0.184   1.568  15.218  0.4036  2.1343  1.3671
  239MPD1     N 3686   0.359   1.705  14.818  0.4847 -0.0089 -0.0235
  239MPD1    H5 3687   0.270   1.745  14.791 -0.5259 -0.8297  2.0324
  239MPD1    N1 3688   0.601   1.428  15.156 -0.1178  0.0221  0.1476
  239MPD1    H6 3689   0.689   1.471  15.127 -0.2390 -1.3317 -2.2157
  239MPD1    H7 3690   0.607   1.421  15.257 -0.4377  1.7065  0.2749
  240MPD1     C 3691   4.462   1.955  13.904 -0.0794  0.1946  0.4890
  240MPD1    C1 3692   4.574   1.876  13.915 -0.8953  0.0955  0.5465
  240MPD1    C2 3693   4.579   1.774  14.001 -0.4108 -0.7681 -0.1073
  240MPD1    C3 3694   4.473   1.753  14.083 -0.3505 -0.6275 -0.1792
  240MPD1    C4 3695   4.355   1.828  14.065  0.1508 -0.6438 -0.3860
  240MPD1    C5 3696   4.354   1.930  13.980 -0.2575 -0.3287 -0.2030
  240MPD1     H 3697   4.667   1.716  14.022  0.0043 -0.5399 -1.2470
  240MPD1    H1 3698   4.267   1.816  14.127  0.3552  0.6672  0.1608
  240MPD1    H2 3699   4.466   2.042  13.839 -1.5517 -0.4174 -0.4146
  240MPD1    H3 3700   4.273   2.001  13.975 -0.7437 -0.8203  0.8942
  240MPD1     N 3701   4.482   1.649  14.174 -0.2561  0.4718  0.6730
  240MPD1    H5 3702   4.562   1.588  14.177 -0.5369  0.1010  0.6296
  240MPD1    N1 3703   4.687   1.917  13.847  0.4300  0.6714  0.0001
  240MPD1    H6 3704   4.672   1.985  13.772  1.7059  0.2384 -0.6395
  240MPD1    H7 3705   4.736   1.832  13.818 -0.6550 -0.5237  1.7063
  241MPD1     C 3706   0.391   1.138  14.731  0.4900 -0.1015 -0.1657
  241MPD1    C1 3707   0.391   1.236  14.633  0.2315 -0.0900  0.2728
  241MPD1    C2 3708   0.271   1.284  14.585 -0.1454  0.5966 -0.6260
  241MPD1    C3 3709   0.153   1.237  14.637  0.1758  0.3307 -0.0711
  241MPD1    C4 3710   0.153   1.152  14.746  0.3348 -0.4445  0.7498
  241MPD1    C5 3711   0.272   1.109  14.796  0.1353 -0.3319  0.0968
  241MPD1     H 3712   0.276   1.351  14.500  2.8754  0.3610 -0.6275
  241MPD1    H1 3713   0.063   1.129  14.802 -1.1954  1.7975 -0.8074
  241MPD1    H2 3714   0.479   1.086  14.766 -1.1367  0.6242  5.1110
  241MPD1    H3 3715   0.278   1.047  14.885 -0.2496 -2.9698 -1.7423
  241MPD1     N 3716   0.029   1.278  14.590 -0.0824  0.0148 -0.1990
  241MPD1    H5 3717   4.688   1.252  14.645  0.2125  0.3160  0.3799
  241MPD1    N1 3718   0.509   1.265  14.561  0.0110  0.3683  0.3875
  241MPD1    H6 3719   0.506   1.346  14.500  0.1114  1.2322  1.5445
  241MPD1    H7 3720   0.598   1.254  14.609 -0.4624  1.9633  1.6050
  242MPD1     C 3721   0.298   4.632  15.825 -0.2565 -0.2876  0.3620
  242MPD1    C1 3722   0.176   4.583  15.818  0.4298 -0.4211  0.3057
  242MPD1    C2 3723   0.137   4.485  15.733 -0.3034 -0.3477  0.2238
  242MPD1    C3 3724   0.224   4.434  15.641  0.4188 -0.2707 -0.3405
  242MPD1    C4 3725   0.345   4.494  15.633  0.5803 -0.2216  0.0349
  242MPD1    C5 3726   0.380   4.582  15.726  0.0408 -0.2553 -0.0732
  242MPD1     H 3727   0.036   4.448  15.731 -0.5972  0.3920  1.0703
  242MPD1    H1 3728   0.419   4.467  15.559  2.1928  1.4514  1.0491
  242MPD1    H2 3729   0.327   4.712  15.892  1.7264 -1.8043  1.3012
  242MPD1    H3 3730   0.482   4.621  15.722  1.1412 -3.1665 -0.4221
  242MPD1     N 3731   0.198   4.326  15.558  0.1781  0.4173 -0.4748
  242MPD1    H5 3732   0.281   4.302  15.505  1.4724 -2.7195  2.8875
  242MPD1    N1 3733   0.095   4.622  15.923 -0.5461  0.6609 -0.5973
  242MPD1    H6 3734   0.112   4.719  15.947  0.3638  0.7387 -1.5169
  242MPD1    H7 3735   4.737   4.626  15.897 -0.0575 -1.4116 -2.8495
  243MPD1     C 3736   0.662   3.087  17.344 -0.1018 -0.3101 -0.0032
  243MPD1    C1 3737   0.795   3.072  17.358 -0.0030 -0.2426  0.4808
  243MPD1    C2 3738   0.878   3.057  17.252  0.4337 -0.3530 -0.4150
  243MPD1    C3 3739   0.834   3.049  17.121  0.3716 -0.0075  0.3846
  243MPD1    C4 3740   0.697   3.054  17.109  0.3268  0.0206 -0.7403
  243MPD1    C5 3741   0.612   3.074  17.213  0.6698  0.1076  0.0568
  243MPD1     H 3742   0.985   3.047  17.270  0.4618  1.4610  0.4857
  243MPD1    H1 3743   0.649   3.049  17.012  0.6514 -0.0066 -0.8996
  243MPD1    H2 3744   0.592   3.101  17.426 -0.9806 -0.9497 -0.6500
  243MPD1    H3 3745   0.509   3.097  17.193  0.7464  1.2118  0.9437
  243MPD1     N 3746   0.923   3.019  17.013  0.3034  0.5013 -0.5904
  243MPD1    H5 3747   1.020   3.009  17.042  0.4434  0.2963 -1.1169
  243MPD1    N1 3748   0.849   3.085  17.488  0.4045 -0.8747 -0.4311
  243MPD1    H6 3749   0.785   3.043  17.554 -0.0297  0.6022  0.0974
  243MPD1    H7 3750   0.938   3.037  17.495  0.7107 -0.1527  0.6494
  244MPD1     C 3751   1.369   2.361  17.273  0.4022  0.1059 -0.7726
  244MPD1    C1 3752   1.278   2.454  17.318 -0.5501 -0.4546 -0.5279
  244MPD1    C2 3753   1.234   2.540  17.222  0.2949  0.0397  0.3002
  244MPD1    C3 3754   1.271   2.535  17.090 -0.5787 -0.0906 -0.0218
  244MPD1    C4 3755   1.369   2.443  17.045  0.1525 -0.2840 -0.4164
  244MPD1    C5 3756   1.421   2.362  17.146  0.2455 -0.2225  0.7541
  244MPD1     H 3757   1.148   2.602  17.244 -1.7699 -2.6078 -0.3643
  244MPD1    H1 3758   1.394   2.438  16.940 -2.6495 -4.6056 -0.8714
  244MPD1    H2 3759   1.429   2.292  17.332 -0.3493 -0.7513 -1.0145
  244MPD1    H3 3760   1.477   2.277  17.110  0.1141  0.7468 -1.6993
  244MPD1     N 3761   1.189   2.620  17.004 -0.0327 -0.1615  0.3746
  244MPD1    H5 3762   1.107   2.665  17.042 -1.2080 -0.6632 -1.5562
  244MPD1    N1 3763   1.246   2.460  17.456  0.1777  0.3032  0.0986
  244MPD1    H6 3764   1.267   2.372  17.503 -1.1622  0.7979  1.6473
  244MPD1    H7 3765   1.150   2.487  17.477 -0.0158 -0.3805  0.1067
  245MPD1     C 3766   3.710   4.016  12.784  0.4464 -0.2514  0.7548
  245MPD1    C1 3767   3.688   4.124  12.868  0.1234  0.1317  0.4078
  245MPD1    C2 3768   3.651   4.098  12.996 -0.5198  0.2477 -0.5068
  245MPD1    C3 3769   3.639   3.972  13.043 -0.3634 -0.8301  0.2510
  245MPD1    C4 3770   3.663   3.860  12.959  0.1146  0.2685 -0.2078
  245MPD1    C5 3771   3.683   3.889  12.823 -0.2957 -0.7788  0.5947
  245MPD1     H 3772   3.628   4.178  13.066 -1.5388 -1.0556  0.6379
  245MPD1    H1 3773   3.652   3.756  12.987  2.9076  0.5460  1.9533
  245MPD1    H2 3774   3.744   4.036  12.683 -1.4554  2.7739  0.7093
  245MPD1    H3 3775   3.710   3.811  12.753  4.3412  0.9358  0.4078
  245MPD1     N 3776   3.591   3.945  13.173 -0.4539 -0.8141  0.7527
  245MPD1    H5 3777   3.554   4.024  13.225 -0.7623 -0.0678 -0.5844
  245MPD1    N1 3778   3.700   4.258  12.820  0.1768 -0.0694  0.3392
  245MPD1    H6 3779   3.628   4.312  12.867  0.4950 -0.6386  1.4898
  245MPD1    H7 3780   3.702   4.262  12.718 -1.8241 -0.2786  0.3063
  246MPD1     C 3781   3.721   0.859   8.681  0.0676  0.8447 -0.7196
  246MPD1    C1 3782   3.719   0.780   8.795 -0.5230 -0.0681 -0.0813
  246MPD1    C2 3783   3.792   0.825   8.907  0.2754  0.0055 -0.3190
  246MPD1    C3 3784   3.865   0.942   8.892 -0.1580  0.2792 -0.0648
  246MPD1    C4 3785   3.880   1.011   8.772 -0.2111 -0.0305 -0.2464
  246MPD1    C5 3786   3.814   0.964   8.663 -0.2036 -0.2986  0.6189
  246MPD1     H 3787   3.781   0.769   8.999 -0.5659 -0.5843 -0.7714
  246MPD1    H1 3788   3.921   1.110   8.764  2.3150 -0.7531  3.9099
  246MPD1    H2 3789   3.659   0.821   8.601 -0.1491 -0.9933  0.3160
  246MPD1    H3 3790   3.816   1.021   8.571  2.0052 -1.4514 -0.0358
  246MPD1     N 3791   3.934   0.985   9.011 -0.1678  0.3111  0.4636
  246MPD1    H5 3792   3.918   0.929   9.094  0.8080 -1.6928 -0.6864
  246MPD1    N1 3793   3.617   0.681   8.809 -0.5993  0.9200 -0.0363
  246MPD1    H6 3794   3.638   0.608   8.876 -1.8722 -0.9719 -1.6889
  246MPD1    H7 3795   3.611   0.636   8.717  0.2706  1.4661 -0.3601
  247MPD1     C 3796   2.362   3.598  17.049  1.1800 -0.6305 -0.0541
  247MPD1    C1 3797   2.431   3.668  16.958 -0.7809  1.2284 -0.4833
  247MPD1    C2 3798   2.442   3.622  16.826 -0.3190  0.5368  0.3025
  247MPD1    C3 3799   2.381   3.500  16.791  0.3088 -0.1302  1.0165
  247MPD1    C4 3800   2.305   3.432  16.886 -0.5516 -0.2059 -0.2964
  247MPD1    C5 3801   2.311   3.475  17.015  0.1942 -0.0799  0.0076
  247MPD1     H 3802   2.491   3.685  16.752 -0.2714  1.0431  0.7607
  247MPD1    H1 3803   2.252   3.339  16.870  1.9022 -1.8593  1.3216
  247MPD1    H2 3804   2.362   3.627  17.153  1.3496  0.0887 -0.2527
  247MPD1    H3 3805   2.251   3.427  17.092 -1.8138  0.4509 -1.2309
  247MPD1     N 3806   2.385   3.436  16.661  0.4867  0.4086  0.2097
  247MPD1    H5 3807   2.342   3.344  16.652  0.9952  0.4639 -2.7300
  247MPD1    N1 3808   2.475   3.795  17.002  0.2424  0.6829 -0.0871
  247MPD1    H6 3809   2.546   3.822  16.934  0.0724  0.7445 -0.2390
  247MPD1    H7 3810   2.505   3.803  17.099  0.9886 -1.2984 -0.1489
  248MPD1     C 3811   2.486   2.498  16.632 -0.5440  0.3358 -0.7492
  248MPD1    C1 3812   2.453   2.631  16.647  0.2190 -0.2474 -0.0487
  248MPD1    C2 3813   2.476   2.683  16.772  0.1342 -0.1113 -0.3487
  248MPD1    C3 3814   2.538   2.615  16.876  0.2740  0.1446 -0.5569
  248MPD1    C4 3815   2.559   2.479  16.858  0.4404  0.4671  0.4812
  248MPD1    C5 3816   2.537   2.427  16.737  0.3184  0.0810 -0.9390
  248MPD1     H 3817   2.445   2.784  16.798  0.8761  0.2370 -0.8030
  248MPD1    H1 3818   2.580   2.414  16.942 -1.8672 -0.4642  0.3411
  248MPD1    H2 3819   2.471   2.450  16.536 -3.1431 -0.4217  0.0117
  248MPD1    H3 3820   2.555   2.320  16.728 -0.5214  0.0054 -1.8103
  248MPD1     N 3821   2.540   2.683  17.001  0.6266  0.0990  0.2620
  248MPD1    H5 3822   2.511   2.780  17.001 -0.1452 -0.1292 -0.5314
  248MPD1    N1 3823   2.384   2.698  16.549 -0.1570  0.1627 -0.2245
  248MPD1    H6 3824   2.397   2.799  16.549  3.1403 -0.2719 -0.2890
  248MPD1    H7 3825   2.396   2.668  16.453  2.7886 -1.8001  0.7485
  249MPD1     C 3826   4.488   1.002   9.928 -0.9479 -0.2301  0.0742
  249MPD1    C1 3827   4.556   1.107   9.881 -0.6919 -0.1201 -0.0305
  249MPD1    C2 3828   4.527   1.236   9.922 -0.1689  0.7528  0.2554
  249MPD1    C3 3829   4.444   1.263  10.026 -0.0469  0.8260 -0.5451
  249MPD1    C4 3830   4.391   1.152  10.091 -0.5721 -0.5787 -0.5980
  249MPD1    C5 3831   4.416   1.022  10.045 -0.7671 -0.0683 -0.3928
  249MPD1     H 3832   4.555   1.316   9.855  0.0316 -1.1761 -1.9920
  249MPD1    H1 3833   4.324   1.152  10.177  0.6841  1.0895  0.3774
  249MPD1    H2 3834   4.508   0.908   9.877  2.5619  0.3475  0.4011
  249MPD1    H3 3835   4.366   0.937  10.092 -1.7806  0.0896 -1.1911
  249MPD1     N 3836   4.418   1.398  10.065  0.1247  0.2667  0.5457
  249MPD1    H5 3837   4.477   1.456  10.006  0.3441  1.4213  1.9122
  249MPD1    N1 3838   4.615   1.086   9.749  0.5277 -0.5237  0.8779
  249MPD1    H6 3839   4.700   1.139   9.732  1.3980 -1.6584  1.7151
  249MPD1    H7 3840   4.645   0.990   9.738  0.5508 -0.5154  0.8689
  250MPD2     C 3841   1.390   2.527  13.384  0.0231 -0.3312 -0.0327
  250MPD2    C1 3842   1.352   2.637  13.308 -0.6542  0.2969  0.3446
  250MPD2    C2 3843   1.252   2.620  13.214  0.3035 -0.1867 -0.3993
  250MPD2    C3 3844   1.192   2.500  13.193 -1.6847 -0.4477 -0.6040
  250MPD2    C4 3845   1.223   2.401  13.284  0.0026 -0.2343 -0.3481
  250MPD2    C5 3846   1.320   2.413  13.377 -0.3598  0.1598 -0.7872
  250MPD2     H 3847   1.213   2.701  13.153  3.2384  1.3003 -0.2674
  250MPD2    H1 3848   1.170   2.306  13.280 -2.0035  0.9352 -1.5089
  250MPD2    H2 3849   1.470   2.533  13.457 -0.9226 -2.2349  1.1618
  250MPD2    H3 3850   1.339   2.340  13.455 -1.5271  1.1463  0.4154
  250MPD2     N 3851   1.093   2.471  13.091 -0.0669  0.4707 -0.1921
  250MPD2    H5 3852   1.060   2.375  13.089  0.7691  0.1713  0.4038
  250MPD2    N1 3853   1.401   2.768  13.348 -0.4374 -0.2443 -0.0933
  250MPD2    H7 3854   1.482   2.765  13.408  1.4027  0.4263 -2.5222
  251TMC3    C1 3855   1.461   2.984  13.296 -0.1642 -0.3883 -0.9080
  251TMC3    C2 3856   1.406   3.097  13.243  0.4882 -0.3233  0.9850
  251TMC3    C3 3857   1.484   3.173  13.166  0.0820  0.3421  0.0114
  251TMC3    C4 3858   1.588   2.947  13.273  0.2422  0.1392  0.0609
  251TMC3    C5 3859   1.662   3.031  13.198  0.4471 -0.0765  0.3660
  251TMC3    C6 3860   1.613   3.145  13.137 -0.0902  0.6036 -0.3510
  251TMC3     C 3861   1.361   2.885  13.296  0.5465  0.7027  0.1688
  251TMC3     O 3862   1.253   2.918  13.244  0.1149 -0.3689 -0.3209
  251TMC3     H 3863   1.303   3.128  13.260  0.7522 -0.2199  2.3834
  251TMC3    H1 3864   1.625   2.856  13.319 -1.8475 -0.0566  1.3133
  251TMC3    H2 3865   1.651   3.193  13.048  1.2326  0.2373  0.0156
  251TMC3    C7 3866   1.785   2.979  13.143 -0.8716 -0.3325 -0.2581
  251TMC3    C8 3867   1.431   3.306  13.133 -0.5983 -1.0031 -0.3468
  251TMC3    O1 3868   1.804   2.857  13.157 -0.0734  0.4501  0.0187
  251TMC3    O2 3869   1.316   3.327  13.168 -0.9600 -0.1555 -0.3820
  252TMC3    C1 3870   1.359   4.016   9.275  0.0044 -0.1687  0.3351
  252TMC3    C2 3871   1.488   4.053   9.297 -0.3929 -0.2996  0.0377
  252TMC3    C3 3872   1.544   4.000   9.407 -0.6268  0.4642  0.2512
  252TMC3    C4 3873   1.287   3.936   9.357  0.4502 -0.4732 -0.4855
  252TMC3    C5 3874   1.350   3.886   9.468 -1.1331  1.3380 -0.3671
  252TMC3    C6 3875   1.477   3.925   9.496  0.0657 -0.5638 -0.0519
  252TMC3     C 3876   1.292   4.077   9.170  0.3942 -0.4795 -0.0504
  252TMC3     O 3877   1.170   4.069   9.176 -0.4059  0.3642  0.5708
  252TMC3     H 3878   1.552   4.109   9.229 -3.1336  1.7360 -0.8911
  252TMC3    H1 3879   1.180   3.920   9.349  0.0951  0.9520  1.3149
  252TMC3    H2 3880   1.525   3.895   9.589 -1.8333  2.4554  1.9194
  252TMC3    C7 3881   1.262   3.846   9.580 -0.0230 -0.2608 -0.1715
  252TMC3    C8 3882   1.687   4.038   9.434  0.2352 -0.5748  0.2735
  252TMC3    O1 3883   1.143   3.873   9.561 -1.0446  0.2168 -0.5204
  252TMC3    O2 3884   1.747   4.086   9.336  0.2758  0.6858  0.1177
  253MPD2     C 3885   2.751   1.802  14.564  0.7794  0.1632  0.3612
  253MPD2    C1 3886   2.630   1.831  14.616 -0.3980  0.1306 -0.4501
  253MPD2    C2 3887   2.610   1.845  14.750 -0.3282 -0.2677 -0.6912
  253MPD2    C3 3888   2.716   1.841  14.838  0.5404 -0.6221 -0.2373
  253MPD2    C4 3889   2.838   1.813  14.787 -0.3084 -0.0161 -0.5120
  253MPD2    C5 3890   2.848   1.777  14.658  0.5477 -0.7927 -0.5856
  253MPD2     H 3891   2.508   1.853  14.784 -0.0404 -0.2660  0.1985
  253MPD2    H1 3892   2.931   1.808  14.844 -0.5794  0.8905  0.0150
  253MPD2    H2 3893   2.763   1.766  14.463 -0.7406 -1.0453  0.6134
  253MPD2    H3 3894   2.947   1.750  14.622  0.8817  0.8437 -0.9250
  253MPD2     N 3895   2.713   1.868  14.977  0.1414 -0.2611 -0.7472
  253MPD2    H5 3896   2.801   1.869  15.027  0.0723  0.0889 -0.6381
  253MPD2    N1 3897   2.515   1.864  14.539  0.2911  0.0031  0.4842
  253MPD2    H7 3898   2.433   1.874  14.598 -1.0059 -1.2292 -1.1172
  254TMC3    C1 3899   2.607   1.890  15.185 -0.0914  0.6326  0.9046
  254TMC3    C2 3900   2.517   1.969  15.252  0.2095 -0.6683  0.2179
  254TMC3    C3 3901   2.518   1.963  15.391  0.6069 -0.5683 -0.3391
  254TMC3    C4 3902   2.698   1.815  15.251 -0.8539  0.0246 -0.5139
  254TMC3    C5 3903   2.698   1.821  15.386  0.0445 -0.0372  0.8155
  254TMC3    C6 3904   2.609   1.890  15.462 -0.3864  0.1251  0.0233
  254TMC3     C 3905   2.594   1.887  15.041  0.2731  0.5936 -0.6300
  254TMC3     O 3906   2.479   1.884  15.000  0.5030 -0.3144 -0.0791
  254TMC3     H 3907   2.445   2.028  15.197  0.8326  1.9553  2.2245
  254TMC3    H1 3908   2.783   1.770  15.200  0.2411  0.5648  0.8264
  254TMC3    H2 3909   2.623   1.902  15.569  1.8078  1.4689 -0.4154
  254TMC3    C7 3910   2.810   1.786  15.468  0.5435 -0.2816 -0.2885
  254TMC3    C8 3911   2.451   2.063  15.472  0.7601  0.3323  0.5272
  254TMC3    O1 3912   2.783   1.744  15.577  0.4147  0.5281  0.1419
  254TMC3    O2 3913   2.425   2.036  15.587 -0.1643 -0.1124  0.0586
  255MPD2     C 3914   0.677   4.423  10.662 -0.2427  0.7411 -0.5131
  255MPD2    C1 3915   0.758   4.533  10.650  0.1393  0.5026  0.5939
  255MPD2    C2 3916   0.892   4.516  10.627 -0.1010  0.3613  0.0370
  255MPD2    C3 3917   0.944   4.391  10.619 -0.3730 -0.1535  0.3748
  255MPD2    C4 3918   0.864   4.282  10.643  0.1114 -0.6372 -0.0542
  255MPD2    C5 3919   0.730   4.300  10.664 -0.6706 -0.3042  0.1928
  255MPD2     H 3920   0.953   4.596  10.586  0.6456  1.1154  2.6743
  255MPD2    H1 3921   0.911   4.185  10.648 -0.9840 -1.0559  1.8700
  255MPD2    H2 3922   0.570   4.425  10.676 -0.2348  1.3383 -0.5638
  255MPD2    H3 3923   0.663   4.215  10.672 -1.8278  0.6580  0.7308
  255MPD2     N 3924   1.085   4.386  10.587 -0.2053 -0.0347  0.7741
  255MPD2    H5 3925   1.130   4.476  10.576 -1.4852  0.7886  2.4553
  255MPD2    N1 3926   0.696   4.660  10.624 -0.4747  0.1030 -0.3363
  255MPD2    H7 3927   0.595   4.663  10.615 -0.5226 -0.7286 -0.1061
  256TMC3    C1 3928   0.671   0.149  10.581 -0.2166  0.0744  0.1424
  256TMC3    C2 3929   0.725   0.273  10.582  0.2844 -0.7069 -1.2878
  256TMC3    C3 3930   0.670   0.368  10.500  0.0377 -0.1204  0.5623
  256TMC3    C4 3931   0.555   0.123  10.517 -0.2572 -0.9531 -0.0338
  256TMC3    C5 3932   0.501   0.222  10.440 -0.2638 -0.3420 -0.3716
  256TMC3    C6 3933   0.561   0.344  10.415 -0.7731  0.0697  0.2100
  256TMC3     C 3934   0.755   0.041  10.618 -0.2909  0.1596  0.2142
  256TMC3     O 3935   0.874   0.069  10.625 -0.4763  0.0308  0.1449
  256TMC3     H 3936   0.817   0.289  10.638 -1.3818  3.9566  0.0782
  256TMC3    H1 3937   0.523   0.020  10.500  1.3988 -1.4898  0.1543
  256TMC3    H2 3938   0.518   0.411  10.342 -0.6738  1.1663  1.1504
  256TMC3    C7 3939   0.415   0.178  10.329  0.1918  0.2158  0.2659
  256TMC3    C8 3940   0.737   0.496  10.481  0.0704  0.0569 -0.0421
  256TMC3    O1 3941   0.415   0.252  10.229  0.1717 -0.0145 -0.5402
  256TMC3    O2 3942   0.809   0.539  10.571 -0.7301  0.0578  0.0845
  257MPD2     C 3943   0.224   2.381  13.124  0.0085  0.4506  0.2773
  257MPD2    C1 3944   0.205   2.292  13.023  0.1038  0.3480 -0.8624
  257MPD2    C2 3945   0.174   2.161  13.063 -0.7177 -0.0179  0.6843
  257MPD2    C3 3946   0.167   2.116  13.198 -0.0258 -0.2750  0.4321
  257MPD2    C4 3947   0.181   2.208  13.292  0.2759 -0.1790  0.5622
  257MPD2    C5 3948   0.211   2.339  13.258  0.1615 -0.6643  0.0008
  257MPD2     H 3949   0.157   2.084  12.989 -0.6882 -0.0606  0.7220
  257MPD2    H1 3950   0.187   2.185  13.397 -1.0727  3.7626  1.5041
  257MPD2    H2 3951   0.243   2.485  13.102  1.2300  0.0270 -0.6816
  257MPD2    H3 3952   0.227   2.408  13.340 -3.0545 -0.0188  0.0918
  257MPD2     N 3953   0.127   1.981  13.226 -0.6853  0.1223  0.5871
  257MPD2    H5 3954   0.104   1.927  13.143  1.1016  0.8374 -0.3670
  257MPD2    N1 3955   0.215   2.338  12.885  0.1562 -0.4271 -0.6677
  257MPD2    H7 3956   0.243   2.435  12.874 -1.2971  0.2511  1.6217
  258TMC3    C1 3957   0.115   1.793  13.378  0.1136  0.5960  0.0001
  258TMC3    C2 3958   0.195   1.717  13.293  0.7298  0.7514  0.2895
  258TMC3    C3 3959   0.263   1.611  13.350  0.6656 -0.2546 -0.3249
  258TMC3    C4 3960   0.109   1.760  13.510 -0.8402 -0.3210  0.0129
  258TMC3    C5 3961   0.188   1.658  13.555  0.0342  0.4993  0.2400
  258TMC3    C6 3962   0.278   1.587  13.479 -0.0871 -0.2155 -0.4242
  258TMC3     C 3963   0.114   1.933  13.352  0.2967 -1.0547 -0.0710
  258TMC3     O 3964   0.114   2.001  13.455  0.1592  0.3212 -0.0331
  258TMC3     H 3965   0.202   1.739  13.187  1.6566  0.5075  0.2955
  258TMC3    H1 3966   0.046   1.818  13.577 -0.2194  0.0378  0.2771
  258TMC3    H2 3967   0.324   1.500  13.525  0.6938  0.2511 -0.3291
  258TMC3    C7 3968   0.171   1.624  13.701  0.0196  0.4898  0.2816
  258TMC3    C8 3969   0.360   1.546  13.273 -0.0844  0.1641  0.4883
  258TMC3    O1 3970   0.063   1.675  13.740  0.1393  0.3313  0.4256
  258TMC3    O2 3971   0.333   1.556  13.158  0.3248 -0.0748  0.4748
  259MPD2     C 3972   3.892   3.534  17.504  0.5559  0.1663  0.6448
  259MPD2    C1 3973   3.911   3.408  17.554  0.0652 -0.3653  0.0267
  259MPD2    C2 3974   4.038   3.353  17.558 -0.7613  0.0519  0.2596
  259MPD2    C3 3975   4.151   3.420  17.517  0.4184  0.0003 -0.4165
  259MPD2    C4 3976   4.136   3.545  17.464  0.1883 -0.4548  0.3434
  259MPD2    C5 3977   4.007   3.604  17.459 -0.9235 -0.3011  0.5109
  259MPD2     H 3978   4.053   3.248  17.581  1.7134  0.2713 -0.3341
  259MPD2    H1 3979   4.223   3.602  17.435 -1.6417  2.0630 -0.1793
  259MPD2    H2 3980   3.796   3.585  17.497  1.3598  1.7484  1.0839
  259MPD2    H3 3981   3.991   3.705  17.422 -1.0241 -0.6467 -0.3818
  259MPD2     N 3982   4.280   3.352  17.537  0.1111  0.5136  0.0433
  259MPD2    H5 3983   4.280   3.259  17.578 -0.2269  1.2082  1.6055
  259MPD2    N1 3984   3.804   3.340  17.617  0.2149  0.1681 -0.8435
  259MPD2    H7 3985   3.721   3.399  17.620  0.6001  0.5154  2.7313
  260TMC3    C1 3986   4.511   3.306  17.520  0.3045  0.3694 -0.3878
  260TMC3    C2 3987   4.600   3.279  17.411 -0.1704 -0.7097 -0.4899
  260TMC3    C3 3988   4.705   3.197  17.438 -0.0325 -0.1657  0.7404
  260TMC3    C4 3989   4.519   3.233  17.638  0.0160  0.2545 -0.1637
  260TMC3    C5 3990   4.624   3.147  17.652  1.2624 -0.1733 -0.0783
  260TMC3    C6 3991   4.722   3.142  17.563 -0.4597  0.2551  0.0994
  260TMC3     C 3992   4.403   3.392  17.488 -0.4693 -0.7041  0.0205
  260TMC3     O 3993   4.423   3.479  17.404 -0.3139  0.1079 -0.3349
  260TMC3     H 3994   4.592   3.327  17.314 -0.9297  0.5567  0.1896
  260TMC3    H1 3995   4.442   3.243  17.714 -0.7268  0.7638 -0.9883
  260TMC3    H2 3996   0.057   3.067  17.584 -1.5322 -1.1720 -1.1061
  260TMC3    C7 3997   4.590   3.018  17.705 -0.0292  0.1433  0.1907
  260TMC3    C8 3998   4.712   3.091  17.337  0.2341  0.5196 -0.0408
  260TMC3    O1 3999   4.644   2.917  17.658  0.0455  0.0025 -0.2015
  260TMC3    O2 4000   4.728   3.129  17.225 -0.4964 -0.3233  0.5424
  261MPD2     C 4001   1.163   2.269  12.337  0.0720  0.4398  0.3123
  261MPD2    C1 4002   1.115   2.388  12.385 -0.3922  0.6830 -0.0553
  261MPD2    C2 4003   1.123   2.499  12.302  0.4970  0.1445  0.4704
  261MPD2    C3 4004   1.179   2.485  12.173 -0.1834  0.0215  0.4872
  261MPD2    C4 4005   1.227   2.362  12.133  0.5090  0.4905  0.8461
  261MPD2    C5 4006   1.226   2.249  12.212  0.5657  0.3481 -0.6014
  261MPD2     H 4007   1.078   2.592  12.332  0.7190 -0.5332  2.8902
  261MPD2    H1 4008   1.265   2.340  12.034 -2.6181 -1.8131  0.1283
  261MPD2    H2 4009   1.156   2.183  12.402 -1.9352  0.3468 -0.0434
  261MPD2    H3 4010   1.270   2.153  12.189 -2.1550 -0.7309 -1.2991
  261MPD2     N 4011   1.163   2.601  12.089  1.0472 -0.3866  0.3097
  261MPD2    H5 4012   1.128   2.690  12.123  0.5841 -0.9887  1.4123
  261MPD2    N1 4013   1.054   2.407  12.515  0.0714  0.7382 -0.3798
  261MPD2    H7 4014   1.008   2.495  12.539  2.2718  1.8225 -0.1312
  262TMC3    C1 4015   1.177   2.730  11.893  0.5025 -0.0714 -0.8146
  262TMC3    C2 4016   1.069   2.803  11.927 -1.1365 -0.3843  0.7314
  262TMC3    C3 4017   1.058   2.921  11.859  0.0618 -0.5305  0.2877
  262TMC3    C4 4018   1.261   2.767  11.795  0.7171 -0.1089  0.5426
  262TMC3    C5 4019   1.248   2.884  11.727 -1.0431  0.4628 -0.0399
  262TMC3    C6 4020   1.144   2.959  11.760 -0.0423 -0.5359  0.2924
  262TMC3     C 4021   1.212   2.607  11.959 -0.8724  0.1894 -0.8416
  262TMC3     O 4022   1.295   2.532  11.906  0.0396  0.0681 -0.1489
  262TMC3     H 4023   0.981   2.771  11.982 -0.9771  0.1462  1.3046
  262TMC3    H1 4024   1.342   2.701  11.766  0.0034 -0.0827 -1.5300
  262TMC3    H2 4025   1.128   3.056  11.716  1.8154  0.9810  2.9563
  262TMC3    C7 4026   1.349   2.921  11.625  0.3912 -0.3531 -0.6003
  262TMC3    C8 4027   0.926   2.988  11.853  0.2233  0.4545  0.1734
  262TMC3    O1 4028   1.454   2.858  11.622  0.1869 -0.5608  0.4279
  262TMC3    O2 4029   0.908   3.046  11.747  0.2408 -0.2323  0.1293
  263MPD2     C 4030   1.711   1.495  11.909 -0.1898 -0.4209  0.4106
  263MPD2    C1 4031   1.811   1.488  11.817 -0.2477 -0.5356  0.1680
  263MPD2    C2 4032   1.802   1.571  11.701 -0.1415  0.2965 -0.1102
  263MPD2    C3 4033   1.688   1.649  11.683  0.2528  0.2197  0.2540
  263MPD2    C4 4034   1.584   1.658  11.770 -0.4944  0.2417 -0.0890
  263MPD2    C5 4035   1.604   1.579  11.880 -0.1473 -0.6376 -0.4727
  263MPD2     H 4036   1.888   1.572  11.636  0.1748  0.6050  0.3116
  263MPD2    H1 4037   1.493   1.709  11.743  0.2724  0.7082 -1.7660
  263MPD2    H2 4038   1.704   1.448  12.006  1.3600  0.5636  1.0002
  263MPD2    H3 4039   1.521   1.585  11.949  0.7071  0.1711  0.4707
  263MPD2     N 4040   1.686   1.714  11.564 -0.8768  0.3980 -0.2494
  263MPD2    H5 4041   1.770   1.700  11.509 -2.0243 -2.8755 -1.1258
  263MPD2    N1 4042   1.925   1.404  11.843 -0.1141 -0.5096 -0.3524
  263MPD2    H7 4043   1.942   1.377  11.939  1.1107 -0.0787 -0.4478
  264TMC3    C1 4044   1.641   1.871  11.404  0.1051  0.6831 -0.0250
  264TMC3    C2 4045   1.651   2.005  11.436  0.3425 -0.0009 -0.5886
  264TMC3    C3 4046   1.779   2.057  11.442 -0.9441  0.4354  0.0527
  264TMC3    C4 4047   1.751   1.802  11.349 -0.0674  0.1152 -0.1053
  264TMC3    C5 4048   1.868   1.870  11.339 -0.3349  0.6903 -0.1960
  264TMC3    C6 4049   1.886   1.993  11.390  0.0796  0.2653 -0.4909
  264TMC3     C 4050   1.583   1.789  11.511  0.9929 -0.5623 -0.1928
  264TMC3     O 4051   1.482   1.840  11.558  0.3906  0.2745  0.6366
  264TMC3     H 4052   1.575   2.049  11.499  2.3913  0.8086  1.2732
  264TMC3    H1 4053   1.751   1.699  11.314  0.3134  0.4458 -1.0699
  264TMC3    H2 4054   1.978   2.050  11.382 -0.8162  1.7937  0.0301
  264TMC3    C7 4055   1.971   1.837  11.240  0.0939  0.0767  0.7674
  264TMC3    C8 4056   1.811   2.159  11.531  0.3634  0.2171  0.2829
  264TMC3    O1 4057   2.058   1.922  11.217  0.6332 -0.5060 -0.2078
  264TMC3    O2 4058   1.923   2.151  11.580  0.2427 -0.3968  0.1679
  265MPD2     C 4059   3.879   1.757  15.552  0.7007  0.3536  0.5804
  265MPD2    C1 4060   3.823   1.772  15.423  0.4917 -0.6414 -0.4642
  265MPD2    C2 4061   3.871   1.691  15.320  0.5576  0.0425  1.0488
  265MPD2    C3 4062   3.986   1.613  15.337  0.7046  0.4417  0.9935
  265MPD2    C4 4063   4.035   1.591  15.464 -0.2988 -0.0384  0.6591
  265MPD2    C5 4064   3.976   1.663  15.571  0.2943 -0.5707 -0.5722
  265MPD2     H 4065   3.823   1.699  15.223  1.0148 -0.8532  0.7451
  265MPD2    H1 4066   4.109   1.513  15.482  1.2335  1.0816 -0.7884
  265MPD2    H2 4067   3.842   1.806  15.642  0.2329  0.0828  0.5382
  265MPD2    H3 4068   4.003   1.636  15.672 -2.4113 -0.2409  0.2262
  265MPD2     N 4069   4.055   1.555  15.231  0.2440 -0.4767 -0.3099
  265MPD2    H5 4070   4.140   1.502  15.248  0.4202  0.3292  1.2912
  265MPD2    N1 4071   3.715   1.859  15.396 -0.5247 -0.4917  0.9668
  265MPD2    H7 4072   3.684   1.860  15.300  1.5194 -1.0245  0.3151
  266TMC3    C1 4073   3.577   2.047  15.428  0.0314  1.0664  0.6514
  266TMC3    C2 4074   3.484   2.101  15.514  0.1563  0.0600 -0.6344
  266TMC3    C3 4075   3.376   2.164  15.470 -0.1116 -0.0791  0.7736
  266TMC3    C4 4076   3.564   2.069  15.294  0.1570 -0.0116 -0.4604
  266TMC3    C5 4077   3.458   2.142  15.257  0.1673 -0.2695  0.0596
  266TMC3    C6 4078   3.349   2.183  15.335  0.2096  0.1698  0.1185
  266TMC3     C 4079   3.677   1.955  15.485  0.2253  0.3081 -0.4821
  266TMC3     O 4080   3.699   1.964  15.604 -0.0101  0.4159  0.0057
  266TMC3     H 4081   3.495   2.076  15.619  3.5389  1.6432 -0.5892
  266TMC3    H1 4082   3.616   2.002  15.227 -0.4500  1.3556 -2.2949
  266TMC3    H2 4083   3.269   2.239  15.289  0.8926 -0.8873 -2.3826
  266TMC3    C7 4084   3.440   2.152  15.110 -1.5405 -0.0851 -0.4217
  266TMC3    C8 4085   3.283   2.233  15.562  0.2578  0.3144  0.7899
  266TMC3    O1 4086   3.319   2.161  15.075  0.7485 -0.1573 -0.1920
  266TMC3    O2 4087   3.171   2.250  15.514 -0.1558  0.2900  0.0429
  267MPD2     C 4088   1.464   4.123   0.043  0.2081 -0.2393  0.6578
  267MPD2    C1 4089   1.396   4.019  17.743 -0.2884  0.2728 -0.3385
  267MPD2    C2 4090   1.323   4.045  17.629 -0.2577 -0.4757 -0.0372
  267MPD2    C3 4091   1.318   4.169  17.576 -0.3298  0.2042  0.5838
  267MPD2    C4 4092   1.386   4.274  17.634  0.6531 -0.0315  0.1359
  267MPD2    C5 4093   1.459   4.253  17.751  0.2026  0.9922 -0.0924
  267MPD2     H 4094   1.287   3.969  17.561 -0.6363 -0.1700 -0.1749
  267MPD2    H1 4095   1.391   4.375  17.594 -0.1986 -0.5991 -1.4265
  267MPD2    H2 4096   1.534   4.104   0.124  1.2439  1.9948  0.3038
  267MPD2    H3 4097   1.516   4.326   0.048 -1.1137  2.4050 -0.5900
  267MPD2     N 4098   1.259   4.184  17.445  0.2581  0.0992 -0.5410
  267MPD2    H5 4099   1.277   4.275  17.404  2.0153  0.0606  0.1526
  267MPD2    N1 4100   1.422   3.886   0.029  0.2015 -0.8245 -0.4262
  267MPD2    H7 4101   1.489   3.871   0.104 -2.0368  2.8209  2.3409
  268TMC3    C1 4102   1.443   3.653   0.002 -0.4952 -0.1702 -0.7334
  268TMC3    C2 4103   1.467   3.569  17.658 -0.2706 -0.4961 -0.1688
  268TMC3    C3 4104   1.545   3.458  17.682  0.5538 -0.0503  0.2502
  268TMC3    C4 4105   1.470   3.627   0.128  0.0717  0.6532 -0.1154
  268TMC3    C5 4106   1.548   3.512   0.150  0.1138 -0.0699 -0.2857
  268TMC3    C6 4107   1.589   3.435   0.048 -0.2354 -0.1517 -0.2309
  268TMC3     C 4108   1.365   3.772  17.731  0.6159  0.1928  0.4532
  268TMC3     O 4109   1.279   3.758  17.642 -0.1785 -0.0600  0.1309
  268TMC3     H 4110   1.426   3.594  17.560  0.3941 -1.7101 -0.7502
  268TMC3    H1 4111   1.427   3.686   0.208 -1.7736 -0.8771  0.0163
  268TMC3    H2 4112   1.643   3.342   0.063 -0.3950 -0.4606 -1.5520
  268TMC3    C7 4113   1.595   3.469   0.281  0.5310  0.0474 -0.4111
  268TMC3    C8 4114   1.573   3.363  17.579  0.2434  0.2224 -0.0871
  268TMC3    O1 4115   1.708   3.414   0.280  0.6024 -0.0611 -0.0794
  268TMC3    O2 4116   1.600   3.246  17.611 -0.8677  0.2565  0.1499
  269MPD2     C 4117   2.044   2.493  15.237  0.5961 -0.2332 -0.4834
  269MPD2    C1 4118   1.961   2.524  15.342  0.7688 -0.0751  0.3437
  269MPD2    C2 4119   1.908   2.650  15.356 -0.3100 -0.0022 -0.9917
  269MPD2    C3 4120   1.960   2.743  15.272  0.3191 -0.4392 -0.6682
  269MPD2    C4 4121   2.049   2.712  15.168  0.5466  0.1724 -0.1648
  269MPD2    C5 4122   2.084   2.583  15.149 -0.2524 -0.3471  0.2675
  269MPD2     H 4123   1.836   2.671  15.434 -0.7256 -0.2110 -1.3214
  269MPD2    H1 4124   2.067   2.771  15.079  0.1317  1.7425  0.7813
  269MPD2    H2 4125   2.086   2.393  15.225 -1.4212 -1.3643  2.0379
  269MPD2    H3 4126   2.150   2.561  15.066  0.7371  1.2181  0.6248
  269MPD2     N 4127   1.909   2.879  15.289 -0.1944  0.0971 -0.0114
  269MPD2    H5 4128   1.848   2.892  15.369  0.2850  0.1282  0.3546
  269MPD2    N1 4129   1.914   2.415  15.419  0.7468  0.0783  0.3384
  269MPD2    H7 4130   1.966   2.328  15.409  0.3827 -0.4529  3.0224
  270TMC3    C1 4131   1.766   2.282  15.559  1.0197  0.0445 -0.2572
  270TMC3    C2 4132   1.636   2.267  15.601 -0.0453 -0.0902 -0.2715
  270TMC3    C3 4133   1.585   2.140  15.612 -0.0223 -0.1423 -0.8971
  270TMC3    C4 4134   1.848   2.175  15.556 -0.0817 -0.1529 -0.5929
  270TMC3    C5 4135   1.791   2.054  15.557 -0.0364  0.0825  0.2497
  270TMC3    C6 4136   1.658   2.029  15.583  0.2486 -0.0121  0.1894
  270TMC3     C 4137   1.808   2.412  15.508  0.1241 -0.2934 -0.2905
  270TMC3     O 4138   1.730   2.501  15.531  0.6565 -0.0225  0.0208
  270TMC3     H 4139   1.572   2.354  15.590 -0.0082  0.3346  2.9909
  270TMC3    H1 4140   1.953   2.186  15.531  0.0860 -2.0084 -0.6795
  270TMC3    H2 4141   1.618   1.929  15.586 -0.9718  0.4848  0.3325
  270TMC3    C7 4142   1.878   1.952  15.504 -0.8561  0.5126 -0.3998
  270TMC3    C8 4143   1.458   2.135  15.543 -0.3978 -0.9782 -0.1316
  270TMC3    O1 4144   1.994   1.967  15.526 -0.2181 -0.4062  0.0431
  270TMC3    O2 4145   1.353   2.170  15.601 -0.5032  0.5169  0.1016
  271MPD2     C 4146   0.771   2.139  13.900  0.6604 -1.0679  0.2063
  271MPD2    C1 4147   0.731   2.113  14.028  0.6589 -0.2010  0.0568
  271MPD2    C2 4148   0.606   2.141  14.068 -0.5086  0.2663 -1.0445
  271MPD2    C3 4149   0.508   2.204  13.983  0.1999 -0.0005 -0.0103
  271MPD2    C4 4150   0.553   2.232  13.857 -0.6857  0.1629  0.2070
  271MPD2    C5 4151   0.678   2.200  13.816 -0.5858  0.6054  0.2773
  271MPD2     H 4152   0.577   2.117  14.170  1.9784  0.2151 -0.3613
  271MPD2    H1 4153   0.489   2.291  13.792  1.4298  1.7277 -0.4637
  271MPD2    H2 4154   0.866   2.111  13.856  0.2377 -1.5522 -0.4103
  271MPD2    H3 4155   0.701   2.227  13.713 -1.5366 -0.0305 -0.1019
  271MPD2     N 4156   0.378   2.249  14.014 -0.4101  0.3109  0.1559
  271MPD2    H5 4157   0.320   2.302  13.950 -0.9334  0.1655  0.5112
  271MPD2    N1 4158   0.820   2.063  14.130  0.7943 -0.2725 -0.0103
  271MPD2    H7 4159   0.778   2.032  14.217 -0.6041  3.8475  0.7766
  272TMC3    C1 4160   1.005   1.950  14.203 -0.3982 -0.4106 -0.9733
  272TMC3    C2 4161   1.128   1.894  14.172 -0.5579  0.1068  1.1240
  272TMC3    C3 4162   1.216   1.866  14.277  0.8331  0.0946  0.0655
  272TMC3    C4 4163   0.961   1.956  14.335 -0.4158  0.0036 -0.2905
  272TMC3    C5 4164   1.037   1.904  14.434  0.7733 -0.7466  0.0446
  272TMC3    C6 4165   1.165   1.856  14.414  0.3577 -0.0493 -0.3551
  272TMC3     C 4166   0.950   2.029  14.096  0.6221 -0.7646  0.9183
  272TMC3     O 4167   1.025   2.053  14.005 -0.0434  0.4437  0.3352
  272TMC3     H 4168   1.163   1.880  14.071 -1.0536  0.9285  0.8430
  272TMC3    H1 4169   0.864   1.993  14.365  1.5568  2.6195  2.8336
  272TMC3    H2 4170   1.221   1.815  14.497  1.3351  0.0174 -0.9827
  272TMC3    C7 4171   0.994   1.932  14.569 -0.2519  0.1277 -1.2608
  272TMC3    C8 4172   1.346   1.815  14.241  0.2167 -0.7353  0.5887
  272TMC3    O1 4173   0.875   1.918  14.592  0.0682  0.3996  0.2711
  272TMC3    O2 4174   1.398   1.870  14.145  0.0457  0.1112  0.4011
  273MPD2     C 4175   2.697   0.085  11.553  1.0130  0.1480 -0.5330
  273MPD2    C1 4176   2.693   0.217  11.596  0.0859  0.2113  0.4167
  273MPD2    C2 4177   2.673   0.316  11.507 -0.5436 -0.2552 -0.2291
  273MPD2    C3 4178   2.647   0.284  11.374  0.6216 -0.8025  0.1134
  273MPD2    C4 4179   2.649   0.155  11.331  0.1215  0.2629 -0.3791
  273MPD2    C5 4180   2.668   0.053  11.423 -0.0974 -1.1012  0.2419
  273MPD2     H 4181   2.668   0.419  11.542  2.7971  0.3391 -1.5312
  273MPD2    H1 4182   2.618   0.127  11.231  0.6070 -0.3059 -0.3670
  273MPD2    H2 4183   2.722   0.004  11.620 -0.6526 -0.0468 -0.1514
  273MPD2    H3 4184   2.674   4.689  11.396  2.6205 -1.2627  1.4814
  273MPD2     N 4185   2.615   0.384  11.278 -0.0665  0.0091 -0.2849
  273MPD2    H5 4186   2.589   0.346  11.188 -1.6253  0.4817 -0.0237
  273MPD2    N1 4187   2.735   0.240  11.727  0.2854 -0.5323  0.3141
  273MPD2    H7 4188   2.771   0.162  11.781 -0.8694 -0.2782  1.4506
  274TMC3    C1 4189   2.623   0.594  11.172  0.6720  0.0790  0.4695
  274TMC3    C2 4190   2.540   0.551  11.070 -0.3725  1.2330 -0.3786
  274TMC3    C3 4191   2.536   0.633  10.956  0.1570 -0.1889 -0.1972
  274TMC3    C4 4192   2.679   0.720  11.174  0.4693  0.0676  0.2005
  274TMC3    C5 4193   2.661   0.792  11.058  0.0407  0.0075  0.0707
  274TMC3    C6 4194   2.587   0.756  10.950 -0.6311  0.0550  0.3690
  274TMC3     C 4195   2.648   0.511  11.289  0.1887 -0.2769  0.2292
  274TMC3     O 4196   2.683   0.572  11.388 -0.6333 -0.1016 -0.1613
  274TMC3     H 4197   2.481   0.460  11.072  1.0188  0.3646  1.1104
  274TMC3    H1 4198   2.749   0.745  11.252  0.9790  0.8415 -0.5027
  274TMC3    H2 4199   2.549   0.835  10.887 -2.0261 -0.5899  0.4076
  274TMC3    C7 4200   2.675   0.939  11.074 -0.2379 -0.1263  0.2825
  274TMC3    C8 4201   2.419   0.604  10.877  0.2580 -0.1482  0.4152
  274TMC3    O1 4202   2.658   1.014  10.979 -0.3429  0.1635  0.5964
  274TMC3    O2 4203   2.341   0.515  10.914  0.2268  0.6727 -0.4716
  275MPD2     C 4204   2.326   3.249  14.686  0.3041 -0.1978  0.3844
  275MPD2    C1 4205   2.350   3.112  14.669  0.4795  0.3839  0.3396
  275MPD2    C2 4206   2.251   3.044  14.608  0.3876  0.2528  0.7039
  275MPD2    C3 4207   2.147   3.110  14.553  0.2593  0.4104  0.5904
  275MPD2    C4 4208   2.123   3.241  14.566  0.5011  0.2204  0.0945
  275MPD2    C5 4209   2.217   3.310  14.634 -0.4075  0.2093 -0.4043
  275MPD2     H 4210   2.266   2.939  14.588  0.9935  0.2151  1.3711
  275MPD2    H1 4211   2.038   3.298  14.530 -2.0085 -1.7820  2.8747
  275MPD2    H2 4212   2.402   3.318  14.722  1.9579 -1.5115 -0.6262
  275MPD2    H3 4213   2.201   3.413  14.661  0.2007 -0.1507  1.3398
  275MPD2     N 4214   2.044   3.049  14.475  0.5540  0.0039 -0.1520
  275MPD2    H5 4215   1.967   3.102  14.435 -0.3566 -1.4450 -0.3309
  275MPD2    N1 4216   2.467   3.048  14.718 -0.0089 -1.2361 -0.4516
  275MPD2    H7 4217   2.473   2.951  14.690  0.9755 -0.8829 -1.4487
  276TMC3    C1 4218   2.665   3.021  14.841  0.0104 -0.9681 -0.4856
  276TMC3    C2 4219   2.651   2.881  14.845  0.2814  0.7336 -0.8428
  276TMC3    C3 4220   2.742   2.802  14.913  0.1286 -0.2929 -0.0328
  276TMC3    C4 4221   2.765   3.083  14.916 -0.4512  0.8873 -0.5879
  276TMC3    C5 4222   2.849   3.003  14.987 -0.2934 -0.7587  0.5162
  276TMC3    C6 4223   2.842   2.862  14.984  0.1758 -0.5304  0.4151
  276TMC3     C 4224   2.557   3.107  14.807  0.4524 -0.3207 -0.3578
  276TMC3     O 4225   2.545   3.218  14.861  0.5097 -0.3771  0.2490
  276TMC3     H 4226   2.560   2.836  14.808  0.4813 -0.1791 -0.2081
  276TMC3    H1 4227   2.773   3.190  14.924  0.1005  0.7098  1.1759
  276TMC3    H2 4228   2.914   2.803  15.039  0.6826  0.4913  0.8446
  276TMC3    C7 4229   2.950   3.065  15.068  0.4528 -0.0532 -0.7838
  276TMC3    C8 4230   2.753   2.657  14.904  0.3812  0.4984 -0.0003
  276TMC3    O1 4231   2.932   3.054  15.191 -0.0194  0.0615  0.1787
  276TMC3    O2 4232   2.843   2.599  14.967 -0.1203  0.1900  0.5971
  277MPD2     C 4233   4.190   2.591  12.990 -0.2121 -0.4436  0.7034
  277MPD2    C1 4234   4.056   2.560  12.976  0.6330  0.4043 -0.3668
  277MPD2    C2 4235   4.003   2.441  13.035 -0.0146  0.3684  0.0371
  277MPD2    C3 4236   4.088   2.355  13.105  0.2553 -0.2708  0.8726
  277MPD2    C4 4237   4.224   2.382  13.106  0.0184 -0.0169 -0.8623
  277MPD2    C5 4238   4.271   2.495  13.049  0.0112 -0.0551  0.0079
  277MPD2     H 4239   3.895   2.434  13.034 -0.0164  0.3995 -0.2082
  277MPD2    H1 4240   4.295   2.320  13.160 -1.1794 -0.0345  0.7154
  277MPD2    H2 4241   4.248   2.676  12.957  1.5604 -2.7775 -2.1290
  277MPD2    H3 4242   4.379   2.509  13.047 -0.1659  1.1769 -1.0039
  277MPD2     N 4243   4.033   2.253  13.186  0.0185 -0.2456 -0.1872
  277MPD2    H5 4244   3.936   2.229  13.169 -0.2573  0.2525  0.7145
  277MPD2    N1 4245   3.972   2.664  12.919  0.3254  0.5441  0.7510
  277MPD2    H7 4246   4.017   2.755  12.909  0.8699  0.1777 -0.1500
  278TMC3    C1 4247   4.030   2.078  13.337 -0.0992  0.5715 -0.3689
  278TMC3    C2 4248   4.017   1.943  13.290 -0.3840 -0.1678  0.1127
  278TMC3    C3 4249   3.910   1.872  13.332  0.3345  0.3805 -0.4810
  278TMC3    C4 4250   3.933   2.142  13.402 -0.3267 -0.2675 -0.2291
  278TMC3    C5 4251   3.817   2.063  13.431  0.1384 -0.4281 -1.2439
  278TMC3    C6 4252   3.804   1.929  13.391  0.3727 -0.0058  0.4335
  278TMC3     C 4253   4.108   2.157  13.252 -0.5133 -0.2140  0.0060
  278TMC3     O 4254   4.232   2.135  13.264  0.2283 -0.2955  0.7130
  278TMC3     H 4255   4.097   1.905  13.227 -0.1641 -0.9405  0.8651
  278TMC3    H1 4256   3.941   2.248  13.425  0.9610 -0.4920  0.3214
  278TMC3    H2 4257   3.720   1.868  13.424  0.8263 -0.6005  0.4927
  278TMC3    C7 4258   3.697   2.140  13.454  0.1039 -0.1062  0.7985
  278TMC3    C8 4259   3.897   1.735  13.290 -0.1239  0.5188  0.2203
  278TMC3    O1 4260   3.710   2.259  13.486 -0.3530  0.6431 -0.1732
  278TMC3    O2 4261   4.001   1.670  13.287  0.0815 -0.4106 -0.1014
  279MPD2     C 4262   3.164   2.351  17.729 -0.7398  0.3383  0.1117
  279MPD2    C1 4263   3.095   2.292  17.627 -0.1475 -0.2218  0.2121
  279MPD2    C2 4264   3.137   2.314  17.496  0.0751  0.3506 -0.4500
  279MPD2    C3 4265   3.235   2.399  17.460  0.1547 -0.2236  0.2539
  279MPD2    C4 4266   3.302   2.457  17.565  0.1887 -0.3240  0.6739
  279MPD2    C5 4267   3.267   2.442  17.697 -0.1857 -0.6628  0.9359
  279MPD2     H 4268   3.077   2.269  17.417  1.7198 -0.1884 -1.3876
  279MPD2    H1 4269   3.388   2.518  17.541  0.3564  0.2014  2.5811
  279MPD2    H2 4270   3.133   2.339   0.071 -1.2852  1.0271  0.0280
  279MPD2    H3 4271   3.318   2.479   0.025  0.6603 -0.4660  0.3707
  279MPD2     N 4272   3.290   2.426  17.328  0.3715 -0.4866  0.0463
  279MPD2    H5 4273   3.359   2.500  17.322  1.3861 -1.3071  1.6584
  279MPD2    N1 4274   2.973   2.223  17.642 -0.3269 -0.5967  0.2575
  279MPD2    H7 4275   2.936   2.181  17.557  3.7340 -2.8069 -0.4284
  280TMC3    C1 4276   2.769   2.170  17.718 -0.2208  0.0662 -0.6141
  280TMC3    C2 4277   2.770   2.050  17.657 -0.5061  0.1485  0.5010
  280TMC3    C3 4278   2.664   2.020  17.572  0.2755  0.0955  0.3320
  280TMC3    C4 4279   2.671   2.264  17.692  0.3998  0.0298  0.3471
  280TMC3    C5 4280   2.572   2.237  17.602 -0.2700  0.0091 -0.5611
  280TMC3    C6 4281   2.566   2.110  17.546  0.3545 -0.3105 -0.0375
  280TMC3     C 4282   2.888   2.238  17.755 -0.4994 -0.6000 -0.0084
  280TMC3     O 4283   2.885   2.326   0.080  0.4391  0.1437 -0.2128
  280TMC3     H 4284   2.842   1.973  17.680  0.5091  0.4493 -1.6098
  280TMC3    H1 4285   2.676   2.369  17.718  0.1906  0.4496 -1.2673
  280TMC3    H2 4286   2.486   2.079  17.480  2.1892  0.4379 -2.5796
  280TMC3    C7 4287   2.459   2.326  17.594 -0.5477  0.1608 -0.4387
  280TMC3    C8 4288   2.639   1.884  17.531  0.4246  0.3373  0.3794
  280TMC3    O1 4289   2.444   2.398  17.691  0.3316  0.3211 -0.1748
  280TMC3    O2 4290   2.524   1.850  17.503  0.3302  0.2536  0.9525
  281TMC3    C1 4291   2.090   2.606  13.232 -0.0499  0.3185  0.4082
  281TMC3    C2 4292   2.108   2.679  13.120  0.3512  0.1872  0.1309
  281TMC3    C3 4293   2.033   2.633  13.014 -0.4225 -0.2709  0.0492
  281TMC3    C4 4294   2.022   2.488  13.234 -0.5660  0.2271  0.1388
  281TMC3    C5 4295   1.964   2.440  13.124  0.3048  0.0972 -0.3540
  281TMC3    C6 4296   1.966   2.515  13.012  0.0642 -0.3934  0.0845
  281TMC3     C 4297   2.093   2.667  13.362 -0.0983 -0.2441 -0.4662
  281TMC3     O 4298   2.120   2.592  13.455  0.6868  0.3966  0.1785
  281TMC3     H 4299   2.158   2.775  13.126 -0.3581  0.6900 -1.7808
  281TMC3    H1 4300   2.011   2.434  13.327 -0.8285  0.7318  0.4038
  281TMC3    H2 4301   1.915   2.486  12.920 -1.8266 -1.9498  1.6322
  281TMC3    C7 4302   1.865   2.330  13.130  0.1736  0.1942 -0.9399
  281TMC3    C8 4303   2.096   2.668  12.887 -0.0656  0.2299 -0.1940
  281TMC3    O1 4304   1.769   2.334  13.054  0.4256 -0.5871  0.1646
  281TMC3    O2 4305   2.123   2.577  12.811 -0.1550  0.2520  0.0273
  282MPD2     C 4306   3.953   3.593  14.981  0.4434 -0.8335 -0.5506
  282MPD2    C1 4307   3.827   3.658  15.003  0.0056 -0.3583 -0.4660
  282MPD2    C2 4308   3.735   3.656  14.899  0.4875  0.1285  0.4401
  282MPD2    C3 4309   3.763   3.595  14.781 -0.3107  0.1433 -0.6874
  282MPD2    C4 4310   3.892   3.549  14.759  0.3127 -0.0429 -0.0472
  282MPD2    C5 4311   3.984   3.546  14.856  0.1501  0.3388  0.4057
  282MPD2     H 4312   3.638   3.704  14.908 -0.1859 -0.8825 -1.6093
  282MPD2    H1 4313   3.916   3.497  14.667  0.7077  2.1395 -1.1685
  282MPD2    H2 4314   4.033   3.595  15.054 -0.4601 -1.7040  0.4592
  282MPD2    H3 4315   4.081   3.500  14.838  0.6329  0.8707  1.6648
  282MPD2     N 4316   3.662   3.591  14.682  0.0315  0.4157  0.1741
  282MPD2    H5 4317   3.575   3.636  14.706 -0.7033 -1.2588  0.6873
  282MPD2    N1 4318   3.795   3.714  15.130  0.3004 -0.0556  0.2992
  282MPD2    H7 4319   3.698   3.742  15.141 -0.3140 -1.8380 -0.6832
  283TMC3    C1 4320   3.839   3.767  15.349  0.3521 -0.6581  0.3127
  283TMC3    C2 4321   3.919   3.854  15.429  0.2366 -0.1457 -0.0214
  283TMC3    C3 4322   3.886   3.861  15.562 -0.1096  0.1562 -0.5713
  283TMC3    C4 4323   3.736   3.691  15.402  0.3266 -0.2422 -0.1095
  283TMC3    C5 4324   3.713   3.696  15.536  0.4024  0.6811 -0.1468
  283TMC3    C6 4325   3.784   3.787  15.614  0.0334  0.3624  0.3960
  283TMC3     C 4326   3.886   3.734  15.224 -0.8255 -0.0699  0.8066
  283TMC3     O 4327   4.002   3.759  15.211 -0.3748 -0.3415 -0.5717
  283TMC3     H 4328   4.011   3.902  15.397  0.4806 -0.2831  0.4810
  283TMC3    H1 4329   3.683   3.621  15.338 -2.4526 -1.0753  3.0851
  283TMC3    H2 4330   3.765   3.796  15.720 -0.8583 -0.9966  0.3609
  283TMC3    C7 4331   3.647   3.588  15.612  1.4488  0.6270  0.6999
  283TMC3    C8 4332   3.947   3.961  15.643 -0.0587 -0.4390 -0.2499
  283TMC3    O1 4333   3.635   3.610  15.731 -0.2229  0.2698  0.2846
  283TMC3    O2 4334   3.928   3.965  15.766 -0.1412  0.0329  0.1184
  284MPD2     C 4335   1.387   3.539  12.082  0.4406 -0.1983  0.3660
  284MPD2    C1 4336   1.507   3.543  12.023 -0.0216 -0.4835  0.4737
  284MPD2    C2 4337   1.611   3.496  12.097 -0.1120 -0.2360  0.0350
  284MPD2    C3 4338   1.601   3.434  12.223 -0.8892  0.5030  0.7718
  284MPD2    C4 4339   1.472   3.427  12.270 -0.5737 -0.2538 -0.3033
  284MPD2    C5 4340   1.363   3.482  12.203  0.4090 -0.7373  0.5883
  284MPD2     H 4341   1.705   3.504  12.043  0.1370 -2.3623  0.1548
  284MPD2    H1 4342   1.450   3.377  12.364  1.7681 -0.1506  0.2959
  284MPD2    H2 4343   1.295   3.571  12.034  0.4745 -0.4693  0.1235
  284MPD2    H3 4344   1.261   3.486  12.241  0.0487 -0.6350 -0.3977
  284MPD2     N 4345   1.710   3.381  12.298 -0.0870  1.1576  0.2984
  284MPD2    H5 4346   1.688   3.306  12.363  0.5046  1.8111  1.2468
  284MPD2    N1 4347   1.532   3.583  11.893 -0.3536  0.4334 -0.3403
  284MPD2    H7 4348   1.623   3.551  11.861 -0.8332 -1.2848  0.0055
  285TMC3    C1 4349   1.495   3.604  11.670 -0.3435 -1.0949 -0.3136
  285TMC3    C2 4350   1.551   3.481  11.656  0.4214 -0.1667  0.1318
  285TMC3    C3 4351   1.602   3.447  11.533  0.4506 -0.7077  0.2904
  285TMC3    C4 4352   1.484   3.694  11.572  0.6545  0.2366  0.5518
  285TMC3    C5 4353   1.534   3.661  11.448 -0.5636 -0.0700  0.9431
  285TMC3    C6 4354   1.584   3.534  11.425 -0.5290 -0.5286 -0.2412
  285TMC3     C 4355   1.432   3.619  11.802  0.2600 -1.1044  0.2160
  285TMC3     O 4356   1.334   3.690  11.817 -0.4665  0.4578 -0.0163
  285TMC3     H 4357   1.555   3.408  11.736  0.7495 -0.5980 -0.2798
  285TMC3    H1 4358   1.437   3.791  11.583 -0.4157 -0.3774  1.4010
  285TMC3    H2 4359   1.604   3.493  11.327  0.4877 -2.6981  0.8600
  285TMC3    C7 4360   1.624   3.755  11.386  0.4311  0.1486  0.4518
  285TMC3    C8 4361   1.725   3.362  11.522  0.6751  0.7886  0.0703
  285TMC3    O1 4362   1.694   3.708  11.298 -0.2570  0.1393  0.1629
  285TMC3    O2 4363   1.750   3.267  11.593  0.1238 -0.3371 -0.0788
  286MPD2     C 4364   2.014   1.156   1.055 -0.7133  0.4640 -0.4311
  286MPD2    C1 4365   2.094   1.270   1.029  0.3961 -0.4875 -0.1534
  286MPD2    C2 4366   2.229   1.255   1.011  0.8422  1.6363 -0.7811
  286MPD2    C3 4367   2.284   1.130   0.996  0.5872 -0.8492  0.1635
  286MPD2    C4 4368   2.203   1.018   1.009  0.1383  0.3098 -0.0941
  286MPD2    C5 4369   2.066   1.031   1.045 -0.3322 -0.9516  0.2111
  286MPD2     H 4370   2.285   1.348   1.007 -1.5608  3.0146 -1.7834
  286MPD2    H1 4371   2.242   0.919   0.990  0.2779  0.1255  1.1417
  286MPD2    H2 4372   1.907   1.167   1.063 -0.5554 -0.1656  2.3995
  286MPD2    H3 4373   2.010   0.940   1.065 -1.5720 -0.6625 -1.9022
  286MPD2     N 4374   2.420   1.114   0.972 -0.4442  0.0111 -0.4893
  286MPD2    H5 4375   2.458   1.020   0.971 -0.5585 -0.0370  0.0190
  286MPD2    N1 4376   2.054   1.405   1.025  0.5742 -0.0650  0.2507
  286MPD2    H7 4377   2.130   1.472   1.019  0.8947 -0.4946 -0.5337
  287TMC3    C1 4378   2.652   1.184   0.934  0.4571  0.4304 -0.8270
  287TMC3    C2 4379   2.684   1.091   0.840 -0.5862  0.3008 -0.5611
  287TMC3    C3 4380   2.799   1.107   0.775  0.4641 -0.4559  0.7081
  287TMC3    C4 4381   2.730   1.293   0.953  0.7667  0.6033 -0.0165
  287TMC3    C5 4382   2.847   1.308   0.886  0.2101 -0.0010 -0.0057
  287TMC3    C6 4383   2.884   1.211   0.797 -0.5999 -0.2071 -0.0266
  287TMC3     C 4384   2.512   1.218   0.945  0.1474  0.4954  0.1726
  287TMC3     O 4385   2.502   1.338   0.968 -0.2691  0.0335 -0.5760
  287TMC3     H 4386   2.628   0.998   0.839  1.8916 -1.2413  1.9314
  287TMC3    H1 4387   2.713   1.358   1.039 -0.9436 -0.9975  0.8419
  287TMC3    H2 4388   2.982   1.207   0.752  0.8279 -3.5608  3.3652
  287TMC3    C7 4389   2.936   1.408   0.931  0.5973  0.2123  0.2970
  287TMC3    C8 4390   2.833   1.021   0.669 -0.2710 -0.2588 -0.5055
  287TMC3    O1 4391   2.886   1.508   0.977 -0.1438  0.0538  0.1353
  287TMC3    O2 4392   2.821   0.898   0.689  0.0616  0.1001  0.0348
  288TMC3    C1 4393   3.767   1.467  14.085 -0.2846  0.4640  0.3939
  288TMC3    C2 4394   3.833   1.493  14.201 -0.3067  0.3031  0.0254
  288TMC3    C3 4395   3.900   1.393  14.270 -0.1642  0.4409 -0.5146
  288TMC3    C4 4396   3.778   1.344  14.028  0.0747  0.8827 -0.2906
  288TMC3    C5 4397   3.850   1.248  14.095  0.8231 -0.3903 -0.7189
  288TMC3    C6 4398   3.924   1.270  14.210  0.8387  0.4317  0.1350
  288TMC3     C 4399   3.698   1.582  14.023 -0.1869 -0.1908  0.9147
  288TMC3     O 4400   3.672   1.678  14.096  0.3759  0.2010  0.1709
  288TMC3     H 4401   3.827   1.590  14.248 -0.4862  0.5865 -0.5933
  288TMC3    H1 4402   3.724   1.317  13.938  0.0664 -0.4608  0.1251
  288TMC3    H2 4403   3.983   1.193  14.259  0.9331  0.2577 -0.2518
  288TMC3    C7 4404   3.849   1.117  14.031  0.8934  0.2278  0.3943
  288TMC3    C8 4405   3.912   1.410  14.413  0.1915 -0.6232 -0.4769
  288TMC3    O1 4406   3.811   1.107  13.913  0.1387 -0.5336 -0.0825
  288TMC3    O2 4407   3.967   1.515  14.444 -0.0756  0.0108  0.5823
  289MPD2     C 4408   4.296   0.867  14.643 -0.6532 -0.4563  0.1783
  289MPD2    C1 4409   4.255   0.974  14.562 -0.4892 -0.2948 -0.1909
  289MPD2    C2 4410   4.123   0.970  14.522  0.3023 -0.1743 -0.3637
  289MPD2    C3 4411   4.047   0.850  14.543 -0.0761 -0.3302 -0.3310
  289MPD2    C4 4412   4.092   0.747  14.613  0.5967 -0.9270 -0.2062
  289MPD2    C5 4413   4.216   0.758  14.670  0.8863 -0.0674 -0.7283
  289MPD2     H 4414   4.089   1.057  14.466 -3.2567 -0.2558  1.6370
  289MPD2    H1 4415   4.029   0.665  14.648  0.4249  0.6349  3.1940
  289MPD2    H2 4416   4.400   0.864  14.675 -0.7112 -0.0829  0.4042
  289MPD2    H3 4417   4.253   0.675  14.730 -1.1207  0.2812  0.9740
  289MPD2     N 4418   3.906   0.835  14.513 -0.7308  0.3657  0.6121
  289MPD2    H5 4419   3.865   0.747  14.541 -2.4180  0.9572  0.0345
  289MPD2    N1 4420   4.342   1.080  14.520  0.2057  0.1417  0.2932
  289MPD2    H7 4421   4.430   1.085  14.570  0.2090 -1.1105  0.4212
  290TMC3    C1 4422   3.709   0.867  14.389  0.4674  0.3293  0.3833
  290TMC3    C2 4423   3.642   0.947  14.300 -0.1478 -0.4794 -0.3877
  290TMC3    C3 4424   3.560   0.882  14.211 -0.4495 -0.5069  0.1068
  290TMC3    C4 4425   3.695   0.736  14.388  0.0336  0.2426  1.0096
  290TMC3    C5 4426   3.625   0.670  14.291 -0.3599 -0.6041 -0.5304
  290TMC3    C6 4427   3.555   0.745  14.202  0.4264  0.5012 -0.3908
  290TMC3     C 4428   3.834   0.923  14.438 -0.3466  0.0960 -0.0510
  290TMC3     O 4429   3.867   1.034  14.395 -0.2218 -0.0365 -0.1406
  290TMC3     H 4430   3.645   1.056  14.298  1.5656 -0.4749  2.2739
  290TMC3    H1 4431   3.734   0.678  14.471  1.6546  1.5004  1.1194
  290TMC3    H2 4432   3.476   0.712  14.135  0.8287 -0.3852 -0.4327
  290TMC3    C7 4433   3.619   0.528  14.297 -0.0018 -0.1140  0.1922
  290TMC3    C8 4434   3.519   0.948  14.084  0.1032  0.5564  1.1102
  290TMC3    O1 4435   3.699   0.462  14.365  0.2888 -0.7822 -0.5263
  290TMC3    O2 4436   3.519   0.875  13.987 -0.1785 -0.4399  0.3543
  291MPD2     C 4437   3.569   0.771   0.610  0.0457  0.2368 -0.1328
  291MPD2    C1 4438   3.641   0.688   0.531 -0.0861  0.1195  0.2580
  291MPD2    C2 4439   3.740   0.740   0.449 -0.3849  0.2553 -0.4693
  291MPD2    C3 4440   3.746   0.875   0.429  0.0370  0.5807 -0.1992
  291MPD2    C4 4441   3.662   0.962   0.499 -0.8090 -0.5082 -0.2616
  291MPD2    C5 4442   3.573   0.908   0.588  0.1610  0.1700 -0.2247
  291MPD2     H 4443   3.796   0.665   0.394  0.9792 -0.0765  1.3954
  291MPD2    H1 4444   3.669   1.068   0.477  0.3263 -1.2215 -3.3407
  291MPD2    H2 4445   3.488   0.737   0.673  0.1982 -0.4223 -0.2924
  291MPD2    H3 4446   3.515   0.978   0.647  2.3182  0.8587  1.0623
  291MPD2     N 4447   3.826   0.936   0.331 -0.5336  0.1976  0.7592
  291MPD2    H5 4448   3.811   1.032   0.304 -0.1462  1.0388  3.4931
  291MPD2    N1 4449   3.614   0.551   0.522  0.2123 -0.4996  0.1247
  291MPD2    H7 4450   3.668   0.504   0.450 -2.9048 -2.6356 -0.7772
  292TMC3    C1 4451   3.493   0.355   0.561 -0.7997 -0.3467  0.1537
  292TMC3    C2 4452   3.419   0.277   0.651 -0.3942 -0.3126 -0.1803
  292TMC3    C3 4453   3.349   0.168   0.597 -0.4305  0.1285 -0.0437
  292TMC3    C4 4454   3.515   0.324   0.431 -0.4759  0.1126 -0.8314
  292TMC3    C5 4455   3.442   0.214   0.387  0.4714  0.4133 -0.2368
  292TMC3    C6 4456   3.368   0.131   0.465  0.5798 -0.3229 -0.0311
  292TMC3     C 4457   3.523   0.487   0.601 -0.8190  0.1233  0.5382
  292TMC3     O 4458   3.448   0.528   0.690  0.0540 -0.1180  0.6114
  292TMC3     H 4459   3.390   0.315   0.748 -0.3399  0.7833 -0.5834
  292TMC3    H1 4460   3.550   0.392   0.355  1.1286 -0.9424 -1.0413
  292TMC3    H2 4461   3.307   0.063   0.406 -0.9197  0.5756  0.4978
  292TMC3    C7 4462   3.438   0.195   0.241  0.2243 -0.1573  0.2070
  292TMC3    C8 4463   3.252   0.094   0.674 -0.1181  0.0761  0.7579
  292TMC3    O1 4464   3.469   0.295   0.175  0.2549  0.2501 -0.0554
  292TMC3    O2 4465   3.248   0.122   0.790  0.5791 -0.6169 -0.2704
  293MPD2     C 4466   0.368   1.675  12.689  0.0315 -0.0678  0.4803
  293MPD2    C1 4467   0.339   1.813  12.701 -0.0210 -0.2527 -0.0594
  293MPD2    C2 4468   0.371   1.880  12.818  0.0134  0.5366  0.1855
  293MPD2    C3 4469   0.439   1.811  12.924 -0.3445  0.5490 -0.5179
  293MPD2    C4 4470   0.466   1.681  12.904  0.2691 -0.0690 -0.7994
  293MPD2    C5 4471   0.430   1.610  12.789 -0.4197  0.0963  0.6160
  293MPD2     H 4472   0.350   1.984  12.841 -3.5319  0.3117 -2.0114
  293MPD2    H1 4473   0.515   1.617  12.976 -1.0323  0.1423  0.2768
  293MPD2    H2 4474   0.353   1.626  12.593  0.7436 -0.1496  0.4098
  293MPD2    H3 4475   0.461   1.506  12.784 -1.5004 -0.0985 -1.8335
  293MPD2     N 4476   0.485   1.873  13.045 -0.1424  0.0510  0.8038
  293MPD2    H5 4477   0.504   1.807  13.120  0.0890 -0.1329  0.5840
  293MPD2    N1 4478   0.261   1.882  12.602  0.3464  0.2492 -0.4253
  293MPD2    H7 4479   0.207   1.961  12.636  1.6061  0.4731  1.0778
  294TMC3    C1 4480   0.141   1.913  12.402  0.0144  0.4142 -0.0071
  294TMC3    C2 4481   0.026   1.963  12.457 -0.4449  0.6138  0.4957
  294TMC3    C3 4482   4.665   1.995  12.371  0.0037 -0.3163 -0.0631
  294TMC3    C4 4483   0.160   1.909  12.266 -0.0111  0.2135 -0.2161
  294TMC3    C5 4484   0.052   1.942  12.179 -0.1977  0.0417  0.5572
  294TMC3    C6 4485   4.672   1.985  12.235  0.0994 -0.0844 -0.1515
  294TMC3     C 4486   0.246   1.838  12.471  0.4855 -0.7913 -0.3880
  294TMC3     O 4487   0.315   1.759  12.404 -0.1765 -0.0222 -0.0674
  294TMC3     H 4488   0.007   1.964  12.564  1.8850  3.5270  0.8820
  294TMC3    H1 4489   0.251   1.867  12.226 -1.3223 -1.8888 -0.9985
  294TMC3    H2 4490   4.591   2.001  12.165  0.3048 -0.1549 -0.4045
  294TMC3    C7 4491   0.045   1.906  12.036  0.2791  0.9416 -0.9046
  294TMC3    C8 4492   4.534   2.032  12.422 -0.3263 -0.2521 -1.1158
  294TMC3    O1 4493   4.680   1.918  11.973 -0.5136 -0.1302  0.3565
  294TMC3    O2 4494   4.539   2.079  12.536 -0.0640 -0.1817  0.5300
  295MPD2     C 4495   1.619   0.492   1.031  0.0065 -0.4187  0.1220
  295MPD2    C1 4496   1.527   0.586   0.986  0.5227 -0.0208 -0.7241
  295MPD2    C2 4497   1.428   0.632   1.067  0.5498  0.2495 -0.8432
  295MPD2    C3 4498   1.405   0.578   1.190  0.3865  0.1287 -0.0143
  295MPD2    C4 4499   1.495   0.486   1.240  0.7294 -0.6620  0.7476
  295MPD2    C5 4500   1.601   0.449   1.162 -0.6867  0.5592 -0.3079
  295MPD2     H 4501   1.350   0.692   1.022  1.1183  0.1088 -2.0203
  295MPD2    H1 4502   1.493   0.449   1.342  1.8630 -0.8080  0.7084
  295MPD2    H2 4503   1.700   0.453   0.970 -0.3549 -0.6881 -0.1801
  295MPD2    H3 4504   1.664   0.370   1.201  1.9996  2.2378 -1.2336
  295MPD2     N 4505   1.297   0.608   1.274 -0.4365 -0.9373  0.4732
  295MPD2    H5 4506   1.287   0.557   1.361  0.4579 -2.9935 -0.6036
  295MPD2    N1 4507   1.517   0.624   0.847  0.4240 -0.0835 -0.0169
  295MPD2    H7 4508   1.453   0.697   0.817  1.3177  1.0063  0.6893
  296TMC3    C1 4509   1.091   0.691   1.323 -0.2431  0.1679  0.2291
  296TMC3    C2 4510   0.992   0.695   1.230 -0.0277 -0.0158 -0.5362
  296TMC3    C3 4511   0.877   0.625   1.250  0.5450  0.2386 -0.2266
  296TMC3    C4 4512   1.082   0.604   1.428  0.0291  0.1474 -0.3744
  296TMC3    C5 4513   0.968   0.536   1.446 -0.0468 -0.3797  0.0582
  296TMC3    C6 4514   0.861   0.552   1.365  0.5392 -0.5591 -0.0275
  296TMC3     C 4515   1.219   0.720   1.262 -0.6184  0.1027 -0.6733
  296TMC3     O 4516   1.233   0.812   1.189 -0.1676  0.0035 -0.1515
  296TMC3     H 4517   0.990   0.768   1.150  2.3995 -1.0662 -1.5645
  296TMC3    H1 4518   1.166   0.581   1.493  0.4889  2.0586 -0.2947
  296TMC3    H2 4519   0.763   0.512   1.390  0.2835  0.3777  0.4455
  296TMC3    C7 4520   0.983   0.403   1.501 -0.1266  0.5080 -0.1890
  296TMC3    C8 4521   0.811   0.576   1.130  0.8044  0.1674 -0.0212
  296TMC3    O1 4522   1.044   0.385   1.606  0.3880 -0.2571  0.2150
  296TMC3    O2 4523   0.745   0.473   1.138  0.3209 -0.1737 -0.0629
  297MPD2     C 4524   2.977   2.559  15.345  0.0801  0.2882 -0.0594
  297MPD2    C1 4525   2.930   2.678  15.408  0.1893  0.1572 -0.9247
  297MPD2    C2 4526   3.014   2.740  15.500  0.9694 -0.4641  0.5065
  297MPD2    C3 4527   3.137   2.674  15.524  0.5247 -0.6788 -0.7554
  297MPD2    C4 4528   3.180   2.567  15.456  0.2191  0.1522  0.4960
  297MPD2    C5 4529   3.094   2.501  15.375  0.1650  0.5337  0.6658
  297MPD2     H 4530   2.972   2.822  15.557 -2.2380 -0.2384 -2.1500
  297MPD2    H1 4531   3.281   2.530  15.475 -0.5606 -1.6978  1.0375
  297MPD2    H2 4532   2.927   2.504  15.266 -1.5729  1.9300 -0.1571
  297MPD2    H3 4533   3.133   2.417  15.318 -1.6165  0.7654 -0.9084
  297MPD2     N 4534   3.232   2.731  15.615  0.3519 -0.1515  0.3287
  297MPD2    H5 4535   3.323   2.686  15.612  0.2178 -0.4412  0.5707
  297MPD2    N1 4536   2.800   2.732  15.387 -0.2741 -0.2907  0.1954
  297MPD2    H7 4537   2.782   2.826  15.419  1.7479 -0.1661  0.9902
  298TMC3    C1 4538   2.577   2.734  15.293  0.0740  0.7045 -0.3650
  298TMC3    C2 4539   2.528   2.706  15.168  0.0926 -0.4241  0.1834
  298TMC3    C3 4540   2.436   2.786  15.111  0.7616  0.1130 -0.2083
  298TMC3    C4 4541   2.549   2.847  15.361 -0.6538 -0.4934  0.5774
  298TMC3    C5 4542   2.456   2.929  15.305  0.5245  0.3543 -0.2259
  298TMC3    C6 4543   2.397   2.894  15.190 -0.1457 -0.2236 -0.0051
  298TMC3     C 4544   2.698   2.663  15.323  0.0465 -0.2053 -0.3983
  298TMC3     O 4545   2.709   2.552  15.270 -0.1801 -0.7161  0.1196
  298TMC3     H 4546   2.565   2.617  15.118 -0.1150 -0.2238 -0.3224
  298TMC3    H1 4547   2.596   2.871  15.455 -0.3337  0.6352  0.1300
  298TMC3    H2 4548   2.322   2.965  15.155  0.0989 -0.5872 -1.2738
  298TMC3    C7 4549   2.361   2.993  15.397  0.0099  0.0977  0.5824
  298TMC3    C8 4550   2.377   2.736  14.987 -0.1485  0.5475  0.2195
  298TMC3    O1 4551   2.337   2.927  15.502  0.6410 -0.3838 -0.4252
  298TMC3    O2 4552   2.413   2.622  14.955 -0.2789 -0.3984 -0.2773
  299MPD2     C 4553   3.244   2.736  10.632 -0.3788  0.3807  0.0699
  299MPD2    C1 4554   3.235   2.739  10.496 -0.3417  0.7858  0.0884
  299MPD2    C2 4555   3.111   2.738  10.435  0.2397  0.3747 -0.0495
  299MPD2    C3 4556   3.001   2.754  10.514  0.2750  0.4030  0.0817
  299MPD2    C4 4557   3.012   2.756  10.653  0.0303 -0.0932  0.2438
  299MPD2    C5 4558   3.135   2.745  10.712 -0.2213 -0.3385 -0.1673
  299MPD2     H 4559   3.109   2.739  10.326  0.6685  2.7145 -0.0404
  299MPD2    H1 4560   2.924   2.769  10.715  0.3093 -0.8949  0.8095
  299MPD2    H2 4561   3.336   2.746  10.689 -1.1027  3.1360  0.7597
  299MPD2    H3 4562   3.143   2.749  10.820  0.0113 -3.0153 -0.0899
  299MPD2     N 4563   2.861   2.764  10.471 -0.3079 -0.2037 -0.5385
  299MPD2    H5 4564   2.793   2.791  10.542  3.3414 -0.5790  3.1425
  299MPD2    N1 4565   3.363   2.728  10.433 -0.0927 -0.0713  0.1157
  299MPD2    H7 4566   3.445   2.717  10.493  1.1866 -1.9339 -1.9609
  300TMC3    C1 4567   2.682   2.728  10.335  0.6326 -0.5056 -0.7946
  300TMC3    C2 4568   2.618   2.835  10.275 -0.2305 -0.5189 -0.3601
  300TMC3    C3 4569   2.505   2.888  10.320 -0.6624  0.5153  0.1548
  300TMC3    C4 4570   2.615   2.661  10.438  0.7876 -0.4052 -0.0807
  300TMC3    C5 4571   2.503   2.721  10.482  0.2068  0.4531 -0.5172
  300TMC3    C6 4572   2.444   2.827  10.425 -0.3119  0.1468 -0.3314
  300TMC3     C 4573   2.827   2.734  10.341  0.3579  0.1581  0.3976
  300TMC3     O 4574   2.893   2.698  10.250  0.0021 -0.1234  0.0000
  300TMC3     H 4575   2.682   2.882  10.201  0.5766  1.0293  1.3212
  300TMC3    H1 4576   2.654   2.574  10.488 -0.6778 -0.4204  1.0546
  300TMC3    H2 4577   2.363   2.879  10.475  2.6481  0.9811  3.5981
  300TMC3    C7 4578   2.442   2.674  10.605  0.5931 -0.1027 -0.1445
  300TMC3    C8 4579   2.535   3.028  10.356 -0.0105  0.3929  0.2923
  300TMC3    O1 4580   2.367   2.748  10.666 -0.2785  0.2902  0.1864
  300TMC3    O2 4581   2.553   3.049  10.473  0.3953  0.1119 -0.3219
  301MPD2     C 4582   1.038   3.815   1.052 -0.3236 -0.0528  0.0447
  301MPD2    C1 4583   0.986   3.778   0.923 -0.1935  0.3318  0.5912
  301MPD2    C2 4584   0.992   3.642   0.891 -0.1094 -0.1325 -0.3238
  301MPD2    C3 4585   1.044   3.544   0.971 -0.3261 -0.2067  0.2608
  301MPD2    C4 4586   1.095   3.580   1.095 -0.1076  0.2051 -0.0446
  301MPD2    C5 4587   1.085   3.711   1.133  0.9498  0.4978 -0.8274
  301MPD2     H 4588   0.958   3.616   0.791 -1.2199  2.4704 -0.6209
  301MPD2    H1 4589   1.143   3.515   1.167  0.9002  0.4467 -0.5022
  301MPD2    H2 4590   1.042   3.920   1.081 -1.6752 -0.2018  0.7553
  301MPD2    H3 4591   1.129   3.732   1.230 -0.5615  0.4834 -0.1315
  301MPD2     N 4592   1.049   3.412   0.933  0.3024 -0.2013 -0.1028
  301MPD2    H5 4593   1.087   3.347   1.001 -1.4631 -0.1554  0.9398
  301MPD2    N1 4594   0.927   3.864   0.824 -0.5789 -0.6266  0.1258
  301MPD2    H7 4595   0.908   3.823   0.733 -1.2215 -1.3463  0.5926
  302TMC3    C1 4596   1.002   3.210   0.820 -0.2150  0.1674 -0.9367
  302TMC3    C2 4597   1.078   3.146   0.910 -0.0895  0.3461 -0.9244
  302TMC3    C3 4598   1.086   3.016   0.900  0.5129  0.0948  0.4650
  302TMC3    C4 4599   0.928   3.152   0.722 -0.2619  0.8364 -0.5639
  302TMC3    C5 4600   0.922   3.013   0.731  0.1515  0.2000  0.2515
  302TMC3    C6 4601   1.009   2.941   0.815  0.0854 -0.9064 -0.7231
  302TMC3     C 4602   1.021   3.355   0.809 -0.5184  0.3578 -0.2568
  302TMC3     O 4603   0.976   3.406   0.709  0.2716 -0.0516 -0.0724
  302TMC3     H 4604   1.154   3.195   0.970 -1.1723  1.6604 -0.6216
  302TMC3    H1 4605   0.862   3.210   0.658  1.5693  0.0868 -3.1335
  302TMC3    H2 4606   1.016   2.833   0.813  1.3313 -0.8498  0.3250
  302TMC3    C7 4607   0.850   2.943   0.630  0.9670  0.0534 -0.2947
  302TMC3    C8 4608   1.126   2.945   1.017  0.4175 -0.1461 -0.9569
  302TMC3    O1 4609   0.902   2.842   0.590 -0.2068 -0.5147 -0.0736
  302TMC3    O2 4610   1.138   2.825   1.010  0.0923  0.2517 -0.1670
  303MPD2     C 4611   0.769   2.515  11.361 -0.0122 -0.4095  0.3841
  303MPD2    C1 4612   0.720   2.413  11.282  0.4736 -0.0676 -0.3383
  303MPD2    C2 4613   0.790   2.359  11.170 -0.2504 -0.2497  0.5502
  303MPD2    C3 4614   0.905   2.429  11.138 -0.1568  0.0476  0.0221
  303MPD2    C4 4615   0.945   2.539  11.205 -0.2402 -0.4510 -0.1700
  303MPD2    C5 4616   0.876   2.581  11.314 -0.3732  0.4319 -0.8711
  303MPD2     H 4617   0.757   2.270  11.119  0.8286  0.8469 -2.0505
  303MPD2    H1 4618   1.039   2.586  11.179  1.4672 -2.9564  1.4490
  303MPD2    H2 4619   0.717   2.555  11.448 -0.6944  1.0660 -0.7051
  303MPD2    H3 4620   0.917   2.668  11.364 -1.0168 -0.3555  1.0232
  303MPD2     N 4621   0.992   2.391  11.028 -0.5327  0.2710 -0.6856
  303MPD2    H5 4622   1.066   2.458  11.008  0.6200 -1.0819 -1.0068
  303MPD2    N1 4623   0.602   2.354  11.329 -0.0316  0.6619 -0.0803
  303MPD2    H7 4624   0.563   2.403  11.409  0.2227  2.6435 -1.1648
  304TMC3    C1 4625   0.425   2.205  11.342  0.5294  0.1608  0.4454
  304TMC3    C2 4626   0.340   2.129  11.264 -0.0647  0.0632  0.6422
  304TMC3    C3 4627   0.275   2.027  11.329 -0.3310  0.0025 -0.6298
  304TMC3    C4 4628   0.462   2.170  11.468  0.9973 -0.0300 -0.3121
  304TMC3    C5 4629   0.403   2.065  11.526 -0.0695  0.2628  0.2860
  304TMC3    C6 4630   0.301   1.998  11.462 -0.5463  0.4929 -0.9511
  304TMC3     C 4631   0.533   2.256  11.266 -0.1948  0.1398  0.3861
  304TMC3     O 4632   0.550   2.199  11.162 -0.1808 -0.4160  0.3431
  304TMC3     H 4633   0.309   2.159  11.165  0.2413 -2.8570 -0.3475
  304TMC3    H1 4634   0.546   2.217  11.518  1.7544 -2.3014  0.5299
  304TMC3    H2 4635   0.253   1.912  11.506  1.7395  0.8673  2.2422
  304TMC3    C7 4636   0.517   1.979  11.564 -0.1134  0.2938 -0.0097
  304TMC3    C8 4637   0.263   1.910  11.250  0.1062  0.2237 -0.1690
  304TMC3    O1 4638   0.599   2.008  11.652  0.5032  0.1858  0.2636
  304TMC3    O2 4639   0.319   1.815  11.304  0.1125 -0.0534 -0.1693
  305MPD2     C 4640   3.981   4.112  14.100 -0.0941 -0.6234  0.5108
  305MPD2    C1 4641   3.970   3.978  14.119 -0.7054  0.8054 -0.2857
  305MPD2    C2 4642   3.939   3.898  14.013 -0.0483 -0.3034  0.2389
  305MPD2    C3 4643   3.915   3.950  13.882 -0.2288 -0.0537  0.5789
  305MPD2    C4 4644   3.937   4.089  13.866 -0.6620 -0.6786 -1.0077
  305MPD2    C5 4645   3.966   4.166  13.974 -0.5865 -0.4184 -0.5833
  305MPD2     H 4646   3.932   3.790  14.028 -1.5883 -0.1374  0.7485
  305MPD2    H1 4647   3.919   4.135  13.770  1.7031  1.9022 -0.2226
  305MPD2    H2 4648   4.010   4.175  14.184  1.4068 -1.7737  0.8441
  305MPD2    H3 4649   3.973   4.274  13.966 -0.2542 -0.3929 -0.0214
  305MPD2     N 4650   3.899   3.870  13.766 -0.2367 -0.0594 -0.1183
  305MPD2    H5 4651   3.877   3.918  13.679  0.8532  1.4047  0.4058
  305MPD2    N1 4652   4.001   3.935  14.248 -0.1450 -0.4093  0.0190
  305MPD2    H7 4653   4.011   4.012  14.313  2.4613  0.1495 -1.0277
  306TMC3    C1 4654   4.039   3.797  14.431  0.5227  0.4187 -0.6559
  306TMC3    C2 4655   4.082   3.671  14.475  0.2938  0.1298  0.6335
  306TMC3    C3 4656   4.188   3.666  14.561  0.3672 -0.0534 -0.0627
  306TMC3    C4 4657   4.078   3.910  14.497 -0.0891 -0.3202 -0.1831
  306TMC3    C5 4658   4.184   3.898  14.582 -1.3906  0.5718  0.2125
  306TMC3    C6 4659   4.238   3.781  14.621  0.4350 -0.4770  0.1744
  306TMC3     C 4660   4.015   3.805  14.290 -0.0188 -0.1213 -0.3895
  306TMC3     O 4661   4.013   3.701  14.228  0.5790  0.0797 -0.2716
  306TMC3     H 4662   4.055   3.585  14.414  0.1167  0.9929 -0.4973
  306TMC3    H1 4663   4.044   4.007  14.463  0.3042  0.1849  0.8517
  306TMC3    H2 4664   4.335   3.776  14.669  1.5889  0.6499 -2.0701
  306TMC3    C7 4665   4.230   4.024  14.643  0.2357  0.0919 -0.2418
  306TMC3    C8 4666   4.261   3.546  14.551  0.2640  0.6373  0.7589
  306TMC3    O1 4667   4.167   4.128  14.606 -0.4843  0.1890  0.5017
  306TMC3    O2 4668   4.233   3.461  14.469  0.7702  0.3221 -0.0645
  307MPD2     C 4669   2.169   1.904   0.223  0.3450 -0.6657  0.0345
  307MPD2    C1 4670   2.081   2.004   0.208 -0.4843  0.6664  0.1370
  307MPD2    C2 4671   2.006   2.048   0.321 -0.1941 -0.1759  0.1592
  307MPD2    C3 4672   2.025   1.994   0.450  0.0280 -0.3548 -0.2734
  307MPD2    C4 4673   2.113   1.884   0.462  0.2268  0.1339 -0.1031
  307MPD2    C5 4674   2.179   1.848   0.350 -0.2573 -0.0353 -0.1096
  307MPD2     H 4675   1.924   2.119   0.316 -1.8284 -2.0211  0.8930
  307MPD2    H1 4676   2.134   1.827   0.551  0.9979  0.5308 -0.0406
  307MPD2    H2 4677   2.237   1.867   0.147 -1.6020 -0.5378 -1.7603
  307MPD2    H3 4678   2.262   1.781   0.372 -0.6034 -0.8738 -1.3322
  307MPD2     N 4679   1.952   2.023   0.566  0.5363  0.1226 -0.1220
  307MPD2    H5 4680   1.984   1.975   0.649 -0.6948 -0.9924 -0.2943
  307MPD2    N1 4681   2.042   2.071   0.093  0.2336  0.1843  0.1599
  307MPD2    H7 4682   1.960   2.130   0.101  1.0455  1.1771  1.2248
  308TMC3    C1 4683   1.645   2.027   0.864 -0.3543  0.3359  0.3636
  308TMC3    C2 4684   1.607   2.156   0.908  0.4588  0.0606  0.0155
  308TMC3    C3 4685   1.668   2.271   0.856 -1.0297 -0.1976  0.1028
  308TMC3    C4 4686   1.747   2.016   0.765 -0.1370 -0.5507  0.8656
  308TMC3    C5 4687   1.797   2.139   0.718  0.1806 -0.2413 -0.4228
  308TMC3    C6 4688   1.761   2.262   0.757 -0.2140  0.6237  0.0357
  308TMC3     C 4689   1.529   1.946   0.837 -0.1976 -0.3637 -0.6072
  308TMC3     O 4690   1.556   1.829   0.807  0.4122 -0.1938  0.1932
  308TMC3     H 4691   1.543   2.170   0.995 -0.3551 -0.1622 -0.5521
  308TMC3    H1 4692   1.760   1.921   0.714 -2.9993 -1.7666  2.3899
  308TMC3    H2 4693   1.795   2.354   0.711 -0.6160  1.8901  2.2647
  308TMC3    C7 4694   1.862   2.131   0.589 -0.0928  0.1978  0.2618
  308TMC3    C8 4695   1.598   2.400   0.890 -0.6896 -0.0728 -0.8899
  308TMC3    O1 4696   1.838   2.222   0.510  0.0948 -0.2321  0.1452
  308TMC3    O2 4697   1.503   2.389   0.970 -0.3588  0.2108 -0.4892
  309MPD2     C 4698   0.958   2.202  16.931 -0.4127  0.7168  0.0873
  309MPD2    C1 4699   0.926   2.332  16.893  0.3916 -0.2140  0.2283
  309MPD2    C2 4700   0.919   2.424  16.994  0.1457  0.7706 -0.2096
  309MPD2    C3 4701   0.925   2.392  17.128 -0.1144  0.5375  0.1352
  309MPD2    C4 4702   0.960   2.268  17.160 -0.1123 -0.1035  0.1720
  309MPD2    C5 4703   0.971   2.168  17.064  0.2088  0.1609  0.9733
  309MPD2     H 4704   0.891   2.524  16.963  1.1612  0.0386 -3.3952
  309MPD2    H1 4705   0.974   2.239  17.264 -0.0253 -2.3197 -0.4437
  309MPD2    H2 4706   0.972   2.129  16.852  2.2972 -0.8540  2.0228
  309MPD2    H3 4707   0.991   2.067  17.098  1.3971 -0.8338 -2.7178
  309MPD2     N 4708   0.894   2.492  17.223 -0.3076 -0.3300  0.0059
  309MPD2    H5 4709   0.886   2.463  17.320 -1.1535  1.7775  0.5717
  309MPD2    N1 4710   0.915   2.368  16.759 -0.0550  0.5472 -0.0899
  309MPD2    H7 4711   0.965   2.312  16.691  2.0825  0.7683  1.3263
  310TMC3    C1 4712   0.864   2.491  16.565 -0.6423 -0.2095 -0.0533
  310TMC3    C2 4713   0.768   2.556  16.500 -0.4059  0.1151 -0.1255
  310TMC3    C3 4714   0.771   2.560  16.358  0.4378 -0.4792  0.9603
  310TMC3    C4 4715   0.976   2.452  16.502  0.5531  0.7042  0.5262
  310TMC3    C5 4716   0.979   2.447  16.363  0.1346 -0.3485 -0.2381
  310TMC3    C6 4717   0.870   2.489  16.291 -0.6652 -0.8712  0.5070
  310TMC3     C 4718   0.842   2.471  16.710 -0.0048 -1.1758 -0.2069
  310TMC3     O 4719   0.762   2.547  16.769  0.1152 -0.0404  0.0708
  310TMC3     H 4720   0.682   2.599  16.549 -0.5765  1.0558 -1.2473
  310TMC3    H1 4721   1.060   2.415  16.559  1.1491  1.9226  0.4352
  310TMC3    H2 4722   0.886   2.495  16.184 -0.7485 -0.3730  0.5225
  310TMC3    C7 4723   1.098   2.401  16.290  0.0236 -0.4076 -0.0874
  310TMC3    C8 4724   0.669   2.605  16.266 -0.2302  0.3447 -1.1602
  310TMC3    O1 4725   1.089   2.364  16.175  1.1349  0.0454 -0.1186
  310TMC3    O2 4726   0.693   2.573  16.150  0.3196 -0.6915  0.3496
  311MPD2     C 4727   2.879   3.820  12.629 -0.0399 -0.0557  0.4065
  311MPD2    C1 4728   2.913   3.945  12.670  0.0625  0.3979  0.1454
  311MPD2    C2 4729   2.809   4.020  12.734  0.2436 -0.2171  0.3777
  311MPD2    C3 4730   2.685   3.965  12.757 -0.2456  0.1418  0.4223
  311MPD2    C4 4731   2.667   3.831  12.735  0.4529 -0.4203 -0.2070
  311MPD2    C5 4732   2.756   3.763  12.658 -0.5114 -0.0295  0.4999
  311MPD2     H 4733   2.824   4.125  12.754 -0.6930 -0.4524  2.2837
  311MPD2    H1 4734   2.579   3.778  12.771 -1.4520 -0.3023 -4.7337
  311MPD2    H2 4735   2.941   3.749  12.576 -0.3079 -1.1955  1.6123
  311MPD2    H3 4736   2.736   3.664  12.619 -1.5241 -0.6590  2.6146
  311MPD2     N 4737   2.577   4.042  12.810 -0.1697  0.1774  0.1449
  311MPD2    H5 4738   2.598   4.138  12.837  0.5855  0.2452 -0.6773
  311MPD2    N1 4739   3.038   4.004  12.643  0.0082  0.5216  0.1843
  311MPD2    H7 4740   3.054   4.101  12.670  1.9511 -0.1577  1.4735
  312TMC3    C1 4741   2.353   4.089  12.872  0.5952  0.3150 -0.3444
  312TMC3    C2 4742   2.220   4.075  12.842  0.5611  0.6268 -0.8387
  312TMC3    C3 4743   2.119   4.087  12.930  0.1074  0.1107 -0.2318
  312TMC3    C4 4744   2.386   4.121  13.002 -0.2883  0.2802  0.2663
  312TMC3    C5 4745   2.286   4.132  13.091 -0.3413 -0.4392  0.6127
  312TMC3    C6 4746   2.154   4.110  13.061 -0.0804  0.2377 -0.4294
  312TMC3     C 4747   2.443   4.001  12.803 -0.4086 -0.4977 -0.2373
  312TMC3     O 4748   2.396   3.920  12.726  0.4807 -0.1392  0.1806
  312TMC3     H 4749   2.201   4.047  12.739 -0.6606 -1.1075 -0.1394
  312TMC3    H1 4750   2.491   4.132  13.030 -0.2982  0.6081  0.1809
  312TMC3    H2 4751   2.072   4.127  13.129  0.9498  1.5390  0.4708
  312TMC3    C7 4752   2.317   4.123  13.230 -0.1321  0.4039  0.0773
  312TMC3    C8 4753   1.990   4.060  12.878  0.2486 -0.6702 -0.1124
  312TMC3    O1 4754   2.239   4.175  13.305  0.4003  0.7031  0.2993
  312TMC3    O2 4755   1.905   4.038  12.963 -0.6571  0.3536  0.1855
  313MPD2     C 4756   2.001   2.647  11.108 -0.0686  0.6006  0.2742
  313MPD2    C1 4757   2.042   2.705  10.992  0.2750 -0.1992  0.9022
  313MPD2    C2 4758   2.102   2.627  10.884  0.6274 -0.5758  0.0901
  313MPD2    C3 4759   2.119   2.493  10.906 -1.0013 -0.0437  0.1329
  313MPD2    C4 4760   2.074   2.440  11.023 -0.3232  0.2429 -0.6137
  313MPD2    C5 4761   2.016   2.511  11.120  1.0950  0.0413 -0.9022
  313MPD2     H 4762   2.144   2.681  10.800  1.2084  1.0460  1.4246
  313MPD2    H1 4763   2.086   2.333  11.038 -2.0513  0.2483  0.8074
  313MPD2    H2 4764   1.963   2.693  11.198 -0.2706  0.4372  0.2729
  313MPD2    H3 4765   1.991   2.461  11.213  2.3974 -0.5854 -0.8895
  313MPD2     N 4766   2.164   2.419  10.794 -0.7595  0.0095  0.0124
  313MPD2    H5 4767   2.170   2.474  10.709 -0.8294 -0.5782 -0.3709
  313MPD2    N1 4768   2.028   2.846  10.979  0.2296  0.2725 -0.4139
  313MPD2    H7 4769   2.074   2.886  10.898  2.9619 -2.8359 -0.4192
  314TMC3    C1 4770   2.007   3.064  11.022  0.7599  0.1822 -0.0836
  314TMC3    C2 4771   2.140   3.093  11.026  0.0940  0.2201  0.1269
  314TMC3    C3 4772   2.176   3.220  11.005 -0.4768  0.1582  0.3874
  314TMC3    C4 4773   1.910   3.165  11.022 -0.4483 -0.5597  0.2676
  314TMC3    C5 4774   1.950   3.294  10.993  0.2999  0.1747  0.2682
  314TMC3    C6 4775   2.083   3.329  10.983  0.9023 -0.4634 -0.0330
  314TMC3     C 4776   1.964   2.932  11.061  0.2235  0.0290  0.2168
  314TMC3     O 4777   1.866   2.914  11.132  0.2383  0.1334  0.0320
  314TMC3     H 4778   2.208   3.011  11.047  1.3506  2.2225  3.8145
  314TMC3    H1 4779   1.804   3.146  11.029 -0.4848 -0.1220  0.8960
  314TMC3    H2 4780   2.120   3.429  10.965  1.1848 -0.7314 -0.9495
  314TMC3    C7 4781   1.862   3.389  10.942  0.0142 -0.0235 -0.1799
  314TMC3    C8 4782   2.310   3.260  10.989  0.1541  0.5619 -0.8376
  314TMC3    O1 4783   1.749   3.398  10.985  0.5469 -0.6236  0.3897
  314TMC3    O2 4784   2.335   3.375  11.012  0.2649  0.0458  0.0312
  315MPD2     C 4785   1.835   2.003  16.835  0.9687  0.4825 -0.4059
  315MPD2    C1 4786   1.959   2.033  16.883  0.2655  0.0064 -0.5617
  315MPD2    C2 4787   2.031   2.134  16.836 -0.4361 -0.4379  0.4821
  315MPD2    C3 4788   1.979   2.219  16.749  0.2601 -0.3863 -0.1554
  315MPD2    C4 4789   1.860   2.200  16.691  0.2508  1.1860 -0.4266
  315MPD2    C5 4790   1.786   2.094  16.738  0.1578  0.5595 -0.3012
  315MPD2     H 4791   2.131   2.150  16.874  0.1893  0.2414 -1.4420
  315MPD2    H1 4792   1.817   2.259  16.611  1.8621 -0.1998 -2.3183
  315MPD2    H2 4793   1.781   1.918  16.875  0.8123  1.6753  1.8854
  315MPD2    H3 4794   1.686   2.083  16.697  0.7854 -1.3329 -1.3121
  315MPD2     N 4795   2.055   2.335  16.727 -0.7542 -0.2688  0.7412
  315MPD2    H5 4796   2.143   2.345  16.778  0.3948 -0.3137 -1.2187
  315MPD2    N1 4797   2.031   1.956  16.979 -0.3270  0.6257  0.0516
  315MPD2    H7 4798   2.123   1.993  17.000 -0.1330 -1.1765  2.2897
  316TMC3    C1 4799   2.065   2.569  16.713 -0.0681 -0.3085  0.2619
  316TMC3    C2 4800   2.120   2.569  16.844 -0.0054  0.2882  0.8319
  316TMC3    C3 4801   2.159   2.694  16.891 -0.2173 -0.6120  0.4988
  316TMC3    C4 4802   2.061   2.679  16.630  0.8582  0.5336  0.0537
  316TMC3    C5 4803   2.088   2.801  16.691  0.8162 -1.0790  0.1533
  316TMC3    C6 4804   2.142   2.809  16.815  0.7150 -0.0457 -0.4461
  316TMC3     C 4805   2.016   2.447  16.655  0.4215 -0.7192  0.9825
  316TMC3     O 4806   1.948   2.456  16.554 -0.6185  0.6642  0.4229
  316TMC3     H 4807   2.097   2.481  16.902  1.5693 -0.0657  0.9200
  316TMC3    H1 4808   2.003   2.669  16.539  2.3994  0.7191 -0.9595
  316TMC3    H2 4809   2.174   2.905  16.854 -1.1187  1.0846 -1.7323
  316TMC3    C7 4810   2.011   2.915  16.652 -0.1589 -0.9370  0.0842
  316TMC3    C8 4811   2.200   2.706  17.028  0.1030 -0.2307 -0.2148
  316TMC3    O1 4812   1.996   2.998  16.742 -0.0201  0.1251  0.2813
  316TMC3    O2 4813   2.223   2.825  17.065 -0.6039  0.3173  0.0691
  317MPD2     C 4814   3.796   1.236  12.826  0.6762  0.0572  0.1973
  317MPD2    C1 4815   3.805   1.116  12.746  0.1084  1.1222 -0.1106
  317MPD2    C2 4816   3.884   1.013  12.788  0.6754 -0.6762  0.6472
  317MPD2    C3 4817   3.957   1.028  12.910 -0.0420  0.3810 -0.6595
  317MPD2    C4 4818   3.942   1.142  12.977  0.2056  0.1791 -0.6871
  317MPD2    C5 4819   3.878   1.252  12.929 -0.3872  0.2203 -0.7619
  317MPD2     H 4820   3.907   0.930  12.722  0.4963 -2.0008  2.2614
  317MPD2    H1 4821   4.002   1.164  13.065 -0.4665  1.0831 -0.4584
  317MPD2    H2 4822   3.746   1.326  12.789  0.0546 -0.3954 -0.0595
  317MPD2    H3 4823   3.880   1.346  12.982 -0.3227 -0.7619  1.0028
  317MPD2     N 4824   4.036   0.923  12.951 -0.1852  0.4037 -0.5485
  317MPD2    H5 4825   4.044   0.843  12.889  0.0410  0.1197 -0.1572
  317MPD2    N1 4826   3.744   1.100  12.618 -0.4384  0.0487  0.0313
  317MPD2    H7 4827   3.755   1.002  12.592 -0.4200  0.2248 -0.6141
  318TMC3    C1 4828   4.200   0.809  13.089 -0.4268  0.3295  0.1446
  318TMC3    C2 4829   4.166   0.689  13.026  0.3321  0.3905  0.7286
  318TMC3    C3 4830   4.252   0.583  13.051 -0.5624 -0.2500 -0.4898
  318TMC3    C4 4831   4.310   0.816  13.169  0.5774  0.5269  0.4588
  318TMC3    C5 4832   4.385   0.705  13.201 -0.0073  0.2609 -0.5677
  318TMC3    C6 4833   4.358   0.589  13.140 -0.6760  0.2923  0.2177
  318TMC3     C 4834   4.120   0.931  13.066 -0.2306  0.0600 -0.4989
  318TMC3     O 4835   4.145   1.023  13.144 -0.3462 -0.2210 -0.2913
  318TMC3     H 4836   4.073   0.687  12.972  1.6026 -1.3723 -1.3929
  318TMC3    H1 4837   4.336   0.906  13.224  1.1556  0.0512  0.9630
  318TMC3    H2 4838   4.434   0.514  13.155  0.1182  1.2327  0.9335
  318TMC3    C7 4839   4.462   0.722  13.319 -0.3732  0.7089  0.4912
  318TMC3    C8 4840   4.203   0.452  13.021 -0.2374  0.6191 -0.1707
  318TMC3    O1 4841   4.401   0.765  13.413 -0.3388 -1.1036 -0.0409
  318TMC3    O2 4842   4.243   0.350  13.079 -0.3196  0.3672 -0.4409
  319MPD2     C 4843   0.542   1.959  16.587 -0.4495 -0.2697 -0.0271
  319MPD2    C1 4844   0.506   1.832  16.639  0.7516  0.2227 -0.0321
  319MPD2    C2 4845   0.392   1.771  16.600 -0.0421 -0.5799  0.5143
  319MPD2    C3 4846   0.312   1.829  16.507  0.1088 -0.0000 -0.6867
  319MPD2    C4 4847   0.350   1.950  16.452  0.6070  0.1448  0.1509
  319MPD2    C5 4848   0.460   2.021  16.499 -0.4546  0.2281 -0.4301
  319MPD2     H 4849   0.371   1.678  16.651  0.5436 -0.7339  0.4784
  319MPD2    H1 4850   0.283   1.993  16.379  0.2304  0.1156  0.4757
  319MPD2    H2 4851   0.638   2.007  16.601  0.5271 -1.9626 -0.7995
  319MPD2    H3 4852   0.490   2.115  16.455 -0.5261 -0.2205 -1.4190
  319MPD2     N 4853   0.192   1.773  16.443 -1.0894  0.0315 -0.3487
  319MPD2    H5 4854   0.160   1.826  16.362  0.5537 -0.6708 -1.4520
  319MPD2    N1 4855   0.584   1.767  16.739  0.2181  0.0207 -0.0462
  319MPD2    H7 4856   0.553   1.676  16.773 -0.1240  0.4464  0.7950
  320TMC3    C1 4857   0.041   1.603  16.393 -0.0151 -0.1729 -0.3408
  320TMC3    C2 4858   4.681   1.682  16.348  0.2915 -0.6667  0.0350
  320TMC3    C3 4859   4.582   1.631  16.271 -0.1107  0.6121 -0.0637
  320TMC3    C4 4860   0.028   1.460  16.382  0.0991  0.2630  0.1584
  320TMC3    C5 4861   4.663   1.413  16.314 -0.1436 -0.3680 -0.5866
  320TMC3    C6 4862   4.570   1.495  16.249 -0.2431  0.1797 -0.6555
  320TMC3     C 4863   0.153   1.650  16.471 -0.5801  0.0113 -0.4394
  320TMC3     O 4864   0.206   1.572  16.549 -0.0286  0.5599  0.1608
  320TMC3     H 4865   4.692   1.786  16.375 -0.4397 -0.6496  0.2549
  320TMC3    H1 4866   0.117   1.412  16.419 -0.0883  0.7270  1.2241
  320TMC3    H2 4867   4.490   1.454  16.188 -0.0177 -1.1575 -0.0515
  320TMC3    C7 4868   4.656   1.272  16.278 -0.0669 -0.3547 -0.4882
  320TMC3    C8 4869   4.520   1.734  16.194 -0.6335  0.7403  0.1370
  320TMC3    O1 4870   4.579   1.237  16.185 -0.8365 -0.1692 -0.6232
  320TMC3    O2 4871   4.584   1.837  16.174 -0.5989 -0.2221 -0.3724
  321TMC3    C1 4872   0.766   1.729  16.881  0.3974  0.1332 -0.8732
  321TMC3    C2 4873   0.716   1.604  16.896 -0.1025 -0.1222  0.6223
  321TMC3    C3 4874   0.797   1.495  16.917  0.6853 -0.3632 -0.1227
  321TMC3    C4 4875   0.902   1.748  16.897 -0.2054 -0.0929 -0.4751
  321TMC3    C5 4876   0.986   1.640  16.916 -0.0818  0.4515  0.3960
  321TMC3    C6 4877   0.933   1.508  16.905 -0.5806 -0.0544 -0.4121
  321TMC3     C 4878   0.690   1.827  16.805  1.0239 -0.2615 -0.0642
  321TMC3     O 4879   0.748   1.934  16.784 -0.1007 -0.1921  0.4978
  321TMC3     H 4880   0.610   1.585  16.907 -0.3924 -1.0780 -4.0520
  321TMC3    H1 4881   0.936   1.850  16.889 -0.0621 -0.1544 -0.6610
  321TMC3    H2 4882   0.993   1.418  16.909 -1.5303 -0.6744 -0.2260
  321TMC3    C7 4883   1.083   1.652  17.026 -0.3080 -0.4236  0.3663
  321TMC3    C8 4884   0.760   1.404  17.023 -0.1989  0.7647  0.6430
  321TMC3    O1 4885   1.106   1.550  17.094  0.4920  0.3297 -0.3522
  321TMC3    O2 4886   0.643   1.370  17.023  0.0635 -0.2613 -0.4910
  322MPD2     C 4887   3.572   3.171  13.750 -0.8102  0.1665 -0.6713
  322MPD2    C1 4888   3.696   3.127  13.792  0.1100 -0.3139  0.5643
  322MPD2    C2 4889   3.732   2.998  13.760 -0.2495 -0.6732 -0.2927
  322MPD2    C3 4890   3.646   2.915  13.694  0.3513  0.2818  0.1658
  322MPD2    C4 4891   3.528   2.966  13.641 -0.3182 -0.7334 -0.1637
  322MPD2    C5 4892   3.492   3.092  13.676 -0.1475  0.1084  0.7331
  322MPD2     H 4893   3.833   2.963  13.777 -0.1684  0.4220  1.4418
  322MPD2    H1 4894   3.468   2.902  13.577 -1.1596 -0.0121 -0.0966
  322MPD2    H2 4895   3.527   3.265  13.782 -1.1098  0.7675 -2.8711
  322MPD2    H3 4896   3.395   3.132  13.651 -1.3873 -1.4035  3.0896
  322MPD2     N 4897   3.690   2.783  13.660 -0.1967  0.4110  0.9273
  322MPD2    H5 4898   3.787   2.765  13.680 -0.1201  2.4398  2.4309
  322MPD2    N1 4899   3.778   3.208  13.874  0.1069 -0.1635 -0.1570
  322MPD2    H7 4900   3.874   3.178  13.885  0.1653 -0.5596 -1.7659
  323TMC3    C1 4901   3.835   3.377  14.029 -0.0143 -0.6729  0.8120
  323TMC3    C2 4902   3.959   3.408  13.986 -0.3537 -0.6882  0.3970
  323TMC3    C3 4903   4.058   3.421  14.076  1.4439 -0.0318 -0.2699
  323TMC3    C4 4904   3.804   3.355  14.161 -0.1754  0.2884  0.0191
  323TMC3    C5 4905   3.912   3.356  14.252 -0.2621  0.2288  0.3926
  323TMC3    C6 4906   4.041   3.384  14.207  0.5023 -0.5569  0.0225
  323TMC3     C 4907   3.737   3.327  13.939 -0.5704 -0.3954  0.3320
  323TMC3     O 4908   3.621   3.367  13.965 -0.2510 -0.1297  0.1915
  323TMC3     H 4909   3.975   3.411  13.879  2.9580 -0.6128  0.9009
  323TMC3    H1 4910   3.710   3.311  14.192 -1.2417  1.4071 -1.6503
  323TMC3    H2 4911   4.131   3.395  14.267 -1.2156 -2.6731  2.9732
  323TMC3    C7 4912   3.903   3.254  14.359 -0.2060  0.1260  0.1184
  323TMC3    C8 4913   4.196   3.442  14.026  0.1264  0.3387 -0.1137
  323TMC3    O1 4914   3.807   3.178  14.354 -0.5476  0.5581 -0.7037
  323TMC3    O2 4915   4.293   3.404  14.092 -0.0961 -0.2619 -0.1693
  324MPD2     C 4916   0.776   4.384  14.481 -0.0020 -0.4393 -0.1853
  324MPD2    C1 4917   0.813   4.495  14.415  0.2468 -0.6319  0.1882
  324MPD2    C2 4918   0.723   4.559  14.335  0.3160 -0.0269 -0.1997
  324MPD2    C3 4919   0.598   4.500  14.307  0.1355 -0.9847 -0.4074
  324MPD2    C4 4920   0.558   4.387  14.383 -0.5881 -0.2661 -0.3960
  324MPD2    C5 4921   0.643   4.348  14.479  0.1969  1.4207  0.4837
  324MPD2     H 4922   0.744   4.653  14.286  3.2609 -0.8585 -0.5342
  324MPD2    H1 4923   0.464   4.334  14.378  0.2936 -1.9699  0.7970
  324MPD2    H2 4924   0.827   4.323  14.555  4.0037  3.4306  0.2370
  324MPD2    H3 4925   0.608   4.273  14.550  0.4811  1.4078  0.6092
  324MPD2     N 4926   0.509   4.550  14.209 -0.0548  0.3078  0.0935
  324MPD2    H5 4927   0.421   4.500  14.199  1.0587 -1.2872 -1.8937
  324MPD2    N1 4928   0.934   4.556  14.421 -0.4691  0.0601  0.9465
  324MPD2    H7 4929   0.953   4.616  14.342  0.7925 -0.2655  0.9992
  325TMC3    C1 4930   0.403   4.697  14.059  0.0137 -0.2773  0.3626
  325TMC3    C2 4931   0.305   4.603  14.035 -0.0996 -0.4380  0.2799
  325TMC3    C3 4932   0.200   4.643  13.948  0.1474 -0.5521  0.6645
  325TMC3    C4 4933   0.402   0.085  14.003 -0.1539 -0.2331  0.5557
  325TMC3    C5 4934   0.298   0.114  13.919 -0.5037  0.1788 -0.2069
  325TMC3    C6 4935   0.198   0.023  13.880  0.0844 -0.4510 -0.2481
  325TMC3     C 4936   0.519   4.667  14.142  0.5081  0.6082 -0.4949
  325TMC3     O 4937   0.605   0.010  14.145 -0.2952  0.2633  0.9115
  325TMC3     H 4938   0.301   4.499  14.067 -3.3631 -0.2577  0.4950
  325TMC3    H1 4939   0.482   0.157  14.019  0.3712 -1.1547  2.0263
  325TMC3    H2 4940   0.122   0.056  13.810  0.7348 -0.9417 -1.1805
  325TMC3    C7 4941   0.278   0.250  13.879  0.7391 -0.7604  0.4430
  325TMC3    C8 4942   0.113   4.537  13.915 -1.2902  0.4213  0.6309
  325TMC3    O1 4943   0.232   0.268  13.766  0.4336  0.3557  0.4336
  325TMC3    O2 4944   0.118   4.433  13.974 -1.1584  0.1192  0.6360
  326MPD2     C 4945   2.099   0.716  11.168  0.3802 -0.1752  0.2220
  326MPD2    C1 4946   2.065   0.759  11.046 -0.1229 -0.8547 -0.4027
  326MPD2    C2 4947   2.145   0.850  10.980 -0.3009  0.2845  0.6727
  326MPD2    C3 4948   2.263   0.901  11.034 -0.2759  0.4219  0.1164
  326MPD2    C4 4949   2.295   0.862  11.161  0.2356 -0.1823 -0.4038
  326MPD2    C5 4950   2.218   0.765  11.224 -0.3215 -0.3976  0.0628
  326MPD2     H 4951   2.123   0.886  10.880 -0.7517  0.0826  0.7026
  326MPD2    H1 4952   2.376   0.910  11.215 -0.5768 -0.2195  0.8380
  326MPD2    H2 4953   2.045   0.644  11.228 -0.0597  0.1637  0.2296
  326MPD2    H3 4954   2.254   0.734  11.321  0.4399  1.8715  0.4982
  326MPD2     N 4955   2.342   1.005  10.979 -0.4924 -0.0073 -0.6850
  326MPD2    H5 4956   2.407   1.058  11.036 -0.9508 -2.1718  1.8037
  326MPD2    N1 4957   1.947   0.713  10.979  0.4742 -0.2638 -0.0346
  326MPD2    H7 4958   1.932   0.754  10.888 -1.1948  1.3812  0.9792
  327TMC3    C1 4959   1.746   0.616  10.928  0.6279  0.5254 -0.1917
  327TMC3    C2 4960   1.647   0.709  10.903  0.2574  0.4787  0.1056
  327TMC3    C3 4961   1.590   0.715  10.775 -0.1646 -0.3440  0.2770
  327TMC3    C4 4962   1.797   0.542  10.820  0.6407 -0.4493  0.4638
  327TMC3    C5 4963   1.746   0.559  10.698 -0.6276  0.1680  0.0946
  327TMC3    C6 4964   1.641   0.641  10.671 -0.0395 -0.1778  0.2728
  327TMC3     C 4965   1.846   0.633  11.028  0.6153 -0.0404 -0.3473
  327TMC3     O 4966   1.838   0.582  11.140 -0.7395 -0.9166 -0.0934
  327TMC3     H 4967   1.633   0.768  10.992 -0.2850 -0.2861  0.5268
  327TMC3    H1 4968   1.870   0.466  10.842  1.0870 -0.6751 -1.7578
  327TMC3    H2 4969   1.617   0.658  10.567 -2.1523  0.4351  0.8580
  327TMC3    C7 4970   1.847   0.571  10.588 -0.2715 -0.5460  0.7048
  327TMC3    C8 4971   1.550   0.850  10.741  0.1034 -0.2650 -0.1371
  327TMC3    O1 4972   1.816   0.614  10.479 -0.2519  0.3937  0.1536
  327TMC3    O2 4973   1.559   0.890  10.623  0.3429 -0.1724  0.1964
  328MPD2     C 4974   4.633   0.650  17.120  0.3231 -0.0988 -0.4681
  328MPD2    C1 4975   4.592   0.535  17.059  0.3861  0.2602 -0.3938
  328MPD2    C2 4976   4.515   0.547  16.948  0.4415 -0.1011 -0.3618
  328MPD2    C3 4977   4.490   0.666  16.881  0.9218  0.8837 -0.3129
  328MPD2    C4 4978   4.545   0.776  16.943  0.4957  0.2654  0.1057
  328MPD2    C5 4979   4.612   0.767  17.061 -0.1076 -0.3496  0.5297
  328MPD2     H 4980   4.455   0.459  16.925 -0.3124  0.4719 -0.6129
  328MPD2    H1 4981   4.512   0.873  16.908 -0.4994 -1.2956 -3.3190
  328MPD2    H2 4982   4.686   0.651  17.215  2.3111 -2.8717 -1.5556
  328MPD2    H3 4983   4.632   0.863  17.107 -2.0498  0.2051  0.2099
  328MPD2     N 4984   4.405   0.683  16.771 -0.5239  0.2391  0.4932
  328MPD2    H5 4985   4.387   0.782  16.759  0.8847  0.3059 -1.0513
  328MPD2    N1 4986   4.597   0.414  17.137  0.2439 -0.3459  0.2985
  328MPD2    H7 4987   4.631   0.415  17.233  2.1607 -2.3451 -0.3558
  329TMC3    C1 4988   4.540   0.184  17.159  0.2025 -0.2765  0.2083
  329TMC3    C2 4989   4.440   0.213  17.249 -0.1276 -0.6467 -0.8512
  329TMC3    C3 4990   4.337   0.125  17.263  0.1261  0.0273 -0.4810
  329TMC3    C4 4991   4.538   0.071  17.093 -0.4338  0.2195 -0.1617
  329TMC3    C5 4992   4.440   4.724  17.117  1.2569  0.0510 -0.6863
  329TMC3    C6 4993   4.339   0.004  17.206  0.6760  0.6498 -1.3012
  329TMC3     C 4994   4.576   0.295  17.077  0.2168  0.3094  0.0702
  329TMC3     O 4995   4.592   0.271  16.961  0.1178 -1.0026  0.5018
  329TMC3     H 4996   4.445   0.309  17.299 -1.3432 -1.0558  0.0573
  329TMC3    H1 4997   4.614   0.056  17.018 -1.7267 -0.8724 -1.2595
  329TMC3    H2 4998   4.264   4.669  17.226  0.7968  0.9278  0.1997
  329TMC3    C7 4999   4.423   4.603  17.039 -0.3479  0.2092  0.2980
  329TMC3    C8 5000   4.204   0.190  17.270 -0.1360 -0.0647 -0.4656
  329TMC3    O1 5001   4.371   4.505  17.089  0.2433  0.0406  0.0673
  329TMC3    O2 5002   4.124   0.135  17.194 -0.1448 -0.4490 -0.1063
  330TMC3    C1 5003   2.454   0.377   9.549 -0.2733 -0.7516  0.4015
  330TMC3    C2 5004   2.354   0.299   9.495  0.3166  0.3920  0.1359
  330TMC3    C3 5005   2.353   0.169   9.539 -0.3515 -0.2511  0.2057
  330TMC3    C4 5006   2.540   0.326   9.646 -0.2825  0.5252  0.1779
  330TMC3    C5 5007   2.529   0.200   9.688  0.5000 -0.1060 -0.6980
  330TMC3    C6 5008   2.437   0.119   9.634 -0.2345  0.3740  0.8331
  330TMC3     C 5009   2.454   0.518   9.541 -0.3239  0.0350  0.3219
  330TMC3     O 5010   2.550   0.582   9.590 -0.2964  0.1227 -0.1450
  330TMC3     H 5011   2.303   0.328   9.404 -0.1726  1.0233  0.6130
  330TMC3    H1 5012   2.601   0.399   9.698  1.1132 -0.9415  0.5858
  330TMC3    H2 5013   2.437   0.013   9.659 -0.6669 -0.2455 -1.7345
  330TMC3    C7 5014   2.641   0.152   9.764 -0.7997 -0.3331  0.5428
  330TMC3    C8 5015   2.232   0.095   9.506 -0.7227 -0.1436 -0.4881
  330TMC3    O1 5016   2.748   0.203   9.735 -0.7596  0.2483 -0.1397
  330TMC3    O2 5017   2.168   0.128   9.404  0.1276 -0.5672 -0.2505
  331MPD2     C 5018   0.532   4.123  13.158 -0.1660 -0.6862  0.3529
  331MPD2    C1 5019   0.609   4.120  13.046 -1.0323  0.1546  0.1507
  331MPD2    C2 5020   0.557   4.068  12.925  0.0009 -0.2351 -0.2319
  331MPD2    C3 5021   0.433   4.006  12.926 -0.3594  0.3205  0.5808
  331MPD2    C4 5022   0.352   4.018  13.034 -0.3200 -0.0534  0.4661
  331MPD2    C5 5023   0.402   4.074  13.148  0.3961  0.3416  0.2931
  331MPD2     H 5024   0.624   4.048  12.841 -0.9809 -0.2047 -1.0197
  331MPD2    H1 5025   0.258   3.966  13.047  0.5044 -1.4952  0.6574
  331MPD2    H2 5026   0.565   4.189  13.238  1.6754 -1.1981  0.0078
  331MPD2    H3 5027   0.333   4.089  13.230  1.6702  0.9488  1.2320
  331MPD2     N 5028   0.392   3.941  12.805  0.2921 -0.2735  0.4570
  331MPD2    H5 5029   0.455   3.928  12.726 -1.3557 -0.0473 -0.8866
  331MPD2    N1 5030   0.744   4.162  13.051 -0.7570 -0.4647  0.1355
  331MPD2    H7 5031   0.773   4.159  13.149 -0.8798  0.9211  0.2175
  332TMC3    C1 5032   0.282   3.817  12.647 -0.1872  0.0291  0.5130
  332TMC3    C2 5033   0.340   3.894  12.548 -0.4707  0.1121 -0.0101
  332TMC3    C3 5034   0.400   3.822  12.455  0.8987  0.5305 -0.3695
  332TMC3    C4 5035   0.284   3.676  12.640  0.4160  0.2927 -0.3785
  332TMC3    C5 5036   0.350   3.611  12.547  0.3374 -1.0448 -0.2958
  332TMC3    C6 5037   0.421   3.683  12.454 -0.8159  0.1093 -0.6765
  332TMC3     C 5038   0.273   3.872  12.785 -1.0496  0.2430  0.0913
  332TMC3     O 5039   0.189   3.833  12.867  0.6091 -0.1355  0.3587
  332TMC3     H 5040   0.329   4.002  12.542 -1.9365 -0.0353  0.0807
  332TMC3    H1 5041   0.245   3.625  12.728  0.0886  2.5158  0.7781
  332TMC3    H2 5042   0.482   3.637  12.377 -0.2353  1.6501 -1.1448
  332TMC3    C7 5043   0.405   3.488  12.584  0.2298  0.0251  0.2643
  332TMC3    C8 5044   0.433   3.898  12.329 -0.0447  0.6977  0.5600
  332TMC3    O1 5045   0.344   3.433  12.674  0.1218 -0.2699 -0.4615
  332TMC3    O2 5046   0.475   4.011  12.346 -0.1578  0.4382  0.2524
  333MPD2     C 5047   0.447   3.894  11.402  0.0642  0.4588  0.3342
  333MPD2    C1 5048   0.509   3.840  11.290 -0.0671  0.3044  0.0341
  333MPD2    C2 5049   0.467   3.712  11.245  0.7238 -0.1471 -0.4299
  333MPD2    C3 5050   0.373   3.632  11.311  0.5138  0.0523  0.3110
  333MPD2    C4 5051   0.312   3.690  11.423  0.0467 -0.3209  0.3094
  333MPD2    C5 5052   0.350   3.820  11.464  0.3769 -0.4054  0.6972
  333MPD2     H 5053   0.503   3.676  11.149  2.3232  1.0658 -0.2823
  333MPD2    H1 5054   0.231   3.639  11.474 -0.1534 -1.0481 -0.7400
  333MPD2    H2 5055   0.468   3.995  11.435  0.8781  0.5122 -0.3690
  333MPD2    H3 5056   0.300   3.882  11.538  0.7990 -1.0701  1.5255
  333MPD2     N 5057   0.351   3.498  11.269 -0.7939 -0.6738 -0.2003
  333MPD2    H5 5058   0.397   3.471  11.182 -2.7479  0.2679 -1.5248
  333MPD2    N1 5059   0.605   3.914  11.222  0.5404 -0.1556  0.5368
  333MPD2    H7 5060   0.616   4.010  11.252  2.2508 -0.1570 -0.0817
  334TMC3    C1 5061   0.764   3.974  11.056  0.3449  0.6077 -0.4353
  334TMC3    C2 5062   0.878   3.939  10.991  0.7142  0.0436  0.4809
  334TMC3    C3 5063   0.965   4.038  10.958  0.1945 -0.4685  0.0222
  334TMC3    C4 5064   0.730   4.105  11.080  0.2494  0.4517 -0.2106
  334TMC3    C5 5065   0.818   4.202  11.031  0.0928 -0.8624  0.1270
  334TMC3    C6 5066   0.938   4.168  10.968 -0.2517 -1.0975 -0.5288
  334TMC3     C 5067   0.686   3.869  11.118  0.0379  0.3170  0.2637
  334TMC3     O 5068   0.696   3.759  11.072  0.0393 -0.0722  0.2341
  334TMC3     H 5069   0.898   3.835  10.968  0.9303  0.0661  0.5675
  334TMC3    H1 5070   0.644   4.132  11.140  0.1139 -1.0647  0.2710
  334TMC3    H2 5071   1.010   4.245  10.939 -1.6764  0.4777  0.1127
  334TMC3    C7 5072   0.792   4.345  11.054  0.2861 -0.2125  0.2925
  334TMC3    C8 5073   1.061   4.007  10.855  0.1129  0.3962 -0.0038
  334TMC3    O1 5074   0.893   4.405  11.087 -0.4389  0.0628 -0.2253
  334TMC3    O2 5075   1.029   3.915  10.784 -0.0413  0.3046 -0.1459
  335TMC3    C1 5076   0.574   0.516  17.606  0.3333 -0.1224  0.3779
  335TMC3    C2 5077   0.513   0.494  17.489 -0.4002  0.4408 -0.6603
  335TMC3    C3 5078   0.589   0.523  17.380  0.8725  0.1025 -0.7508
  335TMC3    C4 5079   0.700   0.578  17.616 -0.4211  0.1059 -0.3332
  335TMC3    C5 5080   0.762   0.607  17.505 -0.2335 -0.4718 -0.7502
  335TMC3    C6 5081   0.711   0.577  17.387  0.1096 -0.6199 -0.0773
  335TMC3     C 5082   0.512   0.448  17.722  0.9066 -0.1703  0.2123
  335TMC3     O 5083   0.421   0.371  17.705 -0.3520  0.3161  0.2912
  335TMC3     H 5084   0.407   0.469  17.489  0.3217 -2.5955 -0.1149
  335TMC3    H1 5085   0.752   0.593  17.710 -0.9689  1.8973 -0.3154
  335TMC3    H2 5086   0.758   0.594  17.291 -0.8464  0.7576 -0.3035
  335TMC3    C7 5087   0.900   0.667  17.502  0.2170 -0.4892  0.5522
  335TMC3    C8 5088   0.535   0.510  17.249  0.6599  0.8051  0.0418
  335TMC3    O1 5089   0.949   0.674  17.394  0.0245  0.0316 -0.1273
  335TMC3    O2 5090   0.599   0.540  17.152 -0.7247  0.5187 -0.5294
  336MPD2     C 5091   4.612   3.134  16.102 -0.3381  0.4112 -0.4977
  336MPD2    C1 5092   4.681   3.107  15.988 -0.5870 -0.1417 -0.3861
  336MPD2    C2 5093   4.714   2.974  15.966 -0.0058  0.1334 -0.0265
  336MPD2    C3 5094   4.669   2.871  16.050 -0.9094 -0.3444  0.1056
  336MPD2    C4 5095   4.601   2.905  16.165 -0.3891 -0.0454  0.0864
  336MPD2    C5 5096   4.589   3.040  16.199  0.1109  0.2653  0.1441
  336MPD2     H 5097   0.032   2.945  15.879 -0.3944 -0.8137  0.0287
  336MPD2    H1 5098   4.560   2.831  16.234 -0.7134 -1.0584 -1.1908
  336MPD2    H2 5099   4.586   3.238  16.119  1.2824  0.4776  1.5223
  336MPD2    H3 5100   4.533   3.070  16.287  0.6322  1.2949  0.1224
  336MPD2     N 5101   4.704   2.738  16.029  0.2927 -0.1170  0.0432
  336MPD2    H5 5102   4.687   2.673  16.104  0.7415  1.0841  1.1968
  336MPD2    N1 5103   4.711   3.213  15.900  0.6896  0.2264  0.1582
  336MPD2    H7 5104   4.641   3.287  15.906 -0.4610 -0.7815 -0.7743
  337TMC3    C1 5105   0.024   3.317  15.702 -0.0499 -0.3071 -0.0432
  337TMC3    C2 5106   4.648   3.388  15.717  0.8016 -0.5538  1.0365
  337TMC3    C3 5107   4.591   3.423  15.599  0.4090  0.1688  0.0058
  337TMC3    C4 5108   0.071   3.279  15.578  0.3492 -0.0647  0.2269
  337TMC3    C5 5109   0.012   3.331  15.467 -0.1559  0.0052 -0.2008
  337TMC3    C6 5110   4.638   3.401  15.471 -0.8108  0.3640 -0.1059
  337TMC3     C 5111   0.061   3.216  15.801  0.8995 -0.4299  0.4925
  337TMC3     O 5112   0.168   3.156  15.793  0.2283  0.1195  0.5544
  337TMC3     H 5113   4.613   3.418  15.815 -0.9405  1.1564 -0.1225
  337TMC3    H1 5114   0.151   3.205  15.572  1.1108  0.7044  0.9243
  337TMC3    H2 5115   4.587   3.435  15.382 -0.2956  0.1828 -0.4693
  337TMC3    C7 5116   0.049   3.262  15.344  0.1162  0.7218  0.0681
  337TMC3    C8 5117   4.449   3.439  15.625  0.0139 -0.5107 -0.6127
  337TMC3    O1 5118   4.706   3.265  15.254  0.4368 -0.2539  0.0581
  337TMC3    O2 5119   4.405   3.457  15.737 -0.0565  0.0100 -0.1496
  338MPD2     C 5120   0.789   2.808   0.990 -0.2046 -0.4950  0.2818
  338MPD2    C1 5121   0.693   2.787   0.890  0.5232 -0.0982  0.1828
  338MPD2    C2 5122   0.593   2.882   0.873  0.7066  0.1694  0.2031
  338MPD2    C3 5123   0.582   2.990   0.958 -0.0638  0.3136 -0.1816
  338MPD2    C4 5124   0.677   3.004   1.062 -0.0939 -0.0226  0.6448
  338MPD2    C5 5125   0.785   2.918   1.067 -0.8016 -0.7715  0.4558
  338MPD2     H 5126   0.517   2.877   0.796  0.9015  0.7179 -0.0221
  338MPD2    H1 5127   0.658   3.089   1.128 -1.8532  0.1007 -0.0103
  338MPD2    H2 5128   0.877   2.747   1.007  0.8051  0.4325 -1.6365
  338MPD2    H3 5129   0.860   2.937   1.143 -0.0685  1.2628 -0.7736
  338MPD2     N 5130   0.464   3.059   0.940 -0.1477 -0.4295 -0.3074
  338MPD2    H5 5131   0.399   3.025   0.870 -0.5226  1.5522 -0.9225
  338MPD2    N1 5132   0.710   2.678   0.795 -0.3119  0.1045 -0.1624
  338MPD2    H7 5133   0.628   2.665   0.736 -0.7796 -1.4895  0.8425
  339TMC3    C1 5134   0.302   3.213   0.968 -0.3030  0.1111 -0.2881
  339TMC3    C2 5135   0.216   3.254   1.063 -0.5743  0.1185 -0.3521
  339TMC3    C3 5136   0.081   3.255   1.040  0.0263  0.3936 -0.0424
  339TMC3    C4 5137   0.254   3.162   0.854  0.1073  0.4391 -0.0755
  339TMC3    C5 5138   0.118   3.141   0.840 -0.6214  0.4274  0.3580
  339TMC3    C6 5139   0.025   3.187   0.930  0.0157  0.3313  0.0183
  339TMC3     C 5140   0.430   3.168   1.019 -0.3783 -0.4018 -0.2833
  339TMC3     O 5141   0.483   3.229   1.112  0.4155 -0.1775  0.8460
  339TMC3     H 5142   0.253   3.295   1.156 -2.2248  2.5480 -0.7477
  339TMC3    H1 5143   0.327   3.129   0.782 -0.0190 -2.5643  1.1754
  339TMC3    H2 5144   4.661   3.191   0.903 -0.1456  0.9680  0.7356
  339TMC3    C7 5145   0.071   3.071   0.725 -0.1538 -0.7079  0.3037
  339TMC3    C8 5146   4.735   3.328   1.123 -0.0997  0.1209 -0.6387
  339TMC3    O1 5147   0.149   3.048   0.636 -0.5324 -0.1113 -0.2252
  339TMC3    O2 5148   0.046   3.408   1.198  0.1826  0.8015 -0.2765
  340MPD2     C 5149   0.097   4.616  10.058 -0.4956  0.1907 -0.4069
  340MPD2    C1 5150   0.199   4.704  10.028 -0.0072  0.2576 -0.7647
  340MPD2    C2 5151   0.267   0.033  10.125  0.4104  0.5853  1.0927
  340MPD2    C3 5152   0.240   0.019  10.258 -0.1641  0.6826  0.2846
  340MPD2    C4 5153   0.141   4.667  10.290  0.2676  0.6842 -0.6893
  340MPD2    C5 5154   0.075   4.598  10.191  0.0484  0.7872  0.6047
  340MPD2     H 5155   0.355   0.088  10.093 -1.2342  1.5290 -1.8113
  340MPD2    H1 5156   0.109   4.642  10.390 -0.0360 -0.2019 -1.0071
  340MPD2    H2 5157   0.046   4.561   9.980  1.6930  1.6012 -2.8558
  340MPD2    H3 5158   0.000   4.524  10.219 -0.0452  0.5890 -0.1819
  340MPD2     N 5159   0.320   0.085  10.355  0.8962 -0.6475  0.8254
  340MPD2    H5 5160   0.312   0.062  10.454 -0.2245  2.2611  1.4074
  340MPD2    N1 5161   0.234   4.713   9.889 -0.1224 -0.2924 -0.4168
  340MPD2    H7 5162   0.165   4.687   9.820 -0.4737 -0.1270 -0.1320
  341TMC3    C1 5163   0.350   0.022   9.694 -0.1350 -1.0655 -0.7503
  341TMC3    C2 5164   0.334   4.638   9.653  0.3285 -0.3678  0.8472
  341TMC3    C3 5165   0.342   4.609   9.524 -0.3854  0.2016  0.2673
  341TMC3    C4 5166   0.366   0.129   9.607  0.4760 -0.0839 -0.0634
  341TMC3    C5 5167   0.389   0.102   9.471 -0.3077  0.2035 -0.0162
  341TMC3    C6 5168   0.366   4.701   9.428  0.1529  0.2786  0.3692
  341TMC3     C 5169   0.330   0.049   9.835 -0.3812 -0.3138  0.6659
  341TMC3     O 5170   0.392   0.142   9.888 -0.1560 -0.6069  0.6517
  341TMC3     H 5171   0.324   4.554   9.720  1.2086 -0.7838  0.4451
  341TMC3    H1 5172   0.361   0.232   9.642 -0.8201  0.0248 -0.5807
  341TMC3    H2 5173   0.378   4.693   9.320 -0.6234  2.2696  0.1423
  341TMC3    C7 5174   0.464   0.191   9.387 -0.6619 -0.3272  0.1673
  341TMC3    C8 5175   0.296   4.477   9.495  0.3903 -0.3123  0.3804
  341TMC3    O1 5176   0.440   0.180   9.264 -0.0017  0.4571  0.2104
  341TMC3    O2 5177   0.242   4.416   9.586 -0.6617  0.1717 -0.2800
  342MPD2     C 5178   2.987   3.572  17.361 -0.2302 -0.1110 -0.2170
  342MPD2    C1 5179   3.110   3.579  17.292  0.4392  0.7490  0.9346
  342MPD2    C2 5180   3.186   3.694  17.313 -0.0859  0.0021  0.1255
  342MPD2    C3 5181   3.149   3.793  17.401  1.0471 -0.3697  0.7184
  342MPD2    C4 5182   3.026   3.784  17.462 -0.4959 -0.8882 -0.5872
  342MPD2    C5 5183   2.945   3.675  17.444 -0.3252 -0.2476 -1.0246
  342MPD2     H 5184   3.279   3.703  17.258 -0.2551  0.6054 -0.0538
  342MPD2    H1 5185   2.991   3.873  17.514  2.3235  0.2322 -0.5483
  342MPD2    H2 5186   2.922   3.484  17.357  0.5382 -0.5948 -1.8264
  342MPD2    H3 5187   2.852   3.660  17.498 -0.5106  1.5747 -0.8171
  342MPD2     N 5188   3.241   3.897  17.430 -0.3401  0.5824  0.1790
  342MPD2    H5 5189   3.199   3.973  17.483 -0.3582  0.9115 -0.3023
  342MPD2    N1 5190   3.151   3.480  17.204  0.1752  0.6143 -0.4610
  342MPD2    H7 5191   3.236   3.483  17.150  0.2233  1.9683 -0.3040
  343TMC3    C1 5192   3.167   3.249  17.123 -0.2709  0.3690  0.5723
  343TMC3    C2 5193   3.299   3.263  17.106  0.3814  0.0598 -0.6882
  343TMC3    C3 5194   3.363   3.176  17.020  0.4075 -0.0032 -0.6948
  343TMC3    C4 5195   3.102   3.138  17.086  0.2545  0.0388 -0.1454
  343TMC3    C5 5196   3.177   3.043  17.022 -0.4185 -0.1765  0.0831
  343TMC3    C6 5197   3.304   3.059  16.982 -0.3550  0.0767  0.1662
  343TMC3     C 5198   3.088   3.357  17.182  0.1195  0.1953 -0.3498
  343TMC3     O 5199   2.990   3.303  17.231 -0.3321 -0.9031 -0.0045
  343TMC3     H 5200   3.348   3.350  17.148  0.0085 -0.2948  0.4818
  343TMC3    H1 5201   2.994   3.129  17.095  0.1210  2.0097  0.2589
  343TMC3    H2 5202   3.348   2.979  16.923  1.2654 -0.2129  1.7601
  343TMC3    C7 5203   3.118   2.916  16.986 -0.3461  0.2230  0.2778
  343TMC3    C8 5204   3.510   3.190  16.999 -0.7117 -0.1685 -0.3412
  343TMC3    O1 5205   3.181   2.844  16.914 -0.1337 -0.5253  0.1971
  343TMC3    O2 5206   3.553   3.290  17.057 -0.0668  0.0422  0.1672
  344MPD2     C 5207   3.876   3.063   9.843  0.4071 -0.2770  0.0195
  344MPD2    C1 5208   3.909   3.075   9.979  0.3397  0.1947  0.7861
  344MPD2    C2 5209   4.024   3.149  10.010 -0.5905 -0.1382  0.9693
  344MPD2    C3 5210   4.101   3.215   9.912  0.2895  0.1281  0.8841
  344MPD2    C4 5211   4.059   3.207   9.784 -0.4861 -0.0388 -0.5700
  344MPD2    C5 5212   3.945   3.138   9.756  0.0301  0.2422 -0.3178
  344MPD2     H 5213   4.055   3.154  10.113  2.4971 -0.8081  0.0821
  344MPD2    H1 5214   4.101   3.266   9.703  0.2068  2.0807  1.3574
  344MPD2    H2 5215   3.788   3.015   9.802  0.8829  1.0632 -2.5828
  344MPD2    H3 5216   3.904   3.142   9.656 -2.4186  2.3721  0.7745
  344MPD2     N 5217   4.215   3.296   9.936  0.6751 -0.0978  0.0737
  344MPD2    H5 5218   4.254   3.345   9.856  1.0050 -1.7524 -0.7691
  344MPD2    N1 5219   3.842   3.014  10.086 -0.4100  0.1020  0.3280
  344MPD2    H7 5220   3.864   3.042  10.181 -0.7293  2.0344 -0.1657
  345TMC3    C1 5221   4.346   3.452  10.050 -0.4886 -0.1695  0.2982
  345TMC3    C2 5222   4.425   3.479  10.161  0.6400 -0.0116  0.8151
  345TMC3    C3 5223   4.518   3.577  10.151 -0.2406  0.1280 -0.1252
  345TMC3    C4 5224   4.350   3.534   9.935  0.1847 -0.0206  0.9118
  345TMC3    C5 5225   4.428   3.647   9.943  0.0586 -0.3260  0.2756
  345TMC3    C6 5226   4.520   3.662  10.040 -0.1560 -0.9904  0.1184
  345TMC3     C 5227   4.261   3.336  10.059 -0.9475 -0.2748  0.0533
  345TMC3     O 5228   4.238   3.295  10.171  0.6176 -0.1044  0.2605
  345TMC3     H 5229   4.414   3.412  10.246  2.1567 -0.8390  0.3611
  345TMC3    H1 5230   4.280   3.523   9.853  0.1978  0.9906  0.7602
  345TMC3    H2 5231   4.594   3.742  10.041  1.1121 -2.1494 -1.4877
  345TMC3    C7 5232   4.390   3.763   9.876 -0.2131  0.2896  0.1590
  345TMC3    C8 5233   4.556   3.642  10.272  0.1289 -0.1582  0.1909
  345TMC3    O1 5234   4.431   3.870   9.916  0.1831 -0.3412  0.4232
  345TMC3    O2 5235   4.589   3.756  10.263  0.0454  0.4604  0.3457
  346MPD2     C 5236   4.247   0.335  14.133  0.4067 -0.3860 -0.2709
  346MPD2    C1 5237   4.347   0.368  14.051  0.5605  0.0384  0.2000
  346MPD2    C2 5238   4.465   0.421  14.098 -0.3787  0.0881  0.2571
  346MPD2    C3 5239   4.478   0.448  14.234  0.7853  0.1276 -0.0334
  346MPD2    C4 5240   4.384   0.403  14.322 -0.1098  0.0379 -0.0709
  346MPD2    C5 5241   4.272   0.341  14.270 -0.0688 -0.2458 -0.0115
  346MPD2     H 5242   4.539   0.434  14.020  1.1253 -0.2610  1.6487
  346MPD2    H1 5243   4.396   0.404  14.429  1.9800  1.5104 -0.3226
  346MPD2    H2 5244   4.155   0.287  14.099 -0.3942  0.4086  0.7874
  346MPD2    H3 5245   4.192   0.309  14.337 -0.3234  0.4192  0.0039
  346MPD2     N 5246   4.599   0.504  14.275 -0.3025  0.0822 -0.3218
  346MPD2    H5 5247   4.659   0.524  14.196  1.2983 -1.6114  0.4443
  346MPD2    N1 5248   4.323   0.338  13.916  0.1046  0.2341  0.4798
  346MPD2    H7 5249   4.228   0.322  13.887  0.3522  0.7160 -0.5904
  347TMC3    C1 5250   0.063   0.524  14.397  0.0274 -0.7526 -0.0171
  347TMC3    C2 5251   0.139   0.613  14.318  0.2869 -0.3513 -0.6294
  347TMC3    C3 5252   0.269   0.620  14.347  0.3505 -0.2879  0.2499
  347TMC3    C4 5253   0.119   0.448  14.495 -0.1732 -0.7258  0.2761
  347TMC3    C5 5254   0.256   0.466  14.520  0.2820  0.5575  0.0992
  347TMC3    C6 5255   0.333   0.555  14.452  0.0041  0.0434  0.0422
  347TMC3     C 5256   4.658   0.512  14.400 -0.3636 -0.0474  0.2660
  347TMC3     O 5257   4.606   0.465  14.496  0.3990 -0.7636  0.3124
  347TMC3     H 5258   0.094   0.674  14.240 -0.8253 -0.1172  0.1983
  347TMC3    H1 5259   0.067   0.360  14.530 -1.4433 -0.2167 -0.3349
  347TMC3    H2 5260   0.441   0.553  14.463 -0.2018 -0.3297  1.9327
  347TMC3    C7 5261   0.322   0.355  14.596 -0.2521  0.4913 -0.2928
  347TMC3    C8 5262   0.344   0.744  14.305 -0.9564  0.0104 -0.6347
  347TMC3    O1 5263   0.259   0.250  14.619  0.5803  0.1276  0.1590
  347TMC3    O2 5264   0.376   0.816  14.400  0.3616  0.0885  0.0673
  348MPD2     C 5265   3.028   4.453  11.929  0.6009 -0.0056 -0.2253
  348MPD2    C1 5266   2.979   4.387  11.818  0.1790 -0.0140  0.2246
  348MPD2    C2 5267   2.986   4.455  11.695  0.1851 -0.4748 -0.4500
  348MPD2    C3 5268   3.026   4.586  11.683 -0.3681  0.9757  0.1571
  348MPD2    C4 5269   3.079   4.647  11.797 -0.5173 -0.1435  0.6971
  348MPD2    C5 5270   3.086   4.579  11.915  0.1150  0.1874  0.0678
  348MPD2     H 5271   2.948   4.408  11.606 -0.3759  1.3180 -1.1699
  348MPD2    H1 5272   3.130   0.002  11.791 -0.5836 -0.2056 -0.8509
  348MPD2    H2 5273   3.025   4.415  12.030  0.4680 -0.4867 -0.4095
  348MPD2    H3 5274   3.121   4.631  12.004  2.1634 -0.0224 -0.6159
  348MPD2     N 5275   3.001   4.651  11.557  1.1403 -0.4101  0.1732
  348MPD2    H5 5276   2.986   4.594  11.475 -0.8464 -0.0102  0.2724
  348MPD2    N1 5277   2.923   4.261  11.821  0.2016  0.0282 -0.5478
  348MPD2    H7 5278   2.895   4.222  11.731  1.1025 -3.6133  0.7250
  349TMC3    C1 5279   2.919   4.031  11.892 -0.1875 -0.2993  0.1989
  349TMC3    C2 5280   2.931   3.944  12.002  0.0770 -0.9077  0.5237
  349TMC3    C3 5281   2.890   3.818  11.994  0.6283 -0.4198 -0.3650
  349TMC3    C4 5282   2.878   3.980  11.767  0.9920 -0.0611  0.5091
  349TMC3    C5 5283   2.861   3.843  11.759  0.6644 -0.2248 -0.6368
  349TMC3    C6 5284   2.863   3.761  11.870 -0.6989  0.1629  0.2492
  349TMC3     C 5285   2.941   4.173  11.925 -0.8514 -0.5204 -0.3015
  349TMC3     O 5286   2.979   4.203  12.035  0.0009 -0.3443 -0.2458
  349TMC3     H 5287   2.963   3.982  12.098  1.2965 -0.6251  0.0173
  349TMC3    H1 5288   2.837   4.047  11.693  0.3256  1.0842  1.8964
  349TMC3    H2 5289   2.852   3.654  11.856  1.9142 -0.0090 -0.5907
  349TMC3    C7 5290   2.832   3.793  11.626  0.5141 -0.1616  0.1612
  349TMC3    C8 5291   2.916   3.727  12.105  0.1249  0.2090  0.1371
  349TMC3    O1 5292   2.776   3.685  11.607  0.1216 -0.4351 -0.1234
  349TMC3    O2 5293   2.977   3.776  12.196 -0.4549 -0.3187 -0.1190
  350MPD2     C 5294   2.475   2.458   9.862  0.7614  0.2827 -0.4210
  350MPD2    C1 5295   2.522   2.332   9.910  0.1479  0.9714  0.3462
  350MPD2    C2 5296   2.476   2.297  10.034 -0.1948 -0.2183 -0.0441
  350MPD2    C3 5297   2.395   2.377  10.110 -0.5665  0.3260  0.7110
  350MPD2    C4 5298   2.359   2.501  10.061 -0.1543  0.3619  0.2480
  350MPD2    C5 5299   2.403   2.538   9.941  0.0261  0.1654 -0.1110
  350MPD2     H 5300   2.514   2.201  10.069  0.9298  0.7754  1.4166
  350MPD2    H1 5301   2.289   2.565  10.114  0.0898  1.6421 -0.9734
  350MPD2    H2 5302   2.492   2.482   9.757  0.6403  1.9249 -0.0756
  350MPD2    H3 5303   2.357   2.622   9.889  0.9588  0.3234 -0.6710
  350MPD2     N 5304   2.354   2.321  10.234 -0.4297  0.4988  0.1610
  350MPD2    H5 5305   2.367   2.221  10.241  0.6042  0.5910 -0.3981
  350MPD2    N1 5306   2.604   2.251   9.832  0.1698 -0.1054 -0.2096
  350MPD2    H7 5307   2.616   2.155   9.866  1.8699 -0.6247 -2.3107
  351TMC3    C1 5308   2.777   2.190   9.676  0.8207 -0.0822 -0.3852
  351TMC3    C2 5309   2.757   2.053   9.702 -0.5865 -0.1406  0.2834
  351TMC3    C3 5310   2.843   1.968   9.640  0.0244 -0.3739 -0.2743
  351TMC3    C4 5311   2.881   2.233   9.604 -0.3940  0.9154 -0.3409
  351TMC3    C5 5312   2.968   2.137   9.558  0.0470 -0.3762 -0.3885
  351TMC3    C6 5313   2.942   2.006   9.559 -0.0999  0.5692  0.0342
  351TMC3     C 5314   2.689   2.295   9.728  0.1729 -0.7499 -0.0310
  351TMC3     O 5315   2.706   2.404   9.680  0.4344 -0.4744 -0.3649
  351TMC3     H 5316   2.658   2.023   9.735 -0.8284  0.8360  0.4587
  351TMC3    H1 5317   2.902   2.338   9.586  1.1670  0.6917  0.2497
  351TMC3    H2 5318   3.007   1.926   9.525  0.0423 -0.1872  2.0366
  351TMC3    C7 5319   3.079   2.179   9.476  0.1875 -0.5895 -0.4843
  351TMC3    C8 5320   2.798   1.834   9.615 -0.4560  0.3549 -0.5269
  351TMC3    O1 5321   3.130   2.283   9.510  0.0371 -0.4394 -0.1628
  351TMC3    O2 5322   2.862   1.773   9.530 -0.2552  0.0702  0.0996
  352MPD2     C 5323   0.723   0.118   0.959  0.4943  0.8567 -0.1872
  352MPD2    C1 5324   0.628   0.075   0.871  0.3937  0.0377 -0.4974
  352MPD2    C2 5325   0.644   4.688   0.811  0.0276 -0.1046 -0.3049
  352MPD2    C3 5326   0.744   4.600   0.853 -0.5572  0.3895 -0.6998
  352MPD2    C4 5327   0.842   4.647   0.937  0.1430  0.7205 -0.4039
  352MPD2    C5 5328   0.833   0.039   0.973 -0.1311  0.2659 -0.2254
  352MPD2     H 5329   0.569   4.663   0.736 -1.2722  0.4926  0.7885
  352MPD2    H1 5330   0.925   4.586   0.969 -0.3679  1.1238  1.6796
  352MPD2    H2 5331   0.722   0.213   1.012 -1.0290  0.7463 -0.0165
  352MPD2    H3 5332   0.908   0.082   1.039 -0.4877  0.7339 -0.1259
  352MPD2     N 5333   0.751   4.462   0.815 -0.6548  0.1574 -0.2229
  352MPD2    H5 5334   0.836   4.410   0.830 -0.7747 -0.8567 -2.9580
  352MPD2    N1 5335   0.511   0.160   0.854 -0.3057 -0.1966  0.6370
  352MPD2    H7 5336   0.503   0.233   0.924  0.6808 -1.2261  1.8228
  353TMC3    C1 5337   0.676   4.247   0.740 -0.8239  0.3547  0.7709
  353TMC3    C2 5338   0.796   4.194   0.770 -0.2391 -0.2619  0.4500
  353TMC3    C3 5339   0.805   4.057   0.767 -0.9656  0.2177 -0.1527
  353TMC3    C4 5340   0.567   4.174   0.708 -0.1044  0.5354  0.0782
  353TMC3    C5 5341   0.583   4.035   0.705 -0.4186  0.1181 -0.1129
  353TMC3    C6 5342   0.703   3.978   0.731  0.3411  0.1593 -0.0586
  353TMC3     C 5343   0.659   4.394   0.740 -0.1490 -0.1055  0.2251
  353TMC3     O 5344   0.550   4.436   0.700  0.8319  0.2988 -0.1721
  353TMC3     H 5345   0.885   4.254   0.784  0.5032 -0.6953 -2.3848
  353TMC3    H1 5346   0.475   4.223   0.677  0.3312  1.9052  0.9502
  353TMC3    H2 5347   0.721   3.872   0.714  0.8164  0.3917 -1.0034
  353TMC3    C7 5348   0.472   3.947   0.664  0.4197 -0.5688  0.0080
  353TMC3    C8 5349   0.906   3.996   0.853  0.1050  0.0558 -0.1615
  353TMC3    O1 5350   0.500   3.845   0.604  0.5746  0.6779  0.3110
  353TMC3    O2 5351   0.928   4.058   0.956  0.5467 -0.2677 -0.3416
  354TMC3    C1 5352   2.056   0.994  13.566 -0.9637  0.2127  0.8125
  354TMC3    C2 5353   2.035   1.125  13.563 -0.5333  1.1133 -0.9140
  354TMC3    C3 5354   2.042   1.190  13.445  0.0801  0.7382  0.8251
  354TMC3    C4 5355   2.079   0.915  13.455  0.1580 -0.0354  0.2962
  354TMC3    C5 5356   2.081   0.992  13.337  0.0067  0.0868 -0.9778
  354TMC3    C6 5357   2.069   1.126  13.329 -0.1102  0.3499 -0.7397
  354TMC3     C 5358   2.066   0.939  13.702 -0.1391 -0.4279  0.1016
  354TMC3     O 5359   2.010   0.998  13.789  0.4999  0.3935  0.8067
  354TMC3     H 5360   1.990   1.181  13.644  0.6447 -2.5998  2.2906
  354TMC3    H1 5361   2.067   0.808  13.449  0.8295 -0.0936  0.0096
  354TMC3    H2 5362   2.064   1.173  13.232 -1.1667 -0.4853 -1.0773
  354TMC3    C7 5363   2.154   0.920  13.232  0.5230  0.4809 -0.3806
  354TMC3    C8 5364   1.992   1.328  13.444 -0.2401  0.6171 -0.2416
  354TMC3    O1 5365   2.162   0.798  13.254  0.3875 -0.2129 -0.3610
  354TMC3    O2 5366   1.948   1.378  13.550 -0.1592  0.0346  0.0665
  355MPD2     C 5367   1.910   1.906  11.849  1.2221  0.0621 -0.4458
  355MPD2    C1 5368   2.017   1.852  11.776 -0.2862  0.0881 -0.7523
  355MPD2    C2 5369   2.102   1.758  11.834  0.4924  0.2568  0.1608
  355MPD2    C3 5370   2.073   1.714  11.966 -0.0897 -0.2976 -0.5841
  355MPD2    C4 5371   1.954   1.755  12.034  0.0188 -0.0262 -1.1193
  355MPD2    C5 5372   1.885   1.858  11.975 -0.5900  0.3468  0.5632
  355MPD2     H 5373   2.189   1.727  11.778 -0.3115 -0.3341 -0.7639
  355MPD2    H1 5374   1.915   1.718  12.128  2.9538 -0.0095  0.1147
  355MPD2    H2 5375   1.842   1.981  11.809  1.8662  0.8501 -0.0700
  355MPD2    H3 5376   1.792   1.891  12.020  0.1931 -1.5990  3.5588
  355MPD2     N 5377   2.174   1.663  12.052 -0.4828 -0.5870  0.1647
  355MPD2    H5 5378   2.155   1.669  12.151  1.7174 -2.2472  0.6940
  355MPD2    N1 5379   2.042   1.916  11.653 -0.5079 -0.5952  0.2778
  355MPD2    H7 5380   1.991   2.000  11.626 -0.2530 -0.3268  0.6155
  356TMC3    C1 5381   2.401   1.647  12.076  0.6981  0.4588 -0.0152
  356TMC3    C2 5382   2.519   1.644  12.001  0.2826  0.0840  0.4329
  356TMC3    C3 5383   2.618   1.737  12.023 -0.6056  0.1336  0.2119
  356TMC3    C4 5384   2.389   1.743  12.173 -0.6391 -0.5367 -0.1828
  356TMC3    C5 5385   2.486   1.832  12.189 -0.3160  0.1861 -0.8262
  356TMC3    C6 5386   2.605   1.831  12.119  0.3376 -0.0794 -0.1279
  356TMC3     C 5387   2.284   1.584  12.010 -0.3935  0.7373  0.3478
  356TMC3     O 5388   2.309   1.536  11.900  0.2631  0.2549  0.2476
  356TMC3     H 5389   2.540   1.566  11.929  0.4753  1.3849 -0.9091
  356TMC3    H1 5390   2.305   1.741  12.242  0.3794  1.7944  1.1472
  356TMC3    H2 5391   2.675   1.914  12.126 -0.1587  0.1685  1.8263
  356TMC3    C7 5392   2.476   1.918  12.303 -0.2038 -0.0178  0.6072
  356TMC3    C8 5393   2.700   1.771  11.906  0.0615  0.3660  0.2603
  356TMC3    O1 5394   2.394   1.891  12.393  0.1375  0.1246 -0.1419
  356TMC3    O2 5395   2.746   1.677  11.843 -0.3645 -0.0583  0.1874
  357MPD2     C 5396   2.426   1.345   0.570  0.2494  0.7791 -0.1689
  357MPD2    C1 5397   2.352   1.238   0.613 -0.0020 -0.0209  0.2698
  357MPD2    C2 5398   2.220   1.266   0.638  0.0782 -1.1076 -0.6201
  357MPD2    C3 5399   2.167   1.390   0.631  0.0162  0.3568  0.2630
  357MPD2    C4 5400   2.244   1.494   0.583 -0.1634  0.2774  0.2343
  357MPD2    C5 5401   2.371   1.470   0.554 -0.0188 -0.1932 -0.3360
  357MPD2     H 5402   2.147   1.200   0.683  1.1258 -1.2124  0.9267
  357MPD2    H1 5403   2.210   1.596   0.569 -1.5227  0.0026  1.4984
  357MPD2    H2 5404   2.531   1.329   0.549  0.0002 -1.2238  0.1887
  357MPD2    H3 5405   2.430   1.545   0.503 -0.9436  0.0205 -1.0979
  357MPD2     N 5406   2.033   1.411   0.653  0.1513  0.1230 -0.7294
  357MPD2    H5 5407   1.973   1.329   0.661 -0.1729  0.2085 -2.3195
  357MPD2    N1 5408   2.405   1.109   0.613 -0.3616  0.0637  0.0712
  357MPD2    H7 5409   2.502   1.110   0.584 -0.2627 -1.4658  0.3672
  358TMC3    C1 5410   2.442   0.885   0.610  0.7675 -0.0429  0.1960
  358TMC3    C2 5411   2.514   0.901   0.499 -0.3555  0.0096 -0.4325
  358TMC3    C3 5412   2.573   0.784   0.455  0.1778 -0.3558 -0.1364
  358TMC3    C4 5413   2.435   0.776   0.687  0.4335 -0.5082  0.0605
  358TMC3    C5 5414   2.515   0.672   0.650 -0.2022  0.3172  0.0583
  358TMC3    C6 5415   2.576   0.673   0.529 -0.0309 -0.1198  0.6775
  358TMC3     C 5416   2.347   0.989   0.643 -0.7889  0.5193 -0.0118
  358TMC3     O 5417   2.239   0.952   0.692 -0.3110 -0.3225  0.1445
  358TMC3     H 5418   2.500   0.987   0.434  2.3034  1.6445  1.1400
  358TMC3    H1 5419   2.369   0.769   0.773 -0.9611 -1.9719 -1.1316
  358TMC3    H2 5420   2.630   0.587   0.491  1.4932  1.4210 -0.6602
  358TMC3    C7 5421   2.503   0.545   0.733  0.3712 -0.0490 -0.1171
  358TMC3    C8 5422   2.587   0.770   0.309  0.1349  0.3215  0.1768
  358TMC3    O1 5423   2.423   0.548   0.824 -0.2856 -0.2958  0.0326
  358TMC3    O2 5424   2.594   0.872   0.240  0.1668  0.3595  0.2088
  359MPD2     C 5425   2.599   0.675  12.453  0.3153  0.5758  0.0840
  359MPD2    C1 5426   2.542   0.639  12.336 -0.3996 -0.4314 -0.0557
  359MPD2    C2 5427   2.406   0.646  12.322 -0.6651  0.2844  0.1900
  359MPD2    C3 5428   2.332   0.694  12.427  0.5014  0.8339  0.2170
  359MPD2    C4 5429   2.393   0.730  12.541 -0.3147 -0.4620  0.4968
  359MPD2    C5 5430   2.529   0.711  12.559  0.1585  0.4536  0.5369
  359MPD2     H 5431   2.363   0.614  12.228  0.2121  0.3387 -0.2332
  359MPD2    H1 5432   2.337   0.773  12.624  1.2983  1.1472  0.7410
  359MPD2    H2 5433   2.706   0.668  12.473  0.8960  3.8437 -1.8778
  359MPD2    H3 5434   2.572   0.739  12.655  2.2841 -0.2649 -0.2191
  359MPD2     N 5435   2.189   0.693  12.429 -0.2759 -0.2035 -0.1294
  359MPD2    H5 5436   2.136   0.705  12.515 -1.2749 -1.0053 -0.6232
  359MPD2    N1 5437   2.617   0.586  12.227 -0.0701 -0.2273 -0.3465
  359MPD2    H7 5438   2.560   0.573  12.144  0.1631 -0.0655 -0.5302
  360TMC3    C1 5439   2.797   0.526  12.087 -0.0795  0.0070 -0.0115
  360TMC3    C2 5440   2.936   0.520  12.073  0.3408 -0.0258  0.2114
  360TMC3    C3 5441   2.995   0.444  11.980  0.0528  0.0469  0.1947
  360TMC3    C4 5442   2.723   0.432  12.020 -0.4522  0.6743  0.1205
  360TMC3    C5 5443   2.783   0.352  11.929  0.3231 -0.2168  0.9089
  360TMC3    C6 5444   2.920   0.352  11.913  0.6360  0.2598 -0.2440
  360TMC3     C 5445   2.755   0.576  12.219 -0.4678 -0.1237 -0.1690
  360TMC3     O 5446   2.847   0.609  12.290 -0.1923 -0.0650 -0.5176
  360TMC3     H 5447   2.986   0.610  12.106  0.7482  0.3134 -1.3022
  360TMC3    H1 5448   2.616   0.425  12.035 -0.2664  0.5585  1.3556
  360TMC3    H2 5449   2.965   0.288  11.838 -0.2695 -0.3870 -0.2351
  360TMC3    C7 5450   2.716   0.356  11.800 -0.3596  0.4345  0.2263
  360TMC3    C8 5451   3.104   0.503  11.901  0.2500  0.0685 -0.2385
  360TMC3    O1 5452   2.641   0.454  11.781  0.0968 -0.4543  0.2984
  360TMC3    O2 5453   3.140   0.615  11.933 -0.5105 -0.4305 -0.4519
  361MPD2     C 5454   4.184   4.106  16.852 -0.3278 -0.2238 -0.8238
  361MPD2    C1 5455   4.183   3.996  16.769  0.6135  0.3299  0.3983
  361MPD2    C2 5456   4.275   3.892  16.787 -0.2941  0.0936  0.8078
  361MPD2    C3 5457   4.374   3.899  16.886  0.3717  0.0541  0.1799
  361MPD2    C4 5458   4.373   4.009  16.968  0.5630 -0.2107  0.0244
  361MPD2    C5 5459   4.277   4.113  16.953 -0.8132 -0.1203  0.0875
  361MPD2     H 5460   4.256   3.804  16.728 -0.2487 -0.1823  1.2062
  361MPD2    H1 5461   4.443   4.024  17.049 -1.2917  1.9106  1.2404
  361MPD2    H2 5462   4.115   4.189  16.844 -1.3524 -0.9816  0.1381
  361MPD2    H3 5463   4.288   4.200  17.017 -0.9046 -0.0402 -0.0068
  361MPD2     N 5464   4.457   3.795  16.934  0.1083  0.6602 -0.7278
  361MPD2    H5 5465   4.529   3.816  17.002  0.3458 -1.6194 -0.2800
  361MPD2    N1 5466   4.077   3.978  16.675 -0.0573  0.7491 -0.1393
  361MPD2    H7 5467   4.066   3.892  16.621  1.9729  0.5566 -0.2482
  362TMC3    C1 5468   3.866   4.015  16.567  0.7051 -0.1898 -0.7511
  362TMC3    C2 5469   3.792   3.922  16.639 -0.6664  0.3475  0.0467
  362TMC3    C3 5470   3.660   3.911  16.603  0.4432  0.2771 -0.1982
  362TMC3    C4 5471   3.806   4.096  16.474 -0.3974 -0.4392  0.4375
  362TMC3    C5 5472   3.674   4.077  16.446  0.4273 -0.4365  0.0439
  362TMC3    C6 5473   3.599   3.980  16.502  0.4389 -0.1099 -0.0212
  362TMC3     C 5474   3.984   4.072  16.634 -0.3709  0.1090  0.1936
  362TMC3     O 5475   3.997   4.193  16.638  0.0596  0.4452  0.6261
  362TMC3     H 5476   3.823   3.890  16.738  0.9905 -0.1578 -0.6277
  362TMC3    H1 5477   3.859   4.171  16.415 -1.5189 -1.0723 -1.3900
  362TMC3    H2 5478   3.491   3.979  16.492  0.3865  1.8159  0.3905
  362TMC3    C7 5479   3.620   4.172  16.349  0.2905 -0.3774 -0.7397
  362TMC3    C8 5480   3.593   3.895  16.721  0.3592 -0.4786 -0.0431
  362TMC3    O1 5481   3.670   4.283  16.332 -0.1604  0.6321  0.2961
  362TMC3    O2 5482   3.619   3.796  16.793  0.5345  0.0908 -0.3640
  363TMC3    C1 5483   2.738   1.444  10.076  0.7306  0.1825  0.1460
  363TMC3    C2 5484   2.715   1.480  10.204  0.7177 -0.4206  0.0273
  363TMC3    C3 5485   2.743   1.601  10.257 -0.3767  0.6126  0.3674
  363TMC3    C4 5486   2.806   1.533   9.998  0.6755  0.5507 -0.2244
  363TMC3    C5 5487   2.839   1.659  10.056  0.3785 -0.0425 -0.4965
  363TMC3    C6 5488   2.807   1.698  10.181  0.2837 -0.9180 -0.8380
  363TMC3     C 5489   2.688   1.317  10.024  0.1421  0.7043 -0.7376
  363TMC3     O 5490   2.597   1.275  10.094  0.0291  0.0377 -0.3360
  363TMC3     H 5491   2.687   1.398  10.270 -0.7709 -1.0062 -1.3483
  363TMC3    H1 5492   2.846   1.508   9.901 -0.7525 -0.9895 -0.4377
  363TMC3    H2 5493   2.839   1.785  10.238 -2.3685 -0.3648 -0.1876
  363TMC3    C7 5494   2.927   1.748   9.975  0.1903  0.2353 -0.6629
  363TMC3    C8 5495   2.787   1.592  10.398 -0.7630  0.5170 -0.2181
  363TMC3    O1 5496   2.970   1.691   9.877  0.3992  0.2139 -0.6089
  363TMC3    O2 5497   2.704   1.602  10.491  0.0234 -0.2284 -0.0715
  364MPD2     C 5498   1.376   1.313  10.883 -0.0252  0.4913 -0.6397
  364MPD2    C1 5499   1.440   1.266  10.768 -0.7251 -0.4549  0.0375
  364MPD2    C2 5500   1.485   1.142  10.751  0.2757  0.6195 -0.0738
  364MPD2    C3 5501   1.463   1.052  10.851  0.8522  0.0755  0.3202
  364MPD2    C4 5502   1.407   1.101  10.971  0.1019 -0.3429  0.3457
  364MPD2    C5 5503   1.358   1.227  10.988  0.0707 -0.0723 -0.6108
  364MPD2     H 5504   1.552   1.107  10.673  1.0154  1.5810  0.1298
  364MPD2    H1 5505   1.395   1.024  11.047 -1.3108  0.7290  1.2233
  364MPD2    H2 5506   1.363   1.421  10.889 -1.0172  0.3628 -0.3982
  364MPD2    H3 5507   1.318   1.253  11.085  1.4323  0.9183 -0.3162
  364MPD2     N 5508   1.504   0.916  10.851 -0.3628  0.7540  0.5592
  364MPD2    H5 5509   1.494   0.856  10.932 -0.7151 -0.6618 -0.5364
  364MPD2    N1 5510   1.464   1.363  10.673  0.5510 -0.5101 -0.4880
  364MPD2    H7 5511   1.454   1.459  10.704  0.2901 -0.3745 -0.9927
  365TMC3    C1 5512   1.562   1.458  10.478  0.7325 -0.8119  0.2168
  365TMC3    C2 5513   1.637   1.435  10.364  0.1742  0.0544  0.0912
  365TMC3    C3 5514   1.698   1.543  10.300 -0.3609 -0.5311  0.6439
  365TMC3    C4 5515   1.546   1.590  10.525  0.0874 -0.7440 -0.5369
  365TMC3    C5 5516   1.611   1.691  10.457 -0.1590 -0.4112  0.0500
  365TMC3    C6 5517   1.694   1.669  10.348  0.5938 -0.0864 -0.1121
  365TMC3     C 5518   1.507   1.340  10.545  0.2357 -0.3103 -0.7869
  365TMC3     O 5519   1.495   1.232  10.481 -0.0595  0.0906  0.6977
  365TMC3     H 5520   1.666   1.336  10.332  0.3975  0.3304 -0.5517
  365TMC3    H1 5521   1.480   1.608  10.610 -0.2889  0.4648 -1.0817
  365TMC3    H2 5522   1.731   1.748  10.284 -1.7861  1.6547  0.6626
  365TMC3    C7 5523   1.590   1.830  10.491 -0.0838 -0.2195  0.0714
  365TMC3    C8 5524   1.773   1.519  10.178 -0.1879 -0.3320  0.5306
  365TMC3    O1 5525   1.628   1.898  10.397  0.0428  0.0695  0.3752
  365TMC3    O2 5526   1.840   1.616  10.146 -0.3859 -0.4455  0.3168
  366MPD2     C 5527   4.387   1.835  15.117 -0.3444  0.7357  0.0099
  366MPD2    C1 5528   4.420   1.972  15.113  0.2978 -0.5094  0.1207
  366MPD2    C2 5529   4.540   2.001  15.056 -0.5124  0.3582  0.1109
  366MPD2    C3 5530   4.627   1.905  15.007 -0.7707 -0.1446  0.9376
  366MPD2    C4 5531   4.589   1.772  15.004  0.2386  0.0400  0.4550
  366MPD2    C5 5532   4.473   1.739  15.073 -0.4678 -0.3279 -0.7875
  366MPD2     H 5533   4.565   2.106  15.053 -2.7311  0.8699 -0.6724
  366MPD2    H1 5534   4.664   1.697  14.980  1.7654  0.7963  2.8769
  366MPD2    H2 5535   4.305   1.805  15.182 -0.2168 -2.5380 -1.3529
  366MPD2    H3 5536   4.448   1.635  15.092  0.7321 -0.2696  1.1025
  366MPD2     N 5537   0.010   1.965  14.974 -0.4747  0.4510  0.3663
  366MPD2    H5 5538   0.021   2.064  14.993  0.0903  0.5529 -0.4733
  366MPD2    N1 5539   4.347   2.076  15.172  0.1332 -0.2167  0.1613
  366MPD2    H7 5540   4.368   2.175  15.163  1.3544 -0.4739  0.1919
  367TMC3    C1 5541   4.180   2.193  15.284  0.3838  0.2113  1.1569
  367TMC3    C2 5542   4.277   2.286  15.307 -0.5775  0.1228 -0.3609
  367TMC3    C3 5543   4.249   2.418  15.290  0.5411 -0.0598 -0.0264
  367TMC3    C4 5544   4.053   2.229  15.241 -0.1656  0.2205  1.0253
  367TMC3    C5 5545   4.028   2.359  15.216 -0.5945  0.1192  0.1013
  367TMC3    C6 5546   4.125   2.456  15.243  0.2908  0.0085 -0.5197
  367TMC3     C 5547   4.231   2.056  15.238 -0.0122 -0.2711  0.0754
  367TMC3     O 5548   4.157   1.959  15.248 -0.3225 -0.5023  0.5664
  367TMC3     H 5549   4.367   2.254  15.357 -1.0704  0.6229  0.8534
  367TMC3    H1 5550   3.987   2.145  15.227 -0.8987  0.8049  0.9540
  367TMC3    H2 5551   4.111   2.563  15.231 -1.6268 -0.0256  1.3844
  367TMC3    C7 5552   3.912   2.388  15.137 -0.0880  0.6114 -0.5056
  367TMC3    C8 5553   4.352   2.513  15.332 -0.2427 -0.3635  0.0309
  367TMC3    O1 5554   3.815   2.312  15.154 -0.3913  0.2906 -0.6379
  367TMC3    O2 5555   4.453   2.462  15.371  0.0862  0.0517  0.4348
  368MPD2     C 5556   0.996   4.498  13.187  0.2684 -0.4039  0.0096
  368MPD2    C1 5557   0.958   4.535  13.058 -0.8186 -0.3695  0.2858
  368MPD2    C2 5558   1.042   4.525  12.950  0.5349  0.4406 -0.0504
  368MPD2    C3 5559   1.169   4.482  12.966  0.3430 -0.0858  0.2608
  368MPD2    C4 5560   1.206   4.434  13.089  0.0811 -0.3643  0.7856
  368MPD2    C5 5561   1.123   4.442  13.196 -1.1866 -0.5777  0.3604
  368MPD2     H 5562   1.001   4.543  12.851  0.9235 -2.4540 -0.7391
  368MPD2    H1 5563   1.307   4.397  13.103  0.2333 -0.6199 -0.9892
  368MPD2    H2 5564   0.927   4.482  13.269 -1.3935  0.3928 -1.2229
  368MPD2    H3 5565   1.163   4.407  13.290  0.8455  1.4820  0.2700
  368MPD2     N 5566   1.259   4.468  12.848  0.6374  0.4192  0.2016
  368MPD2    H5 5567   1.335   4.401  12.857  0.5224  0.4145  1.1350
  368MPD2    N1 5568   0.820   4.580  13.048  0.0177 -0.1725 -0.0655
  368MPD2    H7 5569   0.757   4.555  13.123 -0.2311  1.8438  0.3940
  369TMC3    C1 5570   0.625   4.690  12.957  0.7330 -0.6076 -0.1180
  369TMC3    C2 5571   0.583   0.050  12.878 -0.2913  0.2340 -0.1323
  369TMC3    C3 5572   0.447   0.071  12.875  0.3666  0.2131 -0.3431
  369TMC3    C4 5573   0.535   4.614  13.034 -0.6156  0.9257 -0.0452
  369TMC3    C5 5574   0.403   4.627  13.021 -0.5145  0.1732  0.0155
  369TMC3    C6 5575   0.357   4.734  12.943  0.6085 -0.2522  0.3799
  369TMC3     C 5576   0.769   4.665  12.952  0.5423 -0.7767 -0.0001
  369TMC3     O 5577   0.833   4.714  12.859  0.8225 -0.3442 -0.0040
  369TMC3     H 5578   0.652   0.103  12.813  0.7939 -0.0639  0.7778
  369TMC3    H1 5579   0.575   4.542  13.104 -0.5814  1.8764  0.9200
  369TMC3    H2 5580   0.250   0.006  12.929  1.2289  1.8217 -2.3599
  369TMC3    C7 5581   0.314   4.526  13.084  0.2010  0.5347 -0.2715
  369TMC3    C8 5582   0.390   0.190  12.817  0.3625  0.1181 -0.3050
  369TMC3    O1 5583   0.351   4.485  13.192 -0.0441 -0.1995  0.2294
  369TMC3    O2 5584   0.308   0.171  12.725 -0.1268 -0.0289  0.6174
  370TMC3    C1 5585   0.800   0.274  16.017 -0.3524  0.5307 -0.8965
  370TMC3    C2 5586   0.692   0.238  16.100 -0.1704  0.0087 -0.1575
  370TMC3    C3 5587   0.618   0.122  16.072  0.4644  0.3324 -0.2713
  370TMC3    C4 5588   0.825   0.187  15.917 -0.6516 -0.5317 -0.0115
  370TMC3    C5 5589   0.758   0.069  15.892 -0.1612 -0.0957  0.4799
  370TMC3    C6 5590   0.641   0.047  15.960 -0.0483  0.5225  0.3595
  370TMC3     C 5591   0.913   0.325  16.079 -0.0730 -0.6938  0.8145
  370TMC3     O 5592   0.950   0.258  16.179  0.4628 -0.4442 -0.6184
  370TMC3     H 5593   0.689   0.293  16.193  1.8391  1.0853 -0.7138
  370TMC3    H1 5594   0.907   0.213  15.851 -2.4453  0.2485 -1.9274
  370TMC3    H2 5595   0.583   4.702  15.929 -1.2613  0.9282  1.4660
  370TMC3    C7 5596   0.778   0.019  15.764  0.2060 -0.2225  0.2998
  370TMC3    C8 5597   0.522   0.072  16.167  0.4812  0.4996  0.0386
  370TMC3    O1 5598   0.769   0.095  15.669 -0.4055 -0.1041 -0.6719
  370TMC3    O2 5599   0.472   4.709  16.131  0.1980  0.3113 -0.3634
  371TMC3    C1 5600   1.836   3.091  15.209 -1.1057 -0.5828  0.3547
  371TMC3    C2 5601   1.725   3.085  15.297 -0.6144 -0.2052 -0.1310
  371TMC3    C3 5602   1.643   3.191  15.310  0.0284  0.3790 -0.3169
  371TMC3    C4 5603   1.869   3.214  15.153  0.2032  0.3442  0.0957
  371TMC3    C5 5604   1.777   3.318  15.173  0.4166 -0.4965 -0.1596
  371TMC3    C6 5605   1.676   3.311  15.262  0.1594 -0.0896 -0.5698
  371TMC3     C 5606   1.929   2.978  15.192 -1.2398  0.3534 -0.0670
  371TMC3     O 5607   2.011   2.992  15.104 -0.0726  0.2290 -0.3009
  371TMC3     H 5608   1.696   2.987  15.334  0.6072 -1.7918 -3.3910
  371TMC3    H1 5609   1.955   3.217  15.088  0.4641  0.0216  0.4277
  371TMC3    H2 5610   1.601   3.389  15.275  0.1781 -0.1725  0.0107
  371TMC3    C7 5611   1.831   3.452  15.135  1.1744 -0.0950  0.8580
  371TMC3    C8 5612   1.535   3.171  15.412 -0.5596 -0.6342  0.1727
  371TMC3    O1 5613   1.795   3.543  15.212  0.4141 -0.7596 -0.1087
  371TMC3    O2 5614   1.539   3.060  15.466  0.5061  0.8911 -0.5991
  372MPD2     C 5615   0.665   4.584  13.386 -0.2645 -0.3727 -0.7647
  372MPD2    C1 5616   0.791   4.610  13.438 -0.1980  0.4737  0.6734
  372MPD2    C2 5617   0.843   4.511  13.524  0.2503 -1.1686 -0.0141
  372MPD2    C3 5618   0.773   4.394  13.546  0.1873  0.7890  0.4237
  372MPD2    C4 5619   0.647   4.377  13.498 -1.0660 -0.5674  1.0079
  372MPD2    C5 5620   0.597   4.471  13.415 -0.1455 -0.5791  0.5600
  372MPD2     H 5621   0.943   4.516  13.564  0.3293  0.3863 -0.3897
  372MPD2    H1 5622   0.584   4.291  13.516 -2.0899  0.4838  2.3475
  372MPD2    H2 5623   0.612   4.655  13.323  0.7746 -0.7699 -2.0867
  372MPD2    H3 5624   0.497   4.456  13.376 -0.6118 -1.2308  2.0065
  372MPD2     N 5625   0.830   4.296  13.631  0.5173  0.0810  0.0202
  372MPD2    H5 5626   0.929   4.305  13.649 -0.1059  1.4814  2.7158
  372MPD2    N1 5627   0.877   4.718  13.397  0.6601  0.8672 -0.0656
  372MPD2    H7 5628   0.970   4.726  13.437  0.1470  0.1440  1.2624
  373TMC3    C1 5629   0.860   4.102  13.749  0.1027  0.1652  0.2136
  373TMC3    C2 5630   0.816   4.042  13.864  0.1258  0.5535 -0.1689
  373TMC3    C3 5631   0.920   3.985  13.939  0.3198 -0.1330 -1.1240
  373TMC3    C4 5632   0.988   4.101  13.695  0.0490 -0.6235 -0.2321
  373TMC3    C5 5633   1.079   4.024  13.770  0.0981 -0.0017 -0.3481
  373TMC3    C6 5634   1.047   3.968  13.894 -0.0182  0.0787 -0.1306
  373TMC3     C 5635   0.762   4.186  13.683 -0.0524 -0.5340 -0.2663
  373TMC3     O 5636   0.645   4.176  13.703 -0.2048  0.1921  0.2606
  373TMC3     H 5637   0.719   4.055  13.909 -0.9852 -0.5376 -2.2523
  373TMC3    H1 5638   1.021   4.135  13.597 -1.5487 -2.6739 -1.4728
  373TMC3    H2 5639   1.114   3.909  13.957 -2.0269 -2.3929 -0.3132
  373TMC3    C7 5640   1.195   3.961  13.699 -0.3113  0.4437 -0.2075
  373TMC3    C8 5641   0.869   3.876  14.021 -0.5736  0.5788 -1.3167
  373TMC3    O1 5642   1.289   3.926  13.769  0.7857  0.2114  1.1606
  373TMC3    O2 5643   0.808   3.794  13.954 -0.6789  0.1311 -0.1693
  374TMC3    C1 5644   1.697   4.716   9.953 -0.3295  0.7445  0.3364
  374TMC3    C2 5645   1.773   0.090   9.941 -0.4052  0.4973  0.0591
  374TMC3    C3 5646   1.791   0.148   9.819 -0.4621 -0.0064  0.1606
  374TMC3    C4 5647   1.640   4.655   9.843 -0.1476 -0.5041  0.0580
  374TMC3    C5 5648   1.660   4.720   9.722 -0.0937  0.0533 -0.1897
  374TMC3    C6 5649   1.738   0.090   9.702  0.3347  0.3718 -0.3169
  374TMC3     C 5650   1.686   4.638  10.082 -0.3924  0.6191 -0.3300
  374TMC3     O 5651   1.584   4.569  10.090 -0.3092 -0.5960 -0.2053
  374TMC3     H 5652   1.824   0.133  10.026  1.0458  0.0131 -0.5787
  374TMC3    H1 5653   1.582   4.565   9.857 -0.6874 -0.2612 -0.6380
  374TMC3    H2 5654   1.758   0.122   9.601 -0.2769 -2.5161 -1.3555
  374TMC3    C7 5655   1.596   4.669   9.606  0.4353 -0.0984  0.2948
  374TMC3    C8 5656   1.893   0.245   9.800 -0.1497 -0.3292  0.1818
  374TMC3    O1 5657   1.594   4.735   9.502 -0.4813  0.0553 -0.4717
  374TMC3    O2 5658   1.873   0.322   9.709  0.3379 -0.5383 -0.4463
  375MPD2     C 5659   2.097   0.433  17.257  0.3149  0.2227 -0.6826
  375MPD2    C1 5660   2.023   0.488  17.151  0.3092  0.2227 -0.1670
  375MPD2    C2 5661   2.072   0.474  17.025  0.1573 -0.4938 -0.1036
  375MPD2    C3 5662   2.171   0.373  17.001 -0.3217 -0.9000 -0.7130
  375MPD2    C4 5663   2.250   0.325  17.111 -0.1820 -0.4504  0.6902
  375MPD2    C5 5664   2.214   0.365  17.233  0.3967 -0.4745  0.4029
  375MPD2     H 5665   2.021   0.520  16.942 -0.2428 -1.1369 -0.2114
  375MPD2    H1 5666   2.329   0.251  17.103 -1.2641 -1.5277 -0.0747
  375MPD2    H2 5667   2.061   0.448  17.358  0.7381 -1.5305 -0.2727
  375MPD2    H3 5668   2.271   0.327  17.317  1.0991 -2.4269 -0.9694
  375MPD2     N 5669   2.202   0.329  16.871  0.0895 -0.1357  0.2193
  375MPD2    H5 5670   2.287   0.274  16.859  1.7096  2.1891  0.8192
  375MPD2    N1 5671   1.916   0.584  17.167  0.1811 -0.6527 -0.3396
  375MPD2    H7 5672   1.892   0.621  17.076 -1.7231  0.9732  0.8360
  376TMC3    C1 5673   2.176   0.285  16.648 -0.0169 -0.1852 -0.0257
  376TMC3    C2 5674   2.308   0.241  16.636 -0.1646 -0.5143  0.1996
  376TMC3    C3 5675   2.325   0.160  16.526  0.3492 -0.1403 -0.6436
  376TMC3    C4 5676   2.078   0.250  16.552 -0.1963  0.2266 -0.2805
  376TMC3    C5 5677   2.106   0.154  16.460 -0.9784  0.6326  0.2624
  376TMC3    C6 5678   2.226   0.106  16.445  0.6795  0.1393 -0.1923
  376TMC3     C 5679   2.123   0.354  16.764  0.4234 -0.1542 -0.3591
  376TMC3     O 5680   2.007   0.387  16.764  0.3204 -0.2542  0.4240
  376TMC3     H 5681   2.395   0.285  16.683 -1.3841 -0.2998  2.2301
  376TMC3    H1 5682   1.981   0.297  16.559 -0.6979 -1.1034  1.6879
  376TMC3    H2 5683   2.255   0.046  16.359 -1.0248 -0.3176 -0.4548
  376TMC3    C7 5684   2.010   0.152  16.352 -0.1199  0.1120  0.0752
  376TMC3    C8 5685   2.458   0.144  16.476 -0.1327  0.0123  0.9919
  376TMC3    O1 5686   1.914   0.228  16.364 -0.1398 -0.3273 -0.3390
  376TMC3    O2 5687   2.540   0.235  16.480 -0.3944 -0.6086 -0.5546
  377MPD2     C 5688   4.515   0.002  12.646  0.6324 -0.0328 -0.2112
  377MPD2    C1 5689   4.627   4.695  12.701 -0.0215 -0.5171  0.2306
  377MPD2    C2 5690   4.641   4.677  12.837 -0.0410  0.0538 -0.2896
  377MPD2    C3 5691   4.527   4.705  12.915 -0.2051 -0.1827  0.4149
  377MPD2    C4 5692   4.414   0.025  12.859 -0.4954  0.3972  0.0854
  377MPD2    C5 5693   4.415   0.040  12.724 -0.1873  0.2543  0.6066
  377MPD2     H 5694   4.725   4.629  12.887 -0.3561 -0.9313 -0.7006
  377MPD2    H1 5695   4.320   0.045  12.909 -0.5752 -3.1690  1.3068
  377MPD2    H2 5696   4.498   0.013  12.540 -0.4159  2.0607  0.1871
  377MPD2    H3 5697   4.330   0.085  12.675 -0.5381  2.2831  3.0680
  377MPD2     N 5698   4.524   4.655  13.050  0.0962 -0.0758 -0.7503
  377MPD2    H5 5699   4.605   4.601  13.078 -0.9647 -0.6751  1.2495
  377MPD2    N1 5700   4.733   4.668  12.609  0.6626 -0.2428 -0.3214
  377MPD2    H7 5701   4.707   4.688  12.513 -2.6749 -0.5403  0.5275
  378TMC3    C1 5702   0.249   4.642  12.290 -0.0949 -0.3592  0.6135
  378TMC3    C2 5703   0.161   4.622  12.395  0.2660 -0.3452 -0.3518
  378TMC3    C3 5704   0.210   4.612  12.523  0.4776  0.3537  0.3280
  378TMC3    C4 5705   0.372   4.695  12.316 -0.3174  0.4155  0.2893
  378TMC3    C5 5706   0.414   4.693  12.444 -0.4687 -0.5226 -0.2799
  378TMC3    C6 5707   0.341   4.642  12.551 -0.4227 -0.2896  0.0422
  378TMC3     C 5708   0.202   4.636  12.155  0.0569 -0.1913 -0.0639
  378TMC3     O 5709   0.104   4.573  12.134  0.6010 -0.5557  0.2994
  378TMC3     H 5710   0.059   4.603  12.366  1.6317 -3.6918 -2.8662
  378TMC3    H1 5711   0.442   4.706  12.233  0.6393 -0.5191  0.9679
  378TMC3    H2 5712   0.387   4.650  12.649 -1.2652  3.6061  0.1421
  378TMC3    C7 5713   0.519   0.037  12.483 -0.5963  0.5115  0.3645
  378TMC3    C8 5714   0.121   4.624  12.642  0.4173  0.4706 -0.0243
  378TMC3    O1 5715   0.591   4.736  12.572  0.0411 -0.3794 -0.1909
  378TMC3    O2 5716   0.167   4.585  12.747 -0.1857 -0.3906  0.8118
  379MPD2     C 5717   0.272   2.894  16.127 -0.5306  0.1778 -0.1275
  379MPD2    C1 5718   0.370   2.829  16.047 -0.4324  0.4189  0.4796
  379MPD2    C2 5719   0.484   2.768  16.109  0.2271  0.0977 -0.9896
  379MPD2    C3 5720   0.474   2.762  16.250 -0.6007  0.1381  1.0463
  379MPD2    C4 5721   0.376   2.824  16.324  0.7286 -0.3454 -0.4580
  379MPD2    C5 5722   0.271   2.890  16.261 -0.5090 -0.4147  0.9513
  379MPD2     H 5723   0.572   2.733  16.056 -0.3469 -1.2986 -1.0192
  379MPD2    H1 5724   0.379   2.807  16.431  0.6112  0.5310 -0.3148
  379MPD2    H2 5725   0.196   2.954  16.079  0.4207  1.3388 -0.1771
  379MPD2    H3 5726   0.194   2.937  16.321 -0.5694 -1.7413  1.8996
  379MPD2     N 5727   0.578   2.694  16.323 -0.5680 -0.8009  0.3098
  379MPD2    H5 5728   0.591   2.717  16.421 -0.5251  0.6066 -0.0227
  379MPD2    N1 5729   0.339   2.818  15.907 -0.5212  0.4966  0.7150
  379MPD2    H7 5730   0.251   2.858  15.876 -0.1183  0.2688 -0.7058
  380TMC3    C1 5731   0.373   2.761  15.675 -0.3015  0.7236 -0.6720
  380TMC3    C2 5732   0.441   2.689  15.582 -0.3384  0.5433 -0.3932
  380TMC3    C3 5733   0.399   2.709  15.450 -0.0250  0.2116  0.3556
  380TMC3    C4 5734   0.270   2.843  15.641 -0.4848  0.4038  0.5311
  380TMC3    C5 5735   0.215   2.841  15.517 -0.0337 -0.3411 -0.8376
  380TMC3    C6 5736   0.284   2.769  15.418  0.1665 -0.4262 -0.5348
  380TMC3     C 5737   0.411   2.745  15.816  0.5910 -0.2752  0.0004
  380TMC3     O 5738   0.511   2.679  15.839 -0.3276  0.0716  0.3780
  380TMC3     H 5739   0.511   2.614  15.615 -0.3799  0.3926 -0.6488
  380TMC3    H1 5740   0.205   2.881  15.719  1.9415  0.8699  2.3326
  380TMC3    H2 5741   0.238   2.775  15.320  0.1381  2.1838 -0.3471
  380TMC3    C7 5742   0.088   2.894  15.498  0.3144 -0.0054 -0.9405
  380TMC3    C8 5743   0.482   2.653  15.345  0.5479  0.3126 -0.6219
  380TMC3    O1 5744   0.054   2.987  15.571  0.0422 -0.6538  0.4130
  380TMC3    O2 5745   0.423   2.632  15.236  0.0124 -0.3019  0.1119
  381TMC3    C1 5746   0.265   4.084  15.861 -0.6347  0.1930  0.1993
  381TMC3    C2 5747   0.354   4.185  15.863  0.2628  0.4010  0.3512
  381TMC3    C3 5748   0.379   4.260  15.974  0.1642  0.4740  0.0636
  381TMC3    C4 5749   0.207   4.040  15.977  0.0248 -0.0590  0.6008
  381TMC3    C5 5750   0.240   4.106  16.087 -0.0328  0.1151 -0.7548
  381TMC3    C6 5751   0.328   4.214  16.096  0.0972  0.2953  0.1873
  381TMC3     C 5752   0.231   4.011  15.740 -0.1226 -0.3075  0.0641
  381TMC3     O 5753   0.327   3.978  15.665 -0.3931 -0.3004  0.1527
  381TMC3     H 5754   0.390   4.224  15.768 -0.6074  2.1882  0.7547
  381TMC3    H1 5755   0.139   3.956  15.967 -0.7046  0.3852  1.8565
  381TMC3    H2 5756   0.336   4.282  16.180  0.7822  2.0946 -1.3404
  381TMC3    C7 5757   0.178   4.042  16.206  0.2033  0.2749  0.1933
  381TMC3    C8 5758   0.515   4.311  15.973 -0.6256 -0.3950  0.1038
  381TMC3    O1 5759   0.142   3.925  16.204  0.0182  0.6703  0.2232
  381TMC3    O2 5760   0.590   4.272  15.884 -0.3080  0.1754 -0.7110
  382MPD2     C 5761   4.553   1.526  16.653  0.5145  0.2103  0.5274
  382MPD2    C1 5762   4.605   1.515  16.776 -0.4833 -0.0859 -0.2025
  382MPD2    C2 5763   4.559   1.427  16.868 -0.4217  0.5382  0.2611
  382MPD2    C3 5764   4.461   1.332  16.820  0.1456  0.1816 -0.2413
  382MPD2    C4 5765   4.407   1.338  16.690  0.3855 -0.5188 -0.4081
  382MPD2    C5 5766   4.448   1.442  16.606  0.1808 -0.2173  0.0657
  382MPD2     H 5767   4.587   1.425  16.973  0.0379 -0.2031  0.1244
  382MPD2    H1 5768   4.339   1.260  16.659 -1.0592  0.7127 -0.3513
  382MPD2    H2 5769   4.584   1.606  16.586 -0.5730  0.3603  0.1992
  382MPD2    H3 5770   4.416   1.454  16.503  1.1851  1.4172 -0.0508
  382MPD2     N 5771   4.419   1.221  16.892 -0.3812 -0.3209  0.4298
  382MPD2    H5 5772   4.353   1.157  16.848 -0.2700  0.8144 -1.4176
  382MPD2    N1 5773   4.708   1.605  16.821 -0.2502 -0.1670 -0.0931
  382MPD2    H7 5774   0.014   1.584  16.909 -1.8223  1.5006  1.1284
  383TMC3    C1 5775   4.391   1.065  17.061  0.0899  0.1200 -0.1542
  383TMC3    C2 5776   4.288   1.019  16.982  0.4728  0.2836  0.4873
  383TMC3    C3 5777   4.226   0.914  17.033 -0.0424  0.3745 -0.0200
  383TMC3    C4 5778   4.427   1.017  17.184 -0.2726  0.6207 -0.0014
  383TMC3    C5 5779   4.353   0.913  17.234  0.0826 -0.2821  0.0474
  383TMC3    C6 5780   4.252   0.864  17.159 -0.5797  0.1037  0.0112
  383TMC3     C 5781   4.461   1.191  17.020  0.0328  0.1991  0.0495
  383TMC3     O 5782   4.527   1.251  17.102 -0.7724 -0.1962 -0.0424
  383TMC3     H 5783   4.256   1.067  16.890 -2.4793  0.2933  1.5108
  383TMC3    H1 5784   4.516   1.051  17.236 -1.3313  0.9900  1.5621
  383TMC3    H2 5785   4.200   0.777  17.196  0.9145 -0.0606  1.7107
  383TMC3    C7 5786   4.395   0.846  17.361  0.4971 -0.2442  0.2251
  383TMC3    C8 5787   4.132   0.848  16.945 -0.6405  0.5501 -0.0096
  383TMC3    O1 5788   4.338   0.740  17.392 -0.0952 -0.0960 -0.1533
  383TMC3    O2 5789   4.079   0.910  16.854  0.0537  0.2771  0.0069
  384MPD2     C 5790   1.210   3.289  11.959 -0.0375  0.1349 -0.0544
  384MPD2    C1 5791   1.230   3.200  12.059  0.4036  0.3032  0.2453
  384MPD2    C2 5792   1.321   3.101  12.048 -0.0185 -0.3754 -0.0660
  384MPD2    C3 5793   1.411   3.093  11.941  0.5157  0.0980 -0.7112
  384MPD2    C4 5794   1.389   3.182  11.838  0.0233  0.0365 -0.2821
  384MPD2    C5 5795   1.293   3.283  11.848 -0.6893 -0.0708  0.0696
  384MPD2     H 5796   1.333   3.034  12.132 -1.2014  0.4865  0.7916
  384MPD2    H1 5797   1.450   3.182  11.748 -2.1908 -0.3461 -1.7689
  384MPD2    H2 5798   1.136   3.368  11.961  0.0155  0.1485  2.0839
  384MPD2    H3 5799   1.273   3.348  11.763 -1.6145  1.0082  1.1084
  384MPD2     N 5800   1.507   2.993  11.931  0.3863 -0.1086 -0.2546
  384MPD2    H5 5801   1.587   3.017  11.873  1.2706  1.6873  1.6852
  384MPD2    N1 5802   1.161   3.203  12.187  0.0235  0.0217 -0.6493
  384MPD2    H7 5803   1.191   3.139  12.260  0.7392  0.2691 -0.7250
  385TMC3    C1 5804   1.628   2.791  11.996  0.2926  0.0952  0.4105
  385TMC3    C2 5805   1.594   2.657  11.986  0.6650  0.4734 -0.2981
  385TMC3    C3 5806   1.637   2.573  12.085  0.5457  0.5507  0.4982
  385TMC3    C4 5807   1.697   2.840  12.098  0.0061 -0.1910 -0.1339
  385TMC3    C5 5808   1.722   2.757  12.203 -0.1503  0.6395 -0.0499
  385TMC3    C6 5809   1.707   2.621  12.195  0.2559 -0.4815  0.1820
  385TMC3     C 5810   1.501   2.875  12.000 -0.0472 -1.1930  0.1917
  385TMC3     O 5811   1.403   2.828  12.060  0.7297 -0.3387  0.4562
  385TMC3     H 5812   1.536   2.622  11.901 -0.6010 -0.9034  1.1293
  385TMC3    H1 5813   1.705   2.947  12.115 -1.5494 -0.1825  0.5770
  385TMC3    H2 5814   1.737   2.546  12.267  1.1612 -0.1924  0.0950
  385TMC3    C7 5815   1.632   2.808  12.313  0.1260  0.4103 -0.5835
  385TMC3    C8 5816   1.627   2.427  12.078 -0.0460  0.4462  0.0176
  385TMC3    O1 5817   1.613   2.924  12.326 -0.0153  0.5835  0.1035
  385TMC3    O2 5818   1.729   2.367  12.116 -0.2059 -0.5486  0.5078
  386TMC3    C1 5819   1.357   0.755  12.074 -0.8025  0.0956  0.3551
  386TMC3    C2 5820   1.395   0.699  11.956 -0.3331 -0.6414 -0.1088
  386TMC3    C3 5821   1.362   0.774  11.842  0.0623 -0.4726  0.3655
  386TMC3    C4 5822   1.284   0.862  12.089 -0.1359 -0.0603 -0.2955
  386TMC3    C5 5823   1.239   0.925  11.977 -0.4726  0.7414  0.0450
  386TMC3    C6 5824   1.288   0.884  11.858  0.1032  0.9154  0.4009
  386TMC3     C 5825   1.371   0.675  12.192  0.7576  0.2583  0.1959
  386TMC3     O 5826   1.405   0.734  12.291 -0.0011 -0.2973 -0.3876
  386TMC3     H 5827   1.460   0.613  11.947  1.4509  0.6794  0.0965
  386TMC3    H1 5828   1.250   0.889  12.188  0.6279  0.5373 -0.1934
  386TMC3    H2 5829   1.257   0.937  11.769  0.0574 -1.5601 -1.0573
  386TMC3    C7 5830   1.092   0.935  11.979 -0.6965  0.1218 -0.2974
  386TMC3    C8 5831   1.331   0.704  11.721  0.0092 -0.7709  0.0386
  386TMC3    O1 5832   1.040   0.930  12.090 -1.0112  0.2011 -0.4901
  386TMC3    O2 5833   1.238   0.743  11.654  0.2530  0.4666 -0.1918
  387MPD2     C 5834   3.711   0.386  10.071  0.1152 -0.7220  0.5637
  387MPD2    C1 5835   3.804   0.404   9.971  0.0767  0.0619 -0.1842
  387MPD2    C2 5836   3.850   0.297   9.897 -0.3669 -0.5962  0.4275
  387MPD2    C3 5837   3.804   0.172   9.915  0.4861 -0.0056  0.3473
  387MPD2    C4 5838   3.719   0.149  10.019  0.7364  0.6969  0.3478
  387MPD2    C5 5839   3.673   0.255  10.091 -0.2635  0.6292 -0.6423
  387MPD2     H 5840   3.928   0.312   9.823  0.0414 -2.0380  0.5803
  387MPD2    H1 5841   3.690   0.051  10.054  1.1436  0.3474 -0.2952
  387MPD2    H2 5842   3.685   0.465  10.141 -0.5633 -0.1942 -0.2969
  387MPD2    H3 5843   3.599   0.218  10.162  0.5136 -1.4010 -0.9000
  387MPD2     N 5844   3.868   0.068   9.844  0.4089 -0.1096 -0.3863
  387MPD2    H5 5845   3.946   0.091   9.784  1.2099  1.6242  1.3180
  387MPD2    N1 5846   3.866   0.525   9.943 -0.1897 -0.8965  0.4091
  387MPD2    H7 5847   3.929   0.532   9.864 -0.3712 -3.2614  0.0502
  388TMC3    C1 5848   3.971   0.726   9.986  0.4926  0.0354  0.4490
  388TMC3    C2 5849   3.950   0.861   9.956 -0.3941 -0.0424 -0.6681
  388TMC3    C3 5850   4.040   0.929   9.873 -0.3102  0.3540  0.3625
  388TMC3    C4 5851   4.095   0.665   9.955  0.0230  0.2458  0.1743
  388TMC3    C5 5852   4.181   0.736   9.873  0.0641  0.1210  1.0757
  388TMC3    C6 5853   4.162   0.870   9.842  0.0970 -0.0847 -0.5969
  388TMC3     C 5854   3.856   0.645  10.013 -0.7197 -0.7530  0.0413
  388TMC3     O 5855   3.768   0.686  10.087 -0.0445 -0.2522 -0.0681
  388TMC3     H 5856   3.866   0.914  10.001  1.2185  1.8263  0.1451
  388TMC3    H1 5857   4.101   0.560   9.979  1.1592  0.2701  0.0032
  388TMC3    H2 5858   4.241   0.921   9.788 -1.4766  0.9839 -1.8811
  388TMC3    C7 5859   4.288   0.666   9.812 -0.7420  0.2080  0.2350
  388TMC3    C8 5860   4.034   1.074   9.878 -0.3826  0.5230  0.3482
  388TMC3    O1 5861   4.352   0.727   9.728  0.1991 -0.0366  0.3244
  388TMC3    O2 5862   3.925   1.114   9.919  0.2306  0.5216  0.0774
  389MPD2     C 5863   3.457   3.293  11.114 -0.8684  0.0836 -0.2514
  389MPD2    C1 5864   3.372   3.187  11.087 -0.2479  0.5985 -0.6448
  389MPD2    C2 5865   3.312   3.113  11.186  0.2758 -0.1377 -0.3849
  389MPD2    C3 5866   3.320   3.162  11.316 -0.6382 -0.2911  0.5782
  389MPD2    C4 5867   3.391   3.280  11.338  0.1440 -0.1705 -0.1725
  389MPD2    C5 5868   3.471   3.329  11.242 -0.7064  0.2292  0.4924
  389MPD2     H 5869   3.260   3.022  11.159  0.4119 -0.3649  0.1289
  389MPD2    H1 5870   3.412   3.308  11.440 -1.2980  1.2768 -0.2726
  389MPD2    H2 5871   3.514   3.339  11.034 -1.6445  0.8141 -0.3749
  389MPD2    H3 5872   3.552   3.400  11.261 -1.8539  1.0986  2.2211
  389MPD2     N 5873   3.237   3.115  11.418  0.2417 -0.6534 -0.3496
  389MPD2    H5 5874   3.242   3.174  11.501  1.3681 -1.3251  0.0613
  389MPD2    N1 5875   3.373   3.164  10.950  0.0290  0.2832  0.0873
  389MPD2    H7 5876   3.439   3.217  10.894  0.5412 -0.8652 -0.3807
  390TMC3    C1 5877   3.073   2.989  11.530 -0.2959  0.1851 -0.0392
  390TMC3    C2 5878   3.006   2.864  11.539 -0.0600 -0.1283  0.5616
  390TMC3    C3 5879   2.900   2.861  11.628 -1.1304  0.1359 -0.2867
  390TMC3    C4 5880   3.032   3.099  11.605 -0.7305 -0.0388  0.2803
  390TMC3    C5 5881   2.921   3.091  11.686 -0.6989  0.0788  0.5128
  390TMC3    C6 5882   2.852   2.974  11.685 -0.0377  0.7485  0.8764
  390TMC3     C 5883   3.154   3.006  11.417 -0.0446  0.2928 -0.7011
  390TMC3     O 5884   3.134   2.930  11.323 -0.1016 -0.3452 -0.2005
  390TMC3     H 5885   3.036   2.785  11.471 -1.7096 -1.0239  0.8900
  390TMC3    H1 5886   3.081   3.195  11.601 -0.3524 -0.2564 -0.3221
  390TMC3    H2 5887   2.753   2.971  11.730 -1.0948  0.5936 -1.4257
  390TMC3    C7 5888   2.864   3.219  11.740  0.0571  0.1400  1.0013
  390TMC3    C8 5889   2.818   2.741  11.624  0.3685 -0.0999  0.0167
  390TMC3    O1 5890   2.915   3.328  11.709  0.7459  0.3719 -0.0885
  390TMC3    O2 5891   2.814   2.672  11.522  0.1587 -0.6283 -0.6891
  391MPD2     C 5892   2.677   4.544  11.026 -0.1517  0.6622 -0.3878
  391MPD2    C1 5893   2.801   4.597  10.979 -0.0523 -0.1560 -0.3640
  391MPD2    C2 5894   2.810   4.651  10.849 -0.2603 -1.3088 -0.2412
  391MPD2    C3 5895   2.695   4.639  10.776  0.2567 -0.3380  0.2819
  391MPD2    C4 5896   2.579   4.577  10.821  0.1691  0.1270  0.4518
  391MPD2    C5 5897   2.570   4.531  10.946 -0.4892  0.2311 -0.3170
  391MPD2     H 5898   2.902   4.691  10.808 -0.5596 -1.1909 -0.7927
  391MPD2    H1 5899   2.488   4.570  10.762  1.0835  0.8060 -1.0358
  391MPD2    H2 5900   2.673   4.520  11.132 -0.5958  1.1202 -0.2959
  391MPD2    H3 5901   2.476   4.496  10.986  1.6175 -3.7823  1.1471
  391MPD2     N 5902   2.704   4.682  10.645  0.4233  0.6101 -0.3743
  391MPD2    H5 5903   2.795   4.688  10.602  0.2385  1.3293 -0.6849
  391MPD2    N1 5904   2.898   4.629  11.076  0.1039  0.5402 -0.0098
  391MPD2    H7 5905   2.880   4.617  11.175  0.0408  1.6472  0.1111
  392TMC3    C1 5906   2.644   0.037  10.433  0.5073  0.3657 -0.3178
  392TMC3    C2 5907   2.547   0.052  10.338  0.3560 -0.3841 -0.1428
  392TMC3    C3 5908   2.556   0.159  10.251 -0.4335 -0.2697 -0.0133
  392TMC3    C4 5909   2.757   0.111  10.435 -0.9734 -0.0005  0.4429
  392TMC3    C5 5910   2.769   0.209  10.334 -0.4450 -0.1542  0.2294
  392TMC3    C6 5911   2.667   0.236  10.248 -0.3795 -0.5231  0.6450
  392TMC3     C 5912   2.602   4.728  10.568 -0.3684  0.0238 -0.2983
  392TMC3     O 5913   2.480   4.736  10.598 -0.7969  0.6842 -0.2564
  392TMC3     H 5914   2.463   4.724  10.340  1.3317 -1.5990 -0.9619
  392TMC3    H1 5915   2.825   0.108  10.519 -0.7483  0.7121  0.2792
  392TMC3    H2 5916   2.686   0.319  10.180 -1.2703  0.5864  1.7602
  392TMC3    C7 5917   2.876   0.307  10.356 -0.2075  0.0099  0.3642
  392TMC3    C8 5918   2.452   0.169  10.148  0.0234  0.1982 -0.5580
  392TMC3    O1 5919   2.902   0.327  10.473  0.1751  0.2876 -0.7126
  392TMC3    O2 5920   2.376   0.069  10.138  0.1810 -0.2461  0.2794
  393TMC3    C1 5921   1.699   2.492  10.892 -0.3146 -0.1776 -0.2100
  393TMC3    C2 5922   1.617   2.518  10.996  0.0388 -0.2438  0.3174
  393TMC3    C3 5923   1.607   2.424  11.100  0.5666  0.3980  0.7123
  393TMC3    C4 5924   1.758   2.373  10.872 -0.1358 -0.3903 -0.6209
  393TMC3    C5 5925   1.725   2.274  10.963  0.1149 -0.0475  0.0353
  393TMC3    C6 5926   1.656   2.299  11.085 -0.0618  0.8187  0.5630
  393TMC3     C 5927   1.734   2.592  10.791 -0.1150 -0.0340  0.4071
  393TMC3     O 5928   1.784   2.542  10.692 -0.1223 -0.4380  0.2085
  393TMC3     H 5929   1.574   2.617  11.002 -0.8725 -0.6195  0.0699
  393TMC3    H1 5930   1.820   2.360  10.784  2.1519 -2.6109  1.3256
  393TMC3    H2 5931   1.623   2.227  11.159  0.0374  0.2182  0.0268
  393TMC3    C7 5932   1.765   2.136  10.946  0.1735  0.4837 -0.4003
  393TMC3    C8 5933   1.531   2.445  11.221 -0.1012  0.4064 -0.3728
  393TMC3    O1 5934   1.741   2.062  11.042 -0.6402  0.1913  0.5318
  393TMC3    O2 5935   1.513   2.360  11.312  0.1277 -0.0129  0.0417
  394TMC3    C1 5936   3.278   3.091  10.741 -0.1335 -0.1933 -0.5154
  394TMC3    C2 5937   3.153   3.102  10.685 -0.9797 -0.0420  0.0277
  394TMC3    C3 5938   3.149   3.137  10.558  0.8586  0.3215 -0.2552
  394TMC3    C4 5939   3.397   3.104  10.681  0.7655 -0.5311  0.3597
  394TMC3    C5 5940   3.388   3.137  10.542  0.3220  0.7701 -0.0782
  394TMC3    C6 5941   3.263   3.173  10.490 -0.1875  0.2543 -0.1808
  394TMC3     C 5942   3.275   3.086  10.890  0.6359  0.5096  0.2457
  394TMC3     O 5943   3.176   3.026  10.937  0.2015 -0.6372  0.3159
  394TMC3     H 5944   3.063   3.094  10.745 -1.5663  0.8024 -0.7482
  394TMC3    H1 5945   3.486   3.069  10.733  2.1556  0.7939 -1.1660
  394TMC3    H2 5946   3.260   3.193  10.383  0.6742 -3.7168 -0.9451
  394TMC3    C7 5947   3.502   3.170  10.462  0.2113  0.3095 -0.8337
  394TMC3    C8 5948   3.018   3.159  10.505  0.9645 -0.3162  0.3834
  394TMC3    O1 5949   3.484   3.227  10.359 -0.9103 -0.4376  0.3396
  394TMC3    O2 5950   2.927   3.112  10.565 -0.3218  0.0791  0.3826
  395TMC3    C1 5951   3.077   4.603  14.636 -0.3613  0.5809 -0.0614
  395TMC3    C2 5952   2.994   4.620  14.531 -0.0016  0.8298  0.3102
  395TMC3    C3 5953   3.024   4.723  14.450 -0.3982 -0.5633  0.6295
  395TMC3    C4 5954   3.188   4.681  14.665  0.0544 -0.4023  0.6997
  395TMC3    C5 5955   3.205   0.042  14.573 -0.4247 -0.1809  0.1216
  395TMC3    C6 5956   3.130   0.058  14.465  0.0319 -0.4750 -0.3407
  395TMC3     C 5957   3.010   4.515  14.742 -0.2108  0.7354  0.4569
  395TMC3     O 5958   2.893   4.488  14.726  0.1672  0.4244 -0.2415
  395TMC3     H 5959   2.911   4.552  14.513  1.2825 -0.8291  0.6566
  395TMC3    H1 5960   3.257   4.650  14.743 -0.6855 -0.6471  1.2550
  395TMC3    H2 5961   3.153   0.126  14.384  0.9954 -0.3078  0.0710
  395TMC3    C7 5962   3.309   0.143  14.607  0.0085 -0.1062 -0.8850
  395TMC3    C8 5963   2.948   4.735  14.328 -0.3986  1.1803  0.1544
  395TMC3    O1 5964   3.383   0.123  14.705  0.0104  0.5666  0.1135
  395TMC3    O2 5965   3.007   0.033  14.227 -0.5051 -0.0185 -0.5857
  396MPD2     C 5966   2.653   1.151  16.530 -0.3652 -0.8017  0.3366
  396MPD2    C1 5967   2.756   1.198  16.606 -0.2309  0.0196  0.3441
  396MPD2    C2 5968   2.850   1.283  16.547  0.1971  0.0372  0.1806
  396MPD2    C3 5969   2.828   1.343  16.423 -0.8397  0.0455 -0.5672
  396MPD2    C4 5970   2.717   1.302  16.356 -0.3157 -0.7025  0.1207
  396MPD2    C5 5971   2.631   1.205  16.410  0.2284 -0.3649  0.4656
  396MPD2     H 5972   2.924   1.316  16.618 -0.3836  1.3872  0.1464
  396MPD2    H1 5973   2.688   1.331  16.256 -0.8347  3.1201  1.3824
  396MPD2    H2 5974   2.583   1.074  16.560 -1.1939  0.0130  0.4929
  396MPD2    H3 5975   2.548   1.165  16.352 -0.9525  3.1500 -0.2600
  396MPD2     N 5976   2.937   1.426  16.369 -0.0082  0.3097  0.1631
  396MPD2    H5 5977   3.014   1.453  16.429 -1.4073 -0.7485  2.4396
  396MPD2    N1 5978   2.774   1.141  16.737 -0.2888  0.5401  0.7589
  396MPD2    H7 5979   2.726   1.057  16.767  1.6515 -0.0754  2.1934
  397TMC3    C1 5980   2.866   1.101  16.951  0.5537  0.0145 -0.2564
  397TMC3    C2 5981   2.989   1.095  17.005  0.0129  0.2890  0.5264
  397TMC3    C3 5982   3.046   0.974  17.038  0.1812  0.3693 -0.3314
  397TMC3    C4 5983   2.788   0.987  16.935  0.0448  0.7361 -0.1905
  397TMC3    C5 5984   2.842   0.869  16.984 -0.1647  0.4880 -0.1483
  397TMC3    C6 5985   2.974   0.858  17.021  0.1542 -0.3070 -0.2432
  397TMC3     C 5986   2.865   1.180  16.831 -0.7649  0.0251  0.3846
  397TMC3     O 5987   2.933   1.282  16.828 -0.2835  0.0223  0.4303
  397TMC3     H 5988   3.051   1.184  16.996  0.1730  0.2550  1.3610
  397TMC3    H1 5989   2.683   0.986  16.908  0.2770 -0.4060 -1.0669
  397TMC3    H2 5990   3.025   0.771  17.061  1.2508  1.2972  1.8385
  397TMC3    C7 5991   2.747   0.767  17.033 -0.2389  0.4930  0.6167
  397TMC3    C8 5992   3.183   0.960  16.985 -0.2081  0.7603 -0.0599
  397TMC3    O1 5993   2.631   0.770  16.994  0.3584 -0.3513 -0.3306
  397TMC3    O2 5994   3.276   1.012  17.043 -0.2415  0.0965  0.4981
  398MPD2     C 5995   1.056   2.763  17.524 -0.3972  0.3157  0.9076
  398MPD2    C1 5996   1.060   2.726  17.660  0.7347 -0.1810 -0.7580
  398MPD2    C2 5997   1.118   2.816  17.751 -0.5661 -0.2893 -0.0984
  398MPD2    C3 5998   1.178   2.931  17.710 -0.2191  0.8699 -0.0099
  398MPD2    C4 5999   1.167   2.977  17.578  0.2287 -0.0943  0.1778
  398MPD2    C5 6000   1.100   2.896  17.488 -0.2971  0.1689 -0.2092
  398MPD2     H 6001   1.126   2.775   0.091  0.2737  0.1770  0.0331
  398MPD2    H1 6002   1.213   3.069  17.543 -1.2333 -0.4229 -2.6276
  398MPD2    H2 6003   1.017   2.694  17.449 -0.5408 -0.3837  1.6268
  398MPD2    H3 6004   1.094   2.905  17.380 -2.2249 -1.4369 -0.2456
  398MPD2     N 6005   1.252   3.014   0.039  0.0687 -0.1003 -0.7111
  398MPD2    H5 6006   1.300   3.092  17.756  0.4300 -0.1004 -0.3141
  398MPD2    N1 6007   0.997   2.609  17.715  0.1160  0.1538 -0.1345
  398MPD2    H7 6008   0.978   2.598   0.054  0.9450 -2.3295 -0.2608
  399TMC3    C1 6009   0.923   2.391  17.725 -1.0758 -0.1416 -0.4015
  399TMC3    C2 6010   0.951   2.388   0.100 -0.2753 -0.0570  0.0881
  399TMC3    C3 6011   0.949   2.272   0.168 -0.0487  0.2806 -0.0249
  399TMC3    C4 6012   0.870   2.271  17.672  0.0924 -0.1099 -0.0157
  399TMC3    C5 6013   0.862   2.162  17.750  0.3037  0.1216 -0.3216
  399TMC3    C6 6014   0.903   2.155   0.113  0.5336  0.2105  0.5903
  399TMC3     C 6015   0.962   2.497  17.639 -0.4628  0.5358  0.4023
  399TMC3     O 6016   0.964   2.483  17.515  0.4873  0.0558 -0.7218
  399TMC3     H 6017   1.000   2.477   0.140 -0.8833  0.2473  0.1581
  399TMC3    H1 6018   0.832   2.269  17.571 -1.1200 -0.4623  0.4506
  399TMC3    H2 6019   0.896   2.067   0.176  0.5547 -1.2052 -1.3811
  399TMC3    C7 6020   0.808   2.034  17.697 -0.2758 -0.5319 -0.1545
  399TMC3    C8 6021   1.012   2.266   0.299  0.0239 -0.3449 -0.1142
  399TMC3    O1 6022   0.743   1.962   0.005  0.3635  0.5436 -0.3440
  399TMC3    O2 6023   1.029   2.153   0.341 -0.0705  0.0710  0.5785
  400TMC3    C1 6024   4.220   0.632  16.629  0.9327  0.1359  0.0801
  400TMC3    C2 6025   4.152   0.535  16.564 -0.3351  0.0787 -0.1174
  400TMC3    C3 6026   4.052   0.577  16.480  0.2932 -0.4945 -0.3122
  400TMC3    C4 6027   4.194   0.764  16.610 -0.2347  0.6209 -0.1924
  400TMC3    C5 6028   4.084   0.796  16.533 -0.8242 -0.1335 -0.4891
  400TMC3    C6 6029   4.006   0.704  16.463 -0.1266  0.1236 -0.1971
  400TMC3     C 6030   4.338   0.584  16.703 -0.5998 -0.4788 -0.2328
  400TMC3     O 6031   4.355   0.462  16.715  0.1001  0.1123 -0.8649
  400TMC3     H 6032   4.191   0.435  16.558  0.4571  0.3276  1.0234
  400TMC3    H1 6033   4.250   0.846  16.653  0.2017  0.3604 -0.2585
  400TMC3    H2 6034   3.921   0.734  16.402 -0.1207  2.6412  0.9880
  400TMC3    C7 6035   4.047   0.928  16.501  0.0041  0.5193 -0.3591
  400TMC3    C8 6036   3.958   0.480  16.427 -0.3404 -0.4236  0.1742
  400TMC3    O1 6037   3.989   0.960  16.396 -0.3950 -0.2710  0.7891
  400TMC3    O2 6038   3.879   0.520  16.339  0.4137 -0.3586  0.3443
  401MPD2     C 6039   2.033   4.246   0.221 -0.2776 -0.5634 -0.0418
  401MPD2    C1 6040   2.118   4.136   0.260  0.4505 -0.2133 -0.5391
  401MPD2    C2 6041   2.076   4.007   0.229  0.2981 -0.1529  0.6215
  401MPD2    C3 6042   1.952   3.984   0.173 -0.5298 -0.1421  0.2416
  401MPD2    C4 6043   1.871   4.094   0.131  0.4286  0.1421 -1.0210
  401MPD2    C5 6044   1.912   4.218   0.163 -0.3034  0.2669  0.0914
  401MPD2     H 6045   2.142   3.924   0.253  1.6017  0.0210 -2.3367
  401MPD2    H1 6046   1.775   4.086   0.081 -0.4986 -1.7592  1.0844
  401MPD2    H2 6047   2.054   4.351   0.237 -4.2700 -0.0892  1.8690
  401MPD2    H3 6048   1.849   4.298   0.129  2.3211  2.2248 -0.1717
  401MPD2     N 6049   1.922   3.847   0.137 -0.1454  0.0424 -0.1522
  401MPD2    H5 6050   1.974   3.775   0.186 -0.8887  0.7104  1.5795
  401MPD2    N1 6051   2.254   4.154   0.295 -0.0166 -0.1439  0.6563
  401MPD2    H7 6052   2.311   4.071   0.294 -0.9062 -0.7562  1.0407
  402TMC3    C1 6053   1.850   3.669   0.000 -0.6913  0.1069  0.3269
  402TMC3    C2 6054   1.888   3.584   0.102  0.2866 -0.4167  0.2096
  402TMC3    C3 6055   1.923   3.458   0.068 -0.1644  0.4211  0.1617
  402TMC3    C4 6056   1.858   3.636  17.625 -0.2273 -0.0688 -0.9146
  402TMC3    C5 6057   1.909   3.509  17.598 -0.3774 -0.7520  0.2211
  402TMC3    C6 6058   1.937   3.417  17.693 -1.0754 -0.5805  0.0950
  402TMC3     C 6059   1.846   3.809   0.027 -0.6561  0.4663  0.3715
  402TMC3     O 6060   1.811   3.875  17.693 -0.8279 -0.7802  0.3397
  402TMC3     H 6061   1.881   3.616   0.206 -0.2551  0.1797 -0.0152
  402TMC3    H1 6062   1.812   3.705  17.556 -0.2837  1.3653  0.5513
  402TMC3    H2 6063   1.990   3.325  17.674 -1.8358 -0.9630 -0.1521
  402TMC3    C7 6064   1.928   3.478  17.456 -0.0154  0.5055  0.0192
  402TMC3    C8 6065   2.040   3.415   0.145  0.2294  0.0128  0.2913
  402TMC3    O1 6066   1.882   3.550  17.368 -0.5143  0.5711  0.1999
  402TMC3    O2 6067   2.105   3.508   0.193  0.0531  0.4244 -0.2125
  403MPD2     C 6068   0.633   2.632  13.161  0.5211  0.1461  0.2749
  403MPD2    C1 6069   0.679   2.546  13.264  0.9814 -0.6726  0.1102
  403MPD2    C2 6070   0.778   2.581  13.347  0.4315 -0.2332  0.2177
  403MPD2    C3 6071   0.847   2.695  13.327  0.3402 -0.3624  1.0791
  403MPD2    C4 6072   0.819   2.777  13.216  0.1821  1.0853  0.8069
  403MPD2    C5 6073   0.713   2.744  13.141 -0.2714 -0.5126  0.8069
  403MPD2     H 6074   0.810   2.517  13.430  2.0196 -4.0911 -3.3601
  403MPD2    H1 6075   0.862   2.873  13.190 -2.4697  1.9288 -0.4799
  403MPD2    H2 6076   0.539   2.621  13.109  1.8222 -0.9449 -1.8163
  403MPD2    H3 6077   0.681   2.800  13.053  1.4435 -0.4397  0.2388
  403MPD2     N 6078   0.950   2.722  13.417 -0.1351 -0.6475  0.2708
  403MPD2    H5 6079   0.966   2.652  13.488  0.0911 -0.8011  0.0715
  403MPD2    N1 6080   0.612   2.421  13.274  0.3657 -0.0898  0.0173
  403MPD2    H7 6081   0.553   2.390  13.197 -0.7733 -3.5201  2.2633
  404TMC3    C1 6082   0.562   2.206  13.354 -0.2918  0.1988  0.7143
  404TMC3    C2 6083   0.522   2.130  13.461  0.8275  0.1168 -0.4343
  404TMC3    C3 6084   0.498   1.996  13.435  0.4563 -0.8020  0.1742
  404TMC3    C4 6085   0.563   2.162  13.226  0.8552  0.4110  0.2576
  404TMC3    C5 6086   0.525   2.034  13.202  0.1157  0.1394 -0.6138
  404TMC3    C6 6087   0.488   1.948  13.304 -0.7411 -0.6277  0.2330
  404TMC3     C 6088   0.622   2.332  13.384  0.1984 -0.4505  0.1706
  404TMC3     O 6089   0.672   2.349  13.493  0.1846  0.3426  0.3334
  404TMC3     H 6090   0.525   2.168  13.562  2.6468  2.1306 -1.2635
  404TMC3    H1 6091   0.598   2.227  13.146 -0.4138 -0.1782 -0.7744
  404TMC3    H2 6092   0.444   1.850  13.289  0.6255 -0.8306 -2.3485
  404TMC3    C7 6093   0.491   2.007  13.065  0.5584 -0.0310  0.4324
  404TMC3    C8 6094   0.516   1.895  13.533 -0.5047  0.2743 -0.7262
  404TMC3    O1 6095   0.474   2.100  12.989  0.6165  0.2854 -0.0275
  404TMC3    O2 6096   0.550   1.782  13.499 -0.3843  0.5630 -0.2340
  405MPD2     C 6097   1.261   2.770  14.553  0.0132 -0.1796 -0.1742
  405MPD2    C1 6098   1.229   2.754  14.419  0.2094 -0.4916  0.1088
  405MPD2    C2 6099   1.195   2.874  14.360 -0.3034 -0.2005  0.0738
  405MPD2    C3 6100   1.187   3.001  14.421  0.0382 -0.2930  0.7657
  405MPD2    C4 6101   1.227   3.000  14.548 -0.3363  0.4827  0.0471
  405MPD2    C5 6102   1.267   2.891  14.612 -0.0858  0.3848  0.3612
  405MPD2     H 6103   1.150   2.874  14.261  0.4143  2.2596 -0.2636
  405MPD2    H1 6104   1.235   3.087  14.613 -0.1639  0.3285  0.2321
  405MPD2    H2 6105   1.300   2.686  14.608  0.3470 -0.0326 -0.1869
  405MPD2    H3 6106   1.285   2.903  14.719  0.7343  0.7999  0.1819
  405MPD2     N 6107   1.155   3.109  14.333 -0.4106  0.2239  0.1914
  405MPD2    H5 6108   1.129   3.080  14.239 -0.3604 -0.3222  0.3470
  405MPD2    N1 6109   1.217   2.620  14.373  0.5046 -0.1708 -0.4311
  405MPD2    H7 6110   1.226   2.540  14.434  3.1033  0.4378 -0.0376
  406TMC3    C1 6111   0.951   3.489  14.188  0.7955  0.1260  0.1856
  406TMC3    C2 6112   0.951   3.439  14.062  1.1311  0.8044  0.0796
  406TMC3    C3 6113   1.020   3.327  14.038 -0.5506 -0.1992  0.1441
  406TMC3    C4 6114   1.022   3.430  14.289 -0.8165  0.4976  0.4420
  406TMC3    C5 6115   1.098   3.322  14.260 -0.2442  0.0680 -0.3679
  406TMC3    C6 6116   1.101   3.272  14.132 -0.4670 -0.5570  0.7322
  406TMC3     C 6117   0.823   3.562  14.214 -0.7998  0.8543 -0.3160
  406TMC3     O 6118   0.822   3.643  14.305  0.7782  0.4293 -0.1780
  406TMC3     H 6119   0.882   3.478  13.988  2.5134  3.2790  0.0857
  406TMC3    H1 6120   1.024   3.477  14.387  0.8164  2.4361 -0.5313
  406TMC3    H2 6121   1.174   3.196  14.110 -0.0244  0.6531 -1.9644
  406TMC3    C7 6122   1.143   3.238  14.372  0.2333  0.0607  0.2345
  406TMC3    C8 6123   0.961   3.243  13.932 -0.5422  0.3410 -0.1925
  406TMC3    O1 6124   1.134   3.282  14.487 -0.2343 -0.0758  0.4869
  406TMC3    O2 6125   0.863   3.284  13.873 -0.4076 -0.8375 -0.1530
  407MPD2     C 6126   3.227   0.098   9.996  0.5811  0.6395  0.1232
  407MPD2    C1 6127   3.320   0.191   9.975  0.2639  0.3767  0.2405
  407MPD2    C2 6128   3.344   0.288  10.071 -0.1116  0.2385  0.4161
  407MPD2    C3 6129   3.283   0.293  10.194 -0.2280 -0.1949 -1.4500
  407MPD2    C4 6130   3.200   0.185  10.216 -0.0560  0.5400 -0.1822
  407MPD2    C5 6131   3.181   0.090  10.125  0.4595 -0.0505  0.3310
  407MPD2     H 6132   3.425   0.355  10.049  0.0846  0.6124  2.2548
  407MPD2    H1 6133   3.150   0.168  10.311  1.7389  0.7703  0.7940
  407MPD2    H2 6134   3.192   0.030   9.919 -1.2375  0.7912  0.8031
  407MPD2    H3 6135   3.101   0.021  10.150  0.6994 -0.6719 -0.6127
  407MPD2     N 6136   3.328   0.367  10.301 -0.4172  0.1451  0.1785
  407MPD2    H5 6137   3.296   0.354  10.397  1.1728 -1.4707  0.5006
  407MPD2    N1 6138   3.394   0.216   9.854 -0.7267 -0.4258  0.3654
  407MPD2    H7 6139   3.444   0.304   9.845  0.0701 -0.7626  1.5365
  408TMC3    C1 6140   3.513   0.173   9.648  0.0182  0.2923 -0.1382
  408TMC3    C2 6141   3.572   0.074   9.578  0.2168  0.2424  0.9903
  408TMC3    C3 6142   3.698   0.097   9.525 -0.5292 -0.3594 -0.0324
  408TMC3    C4 6143   3.564   0.298   9.646 -0.3771  0.1634  0.3038
  408TMC3    C5 6144   3.691   0.322   9.596  0.4542  0.4308  0.6324
  408TMC3    C6 6145   3.760   0.218   9.535 -0.3912  1.0116  0.6689
  408TMC3     C 6146   3.411   0.128   9.748 -0.2526  0.0526  0.3602
  408TMC3     O 6147   3.358   0.015   9.728  0.7439  0.4871 -0.2775
  408TMC3     H 6148   3.515   4.722   9.575  0.1900  0.3690 -2.2776
  408TMC3    H1 6149   3.501   0.382   9.674  0.5797 -0.0814  3.2016
  408TMC3    H2 6150   3.846   0.232   9.470 -0.2210 -1.9690  0.2658
  408TMC3    C7 6151   3.736   0.462   9.585  0.1697  0.2017 -0.2163
  408TMC3    C8 6152   3.752   4.735   9.437  0.3357 -0.4844  0.7848
  408TMC3    O1 6153   3.846   0.475   9.531  0.5981 -0.0763  0.2930
  408TMC3    O2 6154   3.679   4.639   9.407 -0.5786 -0.4069  0.4983
  409MPD2     C 6155   2.899   0.214  16.562  0.1150  0.1407  0.4160
  409MPD2    C1 6156   2.985   0.246  16.665  0.3004  0.0422  0.2898
  409MPD2    C2 6157   3.052   0.359  16.652  0.0575  0.2289 -0.8770
  409MPD2    C3 6158   3.045   0.446  16.540  0.6282 -0.0435  0.1233
  409MPD2    C4 6159   2.956   0.415  16.445  0.0379  0.0978  0.4465
  409MPD2    C5 6160   2.890   0.293  16.453  0.0975 -0.6009  0.3025
  409MPD2     H 6161   3.128   0.371  16.729  0.2411 -2.2428 -0.6878
  409MPD2    H1 6162   2.948   0.466  16.350 -0.0803 -1.7578 -0.5473
  409MPD2    H2 6163   2.851   0.117  16.563  1.9466 -0.7686  0.6219
  409MPD2    H3 6164   2.827   0.261  16.371 -1.8759  0.5069  1.3794
  409MPD2     N 6165   3.145   0.545  16.523  0.1620  0.1394  0.2707
  409MPD2    H5 6166   3.153   0.588  16.432 -2.6354  1.3252  0.5866
  409MPD2    N1 6167   3.011   0.158  16.778 -0.2654 -0.0898  0.0992
  409MPD2    H7 6168   3.053   0.205  16.858 -0.2044  1.4065 -0.8063
  410TMC3    C1 6169   3.338   0.672  16.566  0.1542 -0.4724  0.2369
  410TMC3    C2 6170   3.461   0.662  16.618  0.6910 -0.2040 -0.4441
  410TMC3    C3 6171   3.566   0.732  16.572 -0.2338 -0.1032 -0.0695
  410TMC3    C4 6172   3.317   0.757  16.461 -0.6821  0.3232 -0.5572
  410TMC3    C5 6173   3.424   0.832  16.415 -0.1439  1.0022  0.3750
  410TMC3    C6 6174   3.554   0.826  16.475 -0.2936 -0.2529  0.3278
  410TMC3     C 6175   3.240   0.584  16.614  0.3419 -0.1676 -0.1606
  410TMC3     O 6176   3.260   0.548  16.729 -1.2229  0.6099  0.0914
  410TMC3     H 6177   3.475   0.599  16.705  1.3069  0.3737 -0.1289
  410TMC3    H1 6178   3.223   0.780  16.414 -0.1556  2.0356 -0.7498
  410TMC3    H2 6179   3.635   0.863  16.413  0.6674 -1.7374  0.6922
  410TMC3    C7 6180   3.415   0.889  16.287  0.3434 -0.0607  0.1576
  410TMC3    C8 6181   3.695   0.724  16.640  0.1422  0.7392  0.6349
  410TMC3    O1 6182   3.306   0.871  16.240  0.0230 -0.2867  0.1464
  410TMC3    O2 6183   3.756   0.829  16.652 -0.0009  0.0692  0.1932
  411MPD2     C 6184   3.193   0.646  13.917  0.3364  0.4697 -0.4682
  411MPD2    C1 6185   3.169   0.691  14.049  0.7303  0.0982 -0.2698
  411MPD2    C2 6186   3.108   0.599  14.135  0.1313  0.2421 -0.2093
  411MPD2    C3 6187   3.049   0.478  14.093 -0.0384 -0.1811 -0.5789
  411MPD2    C4 6188   3.087   0.436  13.967 -0.3189  0.4966  0.2886
  411MPD2    C5 6189   3.141   0.525  13.877 -0.0450 -0.2600 -0.0444
  411MPD2     H 6190   3.088   0.631  14.237 -3.1143 -1.5977 -0.2798
  411MPD2    H1 6191   3.042   0.349  13.920 -0.6065 -0.3164  2.0356
  411MPD2    H2 6192   3.220   0.719  13.841 -1.9228  1.1884 -0.5734
  411MPD2    H3 6193   3.159   0.495  13.774 -3.2591  0.8416 -0.9530
  411MPD2     N 6194   2.956   0.400  14.167  0.0254 -0.8985 -0.1767
  411MPD2    H5 6195   2.911   0.328  14.111 -1.4121 -0.0873 -0.0729
  411MPD2    N1 6196   3.188   0.830  14.074  0.2205  0.3022 -0.2762
  411MPD2    H7 6197   3.221   0.884  13.995 -1.9779  0.7152 -0.9175
  412TMC3    C1 6198   2.798   0.375  14.334 -0.4945  1.2833 -0.5065
  412TMC3    C2 6199   2.714   0.480  14.361 -0.0807  0.2413 -0.7305
  412TMC3    C3 6200   2.591   0.497  14.301  0.0794  1.1145  0.6114
  412TMC3    C4 6201   2.745   0.279  14.251 -0.9008  0.1980  0.1627
  412TMC3    C5 6202   2.625   0.299  14.195 -0.0474 -0.1205 -0.5117
  412TMC3    C6 6203   2.536   0.396  14.227 -0.1087  0.5698 -0.2580
  412TMC3     C 6204   2.930   0.418  14.300 -0.4312  0.2233 -0.4985
  412TMC3     O 6205   2.981   0.492  14.378  0.3879  0.2591  0.3293
  412TMC3     H 6206   2.764   0.558  14.417 -1.3766  0.4772  0.0748
  412TMC3    H1 6207   2.804   0.200  14.208  0.5939 -0.2362  3.0439
  412TMC3    H2 6208   2.448   0.409  14.165 -1.6309 -5.8756  0.5740
  412TMC3    C7 6209   2.636   0.264  14.051 -0.7597  0.6713 -0.0058
  412TMC3    C8 6210   2.608   0.625  14.235 -0.6819  0.7562  0.5900
  412TMC3    O1 6211   2.753   0.271  14.001 -0.0605 -0.3592  0.1386
  412TMC3    O2 6212   2.627   0.725  14.307 -0.7470 -0.5194 -0.0989
  413MPD2     C 6213   0.576   3.798  15.546  0.1081 -0.4325 -0.2834
  413MPD2    C1 6214   0.512   3.802  15.432  0.4165  0.3489  0.5573
  413MPD2    C2 6215   0.584   3.740  15.329 -0.1516  0.2143  0.3625
  413MPD2    C3 6216   0.694   3.663  15.345 -0.1017  0.0628 -0.3582
  413MPD2    C4 6217   0.738   3.635  15.470  0.2743 -0.0866  0.0966
  413MPD2    C5 6218   0.689   3.721  15.564  1.3165 -0.6379  0.0918
  413MPD2     H 6219   0.547   3.745  15.227 -1.5660 -1.6932  0.7881
  413MPD2    H1 6220   0.824   3.574  15.496 -0.4179 -0.3547  1.7647
  413MPD2    H2 6221   0.536   3.847  15.635 -0.9610  0.0655 -1.0398
  413MPD2    H3 6222   0.721   3.701  15.666 -0.2727  3.7641  1.4396
  413MPD2     N 6223   0.745   3.592  15.235 -0.1910 -0.4382  0.1923
  413MPD2    H5 6224   0.702   3.632  15.152  1.2726  0.3062 -0.2069
  413MPD2    N1 6225   0.398   3.884  15.420  0.7580  0.1035  0.2184
  413MPD2    H7 6226   0.370   3.935  15.503 -0.3724 -1.3455  0.7349
  414TMC3    C1 6227   0.871   3.455  15.098  0.1696  0.0652  0.7088
  414TMC3    C2 6228   0.889   3.325  15.070  0.1396 -0.0536 -0.2390
  414TMC3    C3 6229   0.906   3.302  14.938 -0.1031 -0.0978 -0.2893
  414TMC3    C4 6230   0.879   3.561  15.011  0.6170 -0.3392 -0.8488
  414TMC3    C5 6231   0.908   3.529  14.877 -0.0184 -0.8662  0.0434
  414TMC3    C6 6232   0.904   3.399  14.840  0.4807 -0.4057  0.5102
  414TMC3     C 6233   0.831   3.493  15.237 -0.5828  0.2059 -0.3070
  414TMC3     O 6234   0.892   3.442  15.331  0.0817  0.4019 -0.3987
  414TMC3     H 6235   0.869   3.250  15.146 -1.1874  0.7553  0.2010
  414TMC3    H1 6236   0.872   3.664  15.045  1.1477 -0.9685  1.1533
  414TMC3    H2 6237   0.919   3.371  14.736  0.8450 -2.6025  1.1586
  414TMC3    C7 6238   1.025   3.609  14.833 -0.2834  0.1194 -0.9493
  414TMC3    C8 6239   0.933   3.165  14.899  0.6991 -0.7465 -0.1411
  414TMC3    O1 6240   1.084   3.671  14.921 -0.7468 -0.0684  0.7661
  414TMC3    O2 6241   0.902   3.133  14.785  0.6594  0.4588 -0.3908
  415TMC3    C1 6242   1.062   2.281  10.837 -0.0220  0.4584  0.0224
  415TMC3    C2 6243   1.085   2.407  10.782 -0.2610 -0.1277 -0.7670
  415TMC3    C3 6244   1.103   2.416  10.641 -0.2255  0.8286 -0.1394
  415TMC3    C4 6245   1.063   2.167  10.765 -0.8646 -0.3365 -0.1970
  415TMC3    C5 6246   1.093   2.181  10.628  0.0448  0.8216  0.0928
  415TMC3    C6 6247   1.109   2.303  10.564  0.0441  0.8933  0.6278
  415TMC3     C 6248   0.980   2.279  10.960 -0.3072 -0.0336 -0.5296
  415TMC3     O 6249   0.912   2.180  10.986 -0.1875  0.4040 -0.3238
  415TMC3     H 6250   1.094   2.495  10.845 -0.0914 -0.9482  0.3690
  415TMC3    H1 6251   1.059   2.073  10.818 -1.0354  1.2560  2.5953
  415TMC3    H2 6252   1.135   2.300  10.459 -0.6168  1.0000  0.4634
  415TMC3    C7 6253   1.068   2.066  10.538 -0.3720 -0.5365  0.7592
  415TMC3    C8 6254   1.103   2.549  10.568 -0.4796  0.5490  0.3308
  415TMC3    O1 6255   1.097   2.071  10.418  0.5896  0.1734 -0.2175
  415TMC3    O2 6256   1.163   2.555  10.459 -0.4194 -0.3946  0.1849
  416MPD2     C 6257   2.582   1.332  11.374 -0.2906 -0.2096  0.5110
  416MPD2    C1 6258   2.542   1.221  11.443 -0.1509  0.1413  0.1542
  416MPD2    C2 6259   2.580   1.100  11.390 -1.0216  0.8401  0.4790
  416MPD2    C3 6260   2.645   1.088  11.268 -0.9101 -0.2419 -0.8012
  416MPD2    C4 6261   2.689   1.205  11.207 -0.2967 -0.0538  0.0496
  416MPD2    C5 6262   2.644   1.325  11.250 -0.0682 -0.4569  0.1866
  416MPD2     H 6263   2.533   1.010  11.429  2.2349 -1.4079 -0.8704
  416MPD2    H1 6264   2.738   1.213  11.111 -1.2637  0.0840 -0.4321
  416MPD2    H2 6265   2.579   1.432  11.416 -0.6566 -0.8473  2.0219
  416MPD2    H3 6266   2.692   1.409  11.202 -1.2286 -0.0792 -0.3236
  416MPD2     N 6267   2.654   0.965  11.207  0.6356  0.1262  0.4302
  416MPD2    H5 6268   2.629   0.886  11.265 -0.0765 -0.0925 -0.1634
  416MPD2    N1 6269   2.472   1.241  11.569 -0.4731  0.3046 -0.0622
  416MPD2    H7 6270   2.440   1.335  11.588 -0.8448 -0.2864  2.1932
  417TMC3    C1 6271   2.353   1.199  11.760 -0.9264  0.1853  0.0035
  417TMC3    C2 6272   2.359   1.159  11.893  0.5871  0.5661  0.0631
  417TMC3    C3 6273   2.247   1.179  11.969  0.0298 -0.1341 -0.2581
  417TMC3    C4 6274   2.243   1.274  11.705  0.0963  0.4160 -1.4182
  417TMC3    C5 6275   2.134   1.290  11.798 -0.3813  0.4331 -0.2693
  417TMC3    C6 6276   2.132   1.240  11.922  0.3490 -0.0493  0.4516
  417TMC3     C 6277   2.451   1.150  11.664  0.6055  0.3994  0.5199
  417TMC3     O 6278   2.511   1.047  11.680 -0.1871  0.0075 -0.2120
  417TMC3     H 6279   2.451   1.112  11.926 -1.2828 -0.1713  4.2359
  417TMC3    H1 6280   2.247   1.325  11.610 -1.5211 -1.3642 -2.4284
  417TMC3    H2 6281   2.043   1.225  11.981  0.3348 -0.3797  0.3434
  417TMC3    C7 6282   2.013   1.359  11.747  0.7853 -0.2038 -0.6362
  417TMC3    C8 6283   2.274   1.206  12.108 -0.2119  0.7679  0.3338
  417TMC3    O1 6284   2.019   1.385  11.628  0.0929 -0.0025  0.1665
  417TMC3    O2 6285   2.178   1.195  12.180  0.0489  0.0857 -0.0411
  418TMC3    C1 6286   1.617   3.094   0.190 -0.6249  0.0710 -0.1713
  418TMC3    C2 6287   1.491   3.097   0.136 -0.2338  0.1417 -0.2044
  418TMC3    C3 6288   1.391   3.058   0.226  0.4470 -0.6696 -0.2033
  418TMC3    C4 6289   1.642   3.045   0.313 -0.4534 -0.9148  0.1893
  418TMC3    C5 6290   1.545   3.043   0.405  0.4029 -0.0672  0.8595
  418TMC3    C6 6291   1.417   3.042   0.357 -0.3985  0.7454  0.1842
  418TMC3     C 6292   1.724   3.080   0.095  0.0503  0.1978  0.1709
  418TMC3     O 6293   1.802   3.175   0.064 -0.0630 -0.4202  0.1237
  418TMC3     H 6294   1.479   3.115   0.030  2.6075 -0.1857 -0.5663
  418TMC3    H1 6295   1.747   3.023   0.325 -0.1876  0.1300 -0.2459
  418TMC3    H2 6296   1.336   2.997   0.413  0.3938  1.2073  1.6904
  418TMC3    C7 6297   1.566   2.926   0.495 -0.0597  0.0471  0.0804
  418TMC3    C8 6298   1.273   2.986   0.173  0.6705  0.4320  0.5416
  418TMC3    O1 6299   1.648   2.844   0.452 -0.4281 -0.1421  0.5601
  418TMC3    O2 6300   1.234   2.902   0.249 -0.4697 -0.1486  0.2683
  419MPD2     C 6301   4.283   1.217  12.878 -0.4509 -0.0734  0.1518
  419MPD2    C1 6302   4.256   1.333  12.818 -0.0697 -0.4557 -0.0957
  419MPD2    C2 6303   4.315   1.453  12.859  1.1225 -0.5685 -0.1681
  419MPD2    C3 6304   4.399   1.460  12.969 -0.0104  0.3899 -0.6397
  419MPD2    C4 6305   4.431   1.335  13.024 -0.1322 -0.1581 -0.1757
  419MPD2    C5 6306   4.373   1.215  12.980 -0.0328  0.0820 -0.5959
  419MPD2     H 6307   4.294   1.548  12.810  0.0429 -0.4811  0.4589
  419MPD2    H1 6308   4.506   1.323  13.101 -1.3968  0.3911  1.1576
  419MPD2    H2 6309   4.234   1.123  12.854  0.0308 -0.7585  1.7924
  419MPD2    H3 6310   4.390   1.116  13.022  1.9356  0.5430 -0.3090
  419MPD2     N 6311   4.448   1.587  13.020 -0.6611  0.3432 -0.1712
  419MPD2    H5 6312   4.408   1.667  12.974 -0.2168 -0.2129 -1.5262
  419MPD2    N1 6313   4.168   1.336  12.709  0.2159 -0.3807 -0.4782
  419MPD2    H7 6314   4.134   1.429  12.684  1.7610  0.7990  1.7994
  420TMC3    C1 6315   4.544   1.748  13.150 -0.7700  0.3030  0.1178
  420TMC3    C2 6316   4.493   1.833  13.060  0.3992 -0.0694 -0.4806
  420TMC3    C3 6317   4.469   1.960  13.102  0.0520 -0.1926 -0.0456
  420TMC3    C4 6318   4.558   1.774  13.286 -0.6722 -0.3380  0.3280
  420TMC3    C5 6319   4.525   1.898  13.328  0.2294  0.4018  0.7193
  420TMC3    C6 6320   4.478   1.993  13.240  0.0085 -0.7622  0.4647
  420TMC3     C 6321   4.515   1.604  13.135  0.4374 -0.2154 -0.6217
  420TMC3     O 6322   4.570   1.527  13.213 -0.4532  0.3829  1.3343
  420TMC3     H 6323   4.501   1.810  12.954 -0.8397  0.7076 -0.7483
  420TMC3    H1 6324   4.597   1.703  13.358 -0.1602 -1.3190 -0.9308
  420TMC3    H2 6325   4.479   2.095  13.278  1.5704 -0.4620 -0.3919
  420TMC3    C7 6326   4.471   1.892  13.459 -0.6545 -0.5570  0.6684
  420TMC3    C8 6327   4.418   2.048  13.003 -0.0435  0.0988  0.6129
  420TMC3    O1 6328   4.535   1.818  13.538 -0.5468  0.0369  0.1573
  420TMC3    O2 6329   4.342   1.996  12.924  0.5219 -0.0439  0.0783
  421TMC3    C1 6330   1.115   2.851  13.528 -0.5118  0.8304 -0.5618
  421TMC3    C2 6331   1.152   2.972  13.580  0.6615  0.3895  0.3027
  421TMC3    C3 6332   1.245   2.979  13.685 -0.0092  0.2187 -0.0293
  421TMC3    C4 6333   1.171   2.733  13.580  0.4227  0.0937  0.5086
  421TMC3    C5 6334   1.259   2.745  13.687 -0.4595 -0.6350  0.1216
  421TMC3    C6 6335   1.289   2.864  13.742 -0.7664  0.0772 -0.0195
  421TMC3     C 6336   1.013   2.844  13.428  0.0928  0.1573  0.1242
  421TMC3     O 6337   0.987   2.947  13.364  0.2258 -0.1751 -0.2158
  421TMC3     H 6338   1.109   3.053  13.522 -0.5403 -0.4637  0.0104
  421TMC3    H1 6339   1.162   2.638  13.528 -0.1131 -0.4275  1.5518
  421TMC3    H2 6340   1.365   2.868  13.820  1.0829 -0.2824 -1.8089
  421TMC3    C7 6341   1.323   2.631  13.750  0.5714  0.5149  0.4422
  421TMC3    C8 6342   1.294   3.102  13.740  0.2969 -0.1485  0.6504
  421TMC3    O1 6343   1.391   2.661  13.848 -0.2754  0.7085  0.4145
  421TMC3    O2 6344   1.370   3.096  13.835  0.2823  0.6159 -0.0035
  422TMC3    C1 6345   3.474   4.023  12.433 -0.0961  0.4124  0.2878
  422TMC3    C2 6346   3.446   4.146  12.383  0.6351 -0.0250 -0.2617
  422TMC3    C3 6347   3.337   4.214  12.417  0.0548 -0.4295 -0.4900
  422TMC3    C4 6348   3.374   3.960  12.504  0.2202 -0.5611  0.1778
  422TMC3    C5 6349   3.263   4.033  12.546 -0.2797  0.0402  0.0645
  422TMC3    C6 6350   3.238   4.154  12.498 -0.3677  0.5588  0.4286
  422TMC3     C 6351   3.596   3.960  12.390  0.2153 -0.2442  0.4880
  422TMC3     O 6352   3.652   4.009  12.296  0.3708 -0.5750 -0.3958
  422TMC3     H 6353   3.508   4.181  12.301 -0.3997 -0.1106 -1.0795
  422TMC3    H1 6354   3.406   3.870  12.556 -1.6645  0.3336  2.8854
  422TMC3    H2 6355   3.144   4.202  12.521 -0.4547  0.3177  0.5741
  422TMC3    C7 6356   3.145   3.947  12.576 -0.3254  0.2198  0.3669
  422TMC3    C8 6357   3.311   4.347  12.366 -0.4808 -0.0957 -0.5985
  422TMC3    O1 6358   3.154   3.831  12.538 -0.5069 -0.7067 -0.0435
  422TMC3    O2 6359   3.414   4.389  12.314 -0.0240  0.2721  0.2444
  423MPD2     C 6360   4.632   4.591   0.443 -0.3473 -0.6377  0.3931
  423MPD2    C1 6361   0.005   4.665   0.401  0.4770 -0.2565 -0.1692
  423MPD2    C2 6362   0.063   4.639   0.275  0.1423 -0.0273  0.0994
  423MPD2    C3 6363   4.739   4.553   0.185 -0.3633 -0.1247  0.0592
  423MPD2    C4 6364   4.623   4.491   0.234 -0.3012  0.2372  0.5267
  423MPD2    C5 6365   4.565   4.512   0.352 -0.2767 -0.1228  0.0245
  423MPD2     H 6366   0.152   4.693   0.246  2.0665 -1.8076  2.7052
  423MPD2    H1 6367   4.576   4.416   0.172  0.9366  0.0406 -0.1765
  423MPD2    H2 6368   4.585   4.608   0.540 -1.1074 -2.1912  0.3055
  423MPD2    H3 6369   4.484   4.449   0.385 -0.9532  0.0895 -1.2206
  423MPD2     N 6370   0.053   4.510   0.062  0.0978  0.0593 -0.0510
  423MPD2    H5 6371   0.003   4.450  17.757  1.2984  1.4651 -2.2453
  423MPD2    N1 6372   0.053   0.030   0.486  0.5992  0.4343  0.3842
  423MPD2    H7 6373   0.140   0.076   0.461 -0.4915  2.6248  0.5971
  424TMC3    C1 6374   0.078   0.173   0.681  0.2333 -0.0470 -0.3787
  424TMC3    C2 6375   0.215   0.170   0.657 -0.2849 -0.1299  0.2436
  424TMC3    C3 6376   0.295   0.212   0.760  0.7736 -0.8278  0.4880
  424TMC3    C4 6377   0.025   0.221   0.799  0.9880  0.1808 -0.6955
  424TMC3    C5 6378   0.117   0.254   0.898 -0.1212 -0.4661 -0.7663
  424TMC3    C6 6379   0.251   0.242   0.885  0.2268  0.4695 -1.2956
  424TMC3     C 6380   4.736   0.072   0.607  0.4030 -0.3556 -0.3096
  424TMC3     O 6381   4.622   0.054   0.658  0.5925  0.1670  0.6552
  424TMC3     H 6382   0.250   0.148   0.557  1.3060  0.5923  0.6356
  424TMC3    H1 6383   4.661   0.213   0.825  1.0575 -1.0111 -0.7756
  424TMC3    H2 6384   0.319   0.258   0.968 -0.3143 -1.0281 -0.5568
  424TMC3    C7 6385   0.072   0.344   0.998 -0.3502 -0.5271  0.1953
  424TMC3    C8 6386   0.419   0.132   0.755 -0.2528 -0.4278 -0.6768
  424TMC3    O1 6387   0.140   0.344   1.099 -0.2057 -0.1907  0.4390
  424TMC3    O2 6388   0.425   0.061   0.652  0.1170 -0.5186 -0.2182
  425MPD2     C 6389   4.210   3.942  17.264  0.0302  0.7436  0.3226
  425MPD2    C1 6390   4.105   3.873  17.200  1.0449 -0.1030 -0.1338
  425MPD2    C2 6391   3.977   3.900  17.246  0.1746  0.1382 -0.0249
  425MPD2    C3 6392   3.959   3.989  17.356 -0.3850 -0.3175  0.0793
  425MPD2    C4 6393   4.064   4.046  17.420  0.5927 -0.2289 -0.9155
  425MPD2    C5 6394   4.189   4.028  17.365 -0.0734  0.3267 -0.7199
  425MPD2     H 6395   3.889   3.858  17.198 -0.2555 -0.1057  0.9595
  425MPD2    H1 6396   4.056   4.113  17.504 -1.3098 -4.3791  2.2646
  425MPD2    H2 6397   4.309   3.920  17.225  0.0025 -0.1362  0.7466
  425MPD2    H3 6398   4.278   4.074  17.406 -1.7041  0.8435  2.2856
  425MPD2     N 6399   3.829   4.017  17.407 -0.1389  0.2358  0.5983
  425MPD2    H5 6400   3.766   3.977  17.338  1.1808  0.1734 -0.5724
  425MPD2    N1 6401   4.137   3.781  17.099  0.3403  0.1691 -0.0632
  425MPD2    H7 6402   4.237   3.771  17.085  0.1900  0.7913 -1.5980
  426TMC3    C1 6403   4.110   3.617  16.926 -0.4015 -0.0882  0.0078
  426TMC3    C2 6404   4.040   3.604  16.809  0.0100  0.8239  0.5099
  426TMC3    C3 6405   4.078   3.498  16.733  0.1045 -0.1455  0.4892
  426TMC3    C4 6406   4.198   3.525  16.976  0.2829 -0.7260 -0.3996
  426TMC3    C5 6407   4.230   3.429  16.888 -0.4570 -0.2061 -0.1147
  426TMC3    C6 6408   4.181   3.410  16.763 -0.7346 -0.2758 -0.3687
  426TMC3     C 6409   4.049   3.713  17.019  0.5368  0.2644  0.3174
  426TMC3     O 6410   3.933   3.740  17.005  0.2228 -0.3418  0.3180
  426TMC3     H 6411   3.974   3.687  16.782  3.0816  3.3139  0.6986
  426TMC3    H1 6412   4.232   3.537  17.078 -0.3319 -1.3631 -0.1146
  426TMC3    H2 6413   4.215   3.328  16.701 -1.8014  0.1906 -1.5573
  426TMC3    C7 6414   4.287   3.309  16.949 -0.5020 -0.2093 -0.2581
  426TMC3    C8 6415   3.982   3.440  16.637 -0.6784  0.5953 -0.0163
  426TMC3    O1 6416   4.366   3.244  16.884  0.3445 -0.2034  0.3260
  426TMC3    O2 6417   4.024   3.370  16.547 -0.2293  0.1805 -0.1195
  427MPD2     C 6418   2.503   1.091  14.495 -0.1526 -0.0287 -0.1435
  427MPD2    C1 6419   2.473   1.072  14.631  0.8307 -0.1988  0.5096
  427MPD2    C2 6420   2.349   1.109  14.681 -0.2118 -0.6430  0.6130
  427MPD2    C3 6421   2.255   1.176  14.607 -0.6856  0.1691  0.2348
  427MPD2    C4 6422   2.277   1.184  14.468  0.4667  0.8774 -0.1082
  427MPD2    C5 6423   2.401   1.142  14.417 -0.1495  0.0342 -0.2450
  427MPD2     H 6424   2.334   1.099  14.788 -1.3975 -1.3061  0.3840
  427MPD2    H1 6425   2.218   1.250  14.405  0.1147 -0.1775 -0.8838
  427MPD2    H2 6426   2.593   1.060  14.444 -0.1691  1.4888 -1.1047
  427MPD2    H3 6427   2.406   1.141  14.309 -0.1123 -0.5187 -0.2396
  427MPD2     N 6428   2.139   1.235  14.667 -0.3251  0.6010  0.0425
  427MPD2    H5 6429   2.073   1.271  14.599 -0.1163  1.4671  0.3027
  427MPD2    N1 6430   2.560   1.005  14.719 -0.8410 -0.5129  0.0105
  427MPD2    H7 6431   2.529   0.989  14.814 -2.0445  1.6115 -0.0241
  428TMC3    C1 6432   2.742   0.859  14.795  0.4335 -1.0061 -0.7068
  428TMC3    C2 6433   2.664   0.783  14.874 -0.8613 -0.0573  0.0706
  428TMC3    C3 6434   2.724   0.727  14.980 -0.2618  0.0714  0.3313
  428TMC3    C4 6435   2.880   0.878  14.812 -0.4585 -0.0059  0.4225
  428TMC3    C5 6436   2.936   0.798  14.904  0.2255  0.3408 -0.2711
  428TMC3    C6 6437   2.861   0.726  14.992  0.4267  0.0284  0.6293
  428TMC3     C 6438   2.689   0.959  14.693  0.6523  0.1345 -0.0526
  428TMC3     O 6439   2.760   0.983  14.598 -0.5519  0.7664 -0.2975
  428TMC3     H 6440   2.563   0.770  14.839 -0.8619  1.2834 -0.4105
  428TMC3    H1 6441   2.933   0.932  14.734  0.8164 -2.1484 -0.1972
  428TMC3    H2 6442   2.903   0.658  15.065 -1.3315  0.4071  1.9853
  428TMC3    C7 6443   3.066   0.835  14.958  0.1926 -0.4416 -0.6279
  428TMC3    C8 6444   2.649   0.635  15.057 -0.8323  0.2465 -0.2680
  428TMC3    O1 6445   3.066   0.858  15.075  0.4741  0.0026  0.4623
  428TMC3    O2 6446   2.713   0.557  15.126 -0.4495 -0.5444  0.4843
  429MPD2     C 6447   3.559   1.151  17.666  0.0800 -0.7142  0.0759
  429MPD2    C1 6448   3.640   1.078  17.583 -0.4580  0.7119 -0.1216
  429MPD2    C2 6449   3.686   1.139  17.469  0.2994  0.8972  0.5799
  429MPD2    C3 6450   3.686   1.275  17.449 -0.2457  0.0121  0.2419
  429MPD2    C4 6451   3.611   1.344  17.539 -0.0084 -0.3045  0.0930
  429MPD2    C5 6452   3.549   1.283  17.644 -0.2513  0.5465 -0.0558
  429MPD2     H 6453   3.720   1.076  17.388 -1.4287 -0.0703  0.6070
  429MPD2    H1 6454   3.566   1.441  17.523 -1.6594 -0.9656  0.7368
  429MPD2    H2 6455   3.497   1.111  17.745 -0.0674 -0.9860 -0.1793
  429MPD2    H3 6456   3.483   1.339  17.709 -1.7420 -3.2627  1.6828
  429MPD2     N 6457   3.747   1.328  17.326  0.0679 -0.2087  0.1267
  429MPD2    H5 6458   3.807   1.270  17.267  2.2558  1.0049  1.1723
  429MPD2    N1 6459   3.643   0.934  17.591 -0.0476 -0.3002  0.6015
  429MPD2    H7 6460   3.677   0.887  17.508  0.8963  0.1214  0.7561
  430TMC3    C1 6461   3.810   1.490  17.166 -0.6021  0.0557  0.2063
  430TMC3    C2 6462   3.770   1.597  17.092  0.0258  0.1247  0.2177
  430TMC3    C3 6463   3.866   1.658  17.008 -0.8561 -0.1952  0.1556
  430TMC3    C4 6464   3.935   1.428  17.155  0.1483 -0.1998  0.6625
  430TMC3    C5 6465   4.031   1.486  17.075  0.3048 -1.0660  0.5481
  430TMC3    C6 6466   3.998   1.604  17.011 -0.0202 -0.0886 -0.1616
  430TMC3     C 6467   3.719   1.451  17.280  0.9238  0.5312 -0.2027
  430TMC3     O 6468   3.632   1.534  17.314 -0.0026 -0.1459 -0.6003
  430TMC3     H 6469   3.666   1.629  17.096  0.1519  0.4214  1.4094
  430TMC3    H1 6470   3.961   1.334  17.203  1.5722  0.6166  1.4855
  430TMC3    H2 6471   4.077   1.660  16.962 -0.3130 -0.7648 -1.4326
  430TMC3    C7 6472   4.078   1.379  16.976 -0.8239  0.5105 -0.0497
  430TMC3    C8 6473   3.837   1.696  16.869  0.7440  0.4333  0.4207
  430TMC3    O1 6474   4.107   1.264  17.012 -0.3191  0.0108 -0.0968
  430TMC3    O2 6475   3.924   1.665  16.788  0.2362 -0.0141 -0.3449
  431MPD2     C 6476   4.266   2.034  12.515  0.3183  0.0800 -0.0903
  431MPD2    C1 6477   4.308   1.943  12.418 -0.1986  0.5595 -0.3230
  431MPD2    C2 6478   4.244   1.819  12.391  0.1441  0.5409 -0.6969
  431MPD2    C3 6479   4.129   1.787  12.458 -0.9761  0.7151 -0.1490
  431MPD2    C4 6480   4.082   1.874  12.554 -0.1073 -0.5997  0.0362
  431MPD2    C5 6481   4.153   1.993  12.582 -0.5004  0.6357  0.2948
  431MPD2     H 6482   4.290   1.747  12.325  1.2704 -2.2263  3.1397
  431MPD2    H1 6483   3.992   1.849  12.608 -0.3478  1.5623  0.6199
  431MPD2    H2 6484   4.323   2.120  12.550 -0.0402 -0.6796  2.3181
  431MPD2    H3 6485   4.109   2.053  12.661 -0.6714  0.0446  0.6540
  431MPD2     N 6486   4.049   1.671  12.436 -0.4091  0.3566 -0.4881
  431MPD2    H5 6487   3.978   1.662  12.508 -0.3921 -1.5177 -0.6805
  431MPD2    N1 6488   4.428   1.966  12.354 -0.4945 -0.3187 -0.4735
  431MPD2    H7 6489   4.450   1.904  12.276  0.7640 -0.3564 -0.0879
  432TMC3    C1 6490   4.000   1.451  12.372  0.2878  0.1163  0.0689
  432TMC3    C2 6491   4.003   1.353  12.269  0.1142  0.4550 -0.1234
  432TMC3    C3 6492   3.991   1.224  12.301 -0.5213  0.1311  0.2624
  432TMC3    C4 6493   4.014   1.403  12.502 -0.1839 -0.5789 -0.8787
  432TMC3    C5 6494   4.030   1.271  12.530  0.0704  0.1085  0.6450
  432TMC3    C6 6495   4.005   1.179  12.431 -0.0912 -0.3341 -1.4268
  432TMC3     C 6496   4.084   1.568  12.345 -0.0830  0.2518  0.0956
  432TMC3     O 6497   4.152   1.574  12.244  0.5283  0.3121  0.3512
  432TMC3     H 6498   3.999   1.378  12.163 -2.0494  0.9483  0.0662
  432TMC3    H1 6499   4.021   1.474  12.584  0.3836 -0.1818 -1.2723
  432TMC3    H2 6500   4.022   1.074  12.451 -3.3101 -0.5649  0.0975
  432TMC3    C7 6501   4.121   1.232  12.636 -0.1236 -0.2023 -0.4156
  432TMC3    C8 6502   4.047   1.130  12.202 -0.2444 -0.2064 -0.0834
  432TMC3    O1 6503   4.168   1.119  12.618  0.3477  0.8694 -0.5622
  432TMC3    O2 6504   4.033   1.010  12.220  0.0894 -0.1832 -0.1416
  433MPD2     C 6505   3.460   4.727  10.425  0.3551 -0.1166 -0.2394
  433MPD2    C1 6506   3.528   4.631  10.498 -0.0021  0.7271  0.1365
  433MPD2    C2 6507   3.523   4.639  10.640 -0.3571 -0.3176  0.8238
  433MPD2    C3 6508   3.467   0.007  10.705 -0.0284 -0.5450 -0.3475
  433MPD2    C4 6509   3.390   0.096  10.627  0.3427  0.3949 -0.0163
  433MPD2    C5 6510   3.401   0.094  10.490  0.3421  0.5208  0.1820
  433MPD2     H 6511   3.563   4.556  10.697  1.5828 -1.0813 -1.6289
  433MPD2    H1 6512   3.319   0.164  10.673 -0.6967  0.2601 -1.4194
  433MPD2    H2 6513   3.454   4.720  10.317  2.6312 -3.5709 -0.1573
  433MPD2    H3 6514   3.332   0.163  10.442 -1.0369 -0.8171  0.2328
  433MPD2     N 6515   3.471   0.003  10.847  0.0214 -0.0213  0.1797
  433MPD2    H5 6516   3.540   4.676  10.878  1.6941  1.0764 -1.1325
  433MPD2    N1 6517   3.581   4.521  10.435  0.6811 -0.3391  0.1471
  433MPD2    H7 6518   3.600   4.533  10.336  0.4910  1.8633  0.3868
  434TMC3    C1 6519   3.717   4.327  10.410  0.4521  0.6360  0.1784
  434TMC3    C2 6520   3.819   4.269  10.476  0.3554  0.6501 -0.0464
  434TMC3    C3 6521   3.860   4.138  10.455  0.3612 -0.5588 -0.7030
  434TMC3    C4 6522   3.660   4.254  10.314 -0.5092 -0.2347  0.1153
  434TMC3    C5 6523   3.698   4.124  10.291  0.1669  0.0550 -0.2312
  434TMC3    C6 6524   3.805   4.066  10.353 -0.2122 -0.4784  0.3443
  434TMC3     C 6525   3.643   4.412  10.497 -0.0224 -0.4921 -0.1851
  434TMC3     O 6526   3.627   4.371  10.613  0.4176 -0.6754 -0.2837
  434TMC3     H 6527   3.855   4.318  10.566  1.6968  0.1251 -0.2952
  434TMC3    H1 6528   3.573   4.301  10.270 -1.4397 -0.2715  1.9037
  434TMC3    H2 6529   3.836   3.964  10.337  0.0783 -0.2633 -0.4371
  434TMC3    C7 6530   3.596   4.040  10.227  0.2318  0.3751 -0.7574
  434TMC3    C8 6531   3.923   4.084  10.572  0.7740  0.0590  0.5521
  434TMC3    O1 6532   3.617   3.920  10.226  0.1402 -0.3456  0.4583
  434TMC3    O2 6533   3.905   4.138  10.678 -0.4759 -0.0824  0.0954
  435MPD2     C 6534   1.036   0.163  15.289 -0.1753 -1.3850  0.1775
  435MPD2    C1 6535   0.989   0.157  15.417 -0.2730 -0.3160  0.0277
  435MPD2    C2 6536   1.044   0.075  15.510  0.4444 -0.1817  0.2511
  435MPD2    C3 6537   1.139   4.724  15.481 -0.0842 -1.1777 -0.7762
  435MPD2    C4 6538   1.186   4.732  15.346  0.3584 -0.7385  0.1025
  435MPD2    C5 6539   1.143   0.087  15.261 -0.1229 -0.6796  0.0112
  435MPD2     H 6540   1.008   0.078  15.613  1.0788 -0.0275  0.4672
  435MPD2    H1 6541   1.268   4.669  15.311 -0.2582 -0.5949 -1.6143
  435MPD2    H2 6542   1.002   0.239  15.220  0.7645 -2.9881 -2.0432
  435MPD2    H3 6543   1.186   0.093  15.162  0.4087  1.6113  0.3778
  435MPD2     N 6544   1.181   4.623  15.566 -0.0343 -0.1905 -0.4785
  435MPD2    H5 6545   1.144   4.629  15.660 -2.0383  0.2243 -1.2937
  435MPD2    N1 6546   0.870   0.222  15.461  0.0935 -0.0680 -0.3057
  435MPD2    H7 6547   0.836   0.195  15.553  0.4653 -2.6207 -0.9104
  436TMC3    C1 6548   0.599   0.417  15.677 -0.0387 -0.1518 -1.0587
  436TMC3    C2 6549   0.705   0.381  15.594 -0.5136 -0.3418  0.0864
  436TMC3    C3 6550   0.683   0.359  15.461  0.1463  0.2414  0.1997
  436TMC3    C4 6551   0.471   0.420  15.620 -0.2485  0.1797 -0.2720
  436TMC3    C5 6552   0.445   0.379  15.491 -0.6503 -0.4644  0.1209
  436TMC3    C6 6553   0.557   0.356  15.408 -0.3253 -0.3077 -0.1096
  436TMC3     C 6554   0.619   0.473  15.811 -0.4645  0.6728  0.0690
  436TMC3     O 6555   0.735   0.510  15.821 -0.0634 -0.2164 -0.1543
  436TMC3     H 6556   0.805   0.374  15.636  0.4231 -1.0344 -2.2516
  436TMC3    H1 6557   0.385   0.425  15.685  0.4850  1.8035  0.5779
  436TMC3    H2 6558   0.551   0.323  15.305  0.4104 -0.2920 -0.1557
  436TMC3    C7 6559   0.313   0.409  15.441  0.0726  0.0207  0.6661
  436TMC3    C8 6560   0.786   0.296  15.381  0.1969 -0.8513 -0.5487
  436TMC3    O1 6561   0.232   0.454  15.522  0.3511  0.0905 -0.0333
  436TMC3    O2 6562   0.793   0.343  15.265  0.8152  0.3072  0.2088
  437TMC3    C1 6563   4.151   2.631  11.903 -0.6790 -0.3177 -0.1976
  437TMC3    C2 6564   4.066   2.546  11.848  0.2115  1.0664 -0.7194
  437TMC3    C3 6565   4.114   2.474  11.748 -0.1103  0.6529  0.2116
  437TMC3    C4 6566   4.284   2.639  11.877  0.3147  0.9663  0.0734
  437TMC3    C5 6567   4.329   2.564  11.771  0.1280 -0.2838  0.0261
  437TMC3    C6 6568   4.238   2.495  11.688  0.1416 -0.3025 -0.6793
  437TMC3     C 6569   4.092   2.690  12.022 -0.3690 -0.5279 -0.1108
  437TMC3     O 6570   3.973   2.726  12.019  0.4535 -0.2175 -0.5666
  437TMC3     H 6571   3.960   2.553  11.870 -0.3344 -2.9156 -2.0540
  437TMC3    H1 6572   4.351   2.699  11.937  0.6182  1.4452 -0.7328
  437TMC3    H2 6573   4.274   2.430  11.610 -0.7426 -0.5448 -0.8805
  437TMC3    C7 6574   4.460   2.510  11.756 -0.1412 -0.0736 -0.0184
  437TMC3    C8 6575   4.041   2.356  11.706 -0.4002  0.1569  0.0244
  437TMC3    O1 6576   4.495   2.472  11.647  0.1261  0.6230 -0.3602
  437TMC3    O2 6577   4.057   2.323  11.588 -0.1143  0.5974 -0.7008
  438MPD2     C 6578   1.583   2.727  16.330 -0.2111  0.2336 -0.9152
  438MPD2    C1 6579   1.678   2.654  16.394  0.0201  0.3546 -0.5723
  438MPD2    C2 6580   1.673   2.647  16.531  0.4530  0.2010 -0.2262
  438MPD2    C3 6581   1.578   2.716  16.611 -0.7054  0.4098 -0.0935
  438MPD2    C4 6582   1.485   2.795  16.543  0.2548 -0.3334 -0.3856
  438MPD2    C5 6583   1.488   2.799  16.408  0.6897 -0.7923 -0.8200
  438MPD2     H 6584   1.754   2.597  16.583 -0.3302 -1.3398 -0.5183
  438MPD2    H1 6585   1.409   2.859  16.585  1.3383  1.5304 -1.2829
  438MPD2    H2 6586   1.568   2.734  16.223 -1.4595 -2.9998 -0.9353
  438MPD2    H3 6587   1.422   2.874  16.365  0.2468  0.5777  2.1976
  438MPD2     N 6588   1.571   2.709  16.751 -0.1781  0.4130 -0.0056
  438MPD2    H5 6589   1.486   2.753  16.787  0.1912 -0.5686  2.0878
  438MPD2    N1 6590   1.788   2.593  16.329  0.1727 -0.3122  0.4180
  438MPD2    H7 6591   1.852   2.539  16.386  1.1676  0.0530 -0.3275
  439TMC3    C1 6592   1.926   2.507  16.146 -0.3795 -0.8060 -0.3533
  439TMC3    C2 6593   1.948   2.515  16.008 -0.1978  0.5461 -0.4690
  439TMC3    C3 6594   2.066   2.469  15.963 -0.4378 -0.0147 -0.2545
  439TMC3    C4 6595   2.026   2.464  16.228 -0.2733  0.6382  0.1875
  439TMC3    C5 6596   2.147   2.433  16.178  0.3382  0.2896  0.3158
  439TMC3    C6 6597   2.169   2.431  16.048 -0.7145  0.3207  0.5750
  439TMC3     C 6598   1.804   2.578  16.187  0.8391  0.0866 -0.1333
  439TMC3     O 6599   1.725   2.612  16.102  0.1457 -0.4615 -0.5582
  439TMC3     H 6600   1.862   2.539  15.948  1.0540  1.1491 -2.0027
  439TMC3    H1 6601   2.003   2.422  16.325  1.1433 -0.1991  0.1607
  439TMC3    H2 6602   2.271   2.427  16.013 -0.7034  0.3815  0.6005
  439TMC3    C7 6603   2.249   2.376  16.265 -0.5116 -0.0137  0.7195
  439TMC3    C8 6604   2.081   2.488  15.819  0.2273 -0.4598  0.8756
  439TMC3    O1 6605   2.366   2.417  16.260  0.5435  0.0225  0.1935
  439TMC3    O2 6606   2.046   2.596  15.770 -0.0600  0.4763  0.5012
  440MPD2     C 6607   0.395   3.128  14.428 -0.4515  0.8118  0.0025
  440MPD2    C1 6608   0.356   3.089  14.555 -0.7562 -0.6588 -0.8646
  440MPD2    C2 6609   0.414   2.967  14.599 -0.1852 -0.7161 -0.0035
  440MPD2    C3 6610   0.509   2.893  14.530 -0.1284  0.3240  0.3863
  440MPD2    C4 6611   0.519   2.917  14.390  0.3445  0.2352 -0.1200
  440MPD2    C5 6612   0.476   3.042  14.351  0.3754  0.1190 -0.3232
  440MPD2     H 6613   0.384   2.934  14.698  1.4100 -0.8482  0.4347
  440MPD2    H1 6614   0.581   2.864  14.318  1.2567  3.5352 -1.7668
  440MPD2    H2 6615   0.375   3.228  14.391 -1.1049  0.9745  0.7788
  440MPD2    H3 6616   0.506   3.064  14.250  0.3941 -0.7003 -0.4922
  440MPD2     N 6617   0.579   2.778  14.583 -0.0972  0.3177 -0.2484
  440MPD2    H5 6618   0.577   2.771  14.684  0.4954  1.8226 -0.1305
  440MPD2    N1 6619   0.262   3.161  14.636  0.3680 -0.0273  0.3227
  440MPD2    H7 6620   0.253   3.124  14.730  2.4664 -0.8683  0.1882
  441TMC3    C1 6621   0.757   2.623  14.605 -0.9893 -0.1307  0.2788
  441TMC3    C2 6622   0.889   2.601  14.601  0.5402 -0.1068 -0.2288
  441TMC3    C3 6623   0.945   2.496  14.666  0.0876 -0.6370  0.7833
  441TMC3    C4 6624   0.684   2.537  14.673 -0.0641  0.0236 -0.7598
  441TMC3    C5 6625   0.739   2.429  14.746 -0.1481  0.3515 -0.0626
  441TMC3    C6 6626   0.873   2.402  14.726 -0.3215 -0.4116  0.4496
  441TMC3     C 6627   0.698   2.727  14.522  0.0135  0.2694 -0.2836
  441TMC3     O 6628   0.763   2.768  14.429 -0.8289  0.4505  0.4839
  441TMC3     H 6629   0.945   2.661  14.531 -1.5846  2.9496  0.6839
  441TMC3    H1 6630   0.577   2.542  14.654 -0.5827 -3.6913  1.0767
  441TMC3    H2 6631   0.918   2.318  14.777 -0.6753  0.7052  2.5713
  441TMC3    C7 6632   0.708   2.446  14.889  0.2826  0.3256  0.1129
  441TMC3    C8 6633   1.042   2.545  14.760 -0.4911 -0.5024 -0.3382
  441TMC3    O1 6634   0.606   2.505  14.914 -0.2552  0.0457 -0.1618
  441TMC3    O2 6635   1.085   2.464  14.837 -0.1051  0.5935  0.0364
  442MPD2     C 6636   3.604   3.575  16.233 -0.2495 -0.0015  0.3119
  442MPD2    C1 6637   3.475   3.533  16.230  0.1847  0.2893 -0.6580
  442MPD2    C2 6638   3.454   3.410  16.168 -0.1259  0.4071 -0.4229
  442MPD2    C3 6639   3.560   3.347  16.097  0.2881 -0.3853  0.0680
  442MPD2    C4 6640   3.688   3.392  16.103 -0.3552 -0.2714  0.0608
  442MPD2    C5 6641   3.707   3.506  16.175  0.2861  0.5609  0.6564
  442MPD2     H 6642   3.353   3.372  16.178  0.0380 -0.1715 -0.9568
  442MPD2    H1 6643   3.776   3.347  16.058 -0.6487 -0.2174 -0.5703
  442MPD2    H2 6644   3.634   3.669  16.278  1.1209 -1.4023  2.2731
  442MPD2    H3 6645   3.808   3.542  16.195  0.2572  1.3290 -0.5866
  442MPD2     N 6646   3.545   3.223  16.024 -0.2943  0.6803 -0.8903
  442MPD2    H5 6647   3.627   3.182  15.981  0.0567  0.4953 -0.0366
  442MPD2    N1 6648   3.364   3.608  16.277 -0.0694  0.3497  0.4247
  442MPD2    H7 6649   3.282   3.549  16.291 -1.4868  2.4598  0.8808
  443TMC3    C1 6650   3.250   3.785  16.374  0.8602 -0.6510 -0.2562
  443TMC3    C2 6651   3.239   3.923  16.358  0.2032  0.7786 -0.2830
  443TMC3    C3 6652   3.153   3.983  16.439 -0.1438  0.4501 -0.3113
  443TMC3    C4 6653   3.207   3.723  16.488  0.7948 -0.6066  0.7142
  443TMC3    C5 6654   3.136   3.797  16.579  0.1893 -0.3557 -0.1790
  443TMC3    C6 6655   3.100   3.929  16.552  0.0990  0.7992  0.4347
  443TMC3     C 6656   3.374   3.739  16.314  0.1409  0.4276  0.4793
  443TMC3     O 6657   3.469   3.809  16.291 -0.5100  0.0392  0.0029
  443TMC3     H 6658   3.270   3.966  16.263 -0.9021  0.9350 -0.5728
  443TMC3    H1 6659   3.228   3.619  16.510 -0.7674 -1.0672 -0.0320
  443TMC3    H2 6660   3.028   3.990  16.605  0.7617  1.9274  0.0251
  443TMC3    C7 6661   3.085   3.733  16.702  0.2169  1.0650 -0.2182
  443TMC3    C8 6662   3.134   4.125  16.428  0.4302 -0.5170 -0.0207
  443TMC3    O1 6663   3.078   3.611  16.691  0.0116  0.1012  0.6488
  443TMC3    O2 6664   3.144   4.182  16.537 -0.0546 -0.3524 -0.3225
  444MPD2     C 6665   3.788   3.202  16.894  1.1148  0.1458  0.6754
  444MPD2    C1 6666   3.707   3.093  16.883 -0.3830  0.8682 -0.3923
  444MPD2    C2 6667   3.761   2.978  16.841 -0.0203 -0.2190 -0.4421
  444MPD2    C3 6668   3.895   2.959  16.807 -0.0941  0.5283  0.0252
  444MPD2    C4 6669   3.976   3.067  16.825  0.9209 -0.5679  0.1762
  444MPD2    C5 6670   3.917   3.189  16.856  0.2687 -0.1699  0.0727
  444MPD2     H 6671   3.693   2.894  16.835 -1.2995  0.8038 -0.1548
  444MPD2    H1 6672   4.082   3.060  16.806  1.3105 -2.5262  3.0879
  444MPD2    H2 6673   3.755   3.299  16.927 -0.4330 -1.0008  2.5380
  444MPD2    H3 6674   3.981   3.274  16.876 -2.2968  0.7612  4.3269
  444MPD2     N 6675   3.946   2.828  16.781 -0.0131  0.1597  0.4030
  444MPD2    H5 6676   3.877   2.754  16.782  1.0138 -0.7997 -0.7335
  444MPD2    N1 6677   3.573   3.095  16.919 -0.3350  0.2689  0.1038
  444MPD2    H7 6678   3.513   3.019  16.889 -0.0178  0.2165 -0.3848
  445TMC3    C1 6679   4.111   2.659  16.758  0.9968 -0.0500  0.6676
  445TMC3    C2 6680   4.049   2.575  16.844  0.0947 -0.4519 -0.8521
  445TMC3    C3 6681   4.100   2.447  16.855  0.6071 -0.9815  0.5501
  445TMC3    C4 6682   4.222   2.620  16.686  0.3433  0.4000  0.0196
  445TMC3    C5 6683   4.261   2.489  16.684 -0.4516 -0.1917  0.0238
  445TMC3    C6 6684   4.202   2.405  16.780  0.2809  0.7979  0.4161
  445TMC3     C 6685   4.077   2.795  16.753 -0.4611 -0.8503  0.6457
  445TMC3     O 6686   4.162   2.872  16.715 -0.5287  0.1389  0.3181
  445TMC3     H 6687   3.967   2.609  16.906  0.2887 -0.0304 -0.8313
  445TMC3    H1 6688   4.259   2.687  16.609  1.6511 -0.7754 -0.3778
  445TMC3    H2 6689   4.243   2.306  16.795  0.8406  0.9940  0.1890
  445TMC3    C7 6690   4.371   2.450  16.601  0.2362 -0.6914  0.1113
  445TMC3    C8 6691   4.031   2.362  16.953 -0.4471 -0.5484 -0.1697
  445TMC3    O1 6692   4.409   2.546  16.534 -0.1869 -0.2279  0.3933
  445TMC3    O2 6693   3.925   2.407  16.991  0.2850 -0.4111 -0.4363
  446MPD2     C 6694   3.499   3.758  10.964  0.3551  0.3421 -0.9393
  446MPD2    C1 6695   3.417   3.872  10.957 -0.8227 -0.1426 -0.2129
  446MPD2    C2 6696   3.488   3.992  10.968  0.3775  0.4121 -0.0814
  446MPD2    C3 6697   3.630   4.001  10.989 -0.0557  0.4146  0.0911
  446MPD2    C4 6698   3.698   3.879  10.999  0.2139 -0.5204  0.1928
  446MPD2    C5 6699   3.631   3.768  10.982 -0.6399 -0.0016  0.6127
  446MPD2     H 6700   3.431   4.081  10.944 -0.7414 -0.4509 -0.6167
  446MPD2    H1 6701   3.805   3.865  11.013  0.7746  1.4972 -1.9904
  446MPD2    H2 6702   3.462   3.659  10.940  0.2770  0.8568 -2.9268
  446MPD2    H3 6703   3.694   3.681  10.963 -1.0642 -0.0314 -0.6347
  446MPD2     N 6704   3.695   4.124  10.986  0.3235  0.0337 -0.2168
  446MPD2    H5 6705   3.645   4.204  10.947 -1.4068 -0.5685  0.7846
  446MPD2    N1 6706   3.277   3.865  10.939  0.0609 -0.0738  0.0431
  446MPD2    H7 6707   3.236   3.953  10.910  3.8299  1.9500  0.8678
  447TMC3    C1 6708   3.894   4.263  10.994 -0.1880 -0.2703  0.0296
  447TMC3    C2 6709   3.832   4.357  10.918 -0.2053 -0.7909  0.2219
  447TMC3    C3 6710   3.907   4.448  10.851 -0.7826  0.0069  0.8245
  447TMC3    C4 6711   4.027   4.266  11.025 -0.1434  0.7266 -0.1373
  447TMC3    C5 6712   4.097   4.371  10.966 -0.7696  0.1499  0.4805
  447TMC3    C6 6713   4.041   4.457  10.875  0.0460 -0.7928  0.1054
  447TMC3     C 6714   3.826   4.142  11.021 -0.0551  0.1010  0.5356
  447TMC3     O 6715   3.896   4.062  11.082 -0.3973 -0.5592 -0.7218
  447TMC3     H 6716   3.724   4.361  10.914 -0.0905  0.4340 -2.2000
  447TMC3    H1 6717   4.074   4.197  11.094 -1.1809 -0.0493 -0.2204
  447TMC3    H2 6718   4.105   4.529  10.825 -0.7805 -0.4581 -0.4679
  447TMC3    C7 6719   4.224   4.415  11.025 -0.5540 -0.4996 -0.7335
  447TMC3    C8 6720   3.838   4.549  10.785 -0.2802  0.3994 -0.0828
  447TMC3    O1 6721   4.259   4.524  10.988  0.2257  0.3332 -0.4288
  447TMC3    O2 6722   3.755   4.607  10.850  0.1279  0.2065 -0.1114
  448TMC3    C1 6723   1.440   3.712  16.689  0.3042 -0.5777  0.4249
  448TMC3    C2 6724   1.410   3.669  16.561 -0.4088 -0.3817 -0.1296
  448TMC3    C3 6725   1.400   3.529  16.541  0.1755  0.3954 -0.2226
  448TMC3    C4 6726   1.481   3.629  16.787 -0.4226 -0.7796 -0.1770
  448TMC3    C5 6727   1.471   3.492  16.752  0.0349  0.1185  0.9358
  448TMC3    C6 6728   1.433   3.443  16.633  0.3366 -0.2321 -1.0244
  448TMC3     C 6729   1.452   3.851  16.713 -0.3843 -0.2676  1.1199
  448TMC3     O 6730   1.440   3.928  16.618  0.3136  0.3424  0.4356
  448TMC3     H 6731   1.403   3.735  16.476 -3.4649 -0.1973  0.2706
  448TMC3    H1 6732   1.532   3.654  16.880  0.1114  0.4308 -0.7916
  448TMC3    H2 6733   1.440   3.338  16.609  0.2847 -0.5860  0.4939
  448TMC3    C7 6734   1.525   3.395  16.850  1.1568 -0.8233  0.0887
  448TMC3    C8 6735   1.349   3.479  16.418  0.5843 -0.6438  1.1017
  448TMC3    O1 6736   1.573   3.290  16.812  0.0249 -0.2937  0.4041
  448TMC3    O2 6737   1.352   3.358  16.403 -0.1083  0.2628  0.1829
  449MPD2     C 6738   2.993   2.448  13.777 -0.1572  0.3690 -0.1738
  449MPD2    C1 6739   2.865   2.473  13.738 -0.2577 -0.0111 -1.0941
  449MPD2    C2 6740   2.767   2.491  13.832 -0.2742 -0.0388  0.1366
  449MPD2    C3 6741   2.793   2.470  13.965  0.1964  0.0129 -0.2269
  449MPD2    C4 6742   2.921   2.430  14.005  0.0189 -0.3979  0.1961
  449MPD2    C5 6743   3.019   2.419  13.907  1.4186  0.1158  0.1240
  449MPD2     H 6744   2.665   2.503  13.797 -0.1501 -0.7194 -0.4655
  449MPD2    H1 6745   2.945   2.419  14.110  0.3134 -4.9895 -0.3525
  449MPD2    H2 6746   3.081   2.450  13.713  0.0265  0.4873  0.0843
  449MPD2    H3 6747   3.117   2.383  13.932  2.3585  1.1327 -2.1102
  449MPD2     N 6748   2.688   2.491  14.055  0.1988  0.7787  0.7829
  449MPD2    H5 6749   2.600   2.531  14.026 -1.7369 -4.0273 -0.0275
  449MPD2    N1 6750   2.829   2.503  13.607 -0.3595 -0.1917 -0.1635
  449MPD2    H7 6751   2.735   2.536  13.589 -0.9937 -1.8149  0.1320
  450TMC3    C1 6752   2.826   2.562  13.386 -0.4104  0.6537  1.0641
  450TMC3    C2 6753   2.878   2.668  13.327 -0.4193  0.4229 -0.0832
  450TMC3    C3 6754   2.791   2.769  13.287 -0.0506  0.2675 -0.0664
  450TMC3    C4 6755   2.693   2.546  13.399  0.6334 -0.1171 -0.0874
  450TMC3    C5 6756   2.608   2.658  13.379 -0.1060  0.2443  0.6176
  450TMC3    C6 6757   2.660   2.764  13.317  0.6545  0.3211 -0.7315
  450TMC3     C 6758   2.909   2.504  13.491 -0.2245 -0.6863  0.1251
  450TMC3     O 6759   3.028   2.490  13.482 -0.1803 -0.3772 -0.5824
  450TMC3     H 6760   2.984   2.680  13.310 -0.1785 -3.6523 -1.4801
  450TMC3    H1 6761   2.656   2.453  13.442 -0.0526  0.2168  0.0411
  450TMC3    H2 6762   2.600   2.852  13.295  1.3377  1.3477  1.5545
  450TMC3    C7 6763   2.532   2.683  13.498 -0.0992  0.3792 -0.3600
  450TMC3    C8 6764   2.819   2.847  13.166  0.7910 -0.5219  1.1178
  450TMC3    O1 6765   2.526   2.582  13.571 -0.6785 -0.0247  0.0548
  450TMC3    O2 6766   2.729   2.862  13.085  0.1744 -0.4632  0.3163
  451MPD2     C 6767   0.072   1.104   1.096 -0.7125 -0.2070  0.3895
  451MPD2    C1 6768   0.017   1.041   0.984  0.0611  0.0496 -0.0201
  451MPD2    C2 6769   0.084   0.947   0.915  0.4890 -0.3321  0.5890
  451MPD2    C3 6770   0.193   0.886   0.967 -0.3967  0.4215  0.5375
  451MPD2    C4 6771   0.249   0.937   1.083 -0.4289 -0.3987  0.4031
  451MPD2    C5 6772   0.190   1.050   1.137 -0.0155 -0.0391  0.0069
  451MPD2     H 6773   0.040   0.916   0.821 -1.9737 -0.3880  1.7640
  451MPD2    H1 6774   0.337   0.889   1.125 -0.4833  0.6915  1.7662
  451MPD2    H2 6775   0.022   1.191   1.137  0.6762  0.4260  0.7194
  451MPD2    H3 6776   0.234   1.100   1.223  0.6345  0.4700 -0.6254
  451MPD2     N 6777   0.243   0.767   0.911  0.7159  0.0473  0.5732
  451MPD2    H5 6778   0.338   0.744   0.936  1.5941  0.3757 -2.5557
  451MPD2    N1 6779   4.649   1.106   0.932 -0.3386  0.2525 -0.2667
  451MPD2    H7 6780   4.626   1.198   0.968 -2.5968 -0.3502 -0.1755
  452TMC3    C1 6781   0.267   0.621   0.736  0.2952 -0.0825  0.3231
  452TMC3    C2 6782   0.195   0.525   0.662  0.1176 -1.0897  0.2893
  452TMC3    C3 6783   0.219   0.514   0.525 -0.2781  0.1866 -0.0906
  452TMC3    C4 6784   0.361   0.697   0.675  0.1096  0.2042 -0.7962
  452TMC3    C5 6785   0.384   0.674   0.539 -0.1029 -0.1307  0.2516
  452TMC3    C6 6786   0.314   0.591   0.463 -0.5534  0.4257 -0.4155
  452TMC3     C 6787   0.181   0.693   0.817 -0.0673 -0.0432  0.3561
  452TMC3     O 6788   0.065   0.685   0.787 -0.4199 -0.5135  0.2385
  452TMC3     H 6789   0.107   0.472   0.696  0.1708 -2.4609 -1.6920
  452TMC3    H1 6790   0.406   0.781   0.727 -1.8786  0.3600  0.6666
  452TMC3    H2 6791   0.315   0.579   0.355 -1.0419 -0.8325 -0.2876
  452TMC3    C7 6792   0.452   0.783   0.473 -0.2002  0.4113 -0.8153
  452TMC3    C8 6793   0.116   0.453   0.440 -0.6715  1.3217  0.4045
  452TMC3    O1 6794   0.411   0.795   0.359 -0.0075  0.3646 -0.3038
  452TMC3    O2 6795   0.004   0.468   0.489 -0.2116 -0.3473 -0.2260
  453TMC3    C1 6796   0.695   3.711  11.798 -0.1424  0.3163  0.3080
  453TMC3    C2 6797   0.599   3.635  11.853  0.3598 -0.2294 -0.0193
  453TMC3    C3 6798   0.524   3.556  11.772 -0.3543  0.0558  0.2737
  453TMC3    C4 6799   0.721   3.703  11.663  0.1865  0.1208  0.6495
  453TMC3    C5 6800   0.654   3.609  11.588 -0.1904 -0.1370  0.2650
  453TMC3    C6 6801   0.556   3.536  11.640  0.0304  0.1881  0.1310
  453TMC3     C 6802   0.811   3.757  11.870  0.5781 -0.9101 -0.3069
  453TMC3     O 6803   0.916   3.760  11.802  0.2187  0.2484  0.5337
  453TMC3     H 6804   0.576   3.617  11.957 -2.8550  1.9451 -0.3544
  453TMC3    H1 6805   0.801   3.753  11.609 -1.0078  0.1558 -1.0996
  453TMC3    H2 6806   0.496   3.466  11.582  0.0491 -0.3334  0.7360
  453TMC3    C7 6807   0.703   3.575  11.453  0.1308  0.0594  0.0175
  453TMC3    C8 6808   0.471   3.439  11.838  0.7073  0.5196  0.2472
  453TMC3    O1 6809   0.756   3.668  11.396  0.0605  0.3688 -0.1553
  453TMC3    O2 6810   0.384   3.445  11.924  0.1329 -0.9598 -0.2421
  454MPD2     C 6811   4.331   2.695  16.230 -0.2578  0.4897  0.0117
  454MPD2    C1 6812   4.257   2.680  16.108 -0.4610  0.1828  0.4743
  454MPD2    C2 6813   4.125   2.735  16.097  0.1644  0.1647 -0.0947
  454MPD2    C3 6814   4.060   2.778  16.212  0.1861 -0.2972  0.1108
  454MPD2    C4 6815   4.136   2.793  16.332  0.2287 -0.1176 -0.1082
  454MPD2    C5 6816   4.268   2.755  16.336 -0.0768 -0.0622 -0.2362
  454MPD2     H 6817   4.070   2.735  16.004 -2.1447 -2.0734  1.2442
  454MPD2    H1 6818   4.088   2.822  16.424  2.0985 -3.1415  1.8284
  454MPD2    H2 6819   4.423   2.643  16.255 -0.0199  1.9069  2.1119
  454MPD2    H3 6820   4.321   2.768  16.430  1.0234  0.0629 -0.8704
  454MPD2     N 6821   3.923   2.812  16.221  0.0594  0.3988 -0.0667
  454MPD2    H5 6822   3.891   2.862  16.303 -0.1325 -0.4370  0.3684
  454MPD2    N1 6823   4.304   2.598  16.005 -0.6794 -0.2652  0.1544
  454MPD2    H7 6824   4.249   2.592  15.920 -1.0692 -0.6283  0.4373
  455TMC3    C1 6825   3.702   2.828  16.157  0.2243 -0.2905 -0.2191
  455TMC3    C2 6826   3.675   2.931  16.230  0.4150  0.3626 -1.1280
  455TMC3    C3 6827   3.556   2.944  16.295  0.6408  0.4284 -0.6879
  455TMC3    C4 6828   3.611   2.722  16.143  0.0933 -0.7470  0.3311
  455TMC3    C5 6829   3.483   2.735  16.201 -0.0046 -0.1288  0.3815
  455TMC3    C6 6830   3.459   2.850  16.276 -0.2366 -0.2453 -0.6357
  455TMC3     C 6831   3.830   2.786  16.125 -0.4569  0.1924  0.0540
  455TMC3     O 6832   3.842   2.710  16.031  0.7985 -0.1552  0.2592
  455TMC3     H 6833   3.746   3.013  16.230  1.2062 -0.3103  0.4132
  455TMC3    H1 6834   3.634   2.631  16.088 -0.9065 -0.2484 -0.8858
  455TMC3    H2 6835   3.357   2.863  16.311  0.3881 -0.2641  1.1972
  455TMC3    C7 6836   3.365   2.691  16.126  0.0260 -0.6616  0.4424
  455TMC3    C8 6837   3.510   3.056  16.385  0.0025  0.5359 -0.8171
  455TMC3    O1 6838   3.263   2.758  16.137  0.6514 -0.0108  0.3422
  455TMC3    O2 6839   3.392   3.085  16.392  0.4977  0.1873  0.1714
  456MPD2     C 6840   2.189   3.316  15.338  0.4815  0.5486  0.4257
  456MPD2    C1 6841   2.204   3.184  15.387 -0.0659 -0.3005  0.7555
  456MPD2    C2 6842   2.111   3.129  15.473 -0.3553  1.1345 -0.4929
  456MPD2    C3 6843   2.003   3.204  15.519 -0.6072 -0.5807  0.9034
  456MPD2    C4 6844   1.986   3.334  15.466 -0.5010 -0.1495  0.0948
  456MPD2    C5 6845   2.079   3.390  15.380  0.2351 -0.3841 -0.0551
  456MPD2     H 6846   2.123   3.025  15.502 -2.2469  0.7157 -1.2583
  456MPD2    H1 6847   1.897   3.392  15.486 -0.1291  1.2144 -2.2120
  456MPD2    H2 6848   2.263   3.372  15.282 -0.3590  1.9954  0.7680
  456MPD2    H3 6849   2.068   3.489  15.337  0.9827 -0.2188  0.1421
  456MPD2     N 6850   1.912   3.142  15.606  0.2259  0.3586  0.4693
  456MPD2    H5 6851   1.932   3.048  15.637  0.9460  0.5318  0.5330
  456MPD2    N1 6852   2.319   3.110  15.342  0.6151 -0.0508  0.6472
  456MPD2    H7 6853   2.357   3.156  15.260 -0.7164 -0.1149 -0.0085
  457TMC3    C1 6854   1.716   3.109  15.736 -0.4307 -0.2454 -0.0167
  457TMC3    C2 6855   1.596   3.168  15.771  0.1488  0.3452 -0.1877
  457TMC3    C3 6856   1.520   3.111  15.872 -0.1918  0.2490 -0.2485
  457TMC3    C4 6857   1.771   3.008  15.819 -0.1249 -0.7176 -0.3669
  457TMC3    C5 6858   1.692   2.953  15.916  0.4103 -0.2651  0.0297
  457TMC3    C6 6859   1.565   2.999  15.938  0.2328 -0.2389  0.2479
  457TMC3     C 6860   1.798   3.201  15.655  0.5438 -0.4286 -1.1971
  457TMC3     O 6861   1.755   3.316  15.638 -0.0656  0.0468  0.0968
  457TMC3     H 6862   1.566   3.258  15.720 -1.7415 -0.6896 -0.9014
  457TMC3    H1 6863   1.875   2.982  15.804 -0.3444 -0.6336 -2.0669
  457TMC3    H2 6864   1.498   2.946  16.005 -0.8919  1.6877  0.6651
  457TMC3    C7 6865   1.763   2.946  16.038  0.3110 -0.6810 -0.2194
  457TMC3    C8 6866   1.449   3.191  15.977 -0.0476 -0.2767 -0.2440
  457TMC3    O1 6867   1.884   2.935  16.027  0.5012  0.1523  0.5825
  457TMC3    O2 6868   1.457   3.158  16.095 -0.1124 -0.1915 -0.7058
  458MPD2     C 6869   0.149   2.284  11.941  0.3390 -0.0764  0.3798
  458MPD2    C1 6870   0.078   2.327  12.050  0.7071 -0.1109 -0.1501
  458MPD2    C2 6871   4.702   2.398  12.025 -0.1170  0.2931 -0.0353
  458MPD2    C3 6872   4.653   2.419  11.896  0.2088 -0.6313 -0.0663
  458MPD2    C4 6873   4.727   2.367  11.789  0.2513 -0.4550 -0.1233
  458MPD2    C5 6874   0.104   2.304  11.816 -0.0508  0.3842  0.4710
  458MPD2     H 6875   4.656   2.441  12.113  0.6439  0.8454  0.0960
  458MPD2    H1 6876   4.702   2.372  11.683 -1.3163  0.2538  0.2786
  458MPD2    H2 6877   0.239   2.229  11.968  1.0972  0.7450 -0.4844
  458MPD2    H3 6878   0.158   2.263  11.731 -1.3083 -0.0890 -0.0981
  458MPD2     N 6879   4.529   2.490  11.878  0.8597 -0.0314  0.4525
  458MPD2    H5 6880   4.485   2.528  11.962 -1.2357 -0.9654 -0.2189
  458MPD2    N1 6881   0.131   2.320  12.183 -0.1378  0.4048 -0.0749
  458MPD2    H7 6882   0.230   2.300  12.193 -0.0026  2.1376  1.9351
  459TMC3    C1 6883   0.156   2.356  12.416  0.6096 -0.3438 -0.6310
  459TMC3    C2 6884   0.234   2.468  12.408  0.3370 -0.0891 -0.7335
  459TMC3    C3 6885   0.312   2.500  12.511 -0.2853  0.1007 -0.9086
  459TMC3    C4 6886   0.137   2.290  12.534  0.1870  0.4445  0.0155
  459TMC3    C5 6887   0.217   2.328  12.642  0.1225  0.0418  0.8754
  459TMC3    C6 6888   0.309   2.435  12.629  0.4290 -0.8441 -0.4736
  459TMC3     C 6889   0.065   2.346  12.307  0.1193  0.4212  0.0816
  459TMC3     O 6890   4.687   2.363  12.324  0.0052  0.0491 -0.2627
  459TMC3     H 6891   0.259   2.511  12.312 -2.7668 -1.3029 -2.0859
  459TMC3    H1 6892   0.066   2.207  12.534 -0.4616  0.9690  4.3024
  459TMC3    H2 6893   0.373   2.477  12.706  0.5600  1.5310 -1.8931
  459TMC3    C7 6894   0.181   2.269  12.771  0.0770  0.7713  0.5619
  459TMC3    C8 6895   0.355   2.637  12.515 -0.0421 -0.1201 -0.4569
  459TMC3    O1 6896   0.107   2.174  12.759 -0.2579 -0.0903  0.3688
  459TMC3    O2 6897   0.428   2.664  12.609 -0.5887  0.4541 -0.2974
  460MPD2     C 6898   3.962   4.683  10.467 -0.3639 -0.1797 -0.1316
  460MPD2    C1 6899   3.881   4.683  10.580  0.5653 -0.2408  0.2444
  460MPD2    C2 6900   3.799   0.046  10.620 -0.2425 -0.2309  0.3118
  460MPD2    C3 6901   3.808   0.159  10.534 -0.8832 -0.5156 -0.3464
  460MPD2    C4 6902   3.888   0.159  10.421 -0.9900  0.3712  0.2934
  460MPD2    C5 6903   3.970   0.057  10.392 -0.1350 -0.4742  0.5189
  460MPD2     H 6904   3.738   0.047  10.710  0.5750 -0.3115  0.8723
  460MPD2    H1 6905   3.902   0.243  10.354  1.3228  0.4187  0.8411
  460MPD2    H2 6906   4.033   4.604  10.443  0.5812 -0.1243  2.4765
  460MPD2    H3 6907   4.038   0.073  10.309 -1.8760 -0.3574 -0.8874
  460MPD2     N 6908   3.733   0.276  10.566  0.0982 -0.0543  0.0533
  460MPD2    H5 6909   3.665   0.258  10.639 -1.6721  2.8108 -0.8746
  460MPD2    N1 6910   3.896   4.569  10.663  0.4611 -0.1239  0.2317
  460MPD2    H7 6911   3.961   4.494  10.641 -0.9107 -0.2611 -3.3430
  461TMC3    C1 6912   3.649   0.488  10.531  0.3047  1.2528 -0.3155
  461TMC3    C2 6913   3.522   0.449  10.482 -0.2134  0.6701 -0.0842
  461TMC3    C3 6914   3.440   0.543  10.419  0.3213 -0.2917  0.1442
  461TMC3    C4 6915   3.687   0.618  10.528 -0.1268  0.2582 -0.3303
  461TMC3    C5 6916   3.608   0.714  10.477 -0.5645  0.0279  0.3009
  461TMC3    C6 6917   3.483   0.677  10.418  0.2682  0.2257  0.4551
  461TMC3     C 6918   3.756   0.398  10.515 -0.3387  0.0857  0.3436
  461TMC3     O 6919   3.863   0.441  10.479 -0.1750 -0.1639  0.5135
  461TMC3     H 6920   3.508   0.342  10.486 -0.2489  0.6569 -0.6343
  461TMC3    H1 6921   3.788   0.651  10.550  0.1387 -0.9014  0.1539
  461TMC3    H2 6922   3.430   0.755  10.364  0.3567  0.2626  0.4203
  461TMC3    C7 6923   3.659   0.845  10.449 -0.6462  0.0083  0.3851
  461TMC3    C8 6924   3.396   0.489  10.294 -0.4488  0.3308  0.4769
  461TMC3    O1 6925   3.570   0.934  10.455 -0.5158  0.3706  0.1221
  461TMC3    O2 6926   3.456   0.536  10.198  0.6840  0.2033  0.1733
  462TMC3    C1 6927   3.984   1.116  17.748  0.4841  0.2113 -0.7958
  462TMC3    C2 6928   4.008   1.043  17.632 -0.6987 -0.1994 -0.5773
  462TMC3    C3 6929   3.992   0.901  17.654  0.3964 -0.6371 -0.0006
  462TMC3    C4 6930   3.962   1.070   0.113  0.0749  0.0931 -0.6209
  462TMC3    C5 6931   3.967   0.935   0.136 -0.6721  0.0221 -0.2003
  462TMC3    C6 6932   3.994   0.848   0.024 -0.2642  0.2725 -0.1650
  462TMC3     C 6933   3.959   1.253  17.732 -0.4754  0.0353 -0.1007
  462TMC3     O 6934   3.918   1.315   0.073 -0.3979 -0.2612  0.2354
  462TMC3     H 6935   4.004   1.080  17.530 -1.4942  1.6973  0.1357
  462TMC3    H1 6936   3.950   1.139   0.196  0.0755 -0.5508 -0.0801
  462TMC3    H2 6937   3.967   0.744   0.040 -0.5178  0.4179  0.3474
  462TMC3    C7 6938   3.925   0.874   0.260 -0.0224 -0.1271  0.0108
  462TMC3    C8 6939   3.977   0.821  17.544  0.2242 -0.2652 -0.4603
  462TMC3    O1 6940   3.949   0.755   0.258 -0.3820  0.3987 -0.2891
  462TMC3    O2 6941   3.904   0.866  17.452 -0.8858  0.2346 -0.1545
  463MPD2     C 6942   0.383   3.734   1.064  0.1405  0.2025 -0.0047
  463MPD2    C1 6943   0.284   3.825   1.032  0.0132  0.3664 -0.5450
  463MPD2    C2 6944   0.316   3.958   1.022 -0.4416  0.3846  0.0696
  463MPD2    C3 6945   0.445   4.008   1.037 -0.4477  0.2715 -0.6516
  463MPD2    C4 6946   0.544   3.917   1.062 -0.5480  0.3458 -0.7575
  463MPD2    C5 6947   0.515   3.780   1.074 -0.2012  0.2653  0.4664
  463MPD2     H 6948   0.236   4.024   0.990  0.4838  1.5428  0.1389
  463MPD2    H1 6949   0.648   3.945   1.075 -0.4680  0.9394 -2.6361
  463MPD2    H2 6950   0.359   3.630   1.082  0.6465 -0.1375 -1.2781
  463MPD2    H3 6951   0.587   3.705   1.103 -1.5744 -0.8031  1.1478
  463MPD2     N 6952   0.467   4.151   1.045 -0.6498  0.8122 -0.1877
  463MPD2    H5 6953   0.551   4.182   1.092 -1.3953  0.3893  1.4111
  463MPD2    N1 6954   0.155   3.783   1.000 -0.6467  0.2895  0.1585
  463MPD2    H7 6955   0.086   3.858   1.008 -2.5160 -1.2913 -1.1943
  464TMC3    C1 6956   4.713   3.657   0.924 -0.2032  0.5809  0.3355
  464TMC3    C2 6957   4.629   3.755   0.970  0.6976  0.3321  0.0146
  464TMC3    C3 6958   4.498   3.748   0.936 -0.0325  0.2347  0.8915
  464TMC3    C4 6959   4.673   3.554   0.848  0.0868 -1.3179 -0.4327
  464TMC3    C5 6960   4.540   3.554   0.811 -0.0714  0.2770  0.1124
  464TMC3    C6 6961   4.448   3.648   0.855  0.2151  0.4824 -0.5112
  464TMC3     C 6962   0.110   3.658   0.963  0.4946 -0.2974  0.5429
  464TMC3     O 6963   0.179   3.561   0.929  0.0845  0.6968  0.5039
  464TMC3     H 6964   4.672   3.832   1.033  0.1763  0.0149  0.7594
  464TMC3    H1 6965   0.009   3.488   0.809  0.7224 -1.0514  0.3783
  464TMC3    H2 6966   4.344   3.637   0.830  0.1377  1.5911 -0.7008
  464TMC3    C7 6967   4.493   3.428   0.744  0.1850 -0.3844 -0.9695
  464TMC3    C8 6968   4.417   3.863   0.971 -0.2394  0.2478  0.0730
  464TMC3    O1 6969   4.573   3.338   0.759  0.4803 -0.2511  0.5539
  464TMC3    O2 6970   4.325   3.878   0.893 -0.4323  0.4585 -0.9226
  465MPD2     C 6971   0.978   2.836  16.164 -0.0660 -0.4111  0.3243
  465MPD2    C1 6972   0.916   2.911  16.265  0.0067 -0.1709 -0.4857
  465MPD2    C2 6973   0.801   2.986  16.232  0.2365  0.6361  0.1718
  465MPD2    C3 6974   0.768   3.002  16.102 -0.1555 -0.4914 -0.7482
  465MPD2    C4 6975   0.830   2.928  16.007  0.1392  0.9804 -0.0836
  465MPD2    C5 6976   0.932   2.843  16.042 -0.0800 -0.4355  0.0935
  465MPD2     H 6977   0.742   3.043  16.304  0.5437  0.0179  0.9115
  465MPD2    H1 6978   0.802   2.916  15.902  3.3177 -2.1840 -0.5802
  465MPD2    H2 6979   1.062   2.773  16.190 -0.5922 -1.6838 -1.0608
  465MPD2    H3 6980   0.985   2.782  15.969  0.0016  0.0075 -0.2127
  465MPD2     N 6981   0.659   3.085  16.066 -0.0932  0.0475 -0.5620
  465MPD2    H5 6982   0.608   3.143  16.133  1.7564 -1.0733  1.8160
  465MPD2    N1 6983   0.955   2.908  16.397 -0.1930  0.3591  0.1602
  465MPD2    H7 6984   0.899   2.971  16.453 -1.3511  1.0460 -1.7433
  466TMC3    C1 6985   0.319   3.295  16.070 -0.1134 -0.2094  0.3262
  466TMC3    C2 6986   0.328   3.420  16.012  0.0569 -0.7983 -0.1563
  466TMC3    C3 6987   0.429   3.436  15.929 -0.1207 -0.2553  0.4073
  466TMC3    C4 6988   0.415   3.204  16.041 -0.0671  0.2314  0.2237
  466TMC3    C5 6989   0.511   3.225  15.955 -0.2631 -0.1940  0.3510
  466TMC3    C6 6990   0.518   3.342  15.888  0.0931 -0.4734  0.3706
  466TMC3     C 6991   0.264   3.275  16.201  0.5245  0.0078 -0.0815
  466TMC3     O 6992   0.312   3.179  16.260 -0.1408 -0.1663 -0.1343
  466TMC3     H 6993   0.266   3.507  16.030 -1.5804 -1.5572 -2.1394
  466TMC3    H1 6994   0.404   3.106  16.085 -0.5278 -0.2817 -1.0232
  466TMC3    H2 6995   0.593   3.364  15.814 -0.9314 -1.5235 -0.9746
  466TMC3    C7 6996   0.612   3.119  15.940  0.1911 -0.1597 -0.1005
  466TMC3    C8 6997   0.455   3.573  15.894 -0.9822 -0.9516 -0.4979
  466TMC3    O1 6998   0.661   3.097  15.828  0.2750 -0.2804  0.5818
  466TMC3    O2 6999   0.507   3.599  15.787  0.3653  0.0423  0.2140
  467TMC3    C1 7000   1.938   1.696  13.812  0.5044 -0.1046  0.3358
  467TMC3    C2 7001   1.868   1.814  13.783 -0.3799 -0.3107  0.6799
  467TMC3    C3 7002   1.735   1.807  13.782  0.0914 -0.0897 -0.3183
  467TMC3    C4 7003   1.883   1.573  13.834  0.5329 -0.0755  0.8828
  467TMC3    C5 7004   1.744   1.582  13.831 -0.2224  0.0972 -0.3762
  467TMC3    C6 7005   1.666   1.693  13.816  0.5519 -0.3034 -0.1485
  467TMC3     C 7006   2.076   1.695  13.773 -0.4590  0.0820  1.4146
  467TMC3     O 7007   2.131   1.801  13.759  0.3880  0.5038  0.8010
  467TMC3     H 7008   1.926   1.903  13.758  0.5848 -1.1793 -0.1998
  467TMC3    H1 7009   1.934   1.478  13.845 -1.2141 -0.9485  1.4304
  467TMC3    H2 7010   1.559   1.683  13.806  0.1739  1.8374  1.9125
  467TMC3    C7 7011   1.678   1.477  13.901 -0.0498  0.2650  0.2798
  467TMC3    C8 7012   1.663   1.881  13.677 -0.0038  0.7801  1.1466
  467TMC3    O1 7013   1.749   1.385  13.942 -0.0652 -0.5069 -0.0002
  467TMC3    O2 7014   1.543   1.862  13.665 -0.0006  0.1378 -0.1330
  468MPD2     C 7015   0.526   0.040  10.953  0.3515 -0.1411 -0.2633
  468MPD2    C1 7016   0.659   0.020  10.970 -0.0013  0.4492 -0.0627
  468MPD2    C2 7017   0.698   4.632  11.013 -0.2648  0.3469 -0.3311
  468MPD2    C3 7018   0.612   4.524  11.019  0.2218 -0.3763  0.2467
  468MPD2    C4 7019   0.479   4.556  10.997 -0.5917  0.4891  0.1407
  468MPD2    C5 7020   0.434   4.680  10.974  0.4117 -0.3343 -0.2466
  468MPD2     H 7021   0.805   4.613  11.018 -0.0476  1.1371 -1.9859
  468MPD2    H1 7022   0.398   4.484  10.997  0.0466 -0.2287 -0.8331
  468MPD2    H2 7023   0.482   0.131  10.917 -2.0654 -1.4839 -0.6758
  468MPD2    H3 7024   0.328   4.696  10.959  0.4548  0.3553  0.1515
  468MPD2     N 7025   0.662   4.388  11.025 -0.3661  0.0662 -0.9165
  468MPD2    H5 7026   0.589   4.320  11.004  0.0786 -0.9969  1.0218
  468MPD2    N1 7027   0.763   0.116  10.957 -0.1169 -0.3955 -0.5463
  468MPD2    H7 7028   0.859   0.088  10.978 -0.0956 -1.1759 -1.6605
  469TMC3    C1 7029   0.856   0.331  10.955 -0.2509 -0.0835 -0.0156
  469TMC3    C2 7030   0.954   0.298  11.050  0.3678 -0.1718 -0.0370
  469TMC3    C3 7031   1.033   0.405  11.110  0.8280 -0.0032  0.6113
  469TMC3    C4 7032   0.843   0.464  10.929  0.2244 -0.3639 -0.7936
  469TMC3    C5 7033   0.926   0.560  10.974  0.6370 -0.6952 -0.2406
  469TMC3    C6 7034   1.017   0.535  11.066  0.0552 -0.1840  0.9364
  469TMC3     C 7035   0.737   0.248  10.940 -0.1524 -0.3854 -0.6582
  469TMC3     O 7036   0.631   0.309  10.929  0.0585  0.1359  0.3698
  469TMC3     H 7037   0.963   0.197  11.088  2.0004 -0.0378 -0.0785
  469TMC3    H1 7038   0.759   0.487  10.864 -1.0145 -0.3203  0.8350
  469TMC3    H2 7039   1.081   0.610  11.110  1.0978 -0.6503  0.2366
  469TMC3    C7 7040   0.888   0.694  10.944  0.2078  0.5730 -0.2595
  469TMC3    C8 7041   1.148   0.360  11.192  0.4411  0.2740  0.7559
  469TMC3    O1 7042   0.925   0.780  11.022 -0.1740 -0.3015  0.6501
  469TMC3    O2 7043   1.159   0.238  11.205 -0.1884 -0.0446 -0.3663
  470TMC3    C1 7044   3.331   0.693   0.165  0.1645  0.3004  0.0956
  470TMC3    C2 7045   3.343   0.828   0.196 -0.1462  0.6116 -0.2257
  470TMC3    C3 7046   3.314   0.866   0.326 -0.4991  0.5049 -0.4895
  470TMC3    C4 7047   3.302   0.590   0.254  0.7018  0.3275 -0.7953
  470TMC3    C5 7048   3.279   0.632   0.381 -0.3924 -0.2763  0.1674
  470TMC3    C6 7049   3.273   0.766   0.419 -0.2263 -0.2430 -0.2058
  470TMC3     C 7050   3.313   0.667   0.020  0.7175  0.3140  0.5427
  470TMC3     O 7051   3.314   0.769  17.711  0.1045 -0.3445 -0.1280
  470TMC3     H 7052   3.369   0.894   0.114 -3.1918  1.2275 -0.6842
  470TMC3    H1 7053   3.295   0.487   0.222 -2.1476  0.2563  0.0490
  470TMC3    H2 7054   3.248   0.797   0.520 -1.9346 -1.0199 -0.3890
  470TMC3    C7 7055   3.191   0.533   0.451 -0.1361 -0.7910  0.3614
  470TMC3    C8 7056   3.299   1.011   0.368  0.5372 -0.3511 -0.5831
  470TMC3    O1 7057   3.145   0.445   0.383 -0.1530 -0.0229 -0.2183
  470TMC3    O2 7058   3.299   1.042   0.483  0.1369  0.2224  0.1928
  471MPD2     C 7059   3.521   1.892  16.520 -0.2809  0.6337  0.5168
  471MPD2    C1 7060   3.649   1.829  16.503  0.4897 -0.2154 -0.0857
  471MPD2    C2 7061   3.710   1.779  16.617 -0.1950 -0.2708 -0.6522
  471MPD2    C3 7062   3.642   1.781  16.738 -0.0808  0.2265  0.2022
  471MPD2    C4 7063   3.523   1.839  16.749 -0.4148 -0.0211 -0.7005
  471MPD2    C5 7064   3.457   1.893  16.644 -0.2557 -0.2662 -0.6986
  471MPD2     H 7065   3.805   1.726  16.611  0.8102  1.3057  1.2168
  471MPD2    H1 7066   3.470   1.837  16.844 -0.5101 -1.1600 -0.7789
  471MPD2    H2 7067   3.462   1.940  16.443  0.1257  0.5610  0.1557
  471MPD2    H3 7068   3.363   1.939  16.670  0.5361  1.0752 -0.2391
  471MPD2     N 7069   3.707   1.746  16.861 -0.0395 -0.2835  0.0204
  471MPD2    H5 7070   3.658   1.777  16.944  1.0170  1.8740 -0.1584
  471MPD2    N1 7071   3.700   1.789  16.378 -1.0625 -0.0486 -0.2289
  471MPD2    H7 7072   3.793   1.751  16.369 -1.1069 -0.3633  0.6381
  472TMC3    C1 7073   3.720   1.775  16.143  0.1502 -0.1354 -0.3275
  472TMC3    C2 7074   3.674   1.809  16.020 -0.2860  0.6442  0.0227
  472TMC3    C3 7075   3.680   1.721  15.913  0.1816 -1.4175  0.0473
  472TMC3    C4 7076   3.800   1.657  16.156  0.1493  0.6486  0.4630
  472TMC3    C5 7077   3.791   1.566  16.053  0.5957  0.5028  0.3927
  472TMC3    C6 7078   3.733   1.600  15.932 -0.0086  0.1658  0.3006
  472TMC3     C 7079   3.645   1.825  16.259 -0.1009 -1.0275  0.2548
  472TMC3     O 7080   3.549   1.898  16.239  0.0253  0.2864  0.3556
  472TMC3     H 7081   3.602   1.890  16.009 -1.9388 -1.2681 -2.9564
  472TMC3    H1 7082   3.818   1.630  16.259 -0.8141 -1.7897 -0.0005
  472TMC3    H2 7083   3.747   1.539  15.843 -0.4292 -1.4600  1.3526
  472TMC3    C7 7084   3.755   1.427  16.097 -0.2474 -0.3325  0.4168
  472TMC3    C8 7085   3.547   1.699  15.866 -0.3737  0.3708  0.1158
  472TMC3    O1 7086   3.797   1.381  16.204 -0.4652 -0.3938  0.3458
  472TMC3    O2 7087   3.448   1.740  15.924  0.5832  0.5507 -0.0188
  473MPD2     C 7088   3.596   3.733  14.004 -0.6640  0.4228 -0.4168
  473MPD2    C1 7089   3.560   3.854  13.945 -0.8624 -0.1478  0.8401
  473MPD2    C2 7090   3.575   3.967  14.024 -0.3130  0.3106  0.6132
  473MPD2    C3 7091   3.629   3.966  14.148  0.2517  0.4883  0.2616
  473MPD2    C4 7092   3.686   3.852  14.192 -1.2359 -0.7354 -0.6198
  473MPD2    C5 7093   3.664   3.735  14.121 -0.3072 -0.1250 -1.2374
  473MPD2     H 7094   3.556   4.060  13.971 -0.6979  1.3980  2.6496
  473MPD2    H1 7095   3.732   3.848  14.290 -0.7586 -2.0515 -0.8895
  473MPD2    H2 7096   3.581   3.637  13.957  2.4630 -0.3027  0.1250
  473MPD2    H3 7097   3.700   3.646  14.172  1.2189  1.5247  0.5833
  473MPD2     N 7098   3.630   4.083  14.231  0.2714 -0.1418  0.4432
  473MPD2    H5 7099   3.689   4.075  14.313 -0.2451 -0.0571  0.8281
  473MPD2    N1 7100   3.505   3.866  13.812  0.2914  0.2179 -0.1051
  473MPD2    H7 7101   3.468   3.957  13.790 -1.0039 -0.5200 -1.0154
  474TMC3    C1 7102   3.593   4.306  14.293  0.2657 -0.0149 -0.6639
  474TMC3    C2 7103   3.496   4.405  14.295  0.2911  0.5171 -0.6670
  474TMC3    C3 7104   3.517   4.514  14.380 -0.5153  0.7063  0.2309
  474TMC3    C4 7105   3.719   4.329  14.332 -0.6525 -0.1850 -0.0852
  474TMC3    C5 7106   3.744   4.442  14.410  0.0970 -0.1398 -0.0099
  474TMC3    C6 7107   3.644   4.537  14.432 -0.3026  0.0662  0.1103
  474TMC3     C 7108   3.563   4.201  14.204 -0.3823  0.0552  0.4500
  474TMC3     O 7109   3.470   4.223  14.130  0.7271 -0.3203  0.0081
  474TMC3     H 7110   3.397   4.378  14.260 -0.5648  2.1530  0.4895
  474TMC3    H1 7111   3.795   4.252  14.319  1.1482  1.7284 -0.8179
  474TMC3    H2 7112   3.663   4.624  14.495  0.8257 -0.8330  1.0075
  474TMC3    C7 7113   3.888   4.472  14.436 -0.1581 -0.1659  0.1531
  474TMC3    C8 7114   3.431   4.620  14.328 -0.0299 -0.2540  0.1800
  474TMC3    O1 7115   3.969   4.425  14.359 -0.6072 -0.6941 -0.0248
  474TMC3    O2 7116   3.319   4.592  14.287 -0.2333 -0.8039 -0.4995
  475MPD2     C 7117   1.947   1.752  10.660  0.1057 -0.1166  0.2639
  475MPD2    C1 7118   1.951   1.872  10.592 -0.7451  0.7074  0.2472
  475MPD2    C2 7119   1.891   1.985  10.641 -0.2581  0.2581 -0.5101
  475MPD2    C3 7120   1.843   1.985  10.771 -0.0399 -0.0756  0.2750
  475MPD2    C4 7121   1.844   1.869  10.846 -0.0439  0.5743  0.4129
  475MPD2    C5 7122   1.896   1.760  10.787  0.3760  0.5432 -0.2122
  475MPD2     H 7123   1.900   2.078  10.586 -0.2002  0.7590  0.3476
  475MPD2    H1 7124   1.799   1.865  10.945 -0.7660  3.9694  0.2250
  475MPD2    H2 7125   1.981   1.657  10.621 -0.5207 -0.2527  0.0537
  475MPD2    H3 7126   1.898   1.671  10.848 -0.1525  0.1059 -0.8377
  475MPD2     N 7127   1.806   2.109  10.821  0.5054 -0.4875  0.0651
  475MPD2    H5 7128   1.810   2.190  10.760 -2.0937  0.1071  0.6713
  475MPD2    N1 7129   2.023   1.871  10.470 -0.4231  0.1058  0.3910
  475MPD2    H7 7130   2.043   1.776  10.438 -0.7858  0.0594  0.2993
  476TMC3    C1 7131   2.134   2.098  10.457 -0.3027 -0.6235  0.1555
  476TMC3    C2 7132   2.170   2.200  10.371 -0.1103  0.1670  0.1909
  476TMC3    C3 7133   2.214   2.317  10.420 -0.3378 -0.3317 -0.6080
  476TMC3    C4 7134   2.163   2.116  10.593 -0.4721 -0.0583  0.1157
  476TMC3    C5 7135   2.206   2.245  10.644  0.3030 -1.0274  0.3871
  476TMC3    C6 7136   2.233   2.341  10.553 -0.5508  0.0857 -0.0546
  476TMC3     C 7137   2.079   1.977  10.395 -0.3477  0.3119 -0.0177
  476TMC3     O 7138   2.101   1.958  10.276  0.4684 -0.1966 -0.0204
  476TMC3     H 7139   2.148   2.192  10.265  1.3003 -0.1749 -0.0782
  476TMC3    H1 7140   2.146   2.036  10.665  2.0726 -0.7567 -0.0589
  476TMC3    H2 7141   2.287   2.431  10.583  0.9963 -1.4045  1.6701
  476TMC3    C7 7142   2.172   2.283  10.782 -0.2601 -0.0560  0.5312
  476TMC3    C8 7143   2.287   2.396  10.331  0.4304 -0.6762 -0.0467
  476TMC3    O1 7144   2.153   2.184  10.858 -0.4438  0.0866 -0.1197
  476TMC3    O2 7145   2.284   2.514  10.350  0.4424  0.3178 -0.3023
  477MPD2     C 7146   4.606   3.794  11.670  0.3743 -0.2949  0.0903
  477MPD2    C1 7147   4.483   3.727  11.675 -0.2420 -0.6184  0.6351
  477MPD2    C2 7148   4.465   3.635  11.782  0.4311 -0.6223  0.3341
  477MPD2    C3 7149   4.559   3.615  11.876 -0.6021  0.0442  0.4605
  477MPD2    C4 7150   4.674   3.691  11.877 -0.2498  0.6498 -0.7094
  477MPD2    C5 7151   4.694   3.775  11.768 -0.5838  0.3045 -0.1261
  477MPD2     H 7152   4.372   3.580  11.791 -1.4397  2.3284 -0.9002
  477MPD2    H1 7153   0.003   3.684  11.960 -2.1170 -0.5662  0.7397
  477MPD2    H2 7154   4.633   3.877  11.605 -0.5483 -1.4067 -1.7149
  477MPD2    H3 7155   0.032   3.849  11.777  0.6064 -1.2498  2.4037
  477MPD2     N 7156   4.518   3.526  11.974 -0.2280  0.2231  0.2652
  477MPD2    H5 7157   4.439   3.469  11.943 -0.6369  0.8978  0.0582
  477MPD2    N1 7158   4.388   3.751  11.575  0.7412  0.1309  0.1952
  477MPD2    H7 7159   4.406   3.829  11.512  0.6931 -0.0858 -0.0852
  478TMC3    C1 7160   4.167   3.786  11.491 -0.0985  0.0707  0.2825
  478TMC3    C2 7161   4.045   3.812  11.526 -0.0779  0.0973 -0.0239
  478TMC3    C3 7162   3.955   3.847  11.428 -0.3763  0.7465  0.2408
  478TMC3    C4 7163   4.209   3.791  11.360 -0.6964  0.8625  0.4203
  478TMC3    C5 7164   4.118   3.818  11.263  0.0549  0.7656  0.1095
  478TMC3    C6 7165   3.990   3.843  11.289 -0.5986 -0.0800  0.8592
  478TMC3     C 7166   4.253   3.719  11.579  0.2166 -0.6889 -0.4098
  478TMC3     O 7167   4.192   3.645  11.653  0.1752  0.4549 -0.5347
  478TMC3     H 7168   4.014   3.809  11.629  1.4353 -0.0739  0.4331
  478TMC3    H1 7169   4.312   3.767  11.337 -0.9170 -1.2270  1.6481
  478TMC3    H2 7170   3.917   3.874  11.216  0.4881  0.9149  0.1924
  478TMC3    C7 7171   4.173   3.808  11.128  0.3073 -0.4367 -0.2261
  478TMC3    C8 7172   3.819   3.890  11.472 -0.0721 -0.4477  0.9057
  478TMC3    O1 7173   4.282   3.753  11.109  0.2431  0.5588 -0.3010
  478TMC3    O2 7174   3.789   3.853  11.586 -0.3213 -0.0734 -0.0014
  479MPD2     C 7175   3.349   0.969  14.751  0.3266  0.0803  0.3659
  479MPD2    C1 7176   3.281   0.953  14.869 -0.0392 -0.5586 -0.4638
  479MPD2    C2 7177   3.320   1.000  14.990 -0.5045  0.0576  0.0734
  479MPD2    C3 7178   3.423   1.101  14.985  0.3453 -0.0669 -0.6453
  479MPD2    C4 7179   3.490   1.121  14.871  0.4051  0.5035 -0.5792
  479MPD2    C5 7180   3.453   1.058  14.752 -0.6296  0.1230 -0.4717
  479MPD2     H 7181   3.259   0.971  15.075 -0.0106  0.7828  0.6829
  479MPD2    H1 7182   3.571   1.192  14.855 -0.8273  1.8049 -1.0804
  479MPD2    H2 7183   3.309   0.933  14.657 -0.1967 -0.5914  0.8501
  479MPD2    H3 7184   3.501   1.083  14.658 -0.6442 -2.4455 -1.1661
  479MPD2     N 7185   3.465   1.174  15.095 -0.0510 -0.1901 -0.0432
  479MPD2    H5 7186   3.552   1.224  15.084  0.3056 -0.4976  1.4104
  479MPD2    N1 7187   3.160   0.872  14.862  0.5380  0.5547 -0.4516
  479MPD2    H7 7188   3.129   0.869  14.766  0.4586 -1.3997 -0.3782
  480TMC3    C1 7189   3.114   1.065  15.381  0.9268 -0.3203  0.5117
  480TMC3    C2 7190   3.017   1.113  15.302 -0.6037 -1.0026 -0.0214
  480TMC3    C3 7191   3.054   1.178  15.186  0.3254 -0.3101 -0.5914
  480TMC3    C4 7192   3.248   1.076  15.353  0.1994  0.0966 -0.2366
  480TMC3    C5 7193   3.272   1.147  15.239  0.1976 -0.0104 -0.1114
  480TMC3    C6 7194   3.180   1.193  15.154 -0.6266  0.5893 -0.5368
  480TMC3     C 7195   3.080   0.983  15.500 -0.7986 -0.1106  0.6700
  480TMC3     O 7196   3.176   0.924  15.553  0.0632 -0.3749  0.4441
  480TMC3     H 7197   2.916   1.078  15.321 -0.8532 -1.0309 -1.3741
  480TMC3    H1 7198   3.333   1.030  15.402 -0.1833 -0.2671  0.0942
  480TMC3    H2 7199   3.210   1.264  15.077 -0.4871  0.8420 -0.2510
  480TMC3    C7 7200   3.421   1.155  15.222 -0.0721  0.1944 -0.2218
  480TMC3    C8 7201   2.953   1.192  15.082  0.3174  0.2183 -0.1680
  480TMC3    O1 7202   3.488   1.179  15.322 -0.0505 -0.0081 -0.1051
  480TMC3    O2 7203   2.837   1.171  15.111 -0.4993 -0.0290  0.1098
  481MPD2     C 7204   0.021   1.207  14.141 -0.1251  0.0752  0.1214
  481MPD2    C1 7205   4.645   1.150  14.180 -0.8704 -0.2837  0.1836
  481MPD2    C2 7206   4.648   1.045  14.270  0.1833 -0.7087 -0.2320
  481MPD2    C3 7207   0.026   1.022  14.339 -0.5510 -0.5308 -0.1331
  481MPD2    C4 7208   0.139   1.084  14.301  0.2353  0.2676  0.5283
  481MPD2    C5 7209   0.143   1.177  14.204  0.5447 -0.5308  0.1836
  481MPD2     H 7210   4.555   0.999  14.301 -0.2689  1.0246  0.9913
  481MPD2    H1 7211   0.231   1.053  14.350 -0.3361 -1.0407  0.7931
  481MPD2    H2 7212   0.026   1.276  14.058  1.9247  0.7540  0.8103
  481MPD2    H3 7213   0.232   1.235  14.182  0.0850  0.0789 -0.0545
  481MPD2     N 7214   0.041   0.923  14.446  0.2324  0.5222  0.3086
  481MPD2    H5 7215   0.129   0.905  14.492  1.3842 -0.6235 -2.3602
  481MPD2    N1 7216   4.524   1.199  14.130  0.3391  0.0110  0.2306
  481MPD2    H7 7217   4.444   1.139  14.150  1.5597 -1.8236 -0.3451
  482TMC3    C1 7218   4.375   1.301  14.003  0.2231 -0.8024  0.4625
  482TMC3    C2 7219   4.323   1.174  13.976 -0.8201  0.3062 -0.0512
  482TMC3    C3 7220   4.204   1.166  13.914 -0.1827  0.3388 -0.5668
  482TMC3    C4 7221   4.302   1.412  13.966  0.2803  0.1283  0.2640
  482TMC3    C5 7222   4.175   1.405  13.922  0.5641  0.2378  0.5911
  482TMC3    C6 7223   4.131   1.281  13.892  0.1564 -0.4048  0.0635
  482TMC3     C 7224   4.510   1.315  14.060  0.5034  0.4376  0.5455
  482TMC3     O 7225   4.580   1.413  14.032 -0.0330 -0.5430  0.3216
  482TMC3     H 7226   4.381   1.083  13.971 -1.0212  0.2091 -0.6094
  482TMC3    H1 7227   4.351   1.507  13.987 -0.9625  0.8206  0.0287
  482TMC3    H2 7228   4.025   1.273  13.869  0.0656  2.1344 -0.3210
  482TMC3    C7 7229   4.114   1.522  13.857 -0.0474  0.0689  0.2794
  482TMC3    C8 7230   4.178   1.045  13.842 -0.6503 -0.7450  0.1087
  482TMC3    O1 7231   3.997   1.542  13.889  0.0010  0.2507 -0.5502
  482TMC3    O2 7232   4.234   0.944  13.884  0.1467  0.2655 -0.1100
  483TMC3    C1 7233   2.470   4.255   0.316  0.3418  0.0964 -0.6915
  483TMC3    C2 7234   2.556   4.352   0.360 -0.4388  0.0008  0.2617
  483TMC3    C3 7235   2.691   4.334   0.358 -0.1867  0.3900 -0.6044
  483TMC3    C4 7236   2.515   4.146   0.254 -0.0647 -0.2256 -0.6844
  483TMC3    C5 7237   2.652   4.122   0.265  0.0955 -0.1694  0.4740
  483TMC3    C6 7238   2.740   4.221   0.305  0.1123 -0.2069  0.1537
  483TMC3     C 7239   2.323   4.274   0.317  0.0396  0.2138  0.2156
  483TMC3     O 7240   2.280   4.388   0.330  0.0335  0.2947 -0.3104
  483TMC3     H 7241   2.505   4.433   0.411  0.7038  0.6059  0.4405
  483TMC3    H1 7242   2.449   4.076   0.204 -1.4108  0.8852 -0.4408
  483TMC3    H2 7243   2.848   4.215   0.295 -0.0042  0.7784 -1.7044
  483TMC3    C7 7244   2.721   4.014   0.190 -0.1943 -0.6605  0.7879
  483TMC3    C8 7245   2.782   4.435   0.401  0.1659  0.0135  0.0846
  483TMC3    O1 7246   2.817   4.049   0.131 -0.2319 -0.0327 -0.3642
  483TMC3    O2 7247   2.871   4.450   0.317 -0.8467 -0.0453 -0.0599
  484MPD2     C 7248   0.213   2.940  12.408  0.5175  0.0602  0.0075
  484MPD2    C1 7249   0.320   2.855  12.425  0.3515 -0.5484  0.2302
  484MPD2    C2 7250   0.451   2.904  12.440  0.3019 -0.1189  0.2531
  484MPD2    C3 7251   0.475   3.037  12.423  0.5228 -0.5431 -0.7919
  484MPD2    C4 7252   0.367   3.122  12.406  1.3030  0.8627  0.0327
  484MPD2    C5 7253   0.238   3.075  12.405 -0.1231  0.0338  0.1738
  484MPD2     H 7254   0.537   2.839  12.452  1.5524  1.6605  1.0674
  484MPD2    H1 7255   0.378   3.230  12.394  1.1137  0.6436 -1.9644
  484MPD2    H2 7256   0.113   2.901  12.391  0.1929  1.5095 -1.3326
  484MPD2    H3 7257   0.152   3.141  12.399  0.0663  0.4540  2.0875
  484MPD2     N 7258   0.603   3.098  12.427  0.0738 -0.0718  0.1375
  484MPD2    H5 7259   0.609   3.198  12.410 -1.0241  0.3496  2.2856
  484MPD2    N1 7260   0.294   2.718  12.429  0.2992  0.2777 -0.0614
  484MPD2    H7 7261   0.216   2.681  12.376  0.4364  0.4353 -0.3755
  485TMC3    C1 7262   0.842   3.110  12.454  0.9932  0.1486 -0.2820
  485TMC3    C2 7263   0.944   3.067  12.536 -0.3423 -0.2604 -0.0248
  485TMC3    C3 7264   1.068   3.131  12.530 -0.3888  0.1781 -0.3862
  485TMC3    C4 7265   0.863   3.197  12.352  0.3147 -0.0411 -0.6948
  485TMC3    C5 7266   0.989   3.244  12.340  0.3300  0.3194  0.1427
  485TMC3    C6 7267   1.088   3.229  12.438  0.5218 -0.0854  0.4701
  485TMC3     C 7268   0.719   3.041  12.466  0.4078  0.0344 -0.9566
  485TMC3     O 7269   0.740   2.930  12.511  0.3621 -0.1065 -0.0389
  485TMC3     H 7270   0.931   3.001  12.621  0.5595  0.3516  0.5920
  485TMC3    H1 7271   0.800   3.196  12.264 -0.3665 -1.0847 -0.1967
  485TMC3    H2 7272   1.183   3.275  12.417 -0.7572  2.4481  0.2189
  485TMC3    C7 7273   1.036   3.262  12.201 -0.6436 -0.0435  0.0600
  485TMC3    C8 7274   1.184   3.044  12.522  0.2335 -0.6307  0.1416
  485TMC3    O1 7275   0.962   3.320  12.123  0.0975  0.0057 -0.1285
  485TMC3    O2 7276   1.236   3.060  12.411  0.1884  0.7625 -1.0394
  486MPD2     C 7277   2.475   1.944  13.034 -0.3552 -0.4561  0.0430
  486MPD2    C1 7278   2.459   1.884  12.913  0.0962 -0.0724 -0.9417
  486MPD2    C2 7279   2.377   1.949  12.823 -1.0629  0.3588  0.2117
  486MPD2    C3 7280   2.302   2.064  12.862  0.2046  0.5093  0.8500
  486MPD2    C4 7281   2.328   2.124  12.984  0.1606 -0.1885 -0.4478
  486MPD2    C5 7282   2.408   2.059  13.075  0.0920  0.0357 -0.0158
  486MPD2     H 7283   2.385   1.926  12.718 -0.2203  1.2758  0.0753
  486MPD2    H1 7284   2.274   2.214  13.011  1.0753 -0.2434  1.5041
  486MPD2    H2 7285   2.532   1.895  13.112 -0.4296  0.8916  0.9622
  486MPD2    H3 7286   2.428   2.107  13.170  2.6939  0.0371 -0.5589
  486MPD2     N 7287   2.221   2.121  12.767 -0.2890  0.1202  0.3839
  486MPD2    H5 7288   2.221   2.085  12.672  0.6186  0.5427  0.2176
  486MPD2    N1 7289   2.527   1.765  12.895 -0.1192 -0.4439  0.2246
  486MPD2    H7 7290   2.565   1.728  12.982  2.1644 -0.1165 -0.6263
  487TMC3    C1 7291   2.559   1.545  12.805  0.1434  0.5215  0.0939
  487TMC3    C2 7292   2.499   1.445  12.736 -0.1352  0.7880  0.2122
  487TMC3    C3 7293   2.566   1.326  12.727 -0.2237 -0.1412 -0.2801
  487TMC3    C4 7294   2.669   1.529  12.881 -0.0958  0.4818 -0.3237
  487TMC3    C5 7295   2.742   1.413  12.861  0.3613  0.0498 -0.1512
  487TMC3    C6 7296   2.693   1.316  12.776  0.4353 -0.3986 -0.1110
  487TMC3     C 7297   2.512   1.687  12.784  0.0726  0.6580  1.3269
  487TMC3     O 7298   2.447   1.704  12.680  0.3204  0.4279  0.2385
  487TMC3     H 7299   2.409   1.463  12.678 -0.4356 -1.3169  0.0467
  487TMC3    H1 7300   2.723   1.614  12.923 -1.8694  1.8685 -0.8515
  487TMC3    H2 7301   2.740   1.219  12.761  0.8468 -0.2163 -0.0134
  487TMC3    C7 7302   2.778   1.350  12.982 -0.6751  0.3234  0.0713
  487TMC3    C8 7303   2.474   1.215  12.745 -0.4746  0.2297  0.7112
  487TMC3    O1 7304   2.869   1.264  12.974 -0.4038  0.5102 -0.1361
  487TMC3    O2 7305   2.354   1.230  12.737 -0.2560 -0.1037  0.0371
  488MPD2     C 7306   2.744   3.013  16.337 -0.8345  0.2837 -0.6365
  488MPD2    C1 7307   2.780   3.138  16.382 -0.2467  0.7421 -0.2021
  488MPD2    C2 7308   2.763   3.169  16.517  0.3183  0.3763 -0.1245
  488MPD2    C3 7309   2.724   3.072  16.600  0.2727 -0.7334  0.1463
  488MPD2    C4 7310   2.681   2.943  16.558 -0.5758 -0.3036 -0.0747
  488MPD2    C5 7311   2.695   2.916  16.424  0.3082  0.2054  0.6530
  488MPD2     H 7312   2.786   3.268  16.554  1.9685  0.0149 -0.1914
  488MPD2    H1 7313   2.671   2.859  16.626 -1.3700 -0.7098 -0.6999
  488MPD2    H2 7314   2.755   2.980  16.234  1.0306 -0.3660 -0.2256
  488MPD2    H3 7315   2.664   2.820  16.384  0.3638  0.6124 -0.3446
  488MPD2     N 7316   2.714   3.112  16.736 -0.0802  0.6256 -0.0697
  488MPD2    H5 7317   2.730   3.209  16.759 -0.5598  0.0877  2.5230
  488MPD2    N1 7318   2.830   3.241  16.302  0.3684  0.5984 -0.2451
  488MPD2    H7 7319   2.855   3.328  16.348  0.5380  1.3885 -1.8234
  489TMC3    C1 7320   2.671   3.119  16.959  0.2507  0.5959  0.3420
  489TMC3    C2 7321   2.643   3.252  16.948 -0.2055  0.6081  0.1438
  489TMC3    C3 7322   2.670   3.341  17.050 -0.0352 -0.0502  0.3397
  489TMC3    C4 7323   2.715   3.073  17.072 -0.0187  0.3017 -0.7731
  489TMC3    C5 7324   2.734   3.163  17.178 -0.2074 -0.2184  0.6564
  489TMC3    C6 7325   2.709   3.299  17.171  0.2747  0.2385  0.2453
  489TMC3     C 7326   2.673   3.035  16.840  0.0131  0.2228 -0.0191
  489TMC3     O 7327   2.668   2.913  16.866 -0.2427 -0.1290  0.4805
  489TMC3     H 7328   2.596   3.293  16.859 -0.7241  0.0689  0.1689
  489TMC3    H1 7329   2.743   2.968  17.075  0.7115  0.5177  0.0364
  489TMC3    H2 7330   2.730   3.362  17.257  3.3274 -0.1390 -0.2227
  489TMC3    C7 7331   2.767   3.098  17.301  0.3912 -0.2543 -0.0079
  489TMC3    C8 7332   2.766   3.441  17.004  0.3723  0.2472  0.1770
  489TMC3    O1 7333   2.856   3.013  17.300 -0.2845  0.1229  0.4492
  489TMC3    O2 7334   2.809   3.414  16.893  0.3579 -0.2024 -0.5481
  490MPD2     C 7335   3.751   2.820  17.110 -0.2476  0.2776 -0.0947
  490MPD2    C1 7336   3.716   2.691  17.135  0.6326 -0.2967  0.2112
  490MPD2    C2 7337   3.817   2.612  17.188 -0.6226  0.2158  0.0664
  490MPD2    C3 7338   3.947   2.658  17.190  0.3266 -0.4975 -0.3312
  490MPD2    C4 7339   3.982   2.777  17.136 -0.5700 -0.8866 -0.4830
  490MPD2    C5 7340   3.880   2.863  17.110  0.0600 -0.4682 -0.2208
  490MPD2     H 7341   3.798   2.509  17.216  0.9613 -0.0725  0.0943
  490MPD2    H1 7342   4.087   2.803  17.135 -0.2320 -1.9823  3.2936
  490MPD2    H2 7343   3.674   2.891  17.082  0.3310  1.7396  2.0139
  490MPD2    H3 7344   3.904   2.965  17.084  1.4003 -0.4026  1.2307
  490MPD2     N 7345   4.060   2.578  17.231  0.3320 -0.0584  0.6920
  490MPD2    H5 7346   4.156   2.608  17.214  0.0143  1.1019  0.9372
  490MPD2    N1 7347   3.580   2.642  17.107 -0.6302  0.4383  0.6999
  490MPD2    H7 7348   3.558   2.544  17.119 -1.2095  0.2667 -1.7493
  491TMC3    C1 7349   3.388   2.609  16.979  0.4430 -0.7741 -0.7370
  491TMC3    C2 7350   3.332   2.553  17.092 -0.0368 -0.2753  0.5379
  491TMC3    C3 7351   3.296   2.426  17.085 -0.4565  0.0118 -0.2894
  491TMC3    C4 7352   3.408   2.531  16.868 -0.2207  0.0080 -0.7332
  491TMC3    C5 7353   3.367   2.399  16.874  0.1853 -0.0969 -0.3240
  491TMC3    C6 7354   3.307   2.344  16.984 -0.1913 -0.4326  0.2308
  491TMC3     C 7355   3.494   2.701  17.012  0.3343 -0.6103  0.0869
  491TMC3     O 7356   3.516   2.798  16.946 -1.0102 -0.0338 -0.4485
  491TMC3     H 7357   3.296   2.604  17.181 -1.6374 -0.6110  0.0680
  491TMC3    H1 7358   3.476   2.565  16.790 -1.3620  2.2117 -0.7383
  491TMC3    H2 7359   3.277   2.240  16.986  1.1064 -0.7812  2.6269
  491TMC3    C7 7360   3.356   2.308  16.756  0.8357  0.0710  0.3913
  491TMC3    C8 7361   3.245   2.362  17.210  0.0506  0.1784 -0.5174
  491TMC3    O1 7362   3.340   2.186  16.778 -1.0061  0.0276 -0.1342
  491TMC3    O2 7363   3.172   2.264  17.207  0.2510 -0.4435 -0.4986
  492MPD2     C 7364   4.078   2.817  10.691  0.1941 -0.5341  0.5112
  492MPD2    C1 7365   3.948   2.779  10.674  0.1397  0.0620 -0.5503
  492MPD2    C2 7366   3.880   2.725  10.784 -0.1928  0.1941 -0.6196
  492MPD2    C3 7367   3.934   2.726  10.913  0.8999  0.1081  0.5734
  492MPD2    C4 7368   4.056   2.787  10.927  0.1038  0.3724 -0.0018
  492MPD2    C5 7369   4.135   2.822  10.819  0.1722 -0.5403 -0.1087
  492MPD2     H 7370   3.781   2.684  10.765  0.2921 -1.3407  0.1769
  492MPD2    H1 7371   4.107   2.793  11.022 -0.0352 -1.7161  0.1958
  492MPD2    H2 7372   4.136   2.842  10.603  0.4445  3.7150  1.8917
  492MPD2    H3 7373   4.240   2.851  10.826  0.5223 -2.2392  1.5415
  492MPD2     N 7374   3.887   2.656  11.026  0.4918 -0.5339  0.0973
  492MPD2    H5 7375   3.948   2.660  11.107  0.4308  0.6800  0.0839
  492MPD2    N1 7376   3.898   2.774  10.543  0.2032  0.8775  0.4769
  492MPD2    H7 7377   3.968   2.769  10.469  0.3320 -1.4286  0.7662
  493TMC3    C1 7378   3.724   2.750  10.375 -0.0831  0.0714 -0.3828
  493TMC3    C2 7379   3.774   2.841  10.285  0.7366 -0.1067  0.1887
  493TMC3    C3 7380   3.684   2.866  10.182  0.7832 -0.6790  0.3642
  493TMC3    C4 7381   3.601   2.692  10.365  0.2934  0.7105  0.1245
  493TMC3    C5 7382   3.520   2.720  10.256 -0.0002  0.9149  0.2828
  493TMC3    C6 7383   3.561   2.811  10.164 -0.1648 -0.5246 -0.4311
  493TMC3     C 7384   3.763   2.771  10.515  0.0576 -0.2196  0.4808
  493TMC3     O 7385   3.669   2.773  10.592  1.3464 -0.2359 -1.0096
  493TMC3     H 7386   3.875   2.880  10.279  0.4622  0.5447 -0.2469
  493TMC3    H1 7387   3.572   2.612  10.432 -1.1517 -2.3186 -4.1007
  493TMC3    H2 7388   3.482   2.841  10.098 -1.2607  2.3041  2.1867
  493TMC3    C7 7389   3.383   2.732  10.298  0.8007 -0.2291  0.3345
  493TMC3    C8 7390   3.734   2.928  10.062 -0.0403 -0.5607 -0.2803
  493TMC3    O1 7391   3.306   2.781  10.215  0.1680  0.2529 -0.0113
  493TMC3    O2 7392   3.672   2.901   9.962  0.4538  0.2405 -0.3949
  494TMC3    C1 7393   4.064   4.145   0.074  0.0821 -0.5550 -0.7770
  494TMC3    C2 7394   4.111   4.021   0.106 -0.1548 -0.1336 -0.1144
  494TMC3    C3 7395   4.221   3.977   0.037 -0.5336  0.0660 -0.1876
  494TMC3    C4 7396   4.143   4.234   0.001  0.3153  0.4205 -0.0345
  494TMC3    C5 7397   4.256   4.183  17.702 -0.3300 -0.6924 -0.0045
  494TMC3    C6 7398   4.285   4.061  17.712  0.0731  0.8799 -0.8340
  494TMC3     C 7399   3.966   4.193   0.169  0.7575 -0.7182 -0.5424
  494TMC3     O 7400   3.944   4.133   0.274 -0.4350  0.0922 -0.0902
  494TMC3     H 7401   4.062   3.963   0.183  0.3243  2.0937  1.8783
  494TMC3    H1 7402   4.107   4.333  17.736 -0.5401  0.2370  0.4576
  494TMC3    H2 7403   4.376   4.031  17.662  0.2395  0.2832 -0.1808
  494TMC3    C7 7404   4.351   4.270  17.637 -0.1048 -0.2961  0.3244
  494TMC3    C8 7405   4.283   3.842   0.060  0.4390  0.5640 -0.4075
  494TMC3    O1 7406   4.443   4.227  17.570 -0.9077  0.0309 -0.0422
  494TMC3    O2 7407   4.408   3.836   0.049  0.0901  0.1705  0.6652
  495TMC3    C1 7408   3.185   1.040  14.192 -0.4846  0.1577 -0.6493
  495TMC3    C2 7409   3.128   1.107  14.085 -0.2340  0.0169 -0.3693
  495TMC3    C3 7410   3.095   1.235  14.119 -0.0907  0.0583 -0.1209
  495TMC3    C4 7411   3.197   1.095  14.314 -0.2790 -0.2719  0.7162
  495TMC3    C5 7412   3.166   1.224  14.334 -0.7179 -0.3303 -0.3102
  495TMC3    C6 7413   3.105   1.300  14.238 -0.0453  0.2409 -0.3544
  495TMC3     C 7414   3.185   0.894  14.199  0.0091 -0.2248 -0.4259
  495TMC3     O 7415   3.174   0.845  14.310  0.3348 -0.5609 -0.0938
  495TMC3     H 7416   3.101   1.055  13.994 -0.5409  3.2610 -2.1316
  495TMC3    H1 7417   3.231   1.031  14.395  1.2939  0.8837  0.9854
  495TMC3    H2 7418   3.080   1.403  14.261  1.8090  0.7674 -0.6673
  495TMC3    C7 7419   3.162   1.276  14.470 -0.6697 -0.0669  0.0616
  495TMC3    C8 7420   3.032   1.319  14.016  0.0493  0.3251  0.0564
  495TMC3    O1 7421   3.257   1.269  14.546  0.1223 -0.2818 -0.4896
  495TMC3    O2 7422   2.967   1.417  14.051 -0.4401  0.2665 -0.0996
  496MPD2     C 7423   0.082   2.060  15.342 -0.3156 -0.0452 -0.0717
  496MPD2    C1 7424   0.130   1.955  15.417  0.5730 -0.0443  0.2551
  496MPD2    C2 7425   0.041   1.884  15.497  0.0518 -0.2767 -0.3380
  496MPD2    C3 7426   4.645   1.917  15.486  0.7715  0.6911 -0.3403
  496MPD2    C4 7427   4.604   2.023  15.415 -0.4540  0.3907  0.4801
  496MPD2    C5 7428   4.689   2.096  15.348 -0.3059 -0.2753 -0.2953
  496MPD2     H 7429   0.077   1.812  15.570 -1.8311 -0.4990  0.3728
  496MPD2    H1 7430   4.503   2.063  15.410 -0.0308  1.3576 -0.3213
  496MPD2    H2 7431   0.156   2.114  15.282  0.4676  0.1442  1.0672
  496MPD2    H3 7432   4.654   2.189  15.307 -1.0883  0.3942  1.8710
  496MPD2     N 7433   4.544   1.847  15.543 -0.0092 -0.7857 -0.0305
  496MPD2    H5 7434   4.447   1.866  15.520  0.2600  0.1732 -0.3590
  496MPD2    N1 7435   0.271   1.933  15.403 -0.0604 -0.4329  0.7142
  496MPD2    H7 7436   0.319   1.990  15.334  0.8700 -2.2230 -0.1272
  497TMC3    C1 7437   4.438   1.679  15.667  0.8546 -0.6738  0.5173
  497TMC3    C2 7438   4.395   1.625  15.549  0.2630  0.7209  0.4773
  497TMC3    C3 7439   4.413   1.488  15.530  0.0432  0.0671  0.1020
  497TMC3    C4 7440   4.479   1.591  15.768  0.3347  0.7263 -0.4571
  497TMC3    C5 7441   4.503   1.458  15.743  0.2784 -0.4913 -0.3577
  497TMC3    C6 7442   4.481   1.406  15.619 -0.2085  0.1583 -0.6607
  497TMC3     C 7443   4.558   1.758  15.645  0.1260 -0.0032  0.2297
  497TMC3     O 7444   4.656   1.734  15.718 -0.0250  0.1669 -0.4278
  497TMC3     H 7445   4.384   1.684  15.458 -0.2041 -1.9012 -1.1821
  497TMC3    H1 7446   4.485   1.635  15.866  1.3821 -0.0022 -0.1948
  497TMC3    H2 7447   4.512   1.303  15.607  0.1388  0.2956 -0.9458
  497TMC3    C7 7448   4.595   1.388  15.826 -0.2441 -0.6642  0.1646
  497TMC3    C8 7449   4.440   1.446  15.391 -0.5159 -0.1250  0.3915
  497TMC3    O1 7450   4.611   1.267  15.810  0.2352  0.3451 -0.1832
  497TMC3    O2 7451   4.356   1.485  15.308  0.1590  0.1268  0.0068
  498MPD2     C 7452   1.087   3.053  10.650  0.4423  0.0397  0.2924
  498MPD2    C1 7453   1.169   2.976  10.569 -0.0097 -0.5365 -0.2889
  498MPD2    C2 7454   1.152   2.839  10.564 -0.5489  0.1094 -0.1651
  498MPD2    C3 7455   1.056   2.780  10.641 -0.2733 -1.4221 -0.3678
  498MPD2    C4 7456   0.983   2.858  10.735  0.6914 -0.7084 -0.5164
  498MPD2    C5 7457   0.988   2.996  10.731  0.3230  0.4486 -0.6499
  498MPD2     H 7458   1.224   2.782  10.507  0.5213  3.9349 -2.6527
  498MPD2    H1 7459   0.899   2.820  10.792 -1.3931  1.9375 -1.8582
  498MPD2    H2 7460   1.105   3.160  10.654  0.1978  0.1442 -1.5639
  498MPD2    H3 7461   0.932   3.062  10.796  0.4963 -0.6478  0.6052
  498MPD2     N 7462   1.043   2.643  10.647 -0.1848  0.9043  1.3703
  498MPD2    H5 7463   0.978   2.594  10.707 -2.5492 -0.8941 -2.6349
  498MPD2    N1 7464   1.267   3.036  10.486  0.3985  0.0471 -0.3415
  498MPD2    H7 7465   1.325   2.976  10.429  1.2241 -0.2574  0.8316
  499TMC3    C1 7466   1.385   3.199  10.360  0.0840  0.7407 -0.0253
  499TMC3    C2 7467   1.508   3.137  10.373 -0.5502  0.9046 -0.0554
  499TMC3    C3 7468   1.591   3.168  10.273 -0.2707 -0.0218  0.4201
  499TMC3    C4 7469   1.357   3.295  10.267  0.2797  0.2267  0.0752
  499TMC3    C5 7470   1.452   3.335  10.175 -0.6238  0.8160 -0.0356
  499TMC3    C6 7471   1.576   3.271  10.181 -0.7602  0.5930 -0.0605
  499TMC3     C 7472   1.278   3.168  10.452 -0.0897 -0.0419 -0.1555
  499TMC3     O 7473   1.199   3.264  10.472  0.0245 -0.2893 -0.0451
  499TMC3     H 7474   1.520   3.057  10.445  1.3331 -0.3021 -1.7374
  499TMC3    H1 7475   1.260   3.341  10.255  0.1542  0.0907  0.5868
  499TMC3    H2 7476   1.649   3.298  10.106 -0.1868 -1.9768 -0.4141
  499TMC3    C7 7477   1.425   3.417  10.059 -0.7443  0.6114 -0.1294
  499TMC3    C8 7478   1.718   3.099  10.267  0.1537  0.5679 -0.0280
  499TMC3    O1 7479   1.520   3.449   9.990 -0.3047  0.0618  0.6316
  499TMC3    O2 7480   1.820   3.159  10.239 -0.3112  0.0092 -0.5386
  500MPD2     C 7481   2.718   3.422  10.585  0.6042  0.1054 -0.2079
  500MPD2    C1 7482   2.753   3.538  10.516  0.2522  1.3779 -0.2590
  500MPD2    C2 7483   2.663   3.620  10.453  0.3315  0.1104 -0.2655
  500MPD2    C3 7484   2.529   3.580  10.456  0.7570 -0.3530  0.2577
  500MPD2    C4 7485   2.485   3.475  10.529  0.4574 -0.9107  1.2600
  500MPD2    C5 7486   2.582   3.396  10.591 -0.0747  0.7132 -0.4900
  500MPD2     H 7487   2.695   3.714  10.410 -0.1079  0.6555  0.6147
  500MPD2    H1 7488   2.379   3.453  10.528  0.0714  1.1400 -1.0459
  500MPD2    H2 7489   2.789   3.351  10.627 -0.7728 -0.9087  0.3938
  500MPD2    H3 7490   2.549   3.313  10.653  0.0991  2.1900  1.5902
  500MPD2     N 7491   2.426   3.639  10.379 -0.0426  0.3249 -0.0550
  500MPD2    H5 7492   2.331   3.608  10.399  0.4597  0.2748  2.3240
  500MPD2    N1 7493   2.880   3.587  10.524  0.5641  0.1583 -0.1076
  500MPD2    H7 7494   2.905   3.670  10.471 -2.8264  1.5546  0.4915
  501TMC3    C1 7495   3.117   3.565  10.533  0.1184  0.1112 -0.5948
  501TMC3    C2 7496   3.128   3.580  10.394 -0.8193  0.3713 -0.1563
  501TMC3    C3 7497   3.261   3.582  10.346  0.2348  0.0406 -0.3054
  501TMC3    C4 7498   3.223   3.554  10.613  0.1915  0.7571  0.7132
  501TMC3    C5 7499   3.348   3.553  10.555  0.3878  0.3595 -0.4516
  501TMC3    C6 7500   3.372   3.578  10.422 -0.0478 -0.3905  0.0714
  501TMC3     C 7501   2.990   3.523  10.583  0.2929  0.6655  0.1402
  501TMC3     O 7502   2.985   3.448  10.682 -0.5079  0.0031  0.5055
  501TMC3     H 7503   3.047   3.580  10.322 -0.6932 -0.0696 -0.3003
  501TMC3    H1 7504   3.215   3.552  10.721 -0.8284 -0.6038  0.6009
  501TMC3    H2 7505   3.473   3.596  10.385 -0.1346 -0.6998 -0.3131
  501TMC3    C7 7506   3.460   3.511  10.641  0.0765 -0.1348 -0.5594
  501TMC3    C8 7507   3.283   3.640  10.211 -0.4033  0.6939  0.0788
  501TMC3    O1 7508   3.426   3.445  10.737  0.5386 -0.4060  0.3323
  501TMC3    O2 7509   3.397   3.650  10.173  0.0321 -0.3200 -0.5905
  502TMC3    C1 7510   2.391   1.964  14.377  0.1767 -0.3319 -0.7416
  502TMC3    C2 7511   2.412   2.100  14.372  0.0003  0.0367  0.0663
  502TMC3    C3 7512   2.325   2.183  14.435 -0.1152 -0.1713  0.2876
  502TMC3    C4 7513   2.291   1.920  14.459  0.0788  0.1155  0.0393
  502TMC3    C5 7514   2.201   2.003  14.516 -0.4668  0.1879 -0.0821
  502TMC3    C6 7515   2.210   2.139  14.501  0.0612 -0.8256 -0.4006
  502TMC3     C 7516   2.517   1.896  14.404  0.1747 -0.1226 -0.2903
  502TMC3     O 7517   2.608   1.902  14.323  0.7618  0.2822 -0.0996
  502TMC3     H 7518   2.493   2.123  14.304  1.0695 -2.5159  0.4759
  502TMC3    H1 7519   2.276   1.813  14.469  1.2712  0.0630  1.3014
  502TMC3    H2 7520   2.145   2.209  14.553  0.6885 -0.9375  0.5367
  502TMC3    C7 7521   2.168   1.964  14.653 -0.0124 -0.3591 -0.6933
  502TMC3    C8 7522   2.383   2.283  14.509  0.7061 -0.1342 -0.3176
  502TMC3    O1 7523   2.258   1.907  14.717  0.2664 -0.6836  0.3590
  502TMC3    O2 7524   2.315   2.356  14.577  0.0338  0.0173  0.8187
  503MPD2     C 7525   0.109   3.005  16.778  0.7008  0.5185  0.8450
  503MPD2    C1 7526   0.111   3.056  16.904  0.3057  0.6739  0.1914
  503MPD2    C2 7527   0.193   2.995  17.003  0.2192 -0.5322 -0.5229
  503MPD2    C3 7528   0.273   2.889  16.972  0.5365  0.2392 -0.2057
  503MPD2    C4 7529   0.238   2.825  16.855  0.2418 -1.0440 -0.1642
  503MPD2    C5 7530   0.163   2.883  16.761  0.1612  0.1965  0.0890
  503MPD2     H 7531   0.191   3.035  17.104  0.9113  0.6515 -0.9872
  503MPD2    H1 7532   0.296   2.738  16.824  1.3599 -0.7198  1.0237
  503MPD2    H2 7533   0.057   3.046  16.692  3.6780  0.9866 -0.7234
  503MPD2    H3 7534   0.151   2.843  16.660 -1.4658  1.9529 -0.4287
  503MPD2     N 7535   0.351   2.824  17.075 -0.9574  0.7304 -0.6937
  503MPD2    H5 7536   0.348   2.866  17.167 -3.3166  0.3007 -0.5834
  503MPD2    N1 7537   0.032   3.169  16.946 -0.3393  0.2841 -0.1267
  503MPD2    H7 7538   0.027   3.189  17.046 -2.8995  3.2231 -0.8561
  504TMC3    C1 7539   0.521   2.690  17.163 -0.1627 -0.1229 -0.5025
  504TMC3    C2 7540   0.463   2.635  17.268 -0.2877 -0.6732  0.2259
  504TMC3    C3 7541   0.550   2.595  17.369  0.0333  0.1281  0.3367
  504TMC3    C4 7542   0.655   2.717  17.154  0.1717  0.0079  0.2979
  504TMC3    C5 7543   0.743   2.663  17.244 -0.1784  0.4228 -0.4521
  504TMC3    C6 7544   0.690   2.600  17.357  0.0157  1.0001  0.4725
  504TMC3     C 7545   0.450   2.735  17.045  0.1234  0.1670 -0.2675
  504TMC3     O 7546   0.504   2.705  16.936  0.0651 -0.6440  0.1342
  504TMC3     H 7547   0.358   2.610  17.275 -0.3121 -0.1539  1.7116
  504TMC3    H1 7548   0.697   2.762  17.065 -1.9061 -1.1419 -1.2659
  504TMC3    H2 7549   0.754   2.552  17.430 -0.8126 -1.9938 -0.7823
  504TMC3    C7 7550   0.871   2.617  17.185 -0.3738  0.2084 -0.4591
  504TMC3    C8 7551   0.489   2.498  17.462 -0.2130 -0.3414  0.6140
  504TMC3    O1 7552   0.928   2.697  17.106  0.6061 -0.0985  0.0707
  504TMC3    O2 7553   0.405   2.424  17.408 -0.2608 -0.1318 -0.4621
  505MPD2     C 7554   0.196   1.666  10.801  0.3767  0.3759 -0.2976
  505MPD2    C1 7555   0.263   1.619  10.913 -0.3159 -0.0819  0.1272
  505MPD2    C2 7556   0.280   1.710  11.015  0.3263 -0.1144 -0.2025
  505MPD2    C3 7557   0.215   1.834  11.017 -0.4976 -0.1230 -0.0873
  505MPD2    C4 7558   0.153   1.877  10.906  0.2822  0.3740  0.8319
  505MPD2    C5 7559   0.141   1.794  10.802 -0.3566 -0.5377  0.0141
  505MPD2     H 7560   0.327   1.684  11.109  0.5715  1.5983  0.1484
  505MPD2    H1 7561   0.123   1.981  10.897  1.5659  0.5244 -1.4965
  505MPD2    H2 7562   0.162   1.596  10.726  2.6576 -0.5548 -0.4317
  505MPD2    H3 7563   0.085   1.830  10.717 -0.6708 -0.9930  0.0310
  505MPD2     N 7564   0.217   1.934  11.121 -0.1439  0.2621 -0.1719
  505MPD2    H5 7565   0.160   2.014  11.098 -0.5297  0.3245  1.0125
  505MPD2    N1 7566   0.329   1.491  10.915 -0.3951 -0.1461  0.5980
  505MPD2    H7 7567   0.319   1.431  10.835  0.3889  0.6098 -0.0657
  506TMC3    C1 7568   0.517   1.359  10.952 -0.3904  0.8503 -0.0253
  506TMC3    C2 7569   0.554   1.380  10.820 -0.9012 -0.3828 -0.1098
  506TMC3    C3 7570   0.681   1.396  10.797  0.0196 -0.0034  0.4025
  506TMC3    C4 7571   0.608   1.349  11.053  0.4875  0.3361  0.3644
  506TMC3    C5 7572   0.734   1.384  11.023 -0.4249  0.1659  0.2860
  506TMC3    C6 7573   0.779   1.397  10.895 -0.7451  0.0422  0.1784
  506TMC3     C 7574   0.422   1.446  11.009 -0.6159 -0.5802  0.4548
  506TMC3     O 7575   0.430   1.475  11.126  0.0206  0.6360 -0.4145
  506TMC3     H 7576   0.487   1.367  10.736 -1.6200 -0.8328  0.5354
  506TMC3    H1 7577   0.589   1.314  11.154  1.6800 -1.6861 -0.1100
  506TMC3    H2 7578   0.883   1.420  10.876 -1.3747  1.8836 -1.0687
  506TMC3    C7 7579   0.797   1.460  11.126  0.1661 -0.4581 -0.0907
  506TMC3    C8 7580   0.724   1.442  10.665  0.0470  0.0288  0.1236
  506TMC3    O1 7581   0.915   1.486  11.110 -0.3449 -0.2380 -0.3667
  506TMC3    O2 7582   0.706   1.368  10.570  0.3804  0.1646  0.6008
  507TMC3    C1 7583   0.919   2.392  14.232 -0.3485  0.5788  0.0956
  507TMC3    C2 7584   0.884   2.406  14.100  0.3107 -0.4494 -0.3317
  507TMC3    C3 7585   0.992   2.440  14.021 -0.5203  0.0012 -0.5873
  507TMC3    C4 7586   1.043   2.418  14.285 -0.5576  0.4995 -0.4249
  507TMC3    C5 7587   1.141   2.473  14.200 -0.2472  0.8236  0.2771
  507TMC3    C6 7588   1.115   2.472  14.070  0.0915  0.6449 -0.2969
  507TMC3     C 7589   0.828   2.330  14.314  0.3436 -0.6838 -0.5267
  507TMC3     O 7590   0.876   2.244  14.390 -0.0817 -0.3708  0.1442
  507TMC3     H 7591   0.788   2.388  14.052  0.5224 -1.8217 -0.2394
  507TMC3    H1 7592   1.051   2.422  14.393  1.3883 -0.4994 -0.5241
  507TMC3    H2 7593   1.185   2.500  13.991  3.0419 -0.3141  1.9906
  507TMC3    C7 7594   1.197   2.600  14.233 -0.2993 -0.0884  0.7411
  507TMC3    C8 7595   0.952   2.520  13.906  0.6241  0.5002  0.2799
  507TMC3    O1 7596   1.194   2.678  14.143 -0.4184  0.3324 -0.3685
  507TMC3    O2 7597   0.869   2.474  13.833 -0.5302  0.2807  0.4263
  508MPD2     C 7598   1.987   4.698  16.039 -0.4018  0.2888  0.0821
  508MPD2    C1 7599   1.978   0.073  16.122 -0.0368  0.5015 -0.2995
  508MPD2    C2 7600   1.920   0.191  16.073  0.7037 -0.2504  0.6919
  508MPD2    C3 7601   1.861   0.190  15.949  0.2373  0.6113 -0.5124
  508MPD2    C4 7602   1.867   0.076  15.875  0.2601  0.0825 -0.3184
  508MPD2    C5 7603   1.924   4.698  15.914  0.3446  0.3171 -0.0957
  508MPD2     H 7604   1.922   0.286  16.125  2.7598 -0.4848  1.0241
  508MPD2    H1 7605   1.832   0.071  15.773 -1.6280 -2.3736  0.4429
  508MPD2    H2 7606   2.023   4.603  16.076 -3.2762 -1.0419 -0.5002
  508MPD2    H3 7607   1.920   4.608  15.853  2.6547  0.5642 -0.6127
  508MPD2     N 7608   1.806   0.315  15.909  0.1070  0.1984  0.6933
  508MPD2    H5 7609   1.806   0.398  15.968 -0.0372  1.0685 -0.5485
  508MPD2    N1 7610   2.037   0.067  16.247  0.2866 -0.1408 -0.3301
  508MPD2    H7 7611   2.093   4.729  16.279  1.9234  1.3410  0.4623
  509TMC3    C1 7612   1.710   0.619  15.569 -0.0098  1.1559 -0.2849
  509TMC3    C2 7613   1.784   0.717  15.632  0.2523  0.0421 -0.2144
  509TMC3    C3 7614   1.853   0.677  15.746 -0.1518 -0.2255 -0.2372
  509TMC3    C4 7615   1.671   0.507  15.634 -0.2104  0.6871 -0.4913
  509TMC3    C5 7616   1.733   0.478  15.753  0.1147 -0.2000  1.2935
  509TMC3    C6 7617   1.830   0.562  15.810 -0.5073 -0.8713  0.1890
  509TMC3     C 7618   1.665   0.633  15.432 -0.1202 -0.5724  0.2522
  509TMC3     O 7619   1.576   0.559  15.392 -0.0137 -0.2319 -0.2804
  509TMC3     H 7620   1.793   0.818  15.593 -1.4924 -0.7891 -2.7517
  509TMC3    H1 7621   1.611   0.439  15.575  1.0782 -1.1004  0.2497
  509TMC3    H2 7622   1.885   0.535  15.899 -0.6954 -0.6386  0.3743
  509TMC3    C7 7623   1.751   0.338  15.782 -0.0521  0.3835 -0.1664
  509TMC3    C8 7624   1.966   0.745  15.792  1.1994 -0.3269  0.1184
  509TMC3    O1 7625   1.719   0.259  15.693 -0.2542  0.6865 -0.6727
  509TMC3    O2 7626   2.002   0.715  15.905  0.1403 -0.1833  0.9760
  510MPD2     C 7627   4.358   1.876  14.558 -0.1053  0.1690  0.2241
  510MPD2    C1 7628   4.419   1.794  14.643  0.3648  0.0612 -0.0642
  510MPD2    C2 7629   4.557   1.772  14.624  0.7023 -0.3363 -0.2674
  510MPD2    C3 7630   4.622   1.819  14.515 -0.4726 -0.2091 -0.1030
  510MPD2    C4 7631   4.546   1.889  14.422 -0.0446 -0.0052  0.2307
  510MPD2    C5 7632   4.416   1.917  14.444  0.4024 -0.7650 -0.4168
  510MPD2     H 7633   4.608   1.716  14.702 -1.5019 -1.8386  0.0830
  510MPD2    H1 7634   4.590   1.922  14.329 -0.2054  0.1361  0.2045
  510MPD2    H2 7635   4.250   1.886  14.560 -0.0418  0.9721 -0.6834
  510MPD2    H3 7636   4.353   1.964  14.369 -0.9872 -2.1860 -0.1428
  510MPD2     N 7637   0.021   1.797  14.509  0.4940  0.5960  0.0255
  510MPD2    H5 7638   0.057   1.749  14.591  1.5077  0.2611 -0.6098
  510MPD2    N1 7639   4.343   1.718  14.738  0.2343 -0.0306  0.2517
  510MPD2    H7 7640   4.243   1.736  14.730  0.2277  0.7872  2.3337
  511TMC3    C1 7641   4.275   1.516  14.846  0.7966  0.6980  0.8525
  511TMC3    C2 7642   4.175   1.588  14.910 -0.4811  0.0710  0.2693
  511TMC3    C3 7643   4.119   1.515  15.011 -0.0473  0.5428 -0.2839
  511TMC3    C4 7644   4.306   1.383  14.872  0.2993 -0.4167  0.4406
  511TMC3    C5 7645   4.241   1.316  14.972 -0.8848  0.4418  0.8579
  511TMC3    C6 7646   4.146   1.381  15.042  1.0076 -0.2318 -0.1283
  511TMC3     C 7647   4.378   1.596  14.787 -0.0265 -0.4311  0.5896
  511TMC3     O 7648   4.487   1.538  14.772 -0.1565  0.3125 -0.1249
  511TMC3     H 7649   4.157   1.695  14.908 -2.0774 -0.1944  0.7860
  511TMC3    H1 7650   4.369   1.342  14.794  0.7718  1.0356  0.0570
  511TMC3    H2 7651   4.080   1.332  15.113  0.5740  1.5728  0.7102
  511TMC3    C7 7652   4.245   1.166  14.967 -0.5245 -0.1105  0.0798
  511TMC3    C8 7653   4.039   1.590  15.102 -0.2703  0.4110 -0.8091
  511TMC3    O1 7654   4.318   1.118  14.880 -0.3110 -0.8500 -0.1490
  511TMC3    O2 7655   3.968   1.685  15.059 -0.2513  0.0596  0.0375
  512TMC3    C1 7656   3.122   1.429  12.843  0.5344 -0.8712  0.5273
  512TMC3    C2 7657   3.215   1.378  12.936  0.2007 -0.6549  0.5837
  512TMC3    C3 7658   3.303   1.289  12.892  0.0309  0.6168 -0.4481
  512TMC3    C4 7659   3.110   1.379  12.718 -0.0134 -0.1387 -0.2545
  512TMC3    C5 7660   3.200   1.292  12.672  0.6167 -0.3340 -0.5654
  512TMC3    C6 7661   3.301   1.245  12.758 -0.6322  0.0585  0.1685
  512TMC3     C 7662   3.041   1.540  12.886  0.1298  0.0090  0.3701
  512TMC3     O 7663   3.000   1.535  13.002 -0.2581 -0.0731 -0.0038
  512TMC3     H 7664   3.226   1.432  13.029 -0.0829  0.8974 -0.2864
  512TMC3    H1 7665   3.039   1.418  12.645 -1.4848  2.4475  2.5950
  512TMC3    H2 7666   3.384   1.194  12.711 -1.0249  0.4624 -0.9786
  512TMC3    C7 7667   3.180   1.240  12.540 -0.0914 -0.6400 -0.5176
  512TMC3    C8 7668   3.429   1.277  12.969 -0.1394 -0.0220  0.0979
  512TMC3    O1 7669   3.110   1.301  12.462 -0.3869  0.2991  0.4635
  512TMC3    O2 7670   3.484   1.167  12.974  0.4961  0.0816 -0.0456
  513MPD2     C 7671   4.705   1.367  13.478 -0.1514  0.3029  0.0453
  513MPD2    C1 7672   0.051   1.306  13.397 -0.1086  0.0094  0.4446
  513MPD2    C2 7673   0.162   1.243  13.447  0.5753  0.3696 -0.0661
  513MPD2    C3 7674   0.180   1.238  13.585 -1.2471 -0.0792 -0.8509
  513MPD2    C4 7675   0.089   1.289  13.669  0.6227 -0.7476 -0.6947
  513MPD2    C5 7676   4.725   1.353  13.612 -0.0203 -0.6134 -0.0816
  513MPD2     H 7677   0.237   1.197  13.384  1.6643  1.0672  0.7069
  513MPD2    H1 7678   0.105   1.282  13.776  1.4525  1.2490 -0.6993
  513MPD2    H2 7679   4.618   1.419  13.438  0.3900  0.9697 -0.2682
  513MPD2    H3 7680   4.643   1.388  13.674  0.0390 -0.8758  0.1447
  513MPD2     N 7681   0.294   1.174  13.624 -1.0740 -0.0756  0.2180
  513MPD2    H5 7682   0.359   1.141  13.554 -1.2530 -1.8784  0.9190
  513MPD2    N1 7683   0.029   1.311  13.258 -0.7404  0.0819 -0.6082
  513MPD2    H7 7684   4.694   1.374  13.235  0.1183  1.4267  0.2562
  514TMC3    C1 7685   0.060   1.264  13.020  0.2725 -0.2471 -0.0748
  514TMC3    C2 7686   0.073   1.394  12.981 -0.1453 -0.2451 -0.3912
  514TMC3    C3 7687   0.154   1.423  12.874 -0.5061 -0.4556 -0.4238
  514TMC3    C4 7688   0.110   1.164  12.946 -0.4526 -0.2096  0.0603
  514TMC3    C5 7689   0.197   1.196  12.839 -0.1476  0.7146 -0.4283
  514TMC3    C6 7690   0.223   1.325  12.807  0.4458  0.0551 -0.2615
  514TMC3     C 7691   0.095   1.239  13.156 -0.5386 -0.3233 -0.2138
  514TMC3     O 7692   0.189   1.162  13.178  0.1132  0.7721  0.3218
  514TMC3     H 7693   0.045   1.474  13.048 -0.8469 -0.5283 -0.3403
  514TMC3    H1 7694   0.091   1.063  12.979  2.1610 -0.5558  0.4860
  514TMC3    H2 7695   0.291   1.350  12.727 -0.8438 -1.5391 -1.8546
  514TMC3    C7 7696   0.317   1.119  12.819  0.0464 -0.4138  0.5394
  514TMC3    C8 7697   0.085   1.520  12.784 -0.4255  0.0030  0.0714
  514TMC3    O1 7698   0.367   1.112  12.706 -0.2091  0.5549 -0.3059
  514TMC3    O2 7699   0.003   1.594  12.831  0.1151 -0.0882  0.1346
  515MPD2     C 7700   3.275   2.815  15.130 -0.1368 -0.0771 -0.1712
  515MPD2    C1 7701   3.288   2.855  14.997  0.6102 -0.2522  0.3419
  515MPD2    C2 7702   3.369   2.960  14.966 -0.3258 -0.3597 -0.5411
  515MPD2    C3 7703   3.443   3.028  15.061 -0.0549  0.6994  0.3237
  515MPD2    C4 7704   3.435   2.992  15.197 -0.1707  0.0647 -0.5706
  515MPD2    C5 7705   3.355   2.878  15.223  0.1900 -0.7929  0.0323
  515MPD2     H 7706   3.386   2.994  14.864  1.8670 -0.5512 -0.2501
  515MPD2    H1 7707   3.495   3.044  15.271 -0.9581  0.2961 -0.1069
  515MPD2    H2 7708   3.210   2.741  15.177  0.5038 -1.2815 -1.1869
  515MPD2    H3 7709   3.353   2.848  15.327  0.0130  0.5663  0.4272
  515MPD2     N 7710   3.535   3.130  15.028  0.7784  0.3354 -0.4913
  515MPD2    H5 7711   3.575   3.179  15.107  2.4795 -3.0354  0.7288
  515MPD2    N1 7712   3.211   2.791  14.895 -0.2824  0.2226  0.1713
  515MPD2    H7 7713   3.211   2.836  14.804 -0.2260  1.5168  0.8139
  516TMC3    C1 7714   3.101   2.633  14.770  0.2033  0.0394 -0.1280
  516TMC3    C2 7715   3.036   2.737  14.710  0.5076 -0.0687  0.2687
  516TMC3    C3 7716   2.964   2.702  14.599 -0.0481  0.1661 -0.3371
  516TMC3    C4 7717   3.106   2.506  14.716 -0.0900  0.3694 -0.2690
  516TMC3    C5 7718   3.024   2.473  14.606 -0.2346 -0.0935  0.3986
  516TMC3    C6 7719   2.955   2.574  14.543 -0.1870  0.1902  0.5056
  516TMC3     C 7720   3.179   2.656  14.894 -0.0174  0.6024  0.0797
  516TMC3     O 7721   3.218   2.559  14.959  0.3420  0.4382 -0.5006
  516TMC3     H 7722   3.021   2.829  14.765 -1.6773  0.1840 -0.7518
  516TMC3    H1 7723   3.156   2.429  14.775 -0.7672  1.9829  2.3856
  516TMC3    H2 7724   2.889   2.553  14.460  2.1643 -2.9259 -0.5596
  516TMC3    C7 7725   3.023   2.335  14.567 -0.4920 -0.0392 -0.0906
  516TMC3    C8 7726   2.886   2.808  14.538 -0.1674  0.4952 -0.6809
  516TMC3    O1 7727   3.082   2.261  14.645  0.3804 -0.1787 -0.3386
  516TMC3    O2 7728   2.793   2.771  14.466  0.3973 -0.0228  0.0474
  517MPD2     C 7729   3.410   4.668  17.567 -0.3504 -0.5080 -0.6634
  517MPD2    C1 7730   3.414   4.578  17.673 -0.8755 -0.0098 -0.7029
  517MPD2    C2 7731   3.430   4.628   0.043  1.0115 -0.8767  0.0954
  517MPD2    C3 7732   3.423   0.019   0.072 -0.3827 -0.1564 -0.4079
  517MPD2    C4 7733   3.418   0.105  17.728 -0.0888 -0.3054 -0.1725
  517MPD2    C5 7734   3.396   0.062  17.600 -0.0329 -0.2062  0.1911
  517MPD2     H 7735   3.440   4.558   0.126  5.3557 -0.2009  0.1586
  517MPD2    H1 7736   3.406   0.212  17.746 -3.5517 -0.5606 -0.9940
  517MPD2    H2 7737   3.387   4.649  17.462 -0.8421  0.8446 -0.8102
  517MPD2    H3 7738   3.380   0.141  17.528 -0.1441  0.1894  0.6515
  517MPD2     N 7739   3.416   0.065   0.206  0.0390  0.9167 -0.1922
  517MPD2    H5 7740   3.426   4.733   0.276  2.7804  0.3305 -1.1789
  517MPD2    N1 7741   3.436   4.442  17.646 -0.3750  0.8958 -0.2185
  517MPD2    H7 7742   3.466   4.386  17.725 -0.7119  0.7371 -0.2033
  518TMC3    C1 7743   3.466   4.247  17.508 -0.2298 -0.4329  0.7713
  518TMC3    C2 7744   3.383   4.152  17.461  0.3996 -0.8173  0.9485
  518TMC3    C3 7745   3.443   4.030  17.442 -0.5223 -0.5887 -0.3649
  518TMC3    C4 7746   3.596   4.228  17.541 -0.7850  0.2916  0.3678
  518TMC3    C5 7747   3.652   4.109  17.509  0.1119 -0.0993  0.1448
  518TMC3    C6 7748   3.574   4.006  17.459  0.3391  0.1764 -0.4835
  518TMC3     C 7749   3.419   4.384  17.524 -0.4660  0.5119 -0.3592
  518TMC3     O 7750   3.339   4.419  17.442  0.1133 -0.4116  0.2245
  518TMC3     H 7751   3.277   4.164  17.444  0.6763 -3.1237 -2.4643
  518TMC3    H1 7752   3.653   4.309  17.583  0.0207 -0.2683  0.3524
  518TMC3    H2 7753   3.618   3.909  17.440  1.9290  0.2701  2.7040
  518TMC3    C7 7754   3.800   4.098  17.513  0.8330 -0.1182 -0.1942
  518TMC3    C8 7755   3.371   3.912  17.394  0.7089  0.2212 -0.0106
  518TMC3    O1 7756   3.863   4.172  17.587  0.0125 -0.0388 -0.2058
  518TMC3    O2 7757   3.445   3.832  17.342 -0.0511  0.1161 -0.4521
  519MPD2     C 7758   4.469   2.761  14.598  0.3937  0.0726 -0.0564
  519MPD2    C1 7759   4.473   2.789  14.463  0.1437  0.1632 -0.0850
  519MPD2    C2 7760   4.544   2.708  14.380 -0.2504 -0.1298 -0.5669
  519MPD2    C3 7761   4.628   2.612  14.428 -0.2926  0.2071  0.1183
  519MPD2    C4 7762   4.639   2.592  14.559 -0.1509 -0.3236  0.6631
  519MPD2    C5 7763   4.561   2.666  14.646 -0.2521 -0.0418  0.7343
  519MPD2     H 7764   4.527   2.720  14.274  1.2593  0.1042 -0.7841
  519MPD2    H1 7765   4.711   2.517  14.592  2.1987  1.5108 -0.3063
  519MPD2    H2 7766   4.398   2.803  14.668 -0.9076 -1.5132 -0.4063
  519MPD2    H3 7767   4.578   2.647  14.751  1.3191 -1.9176  0.1493
  519MPD2     N 7768   4.712   2.529  14.345 -0.0413 -0.3340 -0.1456
  519MPD2    H5 7769   0.001   2.443  14.390 -0.3172  0.0711  0.8056
  519MPD2    N1 7770   4.381   2.891  14.418 -0.0022  0.0531  0.0832
  519MPD2    H7 7771   4.300   2.923  14.470  0.0281 -1.4699  1.0803
  520TMC3    C1 7772   0.056   2.451  14.137  0.1169  0.4011 -0.3837
  520TMC3    C2 7773   4.738   2.434  14.012 -0.2393 -0.7331 -0.1835
  520TMC3    C3 7774   0.034   2.325  13.941 -0.2365 -0.7546 -0.1458
  520TMC3    C4 7775   0.149   2.363  14.189 -0.4565 -0.2880  0.1130
  520TMC3    C5 7776   0.175   2.253  14.111 -0.3774 -0.2410  0.2175
  520TMC3    C6 7777   0.127   2.236  13.986 -0.6908  0.2131 -0.3061
  520TMC3     C 7778   4.730   2.559  14.208  0.1728  0.0018  0.3971
  520TMC3     O 7779   4.699   2.661  14.150 -0.1215  0.2411  0.1665
  520TMC3     H 7780   4.682   2.515  13.967  1.8136  0.1311 -1.1899
  520TMC3    H1 7781   0.205   2.389  14.278 -0.0051  2.5523 -1.0097
  520TMC3    H2 7782   0.154   2.149  13.928 -0.6111 -0.9024  1.4076
  520TMC3    C7 7783   0.308   2.202  14.123  0.7003  1.0030 -0.4991
  520TMC3    C8 7784   4.700   2.285  13.828 -0.1767  0.4075  0.2747
  520TMC3    O1 7785   0.343   2.153  14.231 -0.1372 -0.8721  0.2854
  520TMC3    O2 7786   0.022   2.224  13.741  0.0217 -0.2785  0.4244
  521MPD2     C 7787   1.137   0.660   0.024  0.5756  0.8101 -0.1900
  521MPD2    C1 7788   1.090   0.688  17.655 -0.1960  0.0580  0.1449
  521MPD2    C2 7789   1.184   0.702  17.557 -0.0873  0.1630 -0.4414
  521MPD2    C3 7790   1.322   0.695  17.581 -0.0864 -0.8488  0.0082
  521MPD2    C4 7791   1.364   0.677  17.710  0.1643 -0.2554 -0.1275
  521MPD2    C5 7792   1.273   0.665   0.051  0.2879  0.1581 -0.1947
  521MPD2     H 7793   1.162   0.717  17.452 -1.8910 -0.6438 -0.1709
  521MPD2    H1 7794   1.471   0.674  17.726 -0.1402 -1.7381  1.6299
  521MPD2    H2 7795   1.066   0.648   0.105 -0.3718  0.3120 -1.1055
  521MPD2    H3 7796   1.308   0.665   0.153 -0.9052  3.9783  0.2317
  521MPD2     N 7797   1.419   0.704  17.486  0.3479 -0.0938  0.0951
  521MPD2    H5 7798   1.510   0.734  17.520 -0.1435 -0.9482  2.1746
  521MPD2    N1 7799   0.952   0.673  17.624 -0.3583  0.3132  0.0377
  521MPD2    H7 7800   0.885   0.652  17.696  0.3492 -1.4055  0.2003
  522TMC3    C1 7801   1.518   0.755  17.278 -0.8912 -0.1813  0.6685
  522TMC3    C2 7802   1.636   0.716  17.323 -0.2470 -0.3367  0.2087
  522TMC3    C3 7803   1.752   0.729  17.255 -1.0461 -0.5041  0.7945
  522TMC3    C4 7804   1.508   0.792  17.141 -0.0406  0.4584  0.5369
  522TMC3    C5 7805   1.621   0.801  17.067  0.1516  0.4813 -0.0571
  522TMC3    C6 7806   1.748   0.780  17.130 -0.1056  0.0865 -0.0901
  522TMC3     C 7807   1.393   0.725  17.349  0.0612  0.2107  0.1112
  522TMC3     O 7808   1.293   0.704  17.282  0.1875  0.0118  0.1900
  522TMC3     H 7809   1.654   0.671  17.419 -1.2563  1.1049  1.0633
  522TMC3    H1 7810   1.411   0.826  17.108 -0.2529  0.6563  1.3750
  522TMC3    H2 7811   1.840   0.796  17.075 -0.3551 -1.7537 -1.0407
  522TMC3    C7 7812   1.619   0.868  16.941 -0.1665  0.0081 -1.0482
  522TMC3    C8 7813   1.851   0.621  17.285 -0.8897 -1.1510 -0.3251
  522TMC3    O1 7814   1.727   0.906  16.901 -0.5731  0.4073  0.4701
  522TMC3    O2 7815   1.870   0.593  17.404  1.0852  0.4562  0.6045
  523MPD2     C 7816   3.972   0.933  10.279  0.4603 -0.3238 -0.4894
  523MPD2    C1 7817   3.864   0.948  10.363  0.5027 -0.1109 -0.1449
  523MPD2    C2 7818   3.826   1.083  10.383  1.1489  0.3841 -0.4798
  523MPD2    C3 7819   3.882   1.187  10.311 -0.4163  0.0942  0.1018
  523MPD2    C4 7820   3.995   1.169  10.231 -0.4196  0.0532  0.8807
  523MPD2    C5 7821   4.037   1.041  10.217 -0.0085 -0.1777  0.1801
  523MPD2     H 7822   3.747   1.110  10.453  1.9218  1.1641  0.0905
  523MPD2    H1 7823   4.045   1.244  10.171 -0.9772 -0.2449  0.0486
  523MPD2    H2 7824   4.016   0.836  10.257 -1.8544 -2.0227  2.2089
  523MPD2    H3 7825   4.114   1.018  10.143 -0.8729  0.6302 -0.9811
  523MPD2     N 7826   3.841   1.317  10.327  0.5819  0.1958  0.1627
  523MPD2    H5 7827   3.898   1.389  10.284 -0.3711  1.9336  1.7916
  523MPD2    N1 7828   3.793   0.841  10.409 -0.5122 -0.2179  0.6518
  523MPD2    H7 7829   3.813   0.750  10.367 -0.1302  0.0102  0.3317
  524TMC3    C1 7830   3.716   1.508  10.391  0.1551  0.7362  0.6401
  524TMC3    C2 7831   3.825   1.586  10.389  0.2298 -0.7460  0.1396
  524TMC3    C3 7832   3.821   1.707  10.455 -0.1568  0.4684  0.0575
  524TMC3    C4 7833   3.598   1.562  10.435  0.1936 -0.2275 -0.4791
  524TMC3    C5 7834   3.595   1.678  10.506 -0.6587  0.0882  0.1237
  524TMC3    C6 7835   3.705   1.749  10.518 -0.2008  0.2815 -0.1521
  524TMC3     C 7836   3.725   1.365  10.381 -0.1622 -0.7012 -0.7726
  524TMC3     O 7837   3.633   1.298  10.424 -0.3809 -0.3916 -0.6025
  524TMC3     H 7838   3.925   1.545  10.386  0.3057 -0.3941 -2.2947
  524TMC3    H1 7839   3.509   1.500  10.438 -0.3078  0.4502 -1.3691
  524TMC3    H2 7840   3.704   1.842  10.573  1.8694  0.6056 -0.6334
  524TMC3    C7 7841   3.474   1.731  10.567 -0.2866  0.2961 -0.4432
  524TMC3    C8 7842   3.923   1.801  10.421 -0.1528 -0.5392  0.2921
  524TMC3    O1 7843   3.493   1.782  10.676  0.2108  0.2620 -0.0550
  524TMC3    O2 7844   3.931   1.903  10.482 -0.5015 -0.4971 -0.3804
  525MPD2     C 7845   1.442   2.178  14.297 -0.5236  0.5091 -0.5054
  525MPD2    C1 7846   1.550   2.209  14.383  0.9918 -0.2049  0.2276
  525MPD2    C2 7847   1.622   2.326  14.373  0.0886 -0.2584  1.4840
  525MPD2    C3 7848   1.578   2.419  14.281  0.2631  0.0057  0.7847
  525MPD2    C4 7849   1.481   2.385  14.187  0.5598  0.1661  0.4701
  525MPD2    C5 7850   1.413   2.268  14.199  0.1116  0.1932  0.0820
  525MPD2     H 7851   1.707   2.341  14.438  1.1117 -0.0206  0.0990
  525MPD2    H1 7852   1.462   2.459  14.110 -1.5262 -0.7027  0.1647
  525MPD2    H2 7853   1.380   2.089  14.304  0.7208 -0.1847  1.6626
  525MPD2    H3 7854   1.343   2.246  14.119  1.6988 -1.0325 -0.9833
  525MPD2     N 7855   1.650   2.543  14.259  0.2977 -0.1897  0.2752
  525MPD2    H5 7856   1.609   2.612  14.197 -1.8662 -1.0379  0.7478
  525MPD2    N1 7857   1.590   2.116  14.478  0.3472  0.7638 -0.6348
  525MPD2    H7 7858   1.686   2.113  14.513 -0.1319 -2.3107  0.3762
  526TMC3    C1 7859   1.559   1.933  14.615 -0.1987 -0.6259 -0.5313
  526TMC3    C2 7860   1.485   1.914  14.726 -1.0257  0.5629  0.1732
  526TMC3    C3 7861   1.539   1.835  14.823  0.3385  0.2380  0.0765
  526TMC3    C4 7862   1.686   1.880  14.598 -0.5655  0.6522 -0.6339
  526TMC3    C5 7863   1.741   1.803  14.694 -0.2226 -0.7395 -0.3750
  526TMC3    C6 7864   1.664   1.778  14.802 -0.0211 -0.1333  0.0046
  526TMC3     C 7865   1.499   2.032  14.531 -1.0018  0.6725  0.7713
  526TMC3     O 7866   1.377   2.039  14.532  0.0870  0.4083  0.1291
  526TMC3     H 7867   1.391   1.967  14.734 -1.8657 -0.6749 -1.4347
  526TMC3    H1 7868   1.724   1.897  14.498  1.5297 -0.1373  0.0295
  526TMC3    H2 7869   1.694   1.711  14.882  0.5511 -0.3371 -0.3837
  526TMC3    C7 7870   1.873   1.736  14.686  0.0538 -0.5941 -0.8877
  526TMC3    C8 7871   1.497   1.851  14.953  0.3703 -0.4411 -0.1528
  526TMC3    O1 7872   1.899   1.682  14.791  0.6963  0.0027  0.0184
  526TMC3    O2 7873   1.578   1.819  15.040  0.0402 -0.1915  0.4853
  527MPD2     C 7874   4.589   0.767   1.198 -0.3500 -0.6031  0.6481
  527MPD2    C1 7875   4.522   0.721   1.084 -0.5217  0.1263 -0.7529
  527MPD2    C2 7876   4.561   0.609   1.011  1.1611 -0.0465  0.0222
  527MPD2    C3 7877   4.675   0.543   1.035 -0.5470 -0.5330 -0.5274
  527MPD2    C4 7878   0.013   0.597   1.139 -0.4439 -0.5874  0.3206
  527MPD2    C5 7879   4.706   0.696   1.222 -0.0991  0.0638  0.1817
  527MPD2     H 7880   4.491   0.568   0.939  1.5312 -0.0035 -0.3660
  527MPD2    H1 7881   0.101   0.549   1.179  0.6837 -0.2344 -1.7668
  527MPD2    H2 7882   4.565   0.847   1.266  2.2325  1.4462 -0.8590
  527MPD2    H3 7883   0.023   0.725   1.308 -1.3382 -0.1026  1.0716
  527MPD2     N 7884   4.705   0.423   0.970 -0.0293 -0.5280  0.7685
  527MPD2    H5 7885   4.642   0.394   0.896  0.2932  0.6039  0.0483
  527MPD2    N1 7886   4.404   0.781   1.026 -0.8599 -0.0946  0.0369
  527MPD2    H7 7887   4.361   0.727   0.952 -0.3733 -0.6638  0.1710
  528TMC3    C1 7888   4.218   0.939   0.999 -0.2795 -0.2324 -0.2587
  528TMC3    C2 7889   4.192   0.877   0.883 -0.2734  0.6041 -0.2339
  528TMC3    C3 7890   4.059   0.853   0.854  0.6888 -0.1344  0.1653
  528TMC3    C4 7891   4.115   0.999   1.069  0.2264 -0.1243 -0.3925
  528TMC3    C5 7892   3.984   0.983   1.022 -0.1893  0.0165 -0.5723
  528TMC3    C6 7893   3.949   0.904   0.918  0.2749  0.8069 -0.1576
  528TMC3     C 7894   4.341   0.896   1.074 -0.5060  0.2512  0.4022
  528TMC3     O 7895   4.386   0.980   1.151 -0.3950  0.0148  0.3911
  528TMC3     H 7896   4.274   0.829   0.829 -0.5575  0.1542 -0.2697
  528TMC3    H1 7897   4.152   1.063   1.149  0.6439  1.6214 -1.9853
  528TMC3    H2 7898   3.846   0.887   0.888 -0.6602  1.5342  2.6199
  528TMC3    C7 7899   3.867   1.052   1.086  0.2117 -0.1204  0.4873
  528TMC3    C8 7900   4.032   0.743   0.770  0.0435 -0.2725 -0.3554
  528TMC3    O1 7901   3.756   1.017   1.051 -0.0864 -0.4430  0.8411
  528TMC3    O2 7902   4.111   0.714   0.680  0.0137 -0.0184 -0.2533
  529MPD2     C 7903   1.546   3.357   0.780 -0.3260  0.3653  0.2601
  529MPD2    C1 7904   1.629   3.306   0.688  0.1573  0.2784  0.5097
  529MPD2    C2 7905   1.615   3.344   0.553 -0.8411 -0.4519  0.2742
  529MPD2    C3 7906   1.512   3.435   0.515 -0.0550  0.2131 -0.7490
  529MPD2    C4 7907   1.431   3.476   0.617  0.0224 -0.2527  0.3776
  529MPD2    C5 7908   1.449   3.447   0.747 -0.3818 -0.6517 -0.5694
  529MPD2     H 7909   1.668   3.290   0.476 -0.0042 -0.0715  0.5741
  529MPD2    H1 7910   1.351   3.546   0.596  1.1058  0.7679 -0.3541
  529MPD2    H2 7911   1.553   3.321   0.882 -2.8641  1.0830  0.7042
  529MPD2    H3 7912   1.378   3.493   0.816  0.1608 -2.8472  1.4812
  529MPD2     N 7913   1.498   3.482   0.380  0.6411 -0.0777 -0.1439
  529MPD2    H5 7914   1.416   3.540   0.363 -1.0929 -2.4739 -0.0476
  529MPD2    N1 7915   1.731   3.206   0.712 -0.0217  0.3393  0.3617
  529MPD2    H7 7916   1.795   3.178   0.639  0.7355  0.9574  0.7914
  530TMC3    C1 7917   1.878   3.070   0.829 -0.0601  0.6191  0.1719
  530TMC3    C2 7918   1.998   3.130   0.780 -0.1834 -0.3900  0.0900
  530TMC3    C3 7919   2.110   3.044   0.780 -0.0059  0.4385 -0.4778
  530TMC3    C4 7920   1.864   2.940   0.866  0.6581  0.0829  0.1303
  530TMC3    C5 7921   1.983   2.872   0.869 -0.2978  0.5502 -0.2042
  530TMC3    C6 7922   2.101   2.915   0.823 -0.1037  0.5073  0.0462
  530TMC3     C 7923   1.750   3.138   0.826  0.1161 -1.0737 -0.1554
  530TMC3     O 7924   1.686   3.125   0.928 -0.7052 -0.2903 -0.7553
  530TMC3     H 7925   2.004   3.232   0.745 -0.5109 -1.0505 -1.9363
  530TMC3    H1 7926   1.773   2.903   0.911 -0.7911  0.6112 -2.4191
  530TMC3    H2 7927   2.188   2.852   0.822 -0.7546 -0.3676 -1.7517
  530TMC3    C7 7928   1.987   2.726   0.916 -0.1279 -0.8381 -0.7180
  530TMC3    C8 7929   2.238   3.112   0.774 -0.0351 -0.8188 -0.5464
  530TMC3    O1 7930   2.082   2.654   0.887  0.4212  0.3210  0.5239
  530TMC3    O2 7931   2.216   3.235   0.775  0.1156  0.3926  0.0826
  531MPD2     C 7932   0.734   0.967  13.093 -0.6316  0.8862 -0.4217
  531MPD2    C1 7933   0.624   1.007  13.182  0.2260 -0.7833 -0.5905
  531MPD2    C2 7934   0.503   1.041  13.121  0.0253  0.6755 -0.0220
  531MPD2    C3 7935   0.485   1.037  12.986 -0.4915 -0.2679  0.6137
  531MPD2    C4 7936   0.588   0.994  12.903  0.3387  0.2525  0.0705
  531MPD2    C5 7937   0.711   0.962  12.957  0.2225 -0.4284 -0.2657
  531MPD2     H 7938   0.431   1.081  13.191 -0.7899 -0.3339 -0.2725
  531MPD2    H1 7939   0.575   0.984  12.795  2.5879 -2.4906  0.0475
  531MPD2    H2 7940   0.819   0.913  13.133 -1.1665  0.3031 -0.0609
  531MPD2    H3 7941   0.795   0.937  12.893  0.2720  0.8409 -0.6898
  531MPD2     N 7942   0.364   1.096  12.941  0.3394  0.3814 -0.6222
  531MPD2    H5 7943   0.305   1.135  13.013  0.0304  0.0439 -0.6954
  531MPD2    N1 7944   0.647   1.008  13.324  0.0028  0.1290 -0.1348
  531MPD2    H7 7945   0.743   1.007  13.358 -0.1200  2.1773  0.2518
  532TMC3    C1 7946   0.588   1.067  13.547  0.3447  0.1906 -0.1681
  532TMC3    C2 7947   0.488   1.029  13.628  0.5142  0.7467 -0.4257
  532TMC3    C3 7948   0.467   1.097  13.746 -0.5529  0.0000 -0.1986
  532TMC3    C4 7949   0.682   1.161  13.574 -0.0210  0.1176  0.2890
  532TMC3    C5 7950   0.659   1.226  13.695 -0.1478 -0.5979  0.1102
  532TMC3    C6 7951   0.554   1.197  13.777  0.1081 -0.5467  0.2913
  532TMC3     C 7952   0.549   1.043  13.414 -0.5206  1.0552  0.1039
  532TMC3     O 7953   0.429   1.042  13.405  1.0395  0.0086  0.5499
  532TMC3     H 7954   0.423   0.944  13.610 -0.9593  2.1650 -1.8776
  532TMC3    H1 7955   0.756   1.202  13.506 -0.4181 -0.1075 -0.2683
  532TMC3    H2 7956   0.542   1.250  13.870  1.8501  0.7922 -0.2579
  532TMC3    C7 7957   0.780   1.254  13.760 -0.2573 -0.1936 -0.5384
  532TMC3    C8 7958   0.335   1.156  13.754  0.3052 -0.2124 -0.1123
  532TMC3    O1 7959   0.782   1.356  13.830 -0.3520 -0.2379  0.2199
  532TMC3    O2 7960   0.291   1.194  13.865  0.6465 -0.2782  0.0924
  533TMC3    C1 7961   1.767   2.736  14.301 -0.8758 -0.6582 -0.3242
  533TMC3    C2 7962   1.894   2.772  14.328  0.0216 -0.6802  0.4217
  533TMC3    C3 7963   1.908   2.886  14.400  1.1294  0.3810 -0.5186
  533TMC3    C4 7964   1.655   2.811  14.330 -0.5915 -0.2615  0.7342
  533TMC3    C5 7965   1.672   2.904  14.425 -0.2267 -0.2426  0.1774
  533TMC3    C6 7966   1.800   2.948  14.449  1.1980  0.5601  0.7990
  533TMC3     C 7967   1.739   2.603  14.335  0.0639  0.2816 -0.1677
  533TMC3     O 7968   1.817   2.558  14.416  0.2821 -0.3408 -0.0853
  533TMC3     H 7969   1.974   2.706  14.296  0.0359 -0.4655  0.0113
  533TMC3    H1 7970   1.554   2.774  14.311 -1.0191  0.0818  2.2677
  533TMC3    H2 7971   1.811   3.034  14.514 -2.0620  1.5562  0.0309
  533TMC3    C7 7972   1.560   2.993  14.441  0.3145 -0.3675 -0.1942
  533TMC3    C8 7973   2.037   2.918  14.437  0.0318  0.3373 -0.3508
  533TMC3    O1 7974   1.502   3.008  14.335  0.4823  0.1023 -0.5770
  533TMC3    O2 7975   2.121   2.842  14.406  0.2229  0.2395  0.5296
  534MPD2     C 7976   4.356   3.198   0.618  0.8228  0.0899 -0.1898
  534MPD2    C1 7977   4.304   3.325   0.618  0.8973 -0.1528  0.4774
  534MPD2    C2 7978   4.188   3.344   0.540  0.7846 -0.1150  0.0831
  534MPD2    C3 7979   4.132   3.240   0.473 -0.1069 -0.3733  0.3931
  534MPD2    C4 7980   4.190   3.111   0.473 -0.3082 -0.0174  0.8741
  534MPD2    C5 7981   4.295   3.092   0.553  0.1408 -0.6971 -0.1314
  534MPD2     H 7982   4.144   3.443   0.527 -3.1588 -1.9990 -1.0768
  534MPD2    H1 7983   4.142   3.033   0.414  1.5412 -0.2670 -0.2998
  534MPD2    H2 7984   4.449   3.180   0.671  1.5976  1.5223 -1.0881
  534MPD2    H3 7985   4.345   2.996   0.540 -1.4448 -1.5949  0.4500
  534MPD2     N 7986   4.012   3.243   0.395  0.0192 -0.0101  0.2335
  534MPD2    H5 7987   3.987   3.159   0.343 -1.6424  0.0162  0.9942
  534MPD2    N1 7988   4.374   3.435   0.676 -0.2657  0.4179  0.6429
  534MPD2    H7 7989   4.326   3.524   0.667  0.2405  0.5157 -1.0847
  535TMC3    C1 7990   3.832   3.334   0.268  0.1789  0.2628  0.2939
  535TMC3    C2 7991   3.725   3.418   0.276 -0.2567  0.5602 -0.1606
  535TMC3    C3 7992   3.630   3.410   0.177  0.4583 -0.4995  0.1964
  535TMC3    C4 7993   3.844   3.253   0.155  0.3874 -0.2955  0.2702
  535TMC3    C5 7994   3.748   3.244   0.060 -0.0370 -0.2103 -0.3527
  535TMC3    C6 7995   3.641   3.332   0.068 -0.0558 -0.2361 -1.1677
  535TMC3     C 7996   3.943   3.357   0.357  0.0400 -0.9598 -0.2881
  535TMC3     O 7997   3.958   3.467   0.411 -0.2678 -0.5397 -0.2465
  535TMC3     H 7998   3.714   3.474   0.368 -2.4041 -0.1181  0.0040
  535TMC3    H1 7999   3.931   3.189   0.141 -1.2663 -2.2441 -0.9671
  535TMC3    H2 8000   3.563   3.343  17.753  0.4932  1.5326 -1.4736
  535TMC3    C7 8001   3.809   3.219  17.686 -0.1569 -0.5017 -0.0430
  535TMC3    C8 8002   3.496   3.454   0.205 -0.1760  0.3049 -0.3400
  535TMC3    O1 8003   3.891   3.130  17.667 -0.6605  0.2424 -0.1135
  535TMC3    O2 8004   3.401   3.411   0.139 -0.2841 -0.2026  0.1453
  536MPD2     C 8005   3.282   1.835  15.637  0.5448  0.2761 -0.8122
  536MPD2    C1 8006   3.166   1.798  15.701 -0.4245  0.6775  0.6172
  536MPD2    C2 8007   3.054   1.788  15.623 -0.6172  0.2502 -0.5484
  536MPD2    C3 8008   3.057   1.821  15.489  0.4989 -0.3546  0.1774
  536MPD2    C4 8009   3.166   1.853  15.427  0.0006 -0.5458 -0.3273
  536MPD2    C5 8010   3.285   1.849  15.494 -0.5508  0.3065 -1.0917
  536MPD2     H 8011   2.966   1.765  15.682  0.3592  1.6498  1.4654
  536MPD2    H1 8012   3.162   1.874  15.320  0.5940 -2.8121 -0.8007
  536MPD2    H2 8013   3.376   1.841  15.690 -0.0197  2.3122 -0.0496
  536MPD2    H3 8014   3.378   1.859  15.439 -0.1688  0.6552 -0.3732
  536MPD2     N 8015   2.934   1.822  15.416 -0.6066  0.1647 -0.1076
  536MPD2    H5 8016   2.949   1.852  15.320  0.9857 -0.6694 -0.1203
  536MPD2    N1 8017   3.173   1.779  15.838  1.0453  0.0544  0.4353
  536MPD2    H7 8018   3.267   1.776  15.875  1.6588 -0.0191 -1.1506
  537TMC3    C1 8019   3.115   1.727  16.058 -0.1165  0.3831 -0.7253
  537TMC3    C2 8020   3.144   1.819  16.147  0.3435  0.4658 -0.0539
  537TMC3    C3 8021   3.112   1.805  16.280  0.5240 -0.1155 -0.1730
  537TMC3    C4 8022   3.051   1.612  16.090  0.5344 -0.2380 -0.6756
  537TMC3    C5 8023   3.015   1.595  16.224 -0.6322 -0.2635  0.6584
  537TMC3    C6 8024   3.042   1.693  16.319 -0.0328 -0.5453 -0.3708
  537TMC3     C 8025   3.073   1.770  15.929  0.1911 -0.2013  0.3787
  537TMC3     O 8026   2.952   1.766  15.901  0.1938  0.4565  0.4154
  537TMC3     H 8027   3.194   1.905  16.102  1.0747  0.1053  0.0682
  537TMC3    H1 8028   3.007   1.549  16.013  0.7866  1.2044 -2.0238
  537TMC3    H2 8029   3.020   1.679  16.424 -1.6653  0.4740 -0.5698
  537TMC3    C7 8030   2.918   1.494  16.252  0.6034 -0.4229 -0.3263
  537TMC3    C8 8031   3.148   1.908  16.379 -0.0462 -0.4834 -0.0485
  537TMC3    O1 8032   2.835   1.480  16.162  0.0866 -0.6068  0.8192
  537TMC3    O2 8033   3.163   1.867  16.491 -0.1000  0.5196 -0.3826
  538TMC3    C1 8034   3.933   0.174  10.895  0.6287 -0.2669 -0.0413
  538TMC3    C2 8035   4.039   0.116  10.832  0.9887  0.4151  0.1568
  538TMC3    C3 8036   4.121   0.198  10.760  0.0630 -0.4892  0.2278
  538TMC3    C4 8037   3.904   0.302  10.879  0.1593  0.5243 -0.5671
  538TMC3    C5 8038   3.995   0.378  10.818 -0.4066  0.3395 -0.4395
  538TMC3    C6 8039   4.099   0.331  10.744 -0.2014  0.5192  0.5734
  538TMC3     C 8040   3.876   0.096  11.010 -1.0430  0.1049 -0.6049
  538TMC3     O 8041   3.765   0.121  11.058 -0.4027 -0.5276  0.2346
  538TMC3     H 8042   4.054   0.009  10.841  1.0707  0.1934 -2.4362
  538TMC3    H1 8043   3.827   0.346  10.941 -0.1950  1.2846 -1.5463
  538TMC3    H2 8044   4.171   0.401  10.703  0.0673 -0.9190 -1.4221
  538TMC3    C7 8045   3.989   0.523  10.837  0.2942  0.4325  0.5253
  538TMC3    C8 8046   4.231   0.140  10.692 -0.7839 -0.6727  0.2553
  538TMC3    O1 8047   4.077   0.600  10.801 -0.1832 -0.6966 -0.4439
  538TMC3    O2 8048   4.287   0.038  10.733  0.0757 -0.6399 -0.2477
  539MPD2     C 8049   3.570   4.021  11.508 -0.2475 -0.0748 -0.4040
  539MPD2    C1 8050   3.663   4.071  11.426  0.1427 -0.0064 -0.5796
  539MPD2    C2 8051   3.643   4.193  11.368 -0.0461  0.1293 -0.1011
  539MPD2    C3 8052   3.534   4.271  11.400 -0.3098 -0.1188  0.0885
  539MPD2    C4 8053   3.436   4.210  11.483  0.3639 -0.4361  0.3383
  539MPD2    C5 8054   3.458   4.090  11.534  0.5067  0.4848  0.1871
  539MPD2     H 8055   3.711   4.237  11.295  1.1264 -1.0738  0.2696
  539MPD2    H1 8056   3.348   4.259  11.522  1.0826 -0.3562  1.8755
  539MPD2    H2 8057   3.563   3.923  11.555  0.8897  0.4778  0.9101
  539MPD2    H3 8058   3.390   4.046  11.607 -1.4107 -0.3181 -2.0907
  539MPD2     N 8059   3.511   4.408  11.362  0.4140  0.2773 -0.1329
  539MPD2    H5 8060   3.430   4.455  11.401  1.1947  1.8905 -0.4534
  539MPD2    N1 8061   3.775   3.999  11.397 -0.4805  0.2215 -0.2610
  539MPD2    H7 8062   3.838   4.033  11.325 -1.2474 -2.0029 -1.9634
  540TMC3    C1 8063   3.493   4.597  11.216  0.1590  1.1249 -0.5704
  540TMC3    C2 8064   3.489   4.651  11.093  0.2206  0.4286 -0.3945
  540TMC3    C3 8065   3.427   0.030  11.075 -0.2411  0.3442  0.0732
  540TMC3    C4 8066   3.437   4.657  11.322  0.1148  0.0365 -0.4212
  540TMC3    C5 8067   3.386   0.046  11.304 -0.4224  0.3537  0.4130
  540TMC3    C6 8068   3.379   0.101  11.178  0.2183  0.4584 -0.6084
  540TMC3     C 8069   3.555   4.461  11.237 -0.2632 -1.0056  0.3670
  540TMC3     O 8070   3.606   4.404  11.143 -0.6101 -0.2229 -0.0478
  540TMC3     H 8071   3.550   4.597  11.021 -1.1882 -1.1294 -0.4236
  540TMC3    H1 8072   3.453   4.634  11.426 -0.3572 -0.0128 -0.3576
  540TMC3    H2 8073   3.328   0.195  11.156  3.4845  2.2541 -0.6015
  540TMC3    C7 8074   3.364   0.129  11.423  0.3391 -0.1148  0.4692
  540TMC3    C8 8075   3.406   0.080  10.938 -0.9643  0.2290 -0.5450
  540TMC3    O1 8076   3.349   0.070  11.528 -0.2711  0.4767 -0.7509
  540TMC3    O2 8077   3.335   0.181  10.921  0.2235 -0.4557 -0.1825
  541MPD2     C 8078   1.937   1.617  13.398 -0.5194  0.2362 -0.1079
  541MPD2    C1 8079   1.987   1.522  13.304  0.0323 -0.2166  0.1392
  541MPD2    C2 8080   2.006   1.565  13.177 -0.8829  0.4057 -0.1611
  541MPD2    C3 8081   1.985   1.699  13.136 -0.0974  0.1469  0.0497
  541MPD2    C4 8082   1.939   1.786  13.236 -0.2330  0.8156  0.6528
  541MPD2    C5 8083   1.913   1.749  13.364 -0.0230  0.7606 -0.5042
  541MPD2     H 8084   2.027   1.491  13.101 -0.2261  1.4937 -1.0427
  541MPD2    H1 8085   1.916   1.889  13.209 -0.2363  0.6244 -0.0696
  541MPD2    H2 8086   1.922   1.591  13.503  1.2210  2.7189  0.7591
  541MPD2    H3 8087   1.877   1.825  13.432 -0.3984  0.2836 -0.1749
  541MPD2     N 8088   2.000   1.737  13.001  0.1348 -0.2500  0.1081
  541MPD2    H5 8089   1.968   1.828  12.970  2.2591  1.1910  2.1515
  541MPD2    N1 8090   2.014   1.390  13.327 -0.6396 -0.2789 -0.3258
  541MPD2    H7 8091   2.058   1.348  13.245  0.9746 -0.9767  0.8902
  542TMC3    C1 8092   2.065   1.731  12.771  0.0148  0.2289 -0.4126
  542TMC3    C2 8093   2.147   1.673  12.669  0.6650  0.0160 -0.7909
  542TMC3    C3 8094   2.105   1.679  12.539 -0.1835 -0.5047  0.3596
  542TMC3    C4 8095   1.942   1.791  12.725  0.3269 -0.3102  0.5894
  542TMC3    C5 8096   1.913   1.793  12.594 -0.0494 -0.5601 -1.0436
  542TMC3    C6 8097   1.991   1.740  12.498 -0.5463 -0.1880  0.5233
  542TMC3     C 8098   2.076   1.674  12.905 -0.5887 -0.4381 -0.3563
  542TMC3     O 8099   2.158   1.582  12.912  0.1664  0.5868  0.4375
  542TMC3     H 8100   2.231   1.613  12.702  0.9773  1.0951  0.3984
  542TMC3    H1 8101   1.881   1.840  12.800 -1.3765 -0.6916 -0.5349
  542TMC3    H2 8102   1.955   1.754  12.396  0.4272 -1.1434  0.0495
  542TMC3    C7 8103   1.811   1.882  12.549  0.2880 -0.0147 -0.3334
  542TMC3    C8 8104   2.172   1.597  12.444  0.1635  0.2955  0.6369
  542TMC3    O1 8105   1.817   1.904  12.426 -0.6178 -0.9102 -0.3180
  542TMC3    O2 8106   2.117   1.569  12.340  0.4590  0.1186  0.2626
  543TMC3    C1 8107   1.617   2.675  16.978 -0.1885  0.5174 -0.2990
  543TMC3    C2 8108   1.686   2.603  17.068  0.2546 -0.5056  0.0337
  543TMC3    C3 8109   1.680   2.629  17.201  0.0963 -1.1144  0.4213
  543TMC3    C4 8110   1.543   2.784  17.013  0.2253  0.3676 -0.3260
  543TMC3    C5 8111   1.535   2.806  17.153 -0.3376  0.5514 -0.6988
  543TMC3    C6 8112   1.598   2.732  17.248 -0.0623 -0.0768 -0.9926
  543TMC3     C 8113   1.653   2.652  16.838 -0.4555 -0.3146 -1.0320
  543TMC3     O 8114   1.758   2.597  16.811 -0.6441 -0.8099  0.0027
  543TMC3     H 8115   1.734   2.514  17.028  2.9158  1.4678 -1.2476
  543TMC3    H1 8116   1.490   2.846  16.942 -1.7081 -2.0696 -1.0312
  543TMC3    H2 8117   1.596   2.760  17.353  0.8915 -0.8587 -0.7709
  543TMC3    C7 8118   1.430   2.890  17.209  0.0386  0.3069  0.8246
  543TMC3    C8 8119   1.729   2.523  17.285 -0.0586 -0.0307  0.5810
  543TMC3    O1 8120   1.399   2.868  17.328 -0.3193  0.4442 -0.4544
  543TMC3    O2 8121   1.823   2.446  17.253 -0.3900  0.5902  0.2964
  544MPD2     C 8122   1.593   2.171  17.628 -0.0953 -0.2784 -0.3184
  544MPD2    C1 8123   1.645   2.156  17.505  0.4339  0.6337  0.2881
  544MPD2    C2 8124   1.682   2.265  17.434 -0.2410  0.3742 -0.2490
  544MPD2    C3 8125   1.656   2.393  17.483 -0.2541 -0.5654  0.4577
  544MPD2    C4 8126   1.612   2.408  17.613 -0.6873  0.6476  0.3740
  544MPD2    C5 8127   1.571   2.295  17.681  0.3099  0.0862 -0.9613
  544MPD2     H 8128   1.729   2.247  17.338  1.0905 -1.7728  0.8093
  544MPD2    H1 8129   1.582   2.504  17.652  1.3767  2.5234 -2.6304
  544MPD2    H2 8130   1.577   2.083  17.688 -0.2573 -0.1301 -0.1444
  544MPD2    H3 8131   1.528   2.315   0.018  0.4578  1.8432 -1.2426
  544MPD2     N 8132   1.657   2.506  17.399  0.5193 -0.2615  0.0567
  544MPD2    H5 8133   1.603   2.585  17.432  2.6333  1.1747  0.0200
  544MPD2    N1 8134   1.640   2.027  17.446 -0.3170  0.2467  0.5131
  544MPD2    H7 8135   1.623   1.952  17.511  1.4176 -0.3081  0.3172
  545TMC3    C1 8136   1.634   1.862  17.275 -0.1499 -0.2944 -0.6050
  545TMC3    C2 8137   1.567   1.822  17.169 -0.6306  0.1918  1.4313
  545TMC3    C3 8138   1.557   1.682  17.151 -0.0411  0.0511 -0.0764
  545TMC3    C4 8139   1.696   1.781  17.361  0.4270  0.4110  0.0128
  545TMC3    C5 8140   1.683   1.654  17.342 -0.0434 -0.5416  0.5654
  545TMC3    C6 8141   1.608   1.597  17.239 -0.5414  0.3049  0.2496
  545TMC3     C 8142   1.613   2.003  17.312  1.0495  0.6540  0.1274
  545TMC3     O 8143   1.592   2.079  17.218  0.6207 -0.6164 -0.2917
  545TMC3     H 8144   1.510   1.891  17.109  1.2426  0.4752 -0.0103
  545TMC3    H1 8145   1.761   1.814  17.442  1.1268 -1.8204  0.3491
  545TMC3    H2 8146   1.602   1.490  17.225 -1.2652  0.0359  2.5778
  545TMC3    C7 8147   1.734   1.568  17.445 -0.1631 -0.2331 -0.2142
  545TMC3    C8 8148   1.492   1.632  17.033 -0.9076 -0.4266  0.2499
  545TMC3    O1 8149   1.717   1.608  17.562  0.4753  0.4052 -0.3986
  545TMC3    O2 8150   1.484   1.511  17.035  0.5409  0.2297 -0.0046
  546MPD2     C 8151   2.915   2.476  17.148  0.0742  0.2247  0.1454
  546MPD2    C1 8152   2.955   2.521  17.019 -0.2535  0.1733  0.3893
  546MPD2    C2 8153   3.004   2.645  17.002 -0.2978  0.0270  0.2992
  546MPD2    C3 8154   3.003   2.731  17.106  0.2852  0.3116 -0.1556
  546MPD2    C4 8155   2.952   2.698  17.227  0.3293  0.7785  0.2856
  546MPD2    C5 8156   2.910   2.563  17.248  0.1793 -0.6752  0.1286
  546MPD2     H 8157   3.045   2.667  16.904  0.6928  0.5860  0.8468
  546MPD2    H1 8158   2.945   2.766  17.311  1.3901 -0.3766  1.3110
  546MPD2    H2 8159   2.867   2.382  17.172  0.7545 -0.1137  0.1969
  546MPD2    H3 8160   2.871   2.533  17.345  2.0016 -1.3346  0.6522
  546MPD2     N 8161   3.046   2.868  17.086  0.1734  0.8482  0.0765
  546MPD2    H5 8162   3.028   2.932  17.163  0.1997  0.0092  0.7812
  546MPD2    N1 8163   2.945   2.422  16.914 -0.3088 -0.2699  0.6772
  546MPD2    H7 8164   2.900   2.333  16.933 -0.5398 -0.5645 -1.2994
  547TMC3    C1 8165   2.950   2.311  16.705 -0.4872 -0.6788  0.2372
  547TMC3    C2 8166   2.898   2.312  16.578  0.3671 -0.6646  0.0423
  547TMC3    C3 8167   2.846   2.198  16.521 -0.3877 -0.4860 -0.3699
  547TMC3    C4 8168   2.971   2.189  16.758  0.2466  0.3429 -0.6346
  547TMC3    C5 8169   2.932   2.070  16.703 -0.1890  0.3028  0.2314
  547TMC3    C6 8170   2.864   2.073  16.581 -0.4996 -0.5551  0.2205
  547TMC3     C 8171   2.966   2.438  16.779  0.1155 -0.2352  0.3040
  547TMC3     O 8172   2.987   2.540  16.713  0.6272  0.1591  0.0064
  547TMC3     H 8173   2.884   2.408  16.529  1.9227 -0.2285  0.4434
  547TMC3    H1 8174   3.009   2.183  16.859 -0.2608 -0.9085 -0.5116
  547TMC3    H2 8175   2.832   1.979  16.539 -2.2720  0.7476 -1.2960
  547TMC3    C7 8176   2.863   1.982  16.794  0.4191  0.7971 -0.0800
  547TMC3    C8 8177   2.710   2.207  16.468 -0.2792  0.0264  0.2194
  547TMC3    O1 8178   2.753   1.951  16.752  0.4887  0.5003  0.0335
  547TMC3    O2 8179   2.691   2.299  16.388  0.0812 -0.6850  0.0342
  548MPD2     C 8180   2.497   3.280  12.757  0.0245  0.3773  1.0580
  548MPD2    C1 8181   2.420   3.203  12.676 -0.6382 -0.1493  0.4339
  548MPD2    C2 8182   2.479   3.104  12.598  0.0501  0.5554  0.4031
  548MPD2    C3 8183   2.615   3.070  12.608  0.2769 -0.6561 -0.4533
  548MPD2    C4 8184   2.691   3.146  12.697 -0.8035  0.9885  0.2630
  548MPD2    C5 8185   2.629   3.246  12.762  0.1687 -0.7717 -0.1083
  548MPD2     H 8186   2.424   3.045  12.525  0.3105  1.8583 -0.8468
  548MPD2    H1 8187   2.796   3.139  12.719 -0.4011  0.1559 -1.8799
  548MPD2    H2 8188   2.461   3.360  12.821 -3.5640  1.9208 -2.8992
  548MPD2    H3 8189   2.695   3.291  12.835  1.8230 -0.3734 -1.8417
  548MPD2     N 8190   2.674   2.979  12.526  0.1827  0.1262 -0.1258
  548MPD2    H5 8191   2.611   2.924  12.469  0.2129  0.5074 -0.5219
  548MPD2    N1 8192   2.287   3.240  12.674 -0.5704  0.0300  0.1762
  548MPD2    H7 8193   2.261   3.322  12.729  1.1740  1.3898 -1.0300
  549TMC3    C1 8194   2.055   3.228  12.629  0.2896 -0.2444  0.3327
  549TMC3    C2 8195   2.042   3.357  12.662  0.6106  0.6059 -0.0853
  549TMC3    C3 8196   1.936   3.399  12.739  0.1188  0.5274 -0.2191
  549TMC3    C4 8197   1.959   3.136  12.659 -0.4050  0.1380 -0.2809
  549TMC3    C5 8198   1.847   3.180  12.726 -0.2216 -0.8087 -0.1663
  549TMC3    C6 8199   1.835   3.313  12.767  0.4147  0.0574  0.2448
  549TMC3     C 8200   2.187   3.168  12.608 -0.2953 -0.0895 -0.0712
  549TMC3     O 8201   2.195   3.058  12.555 -0.4218  0.1098 -0.3354
  549TMC3     H 8202   2.115   3.429  12.627 -1.0137  3.1528  1.8390
  549TMC3    H1 8203   1.969   3.029  12.646  1.9439  0.5680 -1.9509
  549TMC3    H2 8204   1.745   3.343  12.819  0.0358 -2.1304  0.8593
  549TMC3    C7 8205   1.735   3.095  12.764  1.0668 -0.0984 -0.7254
  549TMC3    C8 8206   1.901   3.535  12.695 -0.3090  0.2394 -0.3517
  549TMC3    O1 8207   1.640   3.141  12.821 -0.6366  0.3375 -0.1959
  549TMC3    O2 8208   1.782   3.558  12.686  0.1022 -0.6443 -0.7692
  550TMC3    C1 8209   0.899   1.282  12.616  0.0999  0.4179  0.8312
  550TMC3    C2 8210   0.860   1.375  12.708  0.1614 -0.7070 -0.6182
  550TMC3    C3 8211   0.774   1.468  12.662 -0.1813 -0.5490 -0.0435
  550TMC3    C4 8212   0.836   1.268  12.493  0.9584 -0.2323  0.4832
  550TMC3    C5 8213   0.750   1.360  12.463 -0.4300  0.1749 -0.6890
  550TMC3    C6 8214   0.715   1.466  12.539  0.6239 -0.0745  0.0778
  550TMC3     C 8215   1.019   1.204  12.644 -0.1583 -0.0458  0.3170
  550TMC3     O 8216   1.055   1.193  12.761  0.4363  0.4849  0.3449
  550TMC3     H 8217   0.905   1.378  12.806  2.5215  1.0183 -1.7653
  550TMC3    H1 8218   0.850   1.175  12.439 -0.9361  0.9970 -2.1557
  550TMC3    H2 8219   0.649   1.547  12.509 -1.3380 -1.3086  1.0360
  550TMC3    C7 8220   0.663   1.333  12.350 -0.0860  0.4794  0.4471
  550TMC3    C8 8221   0.776   1.598  12.728 -0.3277 -0.2580  0.2250
  550TMC3    O1 8222   0.550   1.378  12.359  0.0535  0.0418 -0.4566
  550TMC3    O2 8223   0.753   1.698  12.659  0.3115  0.2586  0.1633
  551TMC3    C1 8224   3.811   3.478  13.534  0.2532  0.0289  0.7672
  551TMC3    C2 8225   3.894   3.503  13.431 -0.0856 -0.6166 -0.4129
  551TMC3    C3 8226   3.974   3.615  13.440 -0.3996 -0.1372  0.2267
  551TMC3    C4 8227   3.809   3.554  13.644  0.3972  0.1044 -0.3840
  551TMC3    C5 8228   3.874   3.669  13.638 -0.5123  0.0079 -0.6246
  551TMC3    C6 8229   3.960   3.707  13.542  0.0321 -1.1317  0.8151
  551TMC3     C 8230   3.700   3.396  13.484  0.2377 -0.1074  0.1487
  551TMC3     O 8231   3.716   3.323  13.386  0.2460  0.1155 -0.2020
  551TMC3     H 8232   3.910   3.435  13.348  0.6006  1.4766 -2.0015
  551TMC3    H1 8233   3.756   3.529  13.736  0.0302 -0.7734 -0.8421
  551TMC3    H2 8234   4.023   3.794  13.559 -0.4636 -0.5802 -0.1595
  551TMC3    C7 8235   3.902   3.734  13.765 -0.0400 -0.3552 -0.0118
  551TMC3    C8 8236   4.070   3.629  13.340  0.7632  0.3963  0.2169
  551TMC3    O1 8237   3.954   3.654  13.842  0.3079  0.2030  0.0022
  551TMC3    O2 8238   4.104   3.530  13.282  0.7680  0.2107  0.2158
  552MPD2     C 8239   1.041   0.968  14.082  0.2521 -0.0837  0.1467
  552MPD2    C1 8240   1.023   0.833  14.101 -0.2817 -0.6956 -0.7273
  552MPD2    C2 8241   1.106   0.761  14.179  0.3602  0.4430 -0.0126
  552MPD2    C3 8242   1.213   0.826  14.236 -0.2500 -0.6103 -0.6054
  552MPD2    C4 8243   1.227   0.959  14.223 -0.4455  0.5191  0.3064
  552MPD2    C5 8244   1.138   1.031  14.150 -0.5170 -0.0647  0.7804
  552MPD2     H 8245   1.097   0.654  14.188  2.9916  0.1435 -0.8425
  552MPD2    H1 8246   1.316   1.007  14.263  1.1487  0.2265 -2.9651
  552MPD2    H2 8247   0.983   1.029  14.015  2.0833  2.0855  0.5531
  552MPD2    H3 8248   1.145   1.139  14.138  0.1358 -0.2283 -0.2798
  552MPD2     N 8249   1.322   0.773  14.310  0.3704 -0.1993 -0.9199
  552MPD2    H5 8250   1.394   0.838  14.339  0.9258 -1.3961  0.3876
  552MPD2    N1 8251   0.914   0.769  14.040  0.5143  0.8695 -0.1915
  552MPD2    H7 8252   0.908   0.667  14.039 -2.2476  1.0367 -0.0961
  553TMC3    C1 8253   0.693   0.750  13.960 -0.0964 -0.1849  0.5779
  553TMC3    C2 8254   0.644   0.787  13.844 -0.0094  1.2250  0.0017
  553TMC3    C3 8255   0.625   0.702  13.745  0.2154 -0.1413  0.2373
  553TMC3    C4 8256   0.715   0.623  13.978 -0.3739  0.5663 -0.0172
  553TMC3    C5 8257   0.678   0.534  13.883 -0.8250 -0.2930  0.3708
  553TMC3    C6 8258   0.620   0.568  13.761 -0.7776 -0.7147 -0.0697
  553TMC3     C 8259   0.796   0.836  14.012  0.3533  0.3951 -0.7987
  553TMC3     O 8260   0.773   0.957  14.004 -0.4051  0.5566 -1.0461
  553TMC3     H 8261   0.637   0.893  13.819 -1.0894  0.9936 -0.6660
  553TMC3    H1 8262   0.740   0.587  14.077 -2.5622 -3.2449 -0.8242
  553TMC3    H2 8263   0.622   0.498  13.679  0.1570 -1.8482  0.9403
  553TMC3    C7 8264   0.729   0.401  13.899  0.0122 -0.0060 -0.2390
  553TMC3    C8 8265   0.689   0.750  13.624 -0.1556 -0.0373 -0.5134
  553TMC3    O1 8266   0.646   0.318  13.869 -0.1362 -0.0813  0.6513
  553TMC3    O2 8267   0.774   0.834  13.648  0.0675 -0.0973 -0.0256
  554TMC3    C1 8268   3.036   0.089  11.406 -0.1829 -0.3231 -0.9813
  554TMC3    C2 8269   3.039   4.737  11.299 -0.5337  0.0773 -0.3184
  554TMC3    C3 8270   3.046   0.035  11.169  0.4229  0.6837 -0.1298
  554TMC3    C4 8271   3.029   0.221  11.379 -0.7540  0.2292 -0.3285
  554TMC3    C5 8272   3.028   0.261  11.248  0.0745  0.6208  0.2082
  554TMC3    C6 8273   3.053   0.172  11.148 -0.4392  0.7476  0.9333
  554TMC3     C 8274   3.021   0.046  11.541  0.2943 -0.5427 -0.4781
  554TMC3     O 8275   3.014   0.130  11.633  0.1816  0.7283  0.2397
  554TMC3     H 8276   3.023   4.632  11.317  3.3786 -0.3545  0.6906
  554TMC3    H1 8277   3.024   0.295  11.458 -0.5216 -0.3128  0.1894
  554TMC3    H2 8278   3.054   0.202  11.043  1.3609  1.3193  1.1146
  554TMC3    C7 8279   3.004   0.405  11.211 -0.5302 -0.4134  0.3955
  554TMC3    C8 8280   3.015   4.692  11.051  0.0979 -0.3879 -0.0117
  554TMC3    O1 8281   2.990   0.426  11.092  0.1857 -0.3333  0.1602
  554TMC3    O2 8282   3.071   4.726  10.947  0.3375  0.8736  0.3714
  555TMC3    C1 8283   1.904   4.307  15.162  0.6239 -0.3703  0.1026
  555TMC3    C2 8284   1.895   4.355  15.293  0.2250 -0.1860  0.2863
  555TMC3    C3 8285   1.918   4.266  15.393 -0.1039  0.4487 -0.6582
  555TMC3    C4 8286   1.947   4.182  15.123 -0.2210 -0.7844  0.9126
  555TMC3    C5 8287   1.981   4.103  15.229  0.0379  0.2998 -0.1560
  555TMC3    C6 8288   1.968   4.135  15.368 -0.1652  0.2717  0.1827
  555TMC3     C 8289   1.947   4.409  15.064  0.0741 -0.4195  0.7306
  555TMC3     O 8290   2.052   4.468  15.087 -0.0645  0.1105  0.3247
  555TMC3     H 8291   1.870   4.458  15.313 -2.0431 -0.0283 -3.4131
  555TMC3    H1 8292   1.966   4.151  15.020  2.6746 -0.7898  1.4347
  555TMC3    H2 8293   1.987   4.059  15.442  1.5103  0.7418  0.2417
  555TMC3    C7 8294   1.999   3.962  15.205 -0.1877 -0.5869 -0.7172
  555TMC3    C8 8295   1.913   4.322  15.530  0.0682 -0.3134 -0.0189
  555TMC3    O1 8296   1.970   3.879  15.294 -0.2160  0.7140  0.0887
  555TMC3    O2 8297   1.883   4.441  15.533 -0.5862  0.2361 -0.6787
  556MPD2     C 8298   0.219   1.164  10.517  0.4703 -0.6310  0.4262
  556MPD2    C1 8299   0.157   1.049  10.568 -0.1658 -0.4468 -0.4099
  556MPD2    C2 8300   0.093   0.964  10.476 -0.2982 -0.0275  0.1254
  556MPD2    C3 8301   0.098   0.989  10.340 -0.1169 -0.0569 -0.2150
  556MPD2    C4 8302   0.151   1.107  10.297  0.4808 -0.2222  0.0773
  556MPD2    C5 8303   0.214   1.195  10.382  0.1267  0.2180  0.7907
  556MPD2     H 8304   0.047   0.872  10.511 -0.2504  0.3306  1.1532
  556MPD2    H1 8305   0.144   1.144  10.195 -1.8568 -0.0062  0.3211
  556MPD2    H2 8306   0.252   1.244  10.581 -0.7758  1.0733 -1.0396
  556MPD2    H3 8307   0.252   1.291  10.351 -0.2736  0.5727  1.3974
  556MPD2     N 8308   0.031   0.899  10.251 -0.6925 -0.5067  0.1321
  556MPD2    H5 8309   4.715   0.829  10.298  0.0538 -0.7164  0.7106
  556MPD2    N1 8310   0.152   1.028  10.706  0.0537 -0.4996 -0.2526
  556MPD2    H7 8311   0.085   0.957  10.734 -0.5614 -0.7450 -2.3650
  557TMC3    C1 8312   4.705   0.774  10.064  0.6490  0.3610  0.3059
  557TMC3    C2 8313   0.010   0.718   9.947  0.0538  0.4750  0.0102
  557TMC3    C3 8314   4.714   0.586   9.919 -0.1806  0.4645 -0.2127
  557TMC3    C4 8315   4.621   0.699  10.150 -0.3583 -0.2459  0.6888
  557TMC3    C5 8316   4.596   0.566  10.115 -0.3809 -0.3414 -0.1269
  557TMC3    C6 8317   4.638   0.505   9.999  0.6644  0.2292  0.1942
  557TMC3     C 8318   0.040   0.891  10.110  0.8315 -0.6922 -0.6484
  557TMC3     O 8319   0.108   0.964  10.040  0.9859  0.6471 -0.2440
  557TMC3     H 8320   0.083   0.769   9.885  0.6050 -2.2317 -1.5355
  557TMC3    H1 8321   4.579   0.745  10.239 -3.3515 -0.8529 -0.4417
  557TMC3    H2 8322   4.586   0.415   9.971  0.9289  0.3638 -0.7129
  557TMC3    C7 8323   4.512   0.495  10.202  1.0141  0.2594  0.6738
  557TMC3    C8 8324   0.027   0.533   9.796 -0.7390 -0.3982 -0.1948
  557TMC3    O1 8325   4.458   0.560  10.293 -0.2558  0.9685 -0.7124
  557TMC3    O2 8326   0.086   0.609   9.722  0.3458  0.5267  0.2787
  558TMC3    C1 8327   2.316   3.794  10.249 -0.0977  0.1177  0.1792
  558TMC3    C2 8328   2.202   3.757  10.320  0.4480  0.2162  0.0835
  558TMC3    C3 8329   2.086   3.805  10.275 -0.7952  0.1576  0.2557
  558TMC3    C4 8330   2.318   3.862  10.133 -0.1182 -0.1409 -0.7813
  558TMC3    C5 8331   2.195   3.913  10.093 -0.4610  0.0787  0.1235
  558TMC3    C6 8332   2.084   3.880  10.167 -0.7760  0.0712 -0.1035
  558TMC3     C 8333   2.443   3.748  10.298  0.0271 -0.3776  0.0974
  558TMC3     O 8334   2.532   3.831  10.275  0.0332  0.1913 -0.3242
  558TMC3     H 8335   2.213   3.729  10.424 -1.3345  0.4102  0.3154
  558TMC3    H1 8336   2.403   3.894  10.074  0.8400  1.3310  1.3782
  558TMC3    H2 8337   1.985   3.915  10.140  0.4346  3.1839 -0.5594
  558TMC3    C7 8338   2.181   3.994   9.970 -0.2193  0.1959 -0.1602
  558TMC3    C8 8339   1.968   3.814  10.357 -0.1043 -0.8872 -0.7550
  558TMC3    O1 8340   2.290   4.025   9.926  0.3129 -0.2651 -0.6985
  558TMC3    O2 8341   1.893   3.911  10.358 -0.6531 -0.0766 -0.3236
  559MPD2     C 8342   2.499   4.331  10.595  0.0676  0.2064 -0.0148
  559MPD2    C1 8343   2.447   4.221  10.651 -0.0071 -0.5036 -0.0343
  559MPD2    C2 8344   2.522   4.104  10.683 -0.2346  0.3295 -0.6697
  559MPD2    C3 8345   2.653   4.102  10.646  0.9437 -0.4734 -0.7010
  559MPD2    C4 8346   2.700   4.207  10.569 -0.0626  0.5559  0.3610
  559MPD2    C5 8347   2.625   4.324  10.538 -0.1429 -0.5335  0.4151
  559MPD2     H 8348   2.472   4.030  10.745  0.6139 -1.2630 -1.9155
  559MPD2    H1 8349   2.802   4.207  10.531 -0.3799 -0.0728 -0.4835
  559MPD2    H2 8350   2.448   4.424  10.572 -1.0965  0.4471  3.6499
  559MPD2    H3 8351   2.655   4.407  10.475 -1.0742 -2.6126 -2.7671
  559MPD2     N 8352   2.731   3.999  10.693 -0.6579  0.6162 -0.3253
  559MPD2    H5 8353   2.691   3.937  10.763  0.5797  1.4633  1.1365
  559MPD2    N1 8354   2.318   4.238  10.697  0.0709  0.3204  0.9056
  559MPD2    H7 8355   2.275   4.328  10.681 -1.3642 -0.2780  1.2927
  560TMC3    C1 8356   2.904   3.867  10.768 -0.3725 -0.0511 -0.6261
  560TMC3    C2 8357   2.813   3.776  10.807 -0.1206 -0.4685 -0.4618
  560TMC3    C3 8358   2.859   3.664  10.876 -0.1141 -0.1183  0.1373
  560TMC3    C4 8359   3.032   3.859  10.811 -0.3794 -0.6161  0.5042
  560TMC3    C5 8360   3.067   3.766  10.909  0.2899 -0.0240  0.1596
  560TMC3    C6 8361   2.983   3.657  10.935  0.2047 -0.7151 -0.6531
  560TMC3     C 8362   2.864   3.981  10.683  0.3869 -0.2667 -0.3030
  560TMC3     O 8363   2.951   4.049  10.631 -0.2143  0.0174  0.0489
  560TMC3     H 8364   2.721   3.753  10.754 -1.7773  1.0968  1.7409
  560TMC3    H1 8365   3.099   3.933  10.769 -3.0172  1.5571  0.1368
  560TMC3    H2 8366   3.002   3.570  10.996  2.0002 -0.4933 -0.9113
  560TMC3    C7 8367   3.205   3.749  10.952 -0.5365 -0.0986 -0.6477
  560TMC3    C8 8368   2.765   3.564  10.921  0.2678 -0.3451  0.0452
  560TMC3    O1 8369   3.244   3.639  11.001  0.2090 -0.3829 -0.4073
  560TMC3    O2 8370   2.651   3.603  10.945  0.4295  0.0780  0.2530
  561TMC3    C1 8371   0.335   3.104  11.154 -0.5396 -1.1602 -0.7718
  561TMC3    C2 8372   0.242   3.020  11.210 -0.4909 -0.0583  0.0005
  561TMC3    C3 8373   0.146   3.068  11.289 -0.2792 -0.0026 -0.7866
  561TMC3    C4 8374   0.343   3.234  11.178  0.5127 -0.3591 -0.3801
  561TMC3    C5 8375   0.246   3.278  11.270 -0.0046  0.0067 -0.6970
  561TMC3    C6 8376   0.152   3.201  11.333 -0.3918  0.3080 -0.0757
  561TMC3     C 8377   0.404   3.053  11.032 -0.4223  0.4447 -0.5185
  561TMC3     O 8378   0.418   2.926  11.031 -0.2959  0.4380 -0.0527
  561TMC3     H 8379   0.246   2.913  11.188  2.0769 -0.2447  1.2618
  561TMC3    H1 8380   0.433   3.289  11.155  0.0591  0.8883  0.8247
  561TMC3    H2 8381   0.086   3.239  11.410 -0.5374  1.3534 -0.7043
  561TMC3    C7 8382   0.260   3.412  11.332  0.5089 -0.0402 -0.8660
  561TMC3    C8 8383   0.096   2.972  11.382  0.2856  0.4512 -0.1262
  561TMC3    O1 8384   0.204   3.424  11.438 -0.3210  0.2770 -0.4473
  561TMC3    O2 8385   0.127   2.855  11.374  0.0440 -0.7890  0.4160
  562TMC3    C1 8386   1.832   4.516  16.349 -0.5378  0.3705  0.1187
  562TMC3    C2 8387   1.757   4.627  16.345  0.7698 -0.3369  0.1030
  562TMC3    C3 8388   1.704   4.662  16.220 -0.1079 -0.2672 -0.0728
  562TMC3    C4 8389   1.847   4.432  16.243 -0.0726 -0.0156  0.4736
  562TMC3    C5 8390   1.777   4.458  16.127  0.7410  0.2356 -0.0421
  562TMC3    C6 8391   1.718   4.582  16.109 -0.0844  0.3896 -0.2919
  562TMC3     C 8392   1.886   4.481  16.479  0.3184  0.4047 -0.9046
  562TMC3     O 8393   1.928   4.569  16.554 -0.0491  0.1084 -0.3872
  562TMC3     H 8394   1.753   4.696  16.428 -2.2673  0.7529 -0.9538
  562TMC3    H1 8395   1.895   4.336  16.256  1.7366  0.8899  0.4507
  562TMC3    H2 8396   1.667   4.603  16.016  1.6250  0.1026 -1.3031
  562TMC3    C7 8397   1.775   4.365  16.022  0.4893 -0.0200  0.5663
  562TMC3    C8 8398   1.620   0.039  16.220 -0.1806  0.1691 -0.2847
  562TMC3    O1 8399   1.744   4.415  15.912 -0.1411 -1.0893 -0.0922
  562TMC3    O2 8400   1.605   0.101  16.325  0.1215  0.6021 -0.4018
  563MPD2     C 8401   4.248   1.113  15.521 -0.8845 -0.3101 -0.0041
  563MPD2    C1 8402   4.259   1.047  15.642  0.4326  0.5701 -0.2396
  563MPD2    C2 8403   4.377   0.980  15.669  0.0139 -0.1062  0.2495
  563MPD2    C3 8404   4.478   0.965  15.582 -0.1810  1.0442 -0.1503
  563MPD2    C4 8405   4.460   1.028  15.459 -0.4948  0.5068  0.1484
  563MPD2    C5 8406   4.346   1.099  15.425  0.1402  0.4172 -0.2576
  563MPD2     H 8407   4.377   0.923  15.761  3.2082 -1.9893 -0.9058
  563MPD2    H1 8408   4.521   1.004  15.373 -0.9921  0.1406 -0.1057
  563MPD2    H2 8409   4.162   1.174  15.496  1.7538  2.9188 -1.1776
  563MPD2    H3 8410   4.325   1.148  15.331 -0.5082 -0.1953 -0.4359
  563MPD2     N 8411   4.586   0.890  15.627  0.7013 -0.1911  0.6690
  563MPD2    H5 8412   4.597   0.893  15.728 -0.3917  2.8451  0.6993
  563MPD2    N1 8413   4.156   1.045  15.741  0.1177 -0.5506  0.1754
  563MPD2    H7 8414   4.171   0.970  15.808 -0.5705 -1.1372 -0.3317
  564TMC3    C1 8415   3.969   1.080  15.860 -0.6197 -0.5982  0.1766
  564TMC3    C2 8416   3.850   1.016  15.841 -1.0853 -0.2909  0.3899
  564TMC3    C3 8417   3.813   0.941  15.949  0.5097  0.4996 -0.0269
  564TMC3    C4 8418   4.044   1.072  15.973 -0.3891 -0.8617 -0.1765
  564TMC3    C5 8419   3.998   1.000  16.082 -0.7764  0.1845 -0.4180
  564TMC3    C6 8420   3.885   0.934  16.073 -0.1390 -0.5318 -0.2365
  564TMC3     C 8421   4.035   1.108  15.736  0.2137  0.3814  0.0579
  564TMC3     O 8422   3.983   1.174  15.643 -0.1844  0.4458  1.2008
  564TMC3     H 8423   3.828   0.999  15.736  0.1901  2.6345 -0.3544
  564TMC3    H1 8424   4.137   1.129  15.976 -1.6200  1.0736  0.9341
  564TMC3    H2 8425   3.835   0.895  16.160  0.9120  2.0036  1.4824
  564TMC3    C7 8426   4.105   0.922  16.138 -0.2155 -0.0120 -0.1485
  564TMC3    C8 8427   3.766   0.814  15.908 -0.0213  0.4485  1.1461
  564TMC3    O1 8428   4.217   0.975  16.157  0.1423  0.7974  0.0628
  564TMC3    O2 8429   3.805   0.719  15.978 -0.0146 -0.3503 -0.0259
  565TMC3    C1 8430   4.288   2.433   9.855 -0.7307  0.2530 -0.2247
  565TMC3    C2 8431   4.275   2.454   9.993  0.8390  0.3081  0.6634
  565TMC3    C3 8432   4.173   2.386  10.051  0.0265 -0.0920 -0.9129
  565TMC3    C4 8433   4.238   2.324   9.795  0.4419 -0.3193 -0.7357
  565TMC3    C5 8434   4.139   2.254   9.851  0.1215 -0.2045 -0.2013
  565TMC3    C6 8435   4.104   2.287   9.985 -0.0414  0.1144 -0.7256
  565TMC3     C 8436   4.402   2.497   9.785  0.4835 -0.3813  0.7249
  565TMC3     O 8437   4.398   2.521   9.664  0.2897 -0.6886 -0.2551
  565TMC3     H 8438   4.329   2.533  10.043 -0.6636  1.7472  0.0290
  565TMC3    H1 8439   4.267   2.310   9.691  1.4942  0.4123 -0.5384
  565TMC3    H2 8440   4.048   2.222  10.051 -0.2400 -0.4456 -1.4448
  565TMC3    C7 8441   4.093   2.133   9.788  0.3214 -0.6336 -0.0788
  565TMC3    C8 8442   4.158   2.421  10.199  0.0438 -0.1895  0.1901
  565TMC3    O1 8443   4.163   2.087   9.697  0.3011 -0.2069 -0.0400
  565TMC3    O2 8444   4.232   2.506  10.248  0.3797  0.1266  0.1212
  566MPD2     C 8445   1.056   4.140  14.435  0.4036  0.2664  0.4421
  566MPD2    C1 8446   1.075   4.170  14.303  0.8655  1.0119  0.1467
  566MPD2    C2 8447   1.015   4.088  14.204  0.8053  0.1747 -0.2132
  566MPD2    C3 8448   0.945   3.971  14.243 -0.1913  0.3142 -0.7078
  566MPD2    C4 8449   0.937   3.940  14.379  0.1666  0.1248  0.0017
  566MPD2    C5 8450   0.976   4.034  14.472 -0.1502  0.0832 -0.7148
  566MPD2     H 8451   1.025   4.108  14.098 -0.0674  0.1387 -0.2973
  566MPD2    H1 8452   0.889   3.850  14.416 -0.1366  0.5545  0.6658
  566MPD2    H2 8453   1.086   4.202  14.519 -1.9006  3.3319 -1.0230
  566MPD2    H3 8454   0.956   4.029  14.578  0.7793 -1.6678 -0.6138
  566MPD2     N 8455   0.874   3.882  14.158 -0.1295 -0.2068  0.4844
  566MPD2    H5 8456   0.828   3.811  14.215 -0.8561 -0.8610 -0.9108
  566MPD2    N1 8457   1.152   4.282  14.267 -0.2488  0.5858  0.2555
  566MPD2    H7 8458   1.196   4.331  14.344 -1.8659  1.4916  0.5958
  567TMC3    C1 8459   1.288   4.413  14.121 -0.7790  0.2417  0.3212
  567TMC3    C2 8460   1.303   4.477  14.001  0.2110  0.4553 -0.6795
  567TMC3    C3 8461   1.422   4.528  13.954  0.0091  0.0551  0.4197
  567TMC3    C4 8462   1.405   4.393  14.189 -0.0938 -0.0141  0.4051
  567TMC3    C5 8463   1.520   4.460  14.150 -0.7472  0.3058 -0.5710
  567TMC3    C6 8464   1.530   4.528  14.034  0.2218  0.4644  0.1928
  567TMC3     C 8465   1.179   4.319  14.135  0.0764 -0.6305 -0.3126
  567TMC3     O 8466   1.152   4.268  14.025 -0.0132  0.4627  0.1657
  567TMC3     H 8467   1.212   4.503  13.948  1.1738  0.7133 -2.1955
  567TMC3    H1 8468   1.398   4.351  14.289 -1.9504 -0.5419  0.0637
  567TMC3    H2 8469   1.623   4.581  14.020  0.3100 -0.3018 -2.1694
  567TMC3    C7 8470   1.623   4.484  14.247  0.3901 -0.3070 -0.5897
  567TMC3    C8 8471   1.414   4.605  13.827  0.0705 -0.0009 -0.4458
  567TMC3    O1 8472   1.686   4.588  14.242  0.4224 -0.1525 -0.2647
  567TMC3    O2 8473   1.302   4.629  13.793  0.1892 -0.2454  0.4148
  568MPD2     C 8474   3.405   4.086  16.060 -0.2894  0.7215 -0.4344
  568MPD2    C1 8475   3.464   4.165  16.154  0.0471 -0.7081 -0.2520
  568MPD2    C2 8476   3.446   4.297  16.141 -0.4470 -0.7184 -0.4806
  568MPD2    C3 8477   3.379   4.355  16.038 -0.2393 -0.2805 -0.2201
  568MPD2    C4 8478   3.329   4.269  15.937 -0.6539 -0.4139 -0.6369
  568MPD2    C5 8479   3.329   4.134  15.958 -0.9202  0.1009 -0.0784
  568MPD2     H 8480   3.498   4.360  16.212 -2.5279  0.2249  0.2126
  568MPD2    H1 8481   3.275   4.294  15.846  1.0096 -0.3758 -1.6160
  568MPD2    H2 8482   3.418   3.979  16.071 -4.0715  0.2209 -0.8277
  568MPD2    H3 8483   3.297   4.062  15.883 -2.7761 -1.4456  2.2158
  568MPD2     N 8484   3.364   4.489  16.028 -0.1028 -0.0711  0.6376
  568MPD2    H5 8485   3.409   4.549  16.097 -1.7084  1.7767  0.0545
  568MPD2    N1 8486   3.528   4.108  16.264 -0.3480  0.0293 -0.5337
  568MPD2    H7 8487   3.518   4.009  16.281 -2.9870  0.4647  0.3394
  569TMC3    C1 8488   3.291   4.702  15.968  0.0902  0.0397  0.7293
  569TMC3    C2 8489   3.326   4.726  16.098  0.1410  0.0348  0.3131
  569TMC3    C3 8490   3.415   0.085  16.129 -0.9029 -0.0776  0.0281
  569TMC3    C4 8491   3.330   0.048  15.866  0.2154  0.3106  0.4389
  569TMC3    C5 8492   3.417   0.148  15.901  0.1911  0.3911  0.1174
  569TMC3    C6 8493   3.454   0.170  16.029  0.2273  0.3135  0.0395
  569TMC3     C 8494   3.286   4.559  15.936  0.8952  0.2132 -0.0077
  569TMC3     O 8495   3.226   4.523  15.834 -0.0557  0.3690  0.3214
  569TMC3     H 8496   3.295   4.662  16.181  1.9312  1.2384  1.9136
  569TMC3    H1 8497   3.308   0.027  15.762  1.1599  1.1265  0.0677
  569TMC3    H2 8498   3.512   0.257  16.054 -0.4095  0.8560 -0.3584
  569TMC3    C7 8499   3.429   0.256  15.797 -0.1941 -0.0254  0.7736
  569TMC3    C8 8500   3.505   0.054  16.244  0.3087 -0.4757 -1.2754
  569TMC3    O1 8501   3.368   0.225  15.695  0.1748 -0.0069  0.3577
  569TMC3    O2 8502   3.467   4.703  16.316 -0.0099  0.5792  0.6256
  570TMC3    C1 8503   2.941   3.346  16.118 -0.3216 -0.3114 -1.1230
  570TMC3    C2 8504   3.021   3.327  16.012 -0.1637  0.0242 -0.6867
  570TMC3    C3 8505   3.065   3.439  15.950 -0.0193 -0.6494 -0.1727
  570TMC3    C4 8506   2.890   3.466  16.152 -0.0232 -0.7896  0.1964
  570TMC3    C5 8507   2.926   3.575  16.088 -0.4317 -0.2854  0.0816
  570TMC3    C6 8508   3.028   3.565  15.990  0.1080  0.4349 -0.2481
  570TMC3     C 8509   2.874   3.230  16.170  0.1286  0.0826  0.3253
  570TMC3     O 8510   2.872   3.132  16.093 -0.7002 -0.2249  0.3959
  570TMC3     H 8511   3.058   3.228  15.987  0.0711 -0.8136  2.9483
  570TMC3    H1 8512   2.817   3.474  16.232 -0.3374 -1.6226 -0.0077
  570TMC3    H2 8513   3.060   3.652  15.934  0.7110  1.9090  2.3628
  570TMC3    C7 8514   2.918   3.703  16.157 -0.5466  0.0219  0.6635
  570TMC3    C8 8515   3.185   3.442  15.871  0.4787 -0.0946 -0.7850
  570TMC3    O1 8516   2.929   3.708  16.281  0.2382 -0.6228  0.2561
  570TMC3    O2 8517   3.254   3.540  15.883 -0.0212  0.8981 -0.1271
  571MPD2     C 8518   0.938   0.036   0.598 -0.0953 -0.2958 -0.0687
  571MPD2    C1 8519   0.922   0.114   0.480 -0.1954  0.9676  0.3979
  571MPD2    C2 8520   1.020   0.213   0.454 -0.0999 -0.3800 -0.1308
  571MPD2    C3 8521   1.125   0.231   0.547 -0.1216 -1.0059  0.1895
  571MPD2    C4 8522   1.145   0.135   0.643  0.5251 -0.2486 -0.8495
  571MPD2    C5 8523   1.055   0.038   0.664 -0.2067  0.0540  0.1837
  571MPD2     H 8524   1.021   0.265   0.359  1.2052 -1.0810 -0.5017
  571MPD2    H1 8525   1.224   0.139   0.717 -1.3519  3.2392  0.9969
  571MPD2    H2 8526   0.864   4.702   0.621 -1.0941  1.2015  1.5967
  571MPD2    H3 8527   1.074   4.713   0.748 -0.3709  1.2281  1.1262
  571MPD2     N 8528   1.223   0.331   0.544  0.8438 -0.8081  0.0523
  571MPD2    H5 8529   1.290   0.347   0.619  0.8699 -1.4757  0.1656
  571MPD2    N1 8530   0.819   0.083   0.386  0.2523 -0.1076 -0.3963
  571MPD2    H7 8531   0.754   0.007   0.403 -0.0489  0.9404  3.1305
  572TMC3    C1 8532   1.340   0.522   0.475 -0.3737  0.1160  1.0177
  572TMC3    C2 8533   1.441   0.490   0.562  0.5493 -0.1141 -0.0471
  572TMC3    C3 8534   1.507   0.593   0.619  0.0326 -0.3662  0.1819
  572TMC3    C4 8535   1.299   0.654   0.465 -0.4975 -0.3354 -0.0642
  572TMC3    C5 8536   1.361   0.752   0.538 -0.5955 -0.8579 -0.4876
  572TMC3    C6 8537   1.461   0.722   0.623  0.2763  0.0331 -0.0418
  572TMC3     C 8538   1.230   0.430   0.450  0.3148 -0.1704 -0.2184
  572TMC3     O 8539   1.156   0.455   0.356  0.5560  0.3751  0.2018
  572TMC3     H 8540   1.492   0.394   0.556  0.9058 -0.0556  2.0714
  572TMC3    H1 8541   1.207   0.676   0.413  0.1225  1.8027 -0.2342
  572TMC3    H2 8542   1.519   0.804   0.664  1.9715 -1.7109  1.0272
  572TMC3    C7 8543   1.323   0.890   0.505 -0.0289 -0.1169  0.2096
  572TMC3    C8 8544   1.580   0.567   0.735  0.0395 -0.1349 -0.8967
  572TMC3    O1 8545   1.277   0.914   0.395  0.8791 -0.3539  0.0250
  572TMC3    O2 8546   1.665   0.477   0.730  0.7896 -0.2244 -0.3431
  573MPD2     C 8547   2.462   0.474   0.137  0.5315  0.9670 -0.1609
  573MPD2    C1 8548   2.513   0.600   0.138  0.2880  0.3965  0.5055
  573MPD2    C2 8549   2.553   0.675   0.024  0.4136  0.2003 -0.0451
  573MPD2    C3 8550   2.507   0.627  17.663 -0.0415  0.0852  0.2170
  573MPD2    C4 8551   2.445   0.506  17.660 -0.6031  0.1974  0.3885
  573MPD2    C5 8552   2.432   0.424   0.010  0.5555  0.3945 -0.5382
  573MPD2     H 8553   2.601   0.772   0.028  1.9924 -0.5716 -0.3502
  573MPD2    H1 8554   2.414   0.462  17.566 -0.2349 -1.7177  1.1494
  573MPD2    H2 8555   2.437   0.419   0.227 -0.5900  2.3212  0.3590
  573MPD2    H3 8556   2.379   0.331   0.001  1.5545 -0.3106  0.7942
  573MPD2     N 8557   2.529   0.695  17.540 -0.3154  0.0723 -0.4310
  573MPD2    H5 8558   2.476   0.674  17.456 -2.3452 -0.3955  0.9603
  573MPD2    N1 8559   2.550   0.642   0.268 -0.4388 -0.4263  0.2003
  573MPD2    H7 8560   2.526   0.582   0.346 -1.6001  0.1114  0.2586
  574TMC3    C1 8561   2.577   0.878  17.408 -0.8873 -0.3871  0.0359
  574TMC3    C2 8562   2.445   0.909  17.418  0.2737  0.8318 -0.6154
  574TMC3    C3 8563   2.392   1.029  17.374 -1.1092 -0.1137  0.6065
  574TMC3    C4 8564   2.665   0.977  17.374  0.6115 -0.1614 -0.1134
  574TMC3    C5 8565   2.613   1.099  17.328  0.4820 -0.6236 -0.0725
  574TMC3    C6 8566   2.481   1.128  17.325 -0.7242 -0.0509  0.2648
  574TMC3     C 8567   2.617   0.802  17.533 -0.8956 -0.2481  0.2004
  574TMC3     O 8568   2.717   0.831  17.596 -0.1063 -0.0556  0.3933
  574TMC3     H 8569   2.368   0.845  17.460  0.6560 -0.5590 -2.0223
  574TMC3    H1 8570   2.769   0.947  17.376  0.6609 -0.0217 -0.7727
  574TMC3    H2 8571   2.448   1.225  17.290  1.0955  0.3878 -0.2362
  574TMC3    C7 8572   2.711   1.205  17.287  0.1317 -0.2610 -0.3008
  574TMC3    C8 8573   2.269   1.073  17.449  1.0717  0.1210 -0.9307
  574TMC3    O1 8574   2.671   1.294  17.213 -0.1347 -0.6897 -0.2920
  574TMC3    O2 8575   2.251   1.018  17.556  0.4632  0.4488 -0.1082
  575TMC3    C1 8576   4.318   2.547  11.088 -0.6912 -0.3451  0.3976
  575TMC3    C2 8577   4.448   2.545  11.105 -0.0689  0.6278 -0.0057
  575TMC3    C3 8578   4.517   2.489  11.004  0.3846 -0.0413  0.0764
  575TMC3    C4 8579   4.252   2.505  10.976  0.0763 -0.5853 -0.9330
  575TMC3    C5 8580   4.325   2.465  10.874 -0.0365 -0.4374  0.2484
  575TMC3    C6 8581   4.462   2.462  10.883 -0.1869  0.4796  0.3377
  575TMC3     C 8582   4.238   2.608  11.191 -0.0632  0.6153 -0.3408
  575TMC3     O 8583   4.119   2.582  11.199 -0.3009 -0.9132  0.1189
  575TMC3     H 8584   4.493   2.547  11.203 -2.4083  1.0328  1.0501
  575TMC3    H1 8585   4.145   2.523  10.979  0.9874  4.5088  1.3067
  575TMC3    H2 8586   4.521   2.427  10.799 -1.7670  0.6091 -0.8238
  575TMC3    C7 8587   4.270   2.448  10.738  1.0756 -0.9022 -0.1853
  575TMC3    C8 8588   4.658   2.452  11.025 -0.3892 -0.1096  0.8568
  575TMC3    O1 8589   4.354   2.439  10.650  0.6068  0.0694  0.1047
  575TMC3    O2 8590   4.719   2.505  11.116  0.4739  0.2581  0.6488
  576MPD2     C 8591   4.173   3.289  12.675 -0.2564 -0.5464  0.2515
  576MPD2    C1 8592   4.204   3.396  12.594  0.6723 -0.4502  0.6328
  576MPD2    C2 8593   4.165   3.520  12.634 -0.0131  0.1891 -0.5449
  576MPD2    C3 8594   4.082   3.531  12.750 -0.3895 -0.2737 -0.0771
  576MPD2    C4 8595   4.049   3.422  12.822  0.7271  0.4937 -0.0575
  576MPD2    C5 8596   4.088   3.303  12.776  0.4012  0.2803  0.7347
  576MPD2     H 8597   4.198   3.599  12.568  0.5362  0.8737  0.5440
  576MPD2    H1 8598   3.986   3.420  12.909 -1.1381 -2.8333 -1.5056
  576MPD2    H2 8599   4.205   3.187  12.656 -3.6388 -1.6391  0.4008
  576MPD2    H3 8600   4.075   3.215  12.838 -1.7880  1.2687  1.6459
  576MPD2     N 8601   4.061   3.664  12.791 -0.1655  0.4116  0.0894
  576MPD2    H5 8602   4.107   3.733  12.733 -0.2556  0.0847 -0.3712
  576MPD2    N1 8603   4.276   3.384  12.469  0.4407  0.0288  0.0809
  576MPD2    H7 8604   4.290   3.464  12.409 -0.8168  1.7471  2.1041
  577TMC3    C1 8605   4.399   3.283  12.300  0.3921 -0.1516  0.0798
  577TMC3    C2 8606   4.403   3.175  12.223 -0.0914  0.5388  0.4663
  577TMC3    C3 8607   4.460   3.176  12.100 -0.1240  0.2300 -0.2810
  577TMC3    C4 8608   4.473   3.402  12.271 -0.9118  0.1679 -0.7078
  577TMC3    C5 8609   4.536   3.393  12.154 -0.2645 -0.1370  0.6847
  577TMC3    C6 8610   4.524   3.296  12.058  0.0519 -0.2152  0.7329
  577TMC3     C 8611   4.320   3.263  12.419  0.7352  0.4740  0.0108
  577TMC3     O 8612   4.322   3.158  12.478 -0.3853 -0.0389 -0.2156
  577TMC3     H 8613   4.346   3.087  12.251  0.6814  0.1820  0.9127
  577TMC3    H1 8614   4.491   3.488  12.335  1.6319  0.5217 -1.9103
  577TMC3    H2 8615   4.592   3.306  11.974 -0.6147 -0.4046  0.1683
  577TMC3    C7 8616   4.574   3.515  12.097 -0.2966 -0.2803  0.3015
  577TMC3    C8 8617   4.494   3.053  12.029  0.1522 -0.3727 -0.6350
  577TMC3    O1 8618   4.636   3.601  12.161  0.0507  0.1819 -0.7839
  577TMC3    O2 8619   4.515   2.945  12.089  0.1281  0.4061 -0.7552
  578MPD2     C 8620   2.108   3.073   0.248  0.5979 -0.7266 -0.3957
  578MPD2    C1 8621   2.130   3.208   0.237 -0.1376 -0.4403  0.0524
  578MPD2    C2 8622   2.242   3.264   0.306  0.4299  0.7066 -0.6355
  578MPD2    C3 8623   2.324   3.176   0.383 -0.1754  0.9453 -0.3275
  578MPD2    C4 8624   2.281   3.046   0.405 -0.5932 -0.0079 -0.2102
  578MPD2    C5 8625   2.178   2.992   0.335  0.1166  0.0918  0.3197
  578MPD2     H 8626   2.259   3.371   0.299  1.5753  0.5398 -0.5115
  578MPD2    H1 8627   2.344   2.983   0.467  1.3725  3.5143  1.3797
  578MPD2    H2 8628   2.015   3.042   0.201 -0.3689 -0.7192  1.4643
  578MPD2    H3 8629   2.147   2.889   0.346 -1.0771  0.5422  1.2072
  578MPD2     N 8630   2.446   3.216   0.445  0.2007 -0.0417 -0.1739
  578MPD2    H5 8631   2.493   3.147   0.503  0.4331  0.4953  0.2812
  578MPD2    N1 8632   2.036   3.280   0.166  0.1004 -0.3145 -0.8345
  578MPD2    H7 8633   1.957   3.225   0.132 -0.5682 -0.1906  0.5261
  579TMC3    C1 8634   2.645   3.331   0.490 -0.1731  0.3544 -0.0040
  579TMC3    C2 8635   2.714   3.446   0.503 -0.5225  0.2311  0.4194
  579TMC3    C3 8636   2.852   3.438   0.490 -0.3004 -0.2754 -0.1680
  579TMC3    C4 8637   2.715   3.217   0.469  0.0056  0.0560 -0.3396
  579TMC3    C5 8638   2.853   3.207   0.475 -0.4436 -0.8701  0.7700
  579TMC3    C6 8639   2.921   3.322   0.481  0.7684 -0.4625  0.4324
  579TMC3     C 8640   2.515   3.339   0.440  0.5976  0.1946  0.5529
  579TMC3     O 8641   2.469   3.445   0.396 -0.1582  0.2594 -0.5093
  579TMC3     H 8642   2.674   3.546   0.507  1.5105  1.0083  1.2619
  579TMC3    H1 8643   2.667   3.120   0.464  1.4998 -0.7191  0.3201
  579TMC3    H2 8644   3.029   3.322   0.498  0.8192  0.8645  0.0888
  579TMC3    C7 8645   2.926   3.080   0.457  0.3213  0.1129  0.2576
  579TMC3    C8 8646   2.912   3.565   0.463 -0.2144 -0.3062 -0.1097
  579TMC3    O1 8647   3.050   3.073   0.483  0.3726  0.0573  0.3004
  579TMC3    O2 8648   2.870   3.669   0.510 -0.3365  0.4356  0.7302
  580TMC3    C1 8649   1.952   3.333  12.320  0.0182  0.3446  0.7181
  580TMC3    C2 8650   2.076   3.383  12.303  0.5093 -0.0658  0.0990
  580TMC3    C3 8651   2.176   3.305  12.245  0.0476 -0.4492 -0.5522
  580TMC3    C4 8652   1.932   3.197  12.312 -0.0407  0.5153  0.2833
  580TMC3    C5 8653   2.029   3.116  12.263 -0.1792 -0.0818 -0.7183
  580TMC3    C6 8654   2.154   3.170  12.228 -0.0968  0.4624 -0.7182
  580TMC3     C 8655   1.845   3.422  12.273  0.2385 -0.7645 -0.1976
  580TMC3     O 8656   1.878   3.518  12.213  0.4698 -0.6341  0.3922
  580TMC3     H 8657   2.090   3.490  12.293 -0.3806 -0.0009 -0.4220
  580TMC3    H1 8658   1.833   3.156  12.332 -0.5545 -0.6641 -4.6091
  580TMC3    H2 8659   2.243   3.117  12.197 -0.3346 -1.2321  1.5334
  580TMC3    C7 8660   2.005   2.973  12.269  0.0049 -0.0294  0.3964
  580TMC3    C8 8661   2.280   3.368  12.164 -0.4226  0.7251 -0.8165
  580TMC3    O1 8662   1.929   2.926  12.354 -0.0483 -0.4841  0.5337
  580TMC3    O2 8663   2.293   3.487  12.195  0.4340  0.1670  0.2658
  581MPD2     C 8664   4.614   2.209  14.318  0.4919 -0.0923  0.0327
  581MPD2    C1 8665   4.589   2.235  14.452 -0.4000 -0.4189 -0.1545
  581MPD2    C2 8666   4.459   2.272  14.488  0.2831  0.4279 -0.5454
  581MPD2    C3 8667   4.359   2.290  14.396  0.3472  1.3480 -0.8581
  581MPD2    C4 8668   4.391   2.278  14.263 -0.7928  0.4423 -0.0801
  581MPD2    C5 8669   4.515   2.237  14.225  0.3116  0.0563 -0.1452
  581MPD2     H 8670   4.438   2.296  14.591  1.7311  1.0720 -0.3946
  581MPD2    H1 8671   4.320   2.293  14.184 -1.1561 -0.8915 -0.0108
  581MPD2    H2 8672   4.714   2.179  14.287 -0.4912 -2.1743 -1.0840
  581MPD2    H3 8673   4.542   2.238  14.120  1.2915  2.1241  0.1213
  581MPD2     N 8674   4.237   2.329  14.447 -0.4675 -0.3480 -0.0203
  581MPD2    H5 8675   4.230   2.326  14.548  0.4025 -0.6467  0.0224
  581MPD2    N1 8676   4.695   2.203  14.544 -0.4300  0.3843  0.1254
  581MPD2    H7 8677   0.039   2.165  14.501 -1.3647 -0.5407 -0.9078
  582TMC3    C1 8678   0.063   2.202  14.751 -0.5057 -1.2572 -0.0567
  582TMC3    C2 8679   0.099   2.286  14.860  0.3221  0.2030 -0.4103
  582TMC3    C3 8680   0.177   2.229  14.955 -0.2361 -0.2936 -0.4981
  582TMC3    C4 8681   0.098   2.068  14.735 -0.8190  1.0300  0.2126
  582TMC3    C5 8682   0.178   2.013  14.835 -1.1560 -0.6751  0.3965
  582TMC3    C6 8683   0.222   2.097  14.938  0.2759 -0.3635 -0.0709
  582TMC3     C 8684   4.685   2.239  14.677 -0.0552  0.6261 -0.1828
  582TMC3     O 8685   4.610   2.314  14.739 -0.6746 -0.0759 -0.0078
  582TMC3     H 8686   0.059   2.386  14.874 -2.4244 -0.9478 -0.1706
  582TMC3    H1 8687   0.061   2.012  14.649 -2.4082 -0.0367  1.5928
  582TMC3    H2 8688   0.260   2.046  15.026  0.5176  0.4077  0.2736
  582TMC3    C7 8689   0.099   1.905  14.885  0.0067  0.1838 -0.0943
  582TMC3    C8 8690   0.203   2.303  15.076 -0.6682  0.2067  0.4451
  582TMC3    O1 8691   0.080   1.814  14.809  0.9385  0.7692 -0.3320
  582TMC3    O2 8692   0.120   2.381  15.121  0.8684 -0.4205 -0.5088
  583MPD2     C 8693   0.133   3.956  16.483 -0.0424  0.1502  0.1239
  583MPD2    C1 8694   0.130   4.090  16.444 -0.0380 -0.0130 -0.0669
  583MPD2    C2 8695   0.100   4.189  16.536 -0.0806 -0.3329 -0.0040
  583MPD2    C3 8696   0.073   4.160  16.667 -0.9666  0.0499  0.1918
  583MPD2    C4 8697   0.073   4.029  16.704  0.5173 -0.0665 -0.3080
  583MPD2    C5 8698   0.100   3.931  16.613 -0.2581 -0.2160 -0.1206
  583MPD2     H 8699   0.102   4.295  16.511 -0.7173 -0.0123  1.3171
  583MPD2    H1 8700   0.056   3.993  16.805  0.5905 -2.4459 -1.1688
  583MPD2    H2 8701   0.142   3.872  16.415  2.0847  1.5277 -1.3035
  583MPD2    H3 8702   0.104   3.827  16.643  0.9552  0.1056  0.8462
  583MPD2     N 8703   0.059   4.269  16.755  0.0052  0.3619  0.0420
  583MPD2    H5 8704   0.056   4.356  16.704  0.8393 -0.9527 -2.2822
  583MPD2    N1 8705   0.167   4.125  16.312 -0.6255  0.3385 -0.2636
  583MPD2    H7 8706   0.171   4.225  16.294  0.3001  0.3335 -0.0770
  584TMC3    C1 8707   0.032   4.390  16.947 -0.1759 -0.1617  0.5887
  584TMC3    C2 8708   0.105   4.498  16.898 -0.1369  0.4255  0.2766
  584TMC3    C3 8709   0.120   4.596  16.987  0.5829  0.0774 -0.7925
  584TMC3    C4 8710   4.715   4.382  17.073  0.1382  0.0173  0.2196
  584TMC3    C5 8711   4.737   4.488  17.156  0.7990  0.0044 -0.7566
  584TMC3    C6 8712   0.062   4.598  17.117  0.1096  0.2210 -0.2886
  584TMC3     C 8713   0.046   4.264  16.891 -0.5451  0.3493 -0.2538
  584TMC3     O 8714   0.041   4.168  16.969  0.2048  0.3145  0.5333
  584TMC3     H 8715   0.155   4.510  16.803  1.4861  0.5916  1.1448
  584TMC3    H1 8716   4.655   4.296  17.101 -0.6760  0.6850  0.5309
  584TMC3    H2 8717   0.077   4.682  17.185 -0.1373  1.5084 -1.8210
  584TMC3    C7 8718   4.684   4.476  17.293 -0.2352  0.7075  0.2448
  584TMC3    C8 8719   0.168   4.725  16.930 -0.2785  0.5160  0.1553
  584TMC3    O1 8720   4.676   4.358  17.328  0.0313 -0.1030  0.1932
  584TMC3    O2 8721   0.166   4.735  16.808 -0.0565 -0.2405  0.4514
  585MPD2     C 8722   4.313   2.921   0.157 -0.4515  0.5996 -0.1583
  585MPD2    C1 8723   4.410   2.910   0.060 -0.2438 -0.3939  0.0803
  585MPD2    C2 8724   4.409   2.792  17.746 -0.5681 -0.6238  0.1260
  585MPD2    C3 8725   4.319   2.689   0.024  0.3429 -0.6554 -0.1125
  585MPD2    C4 8726   4.229   2.701   0.131  0.3979  0.6677  0.0362
  585MPD2    C5 8727   4.222   2.823   0.194  0.8056  0.0505 -0.3328
  585MPD2     H 8728   4.477   2.771  17.665  0.5046 -2.0936  1.4144
  585MPD2    H1 8729   4.160   2.620   0.148  1.3253 -0.0598  0.3572
  585MPD2    H2 8730   4.316   3.013   0.215 -0.1974 -0.3010  1.2616
  585MPD2    H3 8731   4.144   2.838   0.268  1.4376 -1.1206  0.5667
  585MPD2     N 8732   4.311   2.567  17.713  0.2439  0.3633 -0.0220
  585MPD2    H5 8733   4.244   2.497  17.742  0.8669  0.1493  0.9029
  585MPD2    N1 8734   4.486   3.027   0.027  0.0486  0.1168  0.0568
  585MPD2    H7 8735   4.471   3.109   0.085  0.3180 -0.1099  0.4478
  586TMC3    C1 8736   4.341   2.418  17.536  0.4949  0.5420 -0.3841
  586TMC3    C2 8737   4.431   2.380  17.446 -0.1367  0.0453  0.0669
  586TMC3    C3 8738   4.399   2.385  17.316  0.1060 -0.6023  0.5152
  586TMC3    C4 8739   4.213   2.435  17.502  0.4200 -0.7528  0.3059
  586TMC3    C5 8740   4.184   2.436  17.372  0.2317 -0.2118  0.9184
  586TMC3    C6 8741   4.275   2.422  17.273  0.7098  0.2619  0.1534
  586TMC3     C 8742   4.385   2.532  17.599 -0.4015 -0.3228  0.1219
  586TMC3     O 8743   4.483   2.589  17.549 -0.0089  0.0501 -0.3984
  586TMC3     H 8744   4.534   2.377  17.478 -0.3965 -0.4293  0.8611
  586TMC3    H1 8745   4.139   2.459  17.577  0.1466  0.7243 -0.4365
  586TMC3    H2 8746   4.247   2.418  17.168  0.4929 -0.4535  0.2318
  586TMC3    C7 8747   4.050   2.479  17.324  0.7713 -0.4365 -0.4160
  586TMC3    C8 8748   4.499   2.341  17.227  0.5199  0.6615 -0.0720
  586TMC3    O1 8749   3.954   2.440  17.390 -0.0725 -0.7529  0.4068
  586TMC3    O2 8750   4.586   2.262  17.268  0.8379 -0.1585  0.1491
  587TMC3    C1 8751   1.550   1.830  15.900  0.3242  0.0534 -0.1555
  587TMC3    C2 8752   1.536   1.963  15.918 -0.0494  0.5526 -1.0957
  587TMC3    C3 8753   1.644   2.044  15.923 -0.7390  0.0312  0.0127
  587TMC3    C4 8754   1.677   1.778  15.879  0.2677 -0.2100 -0.6528
  587TMC3    C5 8755   1.781   1.855  15.872  0.2356 -0.0190  0.1984
  587TMC3    C6 8756   1.765   1.994  15.898 -0.2879  0.5779  0.8726
  587TMC3     C 8757   1.443   1.746  15.857  0.6058  0.7177 -0.1498
  587TMC3     O 8758   1.475   1.641  15.797 -1.1488 -0.0774 -0.2958
  587TMC3     H 8759   1.438   2.004  15.939  0.6449  1.3511  0.5378
  587TMC3    H1 8760   1.697   1.675  15.851 -3.4859 -1.5764  1.7075
  587TMC3    H2 8761   1.855   2.055  15.904  0.3118 -0.1442 -0.8105
  587TMC3    C7 8762   1.913   1.793  15.890  0.6860 -0.2362  0.1701
  587TMC3    C8 8763   1.649   2.153  16.022 -0.6104  0.2689 -0.4425
  587TMC3    O1 8764   1.917   1.672  15.870 -0.1366 -0.1967 -0.5731
  587TMC3    O2 8765   1.762   2.189  16.057 -0.3079  0.0027  0.4554
  588TMC3    C1 8766   3.975   4.605   9.840  0.3899 -0.2311 -0.1129
  588TMC3    C2 8767   3.968   4.476   9.789 -0.6408  0.0256  0.4328
  588TMC3    C3 8768   4.085   4.423   9.760  0.0286 -0.1809 -0.2137
  588TMC3    C4 8769   4.094   4.662   9.868 -0.4794 -0.4785  0.2570
  588TMC3    C5 8770   4.207   4.597   9.836  0.5940  0.2171 -0.2227
  588TMC3    C6 8771   4.210   4.474   9.779  0.4740 -0.0031 -0.0460
  588TMC3     C 8772   3.852   4.677   9.872 -0.3469  0.0647  0.2374
  588TMC3     O 8773   3.770   4.617   9.935 -0.1966 -0.8086  0.8044
  588TMC3     H 8774   3.869   4.434   9.772  0.1605 -1.1459 -1.2811
  588TMC3    H1 8775   4.103   0.015   9.921 -0.3694  0.1762 -0.9177
  588TMC3    H2 8776   4.298   4.416   9.754  1.1983  0.2073  2.0542
  588TMC3    C7 8777   4.298   4.681   9.768  0.0825 -0.0522 -0.6089
  588TMC3    C8 8778   4.066   4.289   9.702  0.4119 -0.6890 -0.1763
  588TMC3    O1 8779   4.327   4.659   9.649 -0.0700  0.6618  0.5615
  588TMC3    O2 8780   3.957   4.262   9.645 -0.3751  0.7740  0.1205
  589TMC3    C1 8781   3.303   1.867   0.693  0.2429  0.0751  0.4917
  589TMC3    C2 8782   3.411   1.870   0.774 -0.0441 -0.3297  0.2418
  589TMC3    C3 8783   3.487   1.755   0.787 -0.1022  0.5055 -0.2840
  589TMC3    C4 8784   3.258   1.752   0.634 -0.0731  0.1704 -0.7510
  589TMC3    C5 8785   3.342   1.643   0.643 -1.0960 -0.1738  0.8200
  589TMC3    C6 8786   3.451   1.641   0.719  0.8523  0.2916 -0.4469
  589TMC3     C 8787   3.197   1.966   0.710  0.4899  0.7064  0.4099
  589TMC3     O 8788   3.084   1.939   0.677  0.4027 -0.0620  0.0691
  589TMC3     H 8789   3.451   1.963   0.816 -1.2096  0.7921 -1.1441
  589TMC3    H1 8790   3.174   1.757   0.566 -1.4595 -2.0478  0.8050
  589TMC3    H2 8791   3.495   1.544   0.740 -0.0036  0.6166  2.8047
  589TMC3    C7 8792   3.307   1.522   0.564 -0.0251  0.1748  0.1511
  589TMC3    C8 8793   3.606   1.756   0.871  0.3468  0.3440  0.8221
  589TMC3    O1 8794   3.344   1.419   0.621  0.3485  0.1549  0.5247
  589TMC3    O2 8795   3.630   1.859   0.936  0.0839 -0.2215  0.1907
  590MPD2     C 8796   2.638   4.575  16.419  0.9656 -0.7178  0.0747
  590MPD2    C1 8797   2.603   4.706  16.409 -0.0814  0.2334 -0.5884
  590MPD2    C2 8798   2.672   0.042  16.318 -0.0827  0.0609 -1.1199
  590MPD2    C3 8799   2.772   4.729  16.236 -0.3327 -0.3499  0.0252
  590MPD2    C4 8800   2.797   4.596  16.243  0.1152 -0.4685 -0.0826
  590MPD2    C5 8801   2.730   4.521  16.332 -0.0989  0.1007  0.2060
  590MPD2     H 8802   2.642   0.145  16.302 -1.0187 -0.1480 -0.7547
  590MPD2    H1 8803   2.870   4.543  16.182 -0.9085  1.9854 -3.4633
  590MPD2    H2 8804   2.578   4.507  16.478 -0.3028 -0.6306 -1.1234
  590MPD2    H3 8805   2.746   4.414  16.332  0.4578  0.1791  2.1223
  590MPD2     N 8806   2.829   0.072  16.132  0.2058  0.2674 -0.2480
  590MPD2    H5 8807   2.786   0.162  16.117 -0.5296 -0.3701 -1.9250
  590MPD2    N1 8808   2.491   0.013  16.475  0.3513 -0.1018  0.0519
  590MPD2    H7 8809   2.433   4.685  16.522  0.4784 -0.2044  0.0610
  591TMC3    C1 8810   2.945   0.146  15.947 -0.6391  0.4446  0.2732
  591TMC3    C2 8811   2.996   0.113  15.826 -0.1079 -0.2215  0.0405
  591TMC3    C3 8812   3.002   0.208  15.725  0.1680 -0.7907  0.3815
  591TMC3    C4 8813   2.907   0.270  15.976 -0.0419 -0.1523  0.3756
  591TMC3    C5 8814   2.918   0.367  15.876  0.4251 -0.2850  0.2769
  591TMC3    C6 8815   2.960   0.336  15.748 -0.1458 -0.6839 -0.7962
  591TMC3     C 8816   2.920   0.037  16.038 -0.7759 -0.2315  0.1078
  591TMC3     O 8817   2.969   4.669  16.017 -0.1115  0.1221  0.0170
  591TMC3     H 8818   3.026   0.009  15.814  2.2260  0.3288  0.9678
  591TMC3    H1 8819   2.891   0.298  16.080 -0.3134  1.0493  0.0051
  591TMC3    H2 8820   2.934   0.398  15.662 -0.0959  1.6066  0.8220
  591TMC3    C7 8821   2.886   0.510  15.911 -0.0608 -0.2843  0.0462
  591TMC3    C8 8822   3.028   0.143  15.599 -0.4885 -0.0547 -0.3310
  591TMC3    O1 8823   2.809   0.518  16.007 -0.0822 -0.3553  0.3091
  591TMC3    O2 8824   3.096   0.040  15.599 -0.2848 -0.4577 -0.3863
  592MPD2     C 8825   2.854   2.110  11.551 -0.2890  0.0417 -0.4285
  592MPD2    C1 8826   2.866   2.168  11.681 -0.0313  0.2433 -0.4288
  592MPD2    C2 8827   2.831   2.101  11.799  0.4657  0.0404 -0.4404
  592MPD2    C3 8828   2.795   1.971  11.789 -0.3550  0.3401  0.0333
  592MPD2    C4 8829   2.793   1.907  11.661 -0.4288  0.5760  0.0965
  592MPD2    C5 8830   2.815   1.975  11.543 -0.2985 -0.7477 -0.2017
  592MPD2     H 8831   2.837   2.146  11.898  1.7542 -2.2699  0.5369
  592MPD2    H1 8832   2.767   1.803  11.650 -0.1072  0.6168 -1.0998
  592MPD2    H2 8833   2.876   2.154  11.455 -1.0258  1.0297 -0.1494
  592MPD2    H3 8834   2.812   1.927  11.446  0.2758 -1.8859  0.3451
  592MPD2     N 8835   2.736   1.904  11.896 -0.6239  0.0222 -0.7795
  592MPD2    H5 8836   2.711   1.975  11.964  0.5006 -1.2477  0.9565
  592MPD2    N1 8837   2.925   2.295  11.681  0.0084 -0.0800 -0.3721
  592MPD2    H7 8838   2.950   2.339  11.593 -0.7421  0.1116 -0.4892
  593TMC3    C1 8839   3.032   2.481  11.783 -0.2496 -0.2881  0.4381
  593TMC3    C2 8840   3.023   2.576  11.884  0.6299 -0.1824 -0.0749
  593TMC3    C3 8841   3.109   2.683  11.881 -0.7443 -0.0883 -0.3705
  593TMC3    C4 8842   3.131   2.485  11.688 -0.0721 -0.1154 -1.0275
  593TMC3    C5 8843   3.219   2.592  11.697  0.2268 -0.0539 -0.5573
  593TMC3    C6 8844   3.209   2.691  11.787  0.5057  0.0820  0.1579
  593TMC3     C 8845   2.950   2.364  11.799 -0.6912 -0.3541 -0.3584
  593TMC3     O 8846   2.908   2.345  11.910 -0.2319 -0.6757 -0.0345
  593TMC3     H 8847   2.951   2.563  11.964 -0.0012  2.0622 -0.2660
  593TMC3    H1 8848   3.141   2.404  11.617 -0.4381 -0.4452 -0.7085
  593TMC3    H2 8849   3.272   2.778  11.775 -0.6596  1.1925  2.1189
  593TMC3    C7 8850   3.279   2.630  11.577 -0.0386 -0.1608  0.1158
  593TMC3    C8 8851   3.058   2.801  11.949  0.2725 -0.1541  0.3101
  593TMC3    O1 8852   3.381   2.697  11.585 -0.0264  0.5861 -0.3359
  593TMC3    O2 8853   2.937   2.802  11.965 -0.8278  0.4229  0.2042
  594MPD2     C 8854   2.159   0.710  14.411  0.3252  0.4483  0.3778
  594MPD2    C1 8855   2.038   0.769  14.378  0.0311 -0.0546 -0.2443
  594MPD2    C2 8856   2.048   0.860  14.272  0.3714 -0.9711 -0.8312
  594MPD2    C3 8857   2.176   0.912  14.234  0.4372  0.8146 -0.2281
  594MPD2    C4 8858   2.292   0.857  14.282  0.6018 -0.3484  0.3570
  594MPD2    C5 8859   2.277   0.754  14.367 -0.0406 -1.2623 -0.2739
  594MPD2     H 8860   1.955   0.893  14.225 -0.7286 -1.4433  0.9963
  594MPD2    H1 8861   2.396   0.885  14.271  0.6767 -0.1179  1.6410
  594MPD2    H2 8862   2.163   0.629  14.483  0.4309 -1.4974 -1.8175
  594MPD2    H3 8863   2.368   0.715  14.411  1.1513  1.3828 -0.4506
  594MPD2     N 8864   2.179   1.023  14.146  0.5447 -0.3348  0.1834
  594MPD2    H5 8865   2.094   1.068  14.112  1.6378  1.0451 -0.7582
  594MPD2    N1 8866   1.921   0.720  14.440 -0.0366  0.3490  0.7300
  594MPD2    H7 8867   1.931   0.633  14.492 -1.1424 -0.1617  0.0825
  595TMC3    C1 8868   2.413   1.349  13.918 -0.1067 -0.5885  0.8101
  595TMC3    C2 8869   2.377   1.219  13.926 -0.0524 -0.2839 -0.4963
  595TMC3    C3 8870   2.280   1.180  14.013 -0.0470  0.5462 -0.6222
  595TMC3    C4 8871   2.340   1.447  13.984 -0.1494 -0.1524 -0.0845
  595TMC3    C5 8872   2.226   1.410  14.055  0.3727  0.0634  0.1604
  595TMC3    C6 8873   2.199   1.277  14.074  0.3385 -0.0985  0.7381
  595TMC3     C 8874   2.544   1.389  13.868  0.8179 -0.0710  0.1101
  595TMC3     O 8875   2.597   1.490  13.913  0.0893 -0.3176 -0.1143
  595TMC3     H 8876   2.444   1.146  13.883  1.1710 -0.5422  1.8847
  595TMC3    H1 8877   2.366   1.552  13.978  3.0837 -0.9936 -0.9117
  595TMC3    H2 8878   2.122   1.256  14.147  0.3017 -2.8208 -0.1129
  595TMC3    C7 8879   2.179   1.511  14.144  0.2970  0.4259  0.1381
  595TMC3    C8 8880   2.294   1.055  14.077  0.0675 -0.1858  0.6915
  595TMC3    O1 8881   2.072   1.558  14.119  0.2614 -0.4596  0.0482
  595TMC3    O2 8882   2.404   1.004  14.064 -0.1330  0.4756  0.2256
  596MPD2     C 8883   0.799   3.704  16.433 -0.1749 -0.1119  0.2151
  596MPD2    C1 8884   0.824   3.830  16.378  0.0750 -0.2395  0.0895
  596MPD2    C2 8885   0.857   3.837  16.244 -0.7079  0.0284 -0.6420
  596MPD2    C3 8886   0.862   3.722  16.160 -0.7385 -0.0701  0.0991
  596MPD2    C4 8887   0.837   3.604  16.218  0.3416  0.3921 -0.1274
  596MPD2    C5 8888   0.800   3.596  16.352 -0.2546 -0.5935 -0.1600
  596MPD2     H 8889   0.899   3.931  16.210  2.5567 -0.5242  1.8221
  596MPD2    H1 8890   0.844   3.512  16.161  0.1242 -0.8834  1.9191
  596MPD2    H2 8891   0.763   3.702  16.535 -1.3969  1.6475 -0.1814
  596MPD2    H3 8892   0.780   3.495  16.384 -0.0806 -1.1580 -1.8384
  596MPD2     N 8893   0.901   3.727  16.022  0.5642  0.1304  0.2060
  596MPD2    H5 8894   0.879   3.653  15.956 -0.9189  0.4606  0.3313
  596MPD2    N1 8895   0.849   3.953  16.454  0.2643 -0.3149  0.4220
  596MPD2    H7 8896   0.884   4.029  16.397  3.0207 -1.3577  0.7314
  597TMC3    C1 8897   0.886   4.103  16.619 -0.9133 -0.5862  1.0580
  597TMC3    C2 8898   0.964   4.183  16.535  0.5125  0.2204  0.0362
  597TMC3    C3 8899   0.996   4.314  16.577 -0.6539  0.2273  0.8698
  597TMC3    C4 8900   0.838   4.156  16.735 -0.4313  0.3756 -0.1874
  597TMC3    C5 8901   0.853   4.295  16.762 -0.2617 -0.7715  1.1188
  597TMC3    C6 8902   0.938   4.374  16.684 -0.7247  0.1552 -0.0590
  597TMC3     C 8903   0.825   3.977  16.585  0.4412  0.5381 -0.4282
  597TMC3     O 8904   0.764   3.901  16.662 -0.2584 -0.6907 -0.3538
  597TMC3     H 8905   0.989   4.139  16.439 -0.0212 -1.0397  0.4794
  597TMC3    H1 8906   0.764   4.104  16.795 -1.6325  1.1194 -1.0131
  597TMC3    H2 8907   0.946   4.482  16.694 -2.1114  0.1255  1.3685
  597TMC3    C7 8908   0.769   4.352  16.863 -0.0009 -0.1779 -0.0174
  597TMC3    C8 8909   1.080   4.392  16.486  0.2661  0.1353 -1.2467
  597TMC3    O1 8910   0.721   4.280  16.949 -0.4162  0.2226 -0.4370
  597TMC3    O2 8911   1.073   4.513  16.474  0.2775 -0.5917 -0.1133
  598TMC3    C1 8912   4.052   0.604  15.680 -0.5671 -0.1142 -0.0883
  598TMC3    C2 8913   4.017   0.483  15.714 -0.0764 -0.8366  0.0335
  598TMC3    C3 8914   3.914   0.428  15.642 -0.5573  0.1243  0.3196
  598TMC3    C4 8915   4.003   0.675  15.577 -0.0196  0.0122 -0.3566
  598TMC3    C5 8916   3.919   0.610  15.489 -0.1223  0.1034  0.2129
  598TMC3    C6 8917   3.866   0.489  15.530 -0.0915 -0.0275  0.7967
  598TMC3     C 8918   4.165   0.668  15.750 -0.5316 -0.3382 -0.1609
  598TMC3     O 8919   4.149   0.781  15.791 -0.0995  0.5529  0.1388
  598TMC3     H 8920   4.067   0.436  15.798  0.8880  0.3790  0.1423
  598TMC3    H1 8921   4.055   0.767  15.550 -1.4697  1.5950  2.2146
  598TMC3    H2 8922   3.813   0.424  15.461  0.4390  0.3842 -0.0014
  598TMC3    C7 8923   3.929   0.619  15.342 -0.2870  0.4441 -0.5139
  598TMC3    C8 8924   3.847   0.312  15.702 -0.4049 -0.0164 -0.5538
  598TMC3    O1 8925   3.927   0.516  15.277  0.1524  0.2013 -0.2051
  598TMC3    O2 8926   3.896   0.288  15.808 -0.0947  0.4954  0.3937
  599MPD2     C 8927   4.217   2.980  15.659  0.0050  0.2125 -0.2343
  599MPD2    C1 8928   4.155   2.860  15.653  0.4695 -0.0207 -0.2639
  599MPD2    C2 8929   4.015   2.863  15.659 -0.7333 -0.4855 -0.2505
  599MPD2    C3 8930   3.940   2.977  15.670 -0.3209  0.0237  0.1230
  599MPD2    C4 8931   4.010   3.096  15.669 -0.0069  0.3270 -0.3045
  599MPD2    C5 8932   4.146   3.096  15.662 -0.7086 -0.2391 -0.8646
  599MPD2     H 8933   3.963   2.769  15.671 -1.1654 -0.3843 -1.3416
  599MPD2    H1 8934   3.956   3.189  15.685  2.3268  1.3557  1.5316
  599MPD2    H2 8935   4.325   2.985  15.667  0.1541 -1.1269 -1.4722
  599MPD2    H3 8936   4.202   3.189  15.656 -1.6289  0.2749 -1.5682
  599MPD2     N 8937   3.795   2.987  15.707  0.3705 -0.0664 -0.0473
  599MPD2    H5 8938   3.765   3.079  15.739 -1.0285  0.4020 -2.7404
  599MPD2    N1 8939   4.239   2.745  15.659 -0.2791 -0.2304  0.3984
  599MPD2    H7 8940   4.336   2.761  15.684 -0.0853 -4.0373  1.9844
  600TMC3    C1 8941   3.570   2.910  15.776  0.4457  0.3925  0.3185
  600TMC3    C2 8942   3.457   2.845  15.730  0.1065  0.0794  0.0685
  600TMC3    C3 8943   3.339   2.877  15.775 -0.5955  0.2753  0.6301
  600TMC3    C4 8944   3.566   3.010  15.867 -1.0197 -0.3410  0.7887
  600TMC3    C5 8945   3.447   3.040  15.920  0.0975  0.7354  0.0962
  600TMC3    C6 8946   3.333   2.971  15.874  0.2537  0.1742  0.0291
  600TMC3     C 8947   3.701   2.883  15.711  0.4433  0.7484  0.0334
  600TMC3     O 8948   3.708   2.778  15.649  0.0156  1.0803 -0.0443
  600TMC3     H 8949   3.459   2.799  15.632  0.2652  0.1917  0.0189
  600TMC3    H1 8950   3.657   3.040  15.918 -1.2054  1.9933 -0.2503
  600TMC3    H2 8951   3.234   2.992  15.913  0.7546 -0.3203  1.5617
  600TMC3    C7 8952   3.425   3.158  16.002 -0.1888  0.1892  0.2531
  600TMC3    C8 8953   3.211   2.832  15.704 -0.2356 -0.0816 -0.1141
  600TMC3    O1 8954   3.315   3.188  16.048  0.4166 -0.6760  0.3136
  600TMC3    O2 8955   3.111   2.897  15.721 -0.4551 -0.1250  0.2912
  601MPD2     C 8956   1.346   1.397   0.560  0.5216  0.2510 -0.3921
  601MPD2    C1 8957   1.300   1.327   0.451 -0.3401  0.6320 -0.2701
  601MPD2    C2 8958   1.293   1.184   0.461 -1.0151  0.2451 -0.1392
  601MPD2    C3 8959   1.338   1.123   0.577 -0.3953  0.5248  0.1846
  601MPD2    C4 8960   1.388   1.199   0.680 -0.2994 -0.3759 -0.0389
  601MPD2    C5 8961   1.395   1.333   0.673  0.3364 -0.0281  0.1890
  601MPD2     H 8962   1.260   1.136   0.369  0.1495 -0.8890  0.0302
  601MPD2    H1 8963   1.408   1.145   0.773  2.6670  1.2072  0.2484
  601MPD2    H2 8964   1.336   1.504   0.563 -1.5131 -0.0170  1.7122
  601MPD2    H3 8965   1.437   1.395   0.752  0.3284  1.8101 -1.2303
  601MPD2     N 8966   1.356   0.984   0.599  0.0952 -0.2202  0.1604
  601MPD2    H5 8967   1.399   0.966   0.690 -0.6163 -1.1232  0.3199
  601MPD2    N1 8968   1.259   1.393   0.332  0.4603  0.0664 -0.0138
  601MPD2    H7 8969   1.225   1.328   0.261  0.7516  0.6879 -0.7229
  602TMC3    C1 8970   1.204   1.545   0.165 -0.4025  0.1218  0.2127
  602TMC3    C2 8971   1.223   1.668   0.100  0.1576 -0.2065  0.0770
  602TMC3    C3 8972   1.149   1.704  17.756 -0.2330  0.0637 -0.1648
  602TMC3    C4 8973   1.103   1.466   0.122 -0.3449 -0.2592  0.6283
  602TMC3    C5 8974   1.030   1.505   0.015  0.2820 -0.5138 -0.2050
  602TMC3    C6 8975   1.058   1.624  17.706 -0.7524  0.4875  0.1190
  602TMC3     C 8976   1.251   1.525   0.296 -0.1673 -0.3875  0.5038
  602TMC3     O 8977   1.282   1.619   0.369 -0.4187  0.0260 -0.2128
  602TMC3     H 8978   1.300   1.739   0.132 -1.4228  2.1231 -1.2809
  602TMC3    H1 8979   1.073   1.370   0.163  3.2617 -1.8438 -0.4435
  602TMC3    H2 8980   0.998   1.657  17.622  0.0891 -0.0491 -0.6916
  602TMC3    C7 8981   0.944   1.407  17.712  0.0418 -0.1865  0.0494
  602TMC3    C8 8982   1.222   1.792  17.664 -0.1118 -0.1607 -1.0523
  602TMC3    O1 8983   0.880   1.329   0.018  0.4044  0.2560 -0.6579
  602TMC3    O2 8984   1.269   1.896  17.716 -0.5607  0.1226  0.3024
  603TMC3    C1 8985   4.566   1.734  10.754  0.6762  0.1950 -0.7005
  603TMC3    C2 8986   4.587   1.701  10.887  0.2839  0.3313 -0.0886
  603TMC3    C3 8987   4.585   1.797  10.979 -0.2326 -0.2255 -0.5731
  603TMC3    C4 8988   4.547   1.862  10.720  0.0718  0.1956 -0.4310
  603TMC3    C5 8989   4.540   1.956  10.820 -0.3402  0.2690  0.4881
  603TMC3    C6 8990   4.566   1.929  10.950  0.0364  0.5515 -0.2427
  603TMC3     C 8991   4.577   1.635  10.637  0.6034 -0.2485 -0.0320
  603TMC3     O 8992   4.644   1.668  10.538 -0.2424  0.0541  0.0387
  603TMC3     H 8993   4.581   1.597  10.915 -0.9177  0.4936  0.2598
  603TMC3    H1 8994   4.532   1.893  10.617  1.4753  1.4453 -0.2589
  603TMC3    H2 8995   4.528   1.997  11.025 -0.6864 -0.6717  0.5043
  603TMC3    C7 8996   4.463   2.072  10.805  0.0148 -0.0341  0.6079
  603TMC3    C8 8997   4.587   1.758  11.120 -0.3890 -0.0723 -0.4203
  603TMC3    O1 8998   4.507   2.164  10.873 -0.1813  0.4044 -0.1814
  603TMC3    O2 8999   4.555   1.640  11.144  0.1066  0.4332 -0.3458
  604MPD2     C 9000   0.490   0.573  16.307 -0.3609  0.3271  0.5147
  604MPD2    C1 9001   0.392   0.498  16.247  0.8595  0.6669  0.1102
  604MPD2    C2 9002   0.401   0.458  16.113  0.2476  0.3714  0.5480
  604MPD2    C3 9003   0.515   0.496  16.036 -0.2542 -0.5489  0.0319
  604MPD2    C4 9004   0.611   0.578  16.095  0.0947 -0.2909 -0.4207
  604MPD2    C5 9005   0.604   0.608  16.231 -0.1087  0.2028 -0.0216
  604MPD2     H 9006   0.320   0.419  16.053  0.1202  1.9567 -0.3391
  604MPD2    H1 9007   0.699   0.603  16.037 -0.1263 -0.8474 -0.9991
  604MPD2    H2 9008   0.478   0.628  16.400  0.2105  1.6238 -0.1650
  604MPD2    H3 9009   0.677   0.671  16.280 -0.9053  0.3578  0.9714
  604MPD2     N 9010   0.514   0.467  15.898  0.4774  0.0919  0.5507
  604MPD2    H5 9011   0.438   0.408  15.868  2.3191 -1.8260 -0.3790
  604MPD2    N1 9012   0.280   0.476  16.329 -0.0339  0.4870 -0.2926
  604MPD2    H7 9013   0.278   0.515  16.423 -0.5920 -0.8109  0.2262
  605TMC3    C1 9014   0.059   0.418  16.386  0.2414 -0.1005 -0.6941
  605TMC3    C2 9015   0.100   0.422  16.514  0.3313  0.3038  0.3515
  605TMC3    C3 9016   0.042   0.515  16.602  0.4197 -0.0943 -0.2516
  605TMC3    C4 9017   4.684   0.473  16.340 -0.0806 -0.5108  0.0628
  605TMC3    C5 9018   4.624   0.553  16.428 -0.4304 -0.7677  0.2896
  605TMC3    C6 9019   4.667   0.587  16.557  0.2951  0.1496 -0.1354
  605TMC3     C 9020   0.166   0.426  16.283  0.9209  0.1575 -0.1948
  605TMC3     O 9021   0.134   0.395  16.170 -0.0839  0.0150  0.0123
  605TMC3     H 9022   0.190   0.366  16.536  0.5981  0.9279  0.8417
  605TMC3    H1 9023   4.654   0.461  16.236 -0.7237  0.8384  0.0917
  605TMC3    H2 9024   4.612   0.656  16.620  0.9574  0.4422  0.1161
  605TMC3    C7 9025   4.498   0.610  16.386  0.1653  0.2188 -0.2912
  605TMC3    C8 9026   0.146   0.588  16.642  0.6358 -1.0172  0.2198
  605TMC3    O1 9027   4.460   0.719  16.432 -0.0184  0.5500  0.4398
  605TMC3    O2 9028   0.255   0.558  16.598 -0.2167 -0.8047  0.1556
  606TMC3    C1 9029   1.166   4.343  17.086  0.8058  0.5509 -0.1464
  606TMC3    C2 9030   1.166   4.297  17.219 -0.3382 -0.2721 -0.2196
  606TMC3    C3 9031   1.168   4.156  17.236  0.5544  0.3215  0.0239
  606TMC3    C4 9032   1.141   4.258  16.981  0.3730  0.7648  0.3859
  606TMC3    C5 9033   1.143   4.122  17.001  0.3207 -0.0413  0.2629
  606TMC3    C6 9034   1.157   4.068  17.128 -0.2068 -0.0421  0.9815
  606TMC3     C 9035   1.131   4.487  17.071  0.3673 -0.4556  0.0566
  606TMC3     O 9036   1.099   4.555  17.165  0.4618 -0.5359 -0.3976
  606TMC3     H 9037   1.169   4.366  17.303 -2.5987  1.0122 -1.1964
  606TMC3    H1 9038   1.105   4.285  16.883  2.6742  2.5015  0.0289
  606TMC3    H2 9039   1.162   3.961  17.145  0.5826  0.0854  1.5362
  606TMC3    C7 9040   1.126   4.025  16.890  0.7910 -0.3362 -0.0559
  606TMC3    C8 9041   1.205   4.091  17.362  0.3844 -0.2156 -0.6070
  606TMC3    O1 9042   1.152   4.068  16.778  0.2290 -0.0465  0.2970
  606TMC3    O2 9043   1.222   3.968  17.360 -0.2629 -0.0858 -0.2173
  607MPD2     C 9044   3.261   2.090  11.257  0.3283 -0.2672  0.5318
  607MPD2    C1 9045   3.311   2.180  11.354  0.0114 -0.0187 -0.5953
  607MPD2    C2 9046   3.280   2.154  11.488  0.4965 -0.4710 -0.5419
  607MPD2    C3 9047   3.215   2.047  11.531 -0.4121  0.0719 -0.1826
  607MPD2    C4 9048   3.153   1.965  11.433 -0.7972  0.0021  0.6447
  607MPD2    C5 9049   3.179   1.992  11.304 -0.3938 -0.0298 -0.0706
  607MPD2     H 9050   3.328   2.221  11.558 -0.2634  3.1311 -3.5159
  607MPD2    H1 9051   3.085   1.885  11.461 -1.8858  0.8231  0.3499
  607MPD2    H2 9052   3.275   2.105  11.150 -0.6617  0.0124  0.4390
  607MPD2    H3 9053   3.135   1.932  11.226  0.7551 -0.6239 -0.2524
  607MPD2     N 9054   3.194   2.034  11.667 -0.1780 -0.2264 -0.5289
  607MPD2    H5 9055   3.206   2.119  11.722 -0.5544 -0.9281  0.6328
  607MPD2    N1 9056   3.387   2.291  11.327  0.0973 -0.1608  0.1967
  607MPD2    H7 9057   3.438   2.324  11.408  1.4660 -0.2336 -0.6360
  608TMC3    C1 9058   3.535   2.425  11.218 -0.0907  0.3233 -0.6670
  608TMC3    C2 9059   3.546   2.487  11.337 -0.1504 -0.2218 -0.4852
  608TMC3    C3 9060   3.663   2.554  11.359 -0.2202 -0.0102 -0.7914
  608TMC3    C4 9061   3.632   2.423  11.126  0.0940  0.1093 -0.1712
  608TMC3    C5 9062   3.740   2.503  11.149 -0.2291  0.8192  0.3820
  608TMC3    C6 9063   3.766   2.563  11.265  0.6037 -0.1151 -0.0115
  608TMC3     C 9064   3.433   2.329  11.206 -0.0951  0.2815 -0.8381
  608TMC3     O 9065   3.389   2.298  11.096 -0.3210  0.1526  0.3963
  608TMC3     H 9066   3.463   2.502  11.404 -1.2225 -0.6852 -1.7094
  608TMC3    H1 9067   3.625   2.372  11.030  1.6129 -1.6385  0.6375
  608TMC3    H2 9068   3.850   2.627  11.288  0.1552  1.2105 -2.1048
  608TMC3    C7 9069   3.770   2.582  11.030  0.2501 -0.3127  0.9163
  608TMC3    C8 9070   3.705   2.561  11.501 -0.2263 -0.5673  0.1115
  608TMC3    O1 9071   3.701   2.557  10.935 -0.0401  0.4569 -0.1412
  608TMC3    O2 9072   3.819   2.598  11.520  0.3314  0.1529 -0.0952
  609TMC3    C1 9073   1.587   1.532   9.819  0.2663  0.4262  0.0448
  609TMC3    C2 9074   1.696   1.620   9.813 -0.5519  0.0170 -0.0519
  609TMC3    C3 9075   1.786   1.599   9.713 -0.3008 -0.5561  0.3900
  609TMC3    C4 9076   1.560   1.443   9.724  0.2471  0.1915  0.2603
  609TMC3    C5 9077   1.645   1.437   9.612  0.1473  0.5032  0.2898
  609TMC3    C6 9078   1.762   1.508   9.603 -0.0414  0.3479  0.0119
  609TMC3     C 9079   1.495   1.535   9.934  0.5301 -0.3034 -0.0914
  609TMC3     O 9080   1.427   1.436   9.960  0.0374  0.2523 -0.0430
  609TMC3     H 9081   1.711   1.677   9.904 -3.7740  0.4411  0.2185
  609TMC3    H1 9082   1.471   1.383   9.733  0.1172  0.0918 -1.6602
  609TMC3    H2 9083   1.820   1.509   9.512 -0.4270  2.5768 -0.1978
  609TMC3    C7 9084   1.617   1.336   9.510  0.5939  0.0305 -0.2413
  609TMC3    C8 9085   1.898   1.694   9.702 -0.2282 -0.5137  0.1033
  609TMC3    O1 9086   1.700   1.302   9.432 -0.4844  0.3188  0.7469
  609TMC3    O2 9087   1.906   1.780   9.790 -0.0743 -0.2207 -0.8539
  610TMC3    C1 9088   3.827   2.363  12.442 -0.3103 -0.5376  0.2401
  610TMC3    C2 9089   3.881   2.334  12.319 -0.1129 -0.4166 -0.0768
  610TMC3    C3 9090   4.019   2.326  12.309  0.5155  0.1401  0.3774
  610TMC3    C4 9091   3.899   2.368  12.560 -0.7339  0.9265  0.3572
  610TMC3    C5 9092   4.039   2.363  12.548 -0.4059  0.1337 -0.2551
  610TMC3    C6 9093   4.098   2.337  12.427 -0.0560  0.8364 -0.2212
  610TMC3     C 9094   3.701   2.428  12.435  0.0020  0.1350 -0.2850
  610TMC3     O 9095   3.658   2.471  12.327 -0.2563 -0.1522 -0.0746
  610TMC3     H 9096   3.818   2.328  12.231 -0.2782  0.8400 -0.0539
  610TMC3    H1 9097   3.847   2.369  12.655  0.1458 -1.0646  0.8531
  610TMC3    H2 9098   4.206   2.325  12.421 -0.2128  0.1314 -1.4336
  610TMC3    C7 9099   4.121   2.336  12.663  0.6653 -0.0327  0.0572
  610TMC3    C8 9100   4.074   2.286  12.184 -0.0981  0.0769  0.2398
  610TMC3    O1 9101   4.084   2.252  12.745 -0.5889  0.5221 -0.2558
  610TMC3    O2 9102   3.995   2.286  12.093  0.9100  0.0380 -0.1021
  611MPD2     C 9103   2.859   2.117  10.997 -0.1850 -0.2535 -0.1548
  611MPD2    C1 9104   2.876   2.059  10.872 -0.5714 -0.1756  0.0845
  611MPD2    C2 9105   2.999   2.054  10.816 -0.0703 -0.7949  0.1032
  611MPD2    C3 9106   3.106   2.114  10.880 -0.8367  0.6879 -0.5753
  611MPD2    C4 9107   3.088   2.179  11.003 -0.1153  0.3519  0.5179
  611MPD2    C5 9108   2.967   2.183  11.060  0.3216  0.3565 -0.5010
  611MPD2     H 9109   3.015   2.013  10.717 -0.5991  2.6996 -1.4298
  611MPD2    H1 9110   3.163   2.243  11.046  1.2471 -1.2783  0.5469
  611MPD2    H2 9111   2.761   2.122  11.041  0.0692  0.3077  0.3491
  611MPD2    H3 9112   2.961   2.240  11.152  0.0608  2.4754 -1.8364
  611MPD2     N 9113   3.238   2.128  10.818 -0.0234 -0.0911  0.1181
  611MPD2    H5 9114   3.311   2.169  10.876  0.1482  0.5438 -0.5379
  611MPD2    N1 9115   2.756   2.022  10.812 -0.2742  0.4942 -0.0984
  611MPD2    H7 9116   2.667   2.025  10.861  0.0244 -0.0563  0.4817
  612TMC3    C1 9117   3.410   2.104  10.649  0.8191  0.5503 -0.5584
  612TMC3    C2 9118   3.507   2.117  10.740  0.0741  0.2018  1.2143
  612TMC3    C3 9119   3.633   2.103  10.689  0.0089 -0.2906  0.3618
  612TMC3    C4 9120   3.431   2.076  10.512  0.8509 -0.3093 -0.5382
  612TMC3    C5 9121   3.556   2.063  10.468  0.1121  0.0063 -0.1364
  612TMC3    C6 9122   3.664   2.081  10.558  0.2879  0.0218  0.3378
  612TMC3     C 9123   3.267   2.098  10.686  0.8478 -0.1966  0.0235
  612TMC3     O 9124   3.187   2.064  10.595  0.6191 -0.4191  0.1837
  612TMC3     H 9125   3.479   2.133  10.843 -0.5275 -0.6625  1.1834
  612TMC3    H1 9126   3.351   2.072  10.439 -0.6503 -1.2724  1.1628
  612TMC3    H2 9127   3.767   2.067  10.528 -0.0870 -0.6005 -0.6530
  612TMC3    C7 9128   3.590   2.012  10.335  0.1438 -0.1906 -0.0914
  612TMC3    C8 9129   3.736   2.135  10.792  0.6676 -0.3569  0.0283
  612TMC3    O1 9130   3.706   2.034  10.295 -0.3600 -0.7523  0.0349
  612TMC3    O2 9131   3.702   2.184  10.897 -0.4350  0.3901  0.0911
  613MPD2     C 9132   2.048   3.599  16.746 -0.4216  0.3735  0.2002
  613MPD2    C1 9133   2.006   3.674  16.637 -0.1592  0.3378  0.2932
  613MPD2    C2 9134   1.911   3.622  16.550 -0.6771  0.2692  0.0601
  613MPD2    C3 9135   1.846   3.502  16.569  0.3080 -0.0821  0.3020
  613MPD2    C4 9136   1.888   3.419  16.673  0.0490 -0.2176  0.7209
  613MPD2    C5 9137   1.982   3.476  16.766 -0.4605 -0.3303  0.3111
  613MPD2     H 9138   1.892   3.686  16.465  1.4122  1.9487  0.8340
  613MPD2    H1 9139   1.847   3.323  16.701  2.0788 -1.6486 -1.1653
  613MPD2    H2 9140   2.124   3.636  16.814 -0.4115  0.7964 -0.0365
  613MPD2    H3 9141   2.014   3.407  16.843  1.1162 -1.5813 -1.4362
  613MPD2     N 9142   1.760   3.451  16.467 -0.4986  0.5521  0.2362
  613MPD2    H5 9143   1.772   3.352  16.444 -2.7720 -0.0182  1.5426
  613MPD2    N1 9144   2.075   3.795  16.608 -0.5611 -0.2161  0.1383
  613MPD2    H7 9145   2.154   3.817  16.668  0.8582 -2.4428 -0.8764
  614TMC3    C1 9146   2.196   3.926  16.454 -0.6882 -0.2623  0.1236
  614TMC3    C2 9147   2.251   3.813  16.396 -0.1802  0.0290  1.0361
  614TMC3    C3 9148   2.295   3.820  16.265  0.0106  0.5687 -0.4563
  614TMC3    C4 9149   2.180   4.039  16.381  0.2688  0.2804  0.2438
  614TMC3    C5 9150   2.221   4.042  16.256  0.3755 -0.7037  0.4616
  614TMC3    C6 9151   2.274   3.938  16.194 -0.1894  0.0446 -0.3530
  614TMC3     C 9152   2.065   3.883  16.505  0.6252  0.7720 -0.3958
  614TMC3     O 9153   1.964   3.887  16.439 -0.2670  0.0071 -0.0161
  614TMC3     H 9154   2.262   3.724  16.457  0.6786 -0.8508 -0.4093
  614TMC3    H1 9155   2.124   4.120  16.428 -1.8870 -0.2639 -1.3622
  614TMC3    H2 9156   2.292   3.932  16.088 -0.4063 -0.2837 -0.3689
  614TMC3    C7 9157   2.169   4.156  16.181  0.7481  0.4807 -0.2523
  614TMC3    C8 9158   2.273   3.695  16.202 -0.7976 -0.2445  0.1860
  614TMC3    O1 9159   2.137   4.258  16.244 -0.2807 -1.0613  0.7415
  614TMC3    O2 9160   2.197   3.621  16.267 -0.3538  0.0005  0.5053
  615MPD2     C 9161   1.538   0.803  16.000  0.2464 -0.0681 -0.1918
  615MPD2    C1 9162   1.587   0.898  15.917 -0.4625  0.2443 -0.0670
  615MPD2    C2 9163   1.534   0.917  15.789  0.4715 -0.5364  0.3259
  615MPD2    C3 9164   1.425   0.850  15.744 -0.1164 -0.0815 -0.2425
  615MPD2    C4 9165   1.362   0.766  15.830 -0.1140  0.0517  0.0132
  615MPD2    C5 9166   1.433   0.733  15.947  0.0944  0.0298  0.0994
  615MPD2     H 9167   1.593   0.979  15.723  1.0736 -3.8560 -2.2878
  615MPD2    H1 9168   1.281   0.700  15.804  1.2848 -0.3557 -3.3132
  615MPD2    H2 9169   1.569   0.783  16.102 -1.2059  0.5437  0.3647
  615MPD2    H3 9170   1.399   0.645  16.002 -0.0785 -0.4674 -0.8155
  615MPD2     N 9171   1.378   0.863  15.613 -0.1146  0.1385 -0.3696
  615MPD2    H5 9172   1.291   0.815  15.591  0.1823 -1.2018  1.4063
  615MPD2    N1 9173   1.703   0.979  15.936  0.6313 -0.1457 -0.8249
  615MPD2    H7 9174   1.735   1.043  15.865 -0.0903  0.3531 -0.7052
  616TMC3    C1 9175   1.845   1.084  16.083 -0.6407  0.8053  0.5196
  616TMC3    C2 9176   1.979   1.089  16.096 -0.5999 -0.1749 -0.2741
  616TMC3    C3 9177   2.042   1.207  16.100 -0.2368 -0.0959 -0.3911
  616TMC3    C4 9178   1.771   1.196  16.072  0.2698  0.0868 -0.1127
  616TMC3    C5 9179   1.842   1.314  16.085 -0.5049  0.9542  0.1185
  616TMC3    C6 9180   1.974   1.325  16.107  0.5062  0.0977  0.2158
  616TMC3     C 9181   1.783   0.962  16.042 -0.1224  0.4359 -0.0018
  616TMC3     O 9182   1.809   0.862  16.110  0.1266  0.2403 -0.0317
  616TMC3     H 9183   2.034   0.997  16.085  0.0961 -0.0269  2.0087
  616TMC3    H1 9184   1.664   1.191  16.056  0.6263 -1.6344 -1.9527
  616TMC3    H2 9185   2.022   1.421  16.122 -0.6482  0.5111  1.2796
  616TMC3    C7 9186   1.760   1.431  16.080 -0.5267 -0.2047  0.2084
  616TMC3    C8 9187   2.185   1.202  16.068 -0.6641  0.5277  0.2620
  616TMC3    O1 9188   1.650   1.425  16.029  0.2094 -0.1994  0.0229
  616TMC3    O2 9189   2.263   1.135  16.137  0.3538  0.2311  0.4443
  617MPD2     C 9190   4.518   3.609  13.660 -0.2659  0.1680  0.0761
  617MPD2    C1 9191   4.553   3.549  13.775  0.1905 -0.5326 -0.0206
  617MPD2    C2 9192   4.453   3.513  13.868 -0.1471 -0.0504 -0.5463
  617MPD2    C3 9193   4.314   3.546  13.839  0.3662  0.1366 -0.1107
  617MPD2    C4 9194   4.292   3.627  13.731  0.7705  0.0956  0.5433
  617MPD2    C5 9195   4.388   3.650  13.640 -0.0557 -0.7060  0.6780
  617MPD2     H 9196   4.481   3.453  13.954 -2.1973 -0.0147  0.1341
  617MPD2    H1 9197   4.191   3.667  13.720  0.5357 -0.6886 -0.1372
  617MPD2    H2 9198   4.594   3.651  13.595  0.5974  0.0230  0.9875
  617MPD2    H3 9199   4.362   3.708  13.552  1.5147 -0.3589  0.4540
  617MPD2     N 9200   4.197   3.511  13.911 -0.4747 -0.0048  0.4870
  617MPD2    H5 9201   4.109   3.551  13.882  0.5808  0.3065 -2.2310
  617MPD2    N1 9202   4.694   3.530  13.790 -0.3043  0.1944 -0.2247
  617MPD2    H7 9203   0.013   3.533  13.708 -1.0350  0.8476 -0.7330
  618TMC3    C1 9204   0.163   3.545  13.889  0.6298 -0.2032 -0.0655
  618TMC3    C2 9205   0.221   3.447  13.810  0.1648 -0.8592  0.1498
  618TMC3    C3 9206   0.348   3.472  13.773  0.6274  0.5816  0.0551
  618TMC3    C4 9207   0.217   3.663  13.933 -0.7459 -0.4409 -0.5905
  618TMC3    C5 9208   0.345   3.684  13.882 -0.0226  0.8256  0.0525
  618TMC3    C6 9209   0.410   3.593  13.804 -0.0548 -0.3026 -0.7553
  618TMC3     C 9210   0.020   3.530  13.912 -0.4176 -0.0556 -0.5414
  618TMC3     O 9211   4.718   3.552  14.023 -0.3841  0.4881  0.1805
  618TMC3     H 9212   0.160   3.360  13.787 -0.2079  0.2924 -3.2156
  618TMC3    H1 9213   0.164   3.726  14.004  1.2557 -1.0507  1.4408
  618TMC3    H2 9214   0.514   3.606  13.777 -0.1945  3.2470  0.4287
  618TMC3    C7 9215   0.385   3.824  13.885  0.3612  0.9771  0.2654
  618TMC3    C8 9216   0.369   3.414  13.640 -0.4897 -0.3515 -0.1949
  618TMC3    O1 9217   0.382   3.881  13.989 -0.1389 -0.0037  0.5472
  618TMC3    O2 9218   0.294   3.320  13.607 -0.1836 -0.0891 -0.3582
  619MPD2     C 9219   1.190   0.225  13.728  0.1317 -0.1897  0.3192
  619MPD2    C1 9220   1.138   0.315  13.642 -0.8036  0.2270  0.4146
  619MPD2    C2 9221   1.008   0.307  13.617 -0.1310 -0.8970  0.2646
  619MPD2    C3 9222   0.927   0.208  13.672  0.7615  0.0879  0.1778
  619MPD2    C4 9223   0.981   0.122  13.771  0.5131  0.0807 -0.3647
  619MPD2    C5 9224   1.115   0.140  13.799  0.8102 -0.7353 -0.0510
  619MPD2     H 9225   0.968   0.361  13.531  1.6982 -2.0299 -1.3119
  619MPD2    H1 9226   0.926   0.042  13.818 -1.1836  2.7615  2.1920
  619MPD2    H2 9227   1.297   0.220  13.739  0.1972 -0.4459 -0.4297
  619MPD2    H3 9228   1.155   0.082  13.881  0.2888 -1.9342 -0.6310
  619MPD2     N 9229   0.793   0.182  13.625  0.5976 -0.1331 -0.0058
  619MPD2    H5 9230   0.743   0.117  13.686  1.2989 -0.1474  0.5579
  619MPD2    N1 9231   1.214   0.409  13.573 -0.0797  0.1018  0.4604
  619MPD2    H7 9232   1.172   0.470  13.504 -1.1215 -0.1710  0.8558
  620TMC3    C1 9233   1.389   0.571  13.544 -0.4757  0.4490 -0.6973
  620TMC3    C2 9234   1.318   0.606  13.428 -0.6555  0.4841 -0.3214
  620TMC3    C3 9235   1.306   0.734  13.386  0.3446 -0.6584 -0.1179
  620TMC3    C4 9236   1.448   0.669  13.622  0.1935  0.0243 -0.3683
  620TMC3    C5 9237   1.427   0.803  13.587 -0.0616  0.2565  0.6814
  620TMC3    C6 9238   1.361   0.831  13.467  0.7099 -0.3016  0.0485
  620TMC3     C 9239   1.343   0.447  13.606  0.0236  0.1863  0.2695
  620TMC3     O 9240   1.423   0.394  13.684 -0.5778 -0.1010  0.8054
  620TMC3     H 9241   1.287   0.528  13.359 -0.6720 -0.3872  0.6585
  620TMC3    H1 9242   1.476   0.643  13.723 -0.6713 -0.2461 -0.2043
  620TMC3    H2 9243   1.339   0.935  13.449  2.1339  0.3793  2.2494
  620TMC3    C7 9244   1.399   0.890  13.699 -0.4164 -0.4893  0.3992
  620TMC3    C8 9245   1.164   0.763  13.379 -1.0717 -0.9112 -0.5500
  620TMC3    O1 9246   1.488   0.942  13.768  0.3995  0.7349  0.3650
  620TMC3    O2 9247   1.123   0.818  13.484 -0.1030 -0.7985  0.1966
  621MPD2     C 9248   1.380   0.226  10.500  0.3521  0.0891 -0.2642
  621MPD2    C1 9249   1.470   0.144  10.434 -0.1185 -0.6627 -0.3707
  621MPD2    C2 9250   1.570   0.201  10.355  0.1176 -0.0846 -0.3320
  621MPD2    C3 9251   1.577   0.338  10.339 -0.6878  0.2633  0.5115
  621MPD2    C4 9252   1.494   0.418  10.417 -0.3625  0.4792  0.1162
  621MPD2    C5 9253   1.398   0.365  10.499  0.3931 -0.7000  0.4981
  621MPD2     H 9254   1.618   0.131  10.287 -1.0444  1.7018 -3.0032
  621MPD2    H1 9255   1.498   0.526  10.411 -0.8311  0.5917  1.7226
  621MPD2    H2 9256   1.292   0.190  10.552 -0.1363 -1.5799 -2.2506
  621MPD2    H3 9257   1.320   0.427  10.541  2.0445  0.2899  2.1302
  621MPD2     N 9258   1.676   0.396  10.258 -0.0767  0.3970  0.5313
  621MPD2    H5 9259   1.762   0.347  10.234 -1.4179 -2.8613  2.3141
  621MPD2    N1 9260   1.455   0.003  10.427 -0.3539 -0.9781 -0.4942
  621MPD2    H7 9261   1.532   4.703  10.375 -0.0908 -1.0620 -0.0399
  622TMC3    C1 9262   1.384   4.521  10.443  0.2743  0.2063 -0.1179
  622TMC3    C2 9263   1.318   4.424  10.521  0.6117  0.2909 -0.0372
  622TMC3    C3 9264   1.269   4.312  10.466 -0.0859 -0.0901  0.9533
  622TMC3    C4 9265   1.376   4.508  10.309 -0.4071 -0.1759  0.0221
  622TMC3    C5 9266   1.320   4.395  10.250 -0.2840  0.3027 -0.5592
  622TMC3    C6 9267   1.271   4.297  10.330 -0.0090  0.4439  0.2538
  622TMC3     C 9268   1.366   4.660  10.485 -0.0773  0.3087 -0.2561
  622TMC3     O 9269   1.284   4.687  10.575 -0.5040  0.2522  0.3436
  622TMC3     H 9270   1.318   4.429  10.629  0.4416 -0.3647 -0.0112
  622TMC3    H1 9271   1.411   4.590  10.247 -2.3993  0.4107 -0.3290
  622TMC3    H2 9272   1.214   4.214  10.291  0.4042 -0.4875  1.6194
  622TMC3    C7 9273   1.267   4.397  10.112 -0.0442  0.1835 -0.9680
  622TMC3    C8 9274   1.148   4.276  10.535  0.9072  0.0063 -0.3045
  622TMC3    O1 9275   1.187   4.308  10.080 -0.3168 -0.0110 -0.5744
  622TMC3    O2 9276   1.098   4.171  10.500  0.2798 -0.6981  0.2820
  623MPD2     C 9277   0.624   0.945  15.721  0.2547  0.6333 -0.1666
  623MPD2    C1 9278   0.540   0.879  15.815  0.4478 -0.1072 -0.6060
  623MPD2    C2 9279   0.575   0.889  15.947  0.0207  0.3968  0.2293
  623MPD2    C3 9280   0.685   0.959  15.987 -0.0816  0.4707  0.1081
  623MPD2    C4 9281   0.768   1.030  15.902 -0.9688  0.1667 -0.3871
  623MPD2    C5 9282   0.735   1.016  15.769  0.1963  0.6026  0.4817
  623MPD2     H 9283   0.518   0.833  16.020  1.8605 -2.4035 -0.4860
  623MPD2    H1 9284   0.859   1.077  15.936 -0.7753 -0.7847  0.3835
  623MPD2    H2 9285   0.606   0.953  15.614  1.1012 -0.0109 -0.3560
  623MPD2    H3 9286   0.794   1.063  15.691  0.2118 -0.0104  0.1186
  623MPD2     N 9287   0.712   0.954  16.124 -0.5380 -0.4633 -0.1089
  623MPD2    H5 9288   0.648   0.898  16.179 -0.4749 -0.6036 -0.1782
  623MPD2    N1 9289   0.426   0.815  15.775  0.0724 -0.4045 -0.0485
  623MPD2    H7 9290   0.373   0.779  15.853 -0.6083  0.0017 -0.3237
  624TMC3    C1 9291   0.933   0.927  16.537 -0.2990  0.7287  0.6849
  624TMC3    C2 9292   0.822   0.882  16.599 -0.1563 -0.1497 -0.0237
  624TMC3    C3 9293   0.707   0.893  16.527 -0.0756 -0.3190 -0.3569
  624TMC3    C4 9294   0.936   0.967  16.401 -0.2287 -0.3362 -0.8058
  624TMC3    C5 9295   0.825   0.950  16.328 -0.0555  0.5732  0.0237
  624TMC3    C6 9296   0.704   0.933  16.395 -0.2314 -0.4903 -0.4675
  624TMC3     C 9297   1.057   0.912  16.608 -0.6567  0.0165 -0.2422
  624TMC3     O 9298   1.061   0.837  16.701  0.0802 -0.1318  0.4775
  624TMC3     H 9299   0.815   0.862  16.705 -0.7283 -1.2474 -0.2603
  624TMC3    H1 9300   1.029   0.976  16.347  0.2411 -1.6889 -0.2380
  624TMC3    H2 9301   0.610   0.945  16.344  0.5988 -1.3649 -2.2038
  624TMC3    C7 9302   0.823   0.999  16.193  1.2314  0.1010 -0.0849
  624TMC3    C8 9303   0.576   0.874  16.582 -0.4070 -0.0991  0.3421
  624TMC3    O1 9304   0.905   1.082  16.164 -0.2621  0.3385 -0.0223
  624TMC3    O2 9305   0.485   0.870  16.496  0.3630  0.1723  0.5622
  625MPD2     C 9306   1.072   1.910   0.604  0.2473 -0.0573 -0.3575
  625MPD2    C1 9307   1.084   2.032   0.674 -0.1419  0.0657 -0.3641
  625MPD2    C2 9308   1.186   2.048   0.765  0.3090  0.0486  0.4462
  625MPD2    C3 9309   1.291   1.971   0.765  0.1983  0.3249  0.0470
  625MPD2    C4 9310   1.281   1.851   0.688  0.1265  0.4314 -1.3237
  625MPD2    C5 9311   1.172   1.817   0.620 -0.1830 -0.0540  0.1796
  625MPD2     H 9312   1.189   2.131   0.835 -0.7614  1.3468 -1.0380
  625MPD2    H1 9313   1.369   1.788   0.683  0.0209  0.3120 -1.6815
  625MPD2    H2 9314   0.996   1.891   0.529 -1.2877 -0.6842  1.3614
  625MPD2    H3 9315   1.160   1.723   0.568 -1.2892 -1.5167  3.0375
  625MPD2     N 9316   1.413   2.014   0.828 -0.2660 -0.4482 -0.4181
  625MPD2    H5 9317   1.421   2.112   0.852 -4.4141 -0.2126 -0.0448
  625MPD2    N1 9318   0.988   2.125   0.680  0.3654  0.1052 -0.2887
  625MPD2    H7 9319   1.017   2.218   0.710 -1.8958  0.6977  0.0741
  626TMC3    C1 9320   0.795   2.250   0.626 -0.3699 -0.1401  0.3836
  626TMC3    C2 9321   0.724   2.277   0.514  0.4227 -0.8637  0.4801
  626TMC3    C3 9322   0.691   2.411   0.486 -0.6809 -0.0286 -0.2335
  626TMC3    C4 9323   0.833   2.349   0.718 -0.3014  0.0593 -0.0374
  626TMC3    C5 9324   0.783   2.478   0.692  0.7646 -0.5383  0.2473
  626TMC3    C6 9325   0.723   2.515   0.573  0.0724 -0.1609 -0.5702
  626TMC3     C 9326   0.864   2.119   0.625  0.6713  0.0193  0.3337
  626TMC3     O 9327   0.812   2.027   0.558  0.2581  0.4462 -0.2296
  626TMC3     H 9328   0.704   2.187   0.456  1.0588 -0.1511 -0.8411
  626TMC3    H1 9329   0.883   2.316   0.808  0.9075 -0.5278 -0.9156
  626TMC3    H2 9330   0.721   2.620   0.547 -0.2687 -0.2743 -0.9955
  626TMC3    C7 9331   0.809   2.578   0.796 -0.2351 -0.1260 -0.1813
  626TMC3    C8 9332   0.657   2.437   0.345 -0.0900 -0.7055 -0.3564
  626TMC3    O1 9333   0.889   2.546   0.884  0.3879  0.1587  0.3688
  626TMC3    O2 9334   0.680   2.542   0.290  0.6556 -0.4554 -0.5634
  627MPD2     C 9335   3.402   2.444  14.320 -0.3904 -0.2431 -0.3507
  627MPD2    C1 9336   3.505   2.356  14.300 -0.2732 -0.1405 -0.0575
  627MPD2    C2 9337   3.478   2.229  14.245 -0.0342  0.1014 -0.4223
  627MPD2    C3 9338   3.359   2.199  14.189 -0.3322  0.2171  0.2489
  627MPD2    C4 9339   3.266   2.291  14.198 -0.4261  0.2562  0.0604
  627MPD2    C5 9340   3.278   2.413  14.262  0.4169  0.4553 -0.3003
  627MPD2     H 9341   3.558   2.155  14.246  0.9822  1.2109  0.1471
  627MPD2    H1 9342   3.163   2.272  14.169 -1.1543  1.5601  1.8334
  627MPD2    H2 9343   3.403   2.546  14.357  0.0447 -0.5190  0.4017
  627MPD2    H3 9344   3.197   2.484  14.266  0.6933  0.7705 -0.2279
  627MPD2     N 9345   3.330   2.074  14.133  0.4587 -0.1829  0.0912
  627MPD2    H5 9346   3.399   2.001  14.145 -0.2428 -0.7686  0.5006
  627MPD2    N1 9347   3.635   2.395  14.340  0.3727  0.4751  0.1418
  627MPD2    H7 9348   3.705   2.324  14.322  0.3138  0.0783  1.4793
  628TMC3    C1 9349   3.798   2.522  14.453  0.6378  0.0282  0.1631
  628TMC3    C2 9350   3.893   2.441  14.397  0.2217 -0.1362  0.3994
  628TMC3    C3 9351   4.020   2.429  14.458  0.2542  0.0314  0.5828
  628TMC3    C4 9352   3.823   2.587  14.569 -0.5486  0.3413  0.8418
  628TMC3    C5 9353   3.951   2.579  14.618 -0.1051  1.1436 -0.1627
  628TMC3    C6 9354   4.045   2.485  14.576  0.0495  0.3127 -0.6151
  628TMC3     C 9355   3.661   2.510  14.410 -0.2822 -0.0618 -0.5285
  628TMC3     O 9356   3.591   2.602  14.451  0.1386  0.1680 -0.4381
  628TMC3     H 9357   3.878   2.389  14.303 -2.0563 -0.7609  1.1188
  628TMC3    H1 9358   3.750   2.649  14.619 -0.3148  1.2292  0.0663
  628TMC3    H2 9359   4.148   2.499  14.604 -0.6453  1.1039  1.5494
  628TMC3    C7 9360   4.010   2.693  14.676 -0.5886 -0.4450  0.1002
  628TMC3    C8 9361   4.124   2.374  14.379  0.7693 -0.1068 -0.5942
  628TMC3    O1 9362   4.114   2.670  14.737  0.2228 -0.6039 -0.0719
  628TMC3    O2 9363   4.105   2.374  14.260  0.4599  0.3589  0.4317
  629MPD2     C 9364   2.578   1.362  15.769  0.2752 -0.2107  0.1300
  629MPD2    C1 9365   2.584   1.298  15.889  0.2581  0.0284 -0.7723
  629MPD2    C2 9366   2.463   1.269  15.953 -0.0915  0.2300 -0.0173
  629MPD2    C3 9367   2.342   1.310  15.900  0.4542  0.0492 -0.6754
  629MPD2    C4 9368   2.347   1.388  15.787  0.0816  0.0093  0.4218
  629MPD2    C5 9369   2.461   1.398  15.712 -0.5709  0.4936 -0.4080
  629MPD2     H 9370   2.464   1.222  16.051 -1.7852 -0.1410 -0.1784
  629MPD2    H1 9371   2.248   1.412  15.750 -0.4115  0.2545  1.9031
  629MPD2    H2 9372   2.669   1.384  15.714 -0.5637  1.9025 -0.4110
  629MPD2    H3 9373   2.455   1.437  15.611  2.1690 -3.6034 -2.1378
  629MPD2     N 9374   2.217   1.287  15.961  0.7382 -0.3370 -0.1912
  629MPD2    H5 9375   2.137   1.318  15.907  0.7669  1.6936  0.9226
  629MPD2    N1 9376   2.706   1.250  15.936  0.1395  0.1630 -0.5217
  629MPD2    H7 9377   2.791   1.292  15.899 -0.8111  0.9409 -1.8016
  630TMC3    C1 9378   2.879   1.149  16.062 -0.1851  0.4757  0.1678
  630TMC3    C2 9379   2.978   1.205  15.987 -0.5265  0.1100 -0.0997
  630TMC3    C3 9380   3.105   1.209  16.032  0.2575 -0.3002 -0.7747
  630TMC3    C4 9381   2.915   1.088  16.178 -0.5518  0.0198 -0.7227
  630TMC3    C5 9382   3.036   1.109  16.230 -0.8905 -0.3554  0.4318
  630TMC3    C6 9383   3.138   1.166  16.158 -0.3820 -0.8211 -0.3810
  630TMC3     C 9384   2.731   1.168  16.038 -0.3918 -0.0512  0.0904
  630TMC3     O 9385   2.649   1.111  16.109 -0.0047  0.4782  0.2142
  630TMC3     H 9386   2.948   1.260  15.899  2.4482  2.1043  0.1181
  630TMC3    H1 9387   2.830   1.059  16.240 -0.8064 -0.0714 -1.1142
  630TMC3    H2 9388   3.242   1.152  16.185 -0.1492  1.4940 -0.0634
  630TMC3    C7 9389   3.064   1.073  16.361  0.0010  0.6523  0.0890
  630TMC3    C8 9390   3.195   1.303  15.963 -0.0052  0.4674 -0.0274
  630TMC3    O1 9391   2.994   0.991  16.417  0.2414  0.6592 -0.8135
  630TMC3    O2 9392   3.258   1.371  16.042 -0.6409 -0.1485  0.2020
  631MPD2     C 9393   0.594   1.351  15.506 -0.0532 -0.3531 -0.1154
  631MPD2    C1 9394   0.710   1.431  15.505  0.5933  0.7674  0.1201
  631MPD2    C2 9395   0.827   1.380  15.455  0.2469 -0.3969  0.3330
  631MPD2    C3 9396   0.843   1.248  15.427 -0.2108 -0.4212 -1.0090
  631MPD2    C4 9397   0.735   1.165  15.439 -0.1435 -0.6163 -0.4642
  631MPD2    C5 9398   0.613   1.218  15.478  0.0252 -0.0165  0.5037
  631MPD2     H 9399   0.916   1.440  15.441 -0.2966  0.2285 -0.4656
  631MPD2    H1 9400   0.750   1.059  15.423 -0.0678 -0.7953  0.7662
  631MPD2    H2 9401   0.494   1.379  15.538  1.0381  1.2439  1.9248
  631MPD2    H3 9402   0.541   1.140  15.496 -2.3902  2.2953  0.7869
  631MPD2     N 9403   0.976   1.207  15.405 -0.0018  0.6063  0.0119
  631MPD2    H5 9404   1.048   1.274  15.379  0.0720  0.0011 -1.3642
  631MPD2    N1 9405   0.689   1.570  15.530  0.6987  0.7426 -0.1672
  631MPD2    H7 9406   0.608   1.588  15.588  0.9782 -0.5318  0.6338
  632TMC3    C1 9407   0.708   1.789  15.487 -0.3922 -0.5594 -0.2777
  632TMC3    C2 9408   0.572   1.783  15.508  0.2936 -0.3860 -0.4182
  632TMC3    C3 9409   0.483   1.837  15.419 -0.3029  0.3628 -0.8589
  632TMC3    C4 9410   0.748   1.866  15.378  0.0820  0.4081  0.3056
  632TMC3    C5 9411   0.660   1.888  15.281  0.4491  0.0417  0.4447
  632TMC3    C6 9412   0.523   1.889  15.296  0.7323  0.0636 -0.6184
  632TMC3     C 9413   0.776   1.667  15.489 -0.5713  0.3110  0.1393
  632TMC3     O 9414   0.867   1.663  15.409 -0.0298  0.0368  0.4272
  632TMC3     H 9415   0.534   1.754  15.605 -2.7791 -1.1620 -1.8493
  632TMC3    H1 9416   0.855   1.880  15.365  0.0570  1.3162  1.0727
  632TMC3    H2 9417   0.457   1.891  15.209  1.9954  2.3823 -1.5315
  632TMC3    C7 9418   0.704   1.836  15.152  0.2726  0.0124 -0.4787
  632TMC3    C8 9419   0.342   1.828  15.447 -0.0881  0.1366 -0.1784
  632TMC3    O1 9420   0.647   1.873  15.049 -0.0799  0.1990 -0.2639
  632TMC3    O2 9421   0.304   1.744  15.530  0.1483  0.4953  0.0320
  633MPD2     C 9422   0.475   4.009  17.139  0.0335 -0.1146 -0.3713
  633MPD2    C1 9423   0.438   3.938  17.022 -0.2770  0.8004  0.0851
  633MPD2    C2 9424   0.435   3.798  17.030  0.1201 -0.6456  0.2668
  633MPD2    C3 9425   0.464   3.733  17.147 -0.1576  0.2463  0.4302
  633MPD2    C4 9426   0.502   3.805  17.259 -0.3502 -0.2036 -0.8052
  633MPD2    C5 9427   0.513   3.939  17.249 -0.2535 -0.4569  0.2420
  633MPD2     H 9428   0.410   3.749  16.936  0.1371 -2.1590  1.0418
  633MPD2    H1 9429   0.524   3.757  17.354 -0.8858 -0.0343 -0.5971
  633MPD2    H2 9430   0.480   4.116  17.128  2.1736 -0.3366 -1.5750
  633MPD2    H3 9431   0.539   3.988  17.342 -2.1601 -0.7690  0.9437
  633MPD2     N 9432   0.471   3.591  17.154 -0.0360 -0.3847  0.2953
  633MPD2    H5 9433   0.517   3.553  17.237 -0.8933 -0.5903  0.6786
  633MPD2    N1 9434   0.410   3.997  16.900  0.1666 -0.2381  0.0566
  633MPD2    H7 9435   0.399   3.959  16.806 -1.8941 -0.7534  0.5074
  634TMC3    C1 9436   0.438   4.153  16.743 -0.0948 -0.1318 -0.2569
  634TMC3    C2 9437   0.476   4.051  16.658  0.4146 -0.1727  0.0625
  634TMC3    C3 9438   0.497   4.074  16.523  0.7321  0.8847 -1.0626
  634TMC3    C4 9439   0.426   4.282  16.699  0.3996  0.3292  0.6953
  634TMC3    C5 9440   0.454   4.300  16.560  0.0255 -0.3037  0.2268
  634TMC3    C6 9441   0.477   4.197  16.474  1.2497 -0.0032 -0.0412
  634TMC3     C 9442   0.411   4.131  16.885 -0.6778 -0.4378  0.9930
  634TMC3     O 9443   0.380   4.221  16.962 -0.4707 -0.2563 -0.0725
  634TMC3     H 9444   0.498   3.951  16.694 -0.7049 -0.2116  0.6440
  634TMC3    H1 9445   0.393   4.364  16.761 -0.5215  0.4520  0.0482
  634TMC3    H2 9446   0.480   4.219  16.367  0.3319 -0.6637 -0.2045
  634TMC3    C7 9447   0.435   4.426  16.495  0.0928 -0.4698 -0.1530
  634TMC3    C8 9448   0.490   3.968  16.429 -0.0269 -0.1568  0.1953
  634TMC3    O1 9449   0.407   4.423  16.376  0.8044  0.1138  0.0008
  634TMC3    O2 9450   0.440   3.862  16.461  0.2162 -0.6733 -0.5882
  635TMC3    C1 9451   0.723   0.069   0.165  0.0755 -0.4364 -0.5173
  635TMC3    C2 9452   0.647   4.701   0.189 -0.4350 -0.2076  0.3368
  635TMC3    C3 9453   0.557   4.650   0.093 -0.2300 -0.1467  0.5907
  635TMC3    C4 9454   0.700   0.134   0.046  1.2184 -0.7602  0.3447
  635TMC3    C5 9455   0.628   0.076  17.713  0.3236  0.4763  0.1178
  635TMC3    C6 9456   0.560   4.704  17.728 -0.7540  0.0948 -0.0785
  635TMC3     C 9457   0.788   0.149   0.272  0.5043  0.7138 -0.2243
  635TMC3     O 9458   0.832   0.258   0.236 -0.0428  0.2113  0.1406
  635TMC3     H 9459   0.674   4.639   0.273 -0.9735  0.3645  0.9344
  635TMC3    H1 9460   0.744   0.233   0.036  0.2695 -0.3520  0.1622
  635TMC3    H2 9461   0.490   4.674  17.651 -0.5916 -0.0275 -0.1782
  635TMC3    C7 9462   0.653   0.118  17.578  0.5891 -0.7492 -0.2165
  635TMC3    C8 9463   0.512   4.512   0.106  0.3614  0.6039 -0.2396
  635TMC3    O1 9464   0.557   0.103  17.501  0.5520 -0.3581  0.1605
  635TMC3    O2 9465   0.514   4.448   0.003  0.2797 -0.3688  0.2948
  636MPD2     C 9466   1.731   4.143  15.827  0.1504  0.4099 -0.4513
  636MPD2    C1 9467   1.738   4.134  15.963 -0.2025 -0.3433 -0.2989
  636MPD2    C2 9468   1.732   4.008  16.021  0.4677  0.1719 -0.0462
  636MPD2    C3 9469   1.686   3.898  15.943  1.1219  0.0934  0.7865
  636MPD2    C4 9470   1.661   3.913  15.808 -0.5777  0.6088  0.5481
  636MPD2    C5 9471   1.699   4.030  15.756 -0.4727 -0.0207 -0.3625
  636MPD2     H 9472   1.753   3.986  16.125  1.4884  1.4609  0.0189
  636MPD2    H1 9473   1.637   3.828  15.745  0.1954 -0.9656  2.3584
  636MPD2    H2 9474   1.755   4.234  15.773  0.8778  0.0493 -0.7464
  636MPD2    H3 9475   1.688   4.051  15.651  0.0620 -0.2066 -0.4565
  636MPD2     N 9476   1.670   3.769  15.999 -0.1729 -0.1931  0.2341
  636MPD2    H5 9477   1.713   3.759  16.091 -2.6693  2.1633  1.6729
  636MPD2    N1 9478   1.771   4.236  16.053 -0.3838 -0.2580 -0.2812
  636MPD2    H7 9479   1.776   4.223  16.153 -1.4752  0.4821 -0.1323
  637TMC3    C1 9480   1.656   3.541  16.025  0.5109  0.0018  0.0988
  637TMC3    C2 9481   1.633   3.572  16.154  0.1155 -0.8323 -0.0426
  637TMC3    C3 9482   1.685   3.481  16.241 -0.1844 -0.1941 -0.1450
  637TMC3    C4 9483   1.732   3.441  15.982  0.0916  0.1640  0.2926
  637TMC3    C5 9484   1.785   3.355  16.073 -0.2082  0.8079  0.6367
  637TMC3    C6 9485   1.757   3.368  16.208  0.1205  0.2356  0.3555
  637TMC3     C 9486   1.634   3.652  15.937  0.1824  0.2631 -0.7272
  637TMC3     O 9487   1.605   3.630  15.823 -0.4604 -0.4640  0.1336
  637TMC3     H 9488   1.574   3.657  16.187  0.2321 -0.6588 -0.2804
  637TMC3    H1 9489   1.768   3.442  15.880  0.6720 -1.2120  0.4782
  637TMC3    H2 9490   1.811   3.314  16.285 -1.0245  0.7001  1.4805
  637TMC3    C7 9491   1.926   3.317  16.053  0.3586  0.3501 -0.3145
  637TMC3    C8 9492   1.700   3.536  16.372 -0.3334  0.3826 -0.2324
  637TMC3    O1 9493   1.993   3.296  16.151  0.2369 -0.1003  0.2746
  637TMC3    O2 9494   1.670   3.653  16.390  1.0108 -0.1619 -0.3372
  638MPD2     C 9495   1.576   3.135  14.777 -0.5086 -0.4099  0.5174
  638MPD2    C1 9496   1.589   3.039  14.680  0.3800  0.6075  0.5826
  638MPD2    C2 9497   1.602   2.906  14.715 -0.0119 -0.4820 -0.2278
  638MPD2    C3 9498   1.612   2.870  14.850  0.2157 -0.2173  0.2267
  638MPD2    C4 9499   1.608   2.968  14.944  0.0631 -0.2328  0.1751
  638MPD2    C5 9500   1.583   3.095  14.912  0.5900 -0.0561  0.5787
  638MPD2     H 9501   1.601   2.826  14.642  0.0170 -0.0846 -0.6620
  638MPD2    H1 9502   1.608   2.952  15.052  0.0731  0.3356  0.2607
  638MPD2    H2 9503   1.570   3.239  14.747 -1.3308 -0.7585 -0.5139
  638MPD2    H3 9504   1.588   3.172  14.988  0.4785  1.0517 -0.5293
  638MPD2     N 9505   1.630   2.731  14.876  0.6997 -0.4898 -0.5513
  638MPD2    H5 9506   1.616   2.665  14.800  1.8697 -3.7706  2.0946
  638MPD2    N1 9507   1.556   3.077  14.544 -0.0526 -0.8324  0.6091
  638MPD2    H7 9508   1.492   3.156  14.538  0.6319 -0.3815 -0.6226
  639TMC3    C1 9509   1.631   2.540  15.009 -0.9171 -0.7811 -0.2548
  639TMC3    C2 9510   1.498   2.502  14.980 -0.6169  0.3538  0.1999
  639TMC3    C3 9511   1.443   2.390  15.035  0.9991 -0.0104 -0.3318
  639TMC3    C4 9512   1.701   2.465  15.097  0.4702 -0.6609 -0.3993
  639TMC3    C5 9513   1.635   2.352  15.154  0.4132  0.1686  0.9857
  639TMC3    C6 9514   1.509   2.315  15.120 -0.3923 -0.2872 -1.1466
  639TMC3     C 9515   1.654   2.683  14.999 -0.0342  0.3913  0.6776
  639TMC3     O 9516   1.673   2.742  15.105 -0.0019  0.2382 -0.3424
  639TMC3     H 9517   1.443   2.569  14.915 -0.3573  1.4522  1.1009
  639TMC3    H1 9518   1.800   2.498  15.123  1.0046 -2.9107  0.4284
  639TMC3    H2 9519   1.466   2.222  15.155  3.1557 -0.8190  1.8395
  639TMC3    C7 9520   1.716   2.240  15.165 -1.0179  0.1633 -0.2580
  639TMC3    C8 9521   1.359   2.315  14.945  0.1218  0.1686  0.2748
  639TMC3    O1 9522   1.712   2.165  15.265  0.4614  0.5946  0.3111
  639TMC3    O2 9523   1.385   2.331  14.828  0.0566  0.6868  0.2515
  640MPD2     C 9524   2.533   1.412   9.713  0.0062  0.1354  0.5528
  640MPD2    C1 9525   2.629   1.434   9.620 -0.2277  0.1460  0.0455
  640MPD2    C2 9526   2.688   1.561   9.618  0.3867 -0.1696 -0.0669
  640MPD2    C3 9527   2.647   1.664   9.703  0.2890 -0.1984  0.4490
  640MPD2    C4 9528   2.540   1.637   9.783  0.1197  0.3494 -1.2233
  640MPD2    C5 9529   2.486   1.509   9.793  0.2913 -0.1332  0.8874
  640MPD2     H 9530   2.768   1.585   9.549  0.4028 -1.5811 -0.5248
  640MPD2    H1 9531   2.494   1.711   9.848 -2.0753 -1.7929 -0.3214
  640MPD2    H2 9532   2.489   1.314   9.729  2.1705 -0.9713 -0.2764
  640MPD2    H3 9533   2.409   1.488   9.867 -0.5577 -1.1824 -0.3132
  640MPD2     N 9534   2.700   1.798   9.710  0.2379 -0.6947  0.2526
  640MPD2    H5 9535   2.672   1.856   9.788 -1.7529  0.4995 -1.3431
  640MPD2    N1 9536   2.645   1.337   9.514  0.3875  0.0242  0.3126
  640MPD2    H7 9537   2.598   1.249   9.535 -0.1532  0.1380 -0.4399
  641TMC3    C1 9538   2.731   1.232   9.326 -0.3420 -0.3233 -0.0007
  641TMC3    C2 9539   2.618   1.159   9.317 -0.1879  0.2952  0.1422
  641TMC3    C3 9540   2.615   1.040   9.249 -0.1198  0.2454  0.2415
  641TMC3    C4 9541   2.840   1.195   9.269  0.0296  0.8916 -0.1749
  641TMC3    C5 9542   2.845   1.070   9.208  0.1598 -0.2896 -0.1321
  641TMC3    C6 9543   2.729   0.998   9.188  0.0057  0.1366  0.6677
  641TMC3     C 9544   2.736   1.347   9.412 -0.6349  0.6646  0.2433
  641TMC3     O 9545   2.817   1.436   9.388  0.3770  0.1098 -0.2122
  641TMC3     H 9546   2.525   1.192   9.363  0.1466  1.9039 -0.3415
  641TMC3    H1 9547   2.931   1.254   9.277 -0.1163  0.9682  0.9885
  641TMC3    H2 9548   2.725   0.910   9.125  1.6049  0.4095  0.2089
  641TMC3    C7 9549   2.967   1.016   9.172 -0.6871 -0.1478  0.4390
  641TMC3    C8 9550   2.488   0.973   9.231  0.5180 -0.3337  0.2359
  641TMC3    O1 9551   2.979   0.893   9.179  0.6496  0.7955  0.0462
  641TMC3    O2 9552   2.395   1.045   9.208  0.6938 -0.2965 -0.8297
  642TMC3    C1 9553   2.853   2.852  12.417 -0.5708 -0.2648 -0.1982
  642TMC3    C2 9554   2.985   2.858  12.375 -0.0332  0.0336 -0.0184
  642TMC3    C3 9555   3.034   2.744  12.312  0.4750  0.2173  0.8533
  642TMC3    C4 9556   2.773   2.738  12.406 -0.1063  0.8449  0.0037
  642TMC3    C5 9557   2.825   2.633  12.339  0.3515  0.4279 -0.5456
  642TMC3    C6 9558   2.959   2.629  12.299 -0.5264 -0.6322 -0.0889
  642TMC3     C 9559   2.811   2.956  12.516 -0.0316 -0.6838 -0.0710
  642TMC3     O 9560   2.908   3.004  12.575 -0.1288  0.1127 -0.1270
  642TMC3     H 9561   3.043   2.945  12.406 -1.8729  0.5461  1.9945
  642TMC3    H1 9562   2.667   2.732  12.427 -0.2311  2.1701 -0.2077
  642TMC3    H2 9563   2.997   2.540  12.250  1.6691 -0.4351  1.3036
  642TMC3    C7 9564   2.760   2.505  12.334 -0.0117 -0.0579 -0.0458
  642TMC3    C8 9565   3.160   2.737  12.245 -0.7681  0.6399  0.9968
  642TMC3    O1 9566   2.787   2.444  12.230  0.5004 -0.0183 -0.7875
  642TMC3    O2 9567   3.185   2.645  12.172  0.3621 -0.9507  0.1986
  643TMC3    C1 9568   2.172   1.756  17.337  0.4295  0.7652 -0.6677
  643TMC3    C2 9569   2.066   1.761  17.250  0.6379 -0.4388 -0.7261
  643TMC3    C3 9570   2.088   1.771  17.114  0.0599 -0.1345 -0.0231
  643TMC3    C4 9571   2.300   1.777  17.293 -0.0438  0.2650 -0.2181
  643TMC3    C5 9572   2.322   1.782  17.157 -0.4744 -0.3830 -0.0600
  643TMC3    C6 9573   2.217   1.787  17.066  0.1025  0.0424 -0.2506
  643TMC3     C 9574   2.149   1.717  17.472  0.2656 -0.2046  0.0893
  643TMC3     O 9575   2.031   1.699  17.496 -0.4173  0.0916 -0.3247
  643TMC3     H 9576   1.962   1.752  17.279  0.5956  0.5767 -0.5858
  643TMC3    H1 9577   2.385   1.787  17.359  2.1762 -1.7544 -2.7575
  643TMC3    H2 9578   2.227   1.800  16.959 -0.1619  1.1740 -0.1357
  643TMC3    C7 9579   2.449   1.827  17.099 -0.1061 -0.6616 -0.9755
  643TMC3    C8 9580   1.984   1.843  17.036  0.4637 -0.6795  0.7000
  643TMC3    O1 9581   2.444   1.916  17.019 -0.1799  0.3347  0.4864
  643TMC3    O2 9582   1.875   1.787  17.031 -0.1456  0.7997 -0.0437
  644MPD2     C 9583   2.967   2.117   9.989  0.2670 -0.1954 -0.1058
  644MPD2    C1 9584   2.987   1.987   9.951  0.7270 -0.1142  0.0643
  644MPD2    C2 9585   3.091   1.960   9.864  0.2763 -0.6026 -0.2954
  644MPD2    C3 9586   3.165   2.069   9.811 -0.1902  0.2275  0.3918
  644MPD2    C4 9587   3.140   2.197   9.839 -0.6998  0.1530 -0.0528
  644MPD2    C5 9588   3.041   2.216   9.935  0.1218 -0.0841  0.4126
  644MPD2     H 9589   3.101   1.861   9.820  3.3002 -0.1800 -0.5855
  644MPD2    H1 9590   3.191   2.285   9.804 -0.5338 -0.7707 -2.1097
  644MPD2    H2 9591   2.889   2.149  10.057 -0.2345  0.1484 -0.8388
  644MPD2    H3 9592   3.028   2.316   9.976 -0.1811  0.2052 -0.3914
  644MPD2     N 9593   3.265   2.034   9.720 -0.5731 -0.2952 -0.7392
  644MPD2    H5 9594   3.271   1.936   9.694  0.7074 -0.3680 -0.1763
  644MPD2    N1 9595   2.916   1.882  10.010  0.0942  1.1064 -0.9640
  644MPD2    H7 9596   2.853   1.899  10.087  0.1944 -0.6363 -0.5083
  645TMC3    C1 9597   3.462   2.056   9.576  0.2131  0.2513  0.4531
  645TMC3    C2 9598   3.439   1.941   9.496 -0.0959 -0.7865  0.0012
  645TMC3    C3 9599   3.530   1.899   9.400 -0.0141  0.7845  0.6693
  645TMC3    C4 9600   3.571   2.131   9.543 -0.9753 -0.6460  0.3501
  645TMC3    C5 9601   3.654   2.087   9.443  0.0965  0.1605 -0.1187
  645TMC3    C6 9602   3.644   1.971   9.372  0.0239 -0.1829 -0.1034
  645TMC3     C 9603   3.361   2.123   9.665  0.4716  0.0854  0.1808
  645TMC3     O 9604   3.378   2.238   9.699  0.1468 -0.2919 -0.0862
  645TMC3     H 9605   3.345   1.889   9.508 -0.6819  0.6555  1.5685
  645TMC3    H1 9606   3.598   2.223   9.593 -0.6852 -0.8286  0.5328
  645TMC3    H2 9607   3.717   1.937   9.301  1.3261 -1.8833  2.0438
  645TMC3    C7 9608   3.785   2.157   9.427 -0.3873  0.5302 -0.2010
  645TMC3    C8 9609   3.515   1.769   9.336  0.0475 -0.4688  0.2185
  645TMC3    O1 9610   3.873   2.093   9.372 -0.9139  0.0614 -0.7091
  645TMC3    O2 9611   3.413   1.715   9.362 -0.1822 -0.5477 -0.2358
  646MPD2     C 9612   1.754   1.520  14.350 -0.3051  0.2442 -0.1015
  646MPD2    C1 9613   1.669   1.518  14.457 -0.2049  0.8365  0.0299
  646MPD2    C2 9614   1.545   1.580  14.451  0.2719 -0.3182 -0.8029
  646MPD2    C3 9615   1.520   1.661  14.343 -0.3584 -0.8901  1.1588
  646MPD2    C4 9616   1.607   1.667  14.236 -0.4639 -0.2304 -0.8768
  646MPD2    C5 9617   1.715   1.583  14.236  0.4503 -0.3547  0.5086
  646MPD2     H 9618   1.477   1.577  14.535  2.6428  0.5999  1.1569
  646MPD2    H1 9619   1.572   1.717  14.146 -1.9392  0.4715  0.0737
  646MPD2    H2 9620   1.847   1.464  14.352  0.1369  0.9684 -0.5670
  646MPD2    H3 9621   1.778   1.576  14.148  0.6989  1.2407  0.5489
  646MPD2     N 9622   1.396   1.726  14.337 -0.7592 -0.5913  0.0757
  646MPD2    H5 9623   1.327   1.695  14.404  0.4944  0.5280  1.8904
  646MPD2    N1 9624   1.730   1.459  14.573 -0.4539  0.3611 -0.2326
  646MPD2    H7 9625   1.823   1.420  14.559 -0.8804 -0.5760 -0.4198
  647TMC3    C1 9626   1.779   1.386  14.792  0.3027  0.6875 -0.3332
  647TMC3    C2 9627   1.741   1.354  14.922  0.0035 -0.0922 -0.0936
  647TMC3    C3 9628   1.837   1.293  15.005 -0.2395 -0.3372 -0.3802
  647TMC3    C4 9629   1.910   1.371  14.751 -0.6356 -0.0729 -0.2800
  647TMC3    C5 9630   2.002   1.307  14.840 -0.4093 -0.5491  0.0077
  647TMC3    C6 9631   1.964   1.270  14.965  0.1709  0.9297 -0.6489
  647TMC3     C 9632   1.684   1.454  14.704 -0.2782  0.3692 -0.3008
  647TMC3     O 9633   1.572   1.476  14.744  0.5284  0.3439 -0.4049
  647TMC3     H 9634   1.634   1.360  14.943  0.5679  1.3798  2.4054
  647TMC3    H1 9635   1.947   1.410  14.657  1.4225 -2.2037 -0.3623
  647TMC3    H2 9636   2.039   1.221  15.025  0.4452  2.7811  0.5317
  647TMC3    C7 9637   2.131   1.260  14.800 -0.9881  0.3299 -0.5999
  647TMC3    C8 9638   1.785   1.191  15.100  0.0141  0.5891 -0.1479
  647TMC3    O1 9639   2.207   1.249  14.891  0.4061 -0.3622  0.1842
  647TMC3    O2 9640   1.846   1.175  15.206 -0.1410 -0.4162  0.5620
  648TMC3    C1 9641   0.944   3.850  15.811 -0.2389  0.1480 -0.2458
  648TMC3    C2 9642   1.004   3.738  15.751 -0.5171  0.3948  0.1437
  648TMC3    C3 9643   1.025   3.751  15.616 -0.0713  0.4214 -0.3050
  648TMC3    C4 9644   0.914   3.964  15.748 -0.1717  0.2315  0.1574
  648TMC3    C5 9645   0.929   3.963  15.613 -0.5080  0.0558 -0.4195
  648TMC3    C6 9646   1.000   3.865  15.545 -0.4394 -0.1483  0.4049
  648TMC3     C 9647   0.932   3.850  15.955  0.2023 -0.9809  0.3241
  648TMC3     O 9648   0.939   3.967  15.994 -0.5134 -0.0328  0.4861
  648TMC3     H 9649   1.032   3.659  15.819  1.0762  0.7275 -0.1155
  648TMC3    H1 9650   0.864   4.050  15.791  0.6819  0.1249  1.3723
  648TMC3    H2 9651   1.031   3.879  15.442 -3.2020 -5.1677 -1.1077
  648TMC3    C7 9652   0.922   4.087  15.532 -0.1624  0.0787  0.4236
  648TMC3    C8 9653   1.098   3.644  15.552  0.3550 -0.2004 -0.3842
  648TMC3    O1 9654   0.924   4.072  15.408  0.5265 -0.1305  0.5494
  648TMC3    O2 9655   1.151   3.664  15.445 -0.0620  0.3977  1.2047
  649TMC3    C1 9656   4.261   0.438  12.470 -0.6622 -0.3442  0.0138
  649TMC3    C2 9657   4.326   0.367  12.374  0.2137 -0.1825 -0.4241
  649TMC3    C3 9658   4.445   0.311  12.405 -0.6627 -0.7063  0.7536
  649TMC3    C4 9659   4.318   0.460  12.592  0.8964 -0.3763  0.0829
  649TMC3    C5 9660   4.437   0.405  12.616 -0.3821  0.5564 -0.1215
  649TMC3    C6 9661   4.511   0.338  12.522 -0.3110 -0.8551  0.1898
  649TMC3     C 9662   4.143   0.513  12.431 -0.4013 -0.2544 -0.2270
  649TMC3     O 9663   4.109   0.602  12.507 -0.5243  0.7783 -0.0902
  649TMC3     H 9664   4.283   0.367  12.275  2.0634  0.8106 -1.2078
  649TMC3    H1 9665   4.262   0.515  12.668 -1.0477 -0.2228 -1.4689
  649TMC3    H2 9666   4.605   0.289  12.542  1.0813  1.0741 -1.5553
  649TMC3    C7 9667   4.491   0.414  12.754 -0.1038  0.4470  0.1918
  649TMC3    C8 9668   4.497   0.201  12.320  0.1576  0.6852 -0.0464
  649TMC3    O1 9669   4.422   0.475  12.837 -0.2389  0.0037 -0.2346
  649TMC3    O2 9670   4.615   0.157  12.325 -0.0127 -0.4733  0.3523
  650TMC3    C1 9671   2.026   2.219  12.688  0.5312  0.2436  0.3895
  650TMC3    C2 9672   1.909   2.288  12.719 -0.0970 -0.2459 -0.1085
  650TMC3    C3 9673   1.833   2.334  12.613  0.3691 -0.5036  0.6950
  650TMC3    C4 9674   2.084   2.232  12.566 -0.2737  0.5181 -0.3303
  650TMC3    C5 9675   2.007   2.272  12.468  0.1570  0.2894  0.7497
  650TMC3    C6 9676   1.878   2.307  12.489 -0.4990  0.3331 -0.7318
  650TMC3     C 9677   2.111   2.194  12.802 -0.9116 -0.3987  0.1956
  650TMC3     O 9678   2.057   2.208  12.912 -0.1550  0.1449 -0.3439
  650TMC3     H 9679   1.870   2.293  12.820  1.6018 -0.0959  0.5421
  650TMC3    H1 9680   2.191   2.244  12.562 -0.4517  0.9146 -3.8695
  650TMC3    H2 9681   1.820   2.339  12.403 -1.4599 -0.0911 -0.2379
  650TMC3    C7 9682   2.079   2.334  12.360  0.0233  0.1986  0.1472
  650TMC3    C8 9683   1.788   2.468  12.623  0.1525  0.3772  0.3617
  650TMC3    O1 9684   2.177   2.283  12.317  0.0768  0.2778 -0.6867
  650TMC3    O2 9685   1.812   2.547  12.530  0.5237 -0.1009 -0.8641
  651MPD2     C 9686   1.281   4.016  10.666 -0.2284  0.7230 -0.0154
  651MPD2    C1 9687   1.289   4.074  10.791 -0.4484  0.4355  0.2828
  651MPD2    C2 9688   1.412   4.120  10.841  0.0247  0.0855  0.2381
  651MPD2    C3 9689   1.525   4.096  10.764 -0.1585  0.1770 -0.5809
  651MPD2    C4 9690   1.514   4.040  10.634  0.3174 -0.9205  0.3983
  651MPD2    C5 9691   1.393   4.005  10.585  0.5194  0.3808  0.0532
  651MPD2     H 9692   1.432   4.162  10.939  0.0809 -1.8583  1.0643
  651MPD2    H1 9693   1.594   4.013  10.566  0.0082 -1.6627  0.3299
  651MPD2    H2 9694   1.185   3.979  10.631  0.0447 -1.3073  1.3900
  651MPD2    H3 9695   1.378   3.959  10.488  1.1139  0.1950  0.0477
  651MPD2     N 9696   1.653   4.123  10.826 -0.1620  0.2355 -0.1361
  651MPD2    H5 9697   1.645   4.141  10.926  0.1087  2.5182 -0.5307
  651MPD2    N1 9698   1.175   4.076  10.871  0.4370  0.2519  0.4758
  651MPD2    H7 9699   1.185   4.129  10.957  1.2988  1.1076 -0.1644
  652TMC3    C1 9700   2.109   4.199  10.777  0.4848  0.0987 -0.5450
  652TMC3    C2 9701   2.000   4.120  10.774 -0.3093  0.0761  0.2036
  652TMC3    C3 9702   1.883   4.171  10.825 -0.2337  0.2149  0.6725
  652TMC3    C4 9703   2.118   4.308  10.860 -0.1655 -0.1225 -0.0847
  652TMC3    C5 9704   2.004   4.347  10.925 -0.0478 -0.3811 -0.3245
  652TMC3    C6 9705   1.880   4.291  10.900 -0.0025  0.3666 -1.1990
  652TMC3     C 9706   2.228   4.140  10.729  0.6632  0.0658 -0.4630
  652TMC3     O 9707   2.233   4.017  10.722  0.2448  0.1821 -0.3324
  652TMC3     H 9708   1.992   4.042  10.699 -0.2044 -1.1880  1.5056
  652TMC3    H1 9709   2.216   4.350  10.880 -1.2670  2.7523 -0.6458
  652TMC3    H2 9710   1.784   4.327  10.933  1.1930  1.1225  1.5269
  652TMC3    C7 9711   2.016   4.471  10.996  0.3374 -0.0517 -0.1935
  652TMC3    C8 9712   1.763   4.137  10.748 -0.0725 -0.5201  0.1366
  652TMC3    O1 9713   1.935   4.505  11.080  0.2241 -0.4220 -0.3077
  652TMC3    O2 9714   1.784   4.116  10.633 -0.4987  0.1117  0.1151
  653MPD2     C 9715   0.273   3.874  17.556 -0.6150 -0.1405  0.0831
  653MPD2    C1 9716   0.220   3.958  17.456  0.3945 -0.2797 -0.0224
  653MPD2    C2 9717   0.160   3.890  17.344  0.2845  0.4881 -0.1969
  653MPD2    C3 9718   0.146   3.750  17.342 -0.5143  1.0675 -0.2188
  653MPD2    C4 9719   0.185   3.679  17.453  0.3030 -0.1801 -0.2583
  653MPD2    C5 9720   0.253   3.740  17.554  0.1613 -0.3416  0.0430
  653MPD2     H 9721   0.117   3.951  17.265  1.1430 -0.6311 -1.5220
  653MPD2    H1 9722   0.166   3.573  17.459 -1.0138  0.0599 -0.2407
  653MPD2    H2 9723   0.332   3.904  17.642  1.1361 -0.1260 -1.1159
  653MPD2    H3 9724   0.285   3.678  17.638  0.6308 -1.3975 -0.9132
  653MPD2     N 9725   0.069   3.696  17.235 -0.6939 -0.0682 -0.4161
  653MPD2    H5 9726   0.031   3.765  17.171  0.0178 -0.4989 -1.2953
  653MPD2    N1 9727   0.221   4.100  17.452 -0.5561 -0.4085 -0.3593
  653MPD2    H7 9728   0.191   4.153  17.371 -3.2756  0.1794  1.0253
  654TMC3    C1 9729   4.691   3.521  17.116  1.3923 -0.0182  0.1055
  654TMC3    C2 9730   4.634   3.618  17.039  0.4006 -0.0496 -0.1278
  654TMC3    C3 9731   4.583   3.586  16.920 -0.0827  0.6128 -0.6571
  654TMC3    C4 9732   4.728   3.407  17.060 -0.2825 -0.1558  0.7540
  654TMC3    C5 9733   4.672   3.373  16.942 -0.1289 -0.1706 -0.2424
  654TMC3    C6 9734   4.593   3.463  16.873 -0.2504 -0.5775 -0.1942
  654TMC3     C 9735   0.040   3.558  17.227  0.4168  0.2348 -0.1394
  654TMC3     O 9736   0.093   3.467  17.289 -0.2223  0.3108 -0.0138
  654TMC3     H 9737   4.627   3.718  17.080  0.2708  0.7803 -2.1641
  654TMC3    H1 9738   0.044   3.332  17.115  1.1446 -0.1508 -0.7382
  654TMC3    H2 9739   4.554   3.447  16.774  1.6259 -1.8023 -0.7448
  654TMC3    C7 9740   4.716   3.262  16.866  0.5923 -0.6079  0.5281
  654TMC3    C8 9741   4.482   3.672  16.866  0.3819  0.3513 -0.3228
  654TMC3    O1 9742   4.695   3.274  16.746  0.2979 -0.2418 -0.3135
  654TMC3    O2 9743   4.418   3.627  16.773 -0.2469  0.3751 -0.1713
  655MPD2     C 9744   1.438   3.792  15.571  0.0210 -0.1192 -1.2901
  655MPD2    C1 9745   1.445   3.915  15.506  0.1206 -0.0580 -0.0846
  655MPD2    C2 9746   1.515   3.924  15.389  0.2666  0.0102  0.0161
  655MPD2    C3 9747   1.571   3.814  15.331  0.1504  0.5638  0.6806
  655MPD2    C4 9748   1.582   3.696  15.399 -0.0095 -0.0985  0.6380
  655MPD2    C5 9749   1.515   3.684  15.521 -0.0174 -0.5471 -0.5279
  655MPD2     H 9750   1.532   4.023  15.349  0.1357  0.5163  1.2248
  655MPD2    H1 9751   1.651   3.619  15.366 -0.9415 -0.2324 -0.9935
  655MPD2    H2 9752   1.384   3.782  15.665  2.1366 -0.8468 -0.1564
  655MPD2    H3 9753   1.516   3.592  15.578 -1.7709  2.3953  4.3007
  655MPD2     N 9754   1.647   3.813  15.210  0.4514  0.4035 -0.2538
  655MPD2    H5 9755   1.690   3.725  15.184  0.7670 -0.3313  2.7355
  655MPD2    N1 9756   1.393   4.035  15.563 -0.5574  0.2854  0.3488
  655MPD2    H7 9757   1.393   4.115  15.500  1.9268  0.4011  0.4768
  656TMC3    C1 9758   1.272   4.183  15.697 -0.5058  0.0266  0.3585
  656TMC3    C2 9759   1.196   4.210  15.810  0.3498 -0.4049 -0.1092
  656TMC3    C3 9760   1.167   4.335  15.843 -0.1502  0.2225 -0.4153
  656TMC3    C4 9761   1.310   4.282  15.614  0.3576  0.0356  0.2468
  656TMC3    C5 9762   1.265   4.411  15.636  0.0464  0.8132  0.4192
  656TMC3    C6 9763   1.185   4.436  15.749 -0.0957 -0.2179 -0.3628
  656TMC3     C 9764   1.324   4.045  15.680 -0.0361  0.1072 -0.2170
  656TMC3     O 9765   1.296   3.971  15.771  0.2862 -0.3795 -0.3218
  656TMC3     H 9766   1.165   4.129  15.875 -1.2960  2.7000  2.9860
  656TMC3    H1 9767   1.362   4.269  15.519  1.5046  0.7238  0.7803
  656TMC3    H2 9768   1.156   4.537  15.777  0.9793  0.1167 -0.4738
  656TMC3    C7 9769   1.258   4.514  15.533 -1.4454 -0.7343 -0.8917
  656TMC3    C8 9770   1.045   4.341  15.909  0.3078 -0.2342  0.5209
  656TMC3    O1 9771   1.308   4.494  15.423  0.0367 -0.3739  0.4637
  656TMC3    O2 9772   0.971   4.241  15.896  0.1301  0.1464  0.2276
  657TMC3    C1 9773   0.126   3.341  14.697 -0.1910  1.0052  0.0872
  657TMC3    C2 9774   0.173   3.351  14.824  0.2546 -0.5822 -0.4533
  657TMC3    C3 9775   0.144   3.463  14.894  0.6948 -0.4624  0.2042
  657TMC3    C4 9776   0.063   3.451  14.639  0.2679  0.3047  0.0002
  657TMC3    C5 9777   0.028   3.557  14.718 -0.2628 -0.4476 -0.6713
  657TMC3    C6 9778   0.061   3.570  14.849 -0.0940 -0.5524 -0.1614
  657TMC3     C 9779   0.217   3.288  14.603  0.4475  0.2060  0.2585
  657TMC3     O 9780   0.216   3.342  14.493 -0.0263  0.1973 -0.8091
  657TMC3     H 9781   0.240   3.279  14.868  0.8700  0.1465 -0.2060
  657TMC3    H1 9782   0.036   3.445  14.534 -1.6288 -2.4032  0.6417
  657TMC3    H2 9783   0.044   3.662  14.903  3.8445 -0.6942  1.2894
  657TMC3    C7 9784   4.690   3.667  14.657  0.7781  0.0472 -0.3599
  657TMC3    C8 9785   0.189   3.481  15.032 -0.2381 -0.6758 -0.1296
  657TMC3    O1 9786   4.676   3.770  14.720  0.3536  0.1178  0.3511
  657TMC3    O2 9787   0.115   3.543  15.108 -0.0363  0.2634 -0.9600
  658MPD2     C 9788   1.936   4.292  14.614  0.2577 -0.1678 -0.5815
  658MPD2    C1 9789   1.845   4.194  14.581  0.6180 -0.1624  0.7092
  658MPD2    C2 9790   1.760   4.219  14.478 -0.2838  0.1358 -0.7187
  658MPD2    C3 9791   1.754   4.341  14.413  0.2766  0.5520 -0.4985
  658MPD2    C4 9792   1.840   4.439  14.454 -0.6772 -0.1955  0.0962
  658MPD2    C5 9793   1.935   4.413  14.553  0.4596 -0.2608 -0.0121
  658MPD2     H 9794   1.697   4.137  14.444 -1.6828  1.2641 -0.8263
  658MPD2    H1 9795   1.846   4.537  14.410 -0.9846  0.7356  2.1450
  658MPD2    H2 9796   1.995   4.284  14.704 -1.0616  0.2690  0.3124
  658MPD2    H3 9797   2.004   4.494  14.577  1.7757 -1.3426 -0.1528
  658MPD2     N 9798   1.653   4.368  14.315  0.5051  0.1151 -0.0190
  658MPD2    H5 9799   1.598   4.285  14.295  1.9575 -0.5272 -1.3401
  658MPD2    N1 9800   1.845   4.084  14.662 -0.4262  0.8960  0.3904
  658MPD2    H7 9801   1.919   4.078  14.731  0.1316  0.1743 -0.2654
  659TMC3    C1 9802   1.780   3.879  14.761  0.1272  0.2206 -0.0961
  659TMC3    C2 9803   1.762   3.932  14.891 -0.3989  0.3911  0.6524
  659TMC3    C3 9804   1.716   3.846  14.986  0.3537 -0.2538  0.7515
  659TMC3    C4 9805   1.739   3.761  14.731  0.4695 -0.1275  0.2202
  659TMC3    C5 9806   1.686   3.682  14.825  0.0940 -0.4530 -0.9020
  659TMC3    C6 9807   1.682   3.716  14.960  0.0670  0.2202 -0.5146
  659TMC3     C 9808   1.770   3.971  14.647  0.0700  0.3637  0.2296
  659TMC3     O 9809   1.685   3.942  14.563 -0.8169 -0.1734 -0.4139
  659TMC3     H 9810   1.780   4.036  14.912 -2.1303  0.6493  0.8080
  659TMC3    H1 9811   1.749   3.728  14.628  1.4215  0.9341 -0.0237
  659TMC3    H2 9812   1.640   3.646  15.031  0.2676  1.2873  0.6540
  659TMC3    C7 9813   1.553   3.639  14.788  0.2590 -0.1976 -0.9790
  659TMC3    C8 9814   1.652   3.908  15.112  0.8967  0.6737 -0.1066
  659TMC3    O1 9815   1.493   3.575  14.873  0.2846  0.0176  0.0121
  659TMC3    O2 9816   1.622   4.026  15.118  0.0343  0.3464  0.0170
  660MPD2     C 9817   3.980   3.172  12.197 -0.3558  0.0617 -0.3569
  660MPD2    C1 9818   3.868   3.224  12.260  0.1832 -0.0495 -0.2751
  660MPD2    C2 9819   3.833   3.178  12.388 -0.3326 -1.0993  0.3418
  660MPD2    C3 9820   3.918   3.094  12.454 -0.6724 -0.0948  0.5755
  660MPD2    C4 9821   4.022   3.035  12.391 -0.8575 -0.6743 -0.3128
  660MPD2    C5 9822   4.052   3.074  12.266  0.0504 -0.7773 -0.1730
  660MPD2     H 9823   3.745   3.221  12.435  0.8563  1.7360  0.0294
  660MPD2    H1 9824   4.078   2.951  12.431 -0.0445 -0.0521 -0.1284
  660MPD2    H2 9825   4.013   3.212  12.102  1.5824 -0.8573 -0.0508
  660MPD2    H3 9826   4.116   3.022  12.196 -1.2699 -2.0929 -0.4102
  660MPD2     N 9827   3.888   3.051  12.592  0.1685 -0.2377  0.3037
  660MPD2    H5 9828   3.955   2.989  12.635  0.1335  1.2347  2.5141
  660MPD2    N1 9829   3.802   3.319  12.181 -0.2705 -0.0243 -0.1828
  660MPD2    H7 9830   3.853   3.353  12.100 -2.3315 -1.2179 -1.9770
  661TMC3    C1 9831   3.637   3.479  12.120  0.5831  0.0097 -0.3726
  661TMC3    C2 9832   3.707   3.485  11.997 -0.4620  0.0830  0.2889
  661TMC3    C3 9833   3.631   3.518  11.889  0.6020 -0.1298 -0.7732
  661TMC3    C4 9834   3.504   3.509  12.128  0.3622  0.5184 -0.2031
  661TMC3    C5 9835   3.446   3.545  12.010 -0.2135  0.0541  0.6964
  661TMC3    C6 9836   3.502   3.545  11.885  0.2252 -0.2760 -0.6719
  661TMC3     C 9837   3.689   3.389  12.226 -1.0138 -0.4034 -0.4565
  661TMC3     O 9838   3.624   3.380  12.330  0.1581 -0.1476 -1.1245
  661TMC3     H 9839   3.812   3.462  11.987 -0.2308  0.3036  2.2924
  661TMC3    H1 9840   3.456   3.500  12.224  1.2772  1.2007  0.3187
  661TMC3    H2 9841   3.435   3.576  11.805 -2.0969 -1.1081  0.9376
  661TMC3    C7 9842   3.314   3.496  12.030 -1.0785  0.2453  0.6887
  661TMC3    C8 9843   3.696   3.509  11.756  1.1862  0.2516  0.4720
  661TMC3    O1 9844   3.227   3.562  12.090 -0.5489  0.2416 -0.3643
  661TMC3    O2 9845   3.796   3.445  11.750  0.1125 -0.3134 -0.3261
  662MPD2     C 9846   0.027   2.379  16.803  0.3548 -0.6531 -0.4791
  662MPD2    C1 9847   0.030   2.277  16.891  0.4277  0.2367 -0.6334
  662MPD2    C2 9848   4.680   2.281  16.997 -0.3409 -0.0566 -0.1632
  662MPD2    C3 9849   4.581   2.384  17.001 -0.0914 -0.0707  0.2365
  662MPD2    C4 9850   4.575   2.480  16.901 -0.0493 -0.5364 -0.2314
  662MPD2    C5 9851   4.680   2.487  16.813  0.0611 -0.0044 -0.0238
  662MPD2     H 9852   4.683   2.203  17.072  2.5552  0.6692  0.4600
  662MPD2    H1 9853   4.511   2.567  16.890 -0.2313 -0.6994 -0.4498
  662MPD2    H2 9854   0.094   2.380  16.718 -1.2443  0.9439 -1.7231
  662MPD2    H3 9855   4.686   2.565  16.737 -1.8956 -0.6630 -0.8476
  662MPD2     N 9856   4.493   2.399  17.104 -0.1358 -0.0596 -0.2796
  662MPD2    H5 9857   4.428   2.476  17.095  1.5021  1.2838 -0.6376
  662MPD2    N1 9858   0.127   2.173  16.862  0.5806  0.9116 -0.3250
  662MPD2    H7 9859   0.190   2.183  16.783 -0.8487 -0.0215 -1.5902
  663TMC3    C1 9860   0.216   1.961  16.897  0.3884  0.1248 -0.3930
  663TMC3    C2 9861   0.285   1.878  16.977 -0.3251 -0.0590  0.6556
  663TMC3    C3 9862   0.291   1.741  16.968 -0.3802  0.5507 -1.0610
  663TMC3    C4 9863   0.129   1.910  16.813 -0.3066 -0.0326  0.2310
  663TMC3    C5 9864   0.123   1.779  16.803 -0.8861  0.4047  0.0509
  663TMC3    C6 9865   0.211   1.695  16.864 -0.4572 -0.0210 -0.4284
  663TMC3     C 9866   0.168   2.084  16.957  0.2097  0.4674  0.3864
  663TMC3     O 9867   0.133   2.069  17.073 -0.1583  0.0619  0.6055
  663TMC3     H 9868   0.337   1.935  17.054 -1.7040  0.8541  0.8988
  663TMC3    H1 9869   0.047   1.969  16.774 -1.3548 -0.8209  1.2305
  663TMC3    H2 9870   0.201   1.588  16.849  1.8514 -0.5327  1.7826
  663TMC3    C7 9871   4.735   1.721  16.754  0.1095  0.2403 -0.5136
  663TMC3    C8 9872   0.255   1.672  17.088  0.2373  0.1482  0.3040
  663TMC3    O1 9873   4.657   1.783  16.680 -0.3676  0.4637  0.1063
  663TMC3    O2 9874   0.149   1.610  17.093  0.0736  0.0912 -0.3733
  664MPD2     C 9875   2.652   0.512  17.163 -0.3980 -0.0944 -0.4314
  664MPD2    C1 9876   2.749   0.590  17.211  0.3029 -0.2034 -0.4217
  664MPD2    C2 9877   2.815   0.555  17.328 -0.0911  0.2798  0.3932
  664MPD2    C3 9878   2.761   0.453  17.410 -0.3016 -0.0973  0.0123
  664MPD2    C4 9879   2.644   0.385  17.367 -0.2731 -0.0408 -0.4567
  664MPD2    C5 9880   2.597   0.410  17.242 -0.0510 -0.1735 -0.0231
  664MPD2     H 9881   2.908   0.608  17.344 -0.0697  0.6470 -1.0210
  664MPD2    H1 9882   2.595   0.306  17.422  0.7167 -0.0133  0.4764
  664MPD2    H2 9883   2.599   0.540  17.073 -1.3352  1.9871  0.7498
  664MPD2    H3 9884   2.514   0.350  17.205 -1.0380  0.4924  1.1125
  664MPD2     N 9885   2.825   0.417  17.528 -0.1971  0.1792 -0.5569
  664MPD2    H5 9886   2.893   0.479  17.573 -0.6208  0.9078 -0.9193
  664MPD2    N1 9887   2.806   0.697  17.138 -0.3548  0.3990  0.0783
  664MPD2    H7 9888   2.889   0.733  17.185 -1.3643  1.4295  1.0778
  665TMC3    C1 9889   2.843   0.340  17.745  0.1028  0.1563 -0.5492
  665TMC3    C2 9890   2.771   0.282   0.089 -0.4366  0.0099  0.5688
  665TMC3    C3 9891   2.784   0.336   0.215 -0.7013  0.3680 -0.3523
  665TMC3    C4 9892   2.916   0.452   0.009  0.5241  0.3419  1.1054
  665TMC3    C5 9893   2.922   0.503   0.140  0.2387 -0.4663 -0.9348
  665TMC3    C6 9894   2.852   0.450   0.240 -0.9039  0.5331  0.1634
  665TMC3     C 9895   2.778   0.320  17.618  0.1351  0.1631 -0.8637
  665TMC3     O 9896   2.681   0.241  17.617  0.2055 -0.8257 -0.2191
  665TMC3     H 9897   2.713   0.192   0.070  0.3887 -0.4025  0.0232
  665TMC3    H1 9898   2.983   0.482  17.689 -2.1652  0.3197 -1.1463
  665TMC3    H2 9899   2.859   0.501   0.335  1.2217 -2.3936  1.5673
  665TMC3    C7 9900   2.960   0.643   0.142  0.2746  0.4159  0.1400
  665TMC3    C8 9901   2.676   0.311   0.309 -0.0784 -0.1800 -0.2329
  665TMC3    O1 9902   3.000   0.687   0.032  0.0518 -0.2433  0.2826
  665TMC3    O2 9903   2.648   0.400   0.389  0.4650 -0.5547  0.4031
  666TMC3    C1 9904   1.789   0.577  10.149  0.7865 -0.3159 -0.0617
  666TMC3    C2 9905   1.915   0.550  10.192 -0.1520  0.2305 -0.4358
  666TMC3    C3 9906   2.016   0.627  10.138 -0.2803 -0.2734  1.1870
  666TMC3    C4 9907   1.768   0.676  10.052 -0.0270  0.1114 -0.2796
  666TMC3    C5 9908   1.876   0.751  10.004  0.9024  0.5172  0.1153
  666TMC3    C6 9909   2.006   0.720  10.040  0.5053 -0.2360 -0.1823
  666TMC3     C 9910   1.673   0.524  10.210  0.3821  0.1888  0.1314
  666TMC3     O 9911   1.574   0.603  10.200  0.5035  0.5757 -0.0680
  666TMC3     H 9912   1.929   0.501  10.287  1.0433  1.5061  0.0569
  666TMC3    H1 9913   1.667   0.708  10.032 -0.6832 -2.1220 -0.4995
  666TMC3    H2 9914   2.091   0.771   9.997 -0.9573  1.4293 -1.0751
  666TMC3    C7 9915   1.846   0.895   9.968 -0.1581  0.3683  0.0353
  666TMC3    C8 9916   2.152   0.592  10.185  0.2128 -0.0036 -0.5058
  666TMC3    O1 9917   1.730   0.936   9.978  0.2188  0.2647 -0.1735
  666TMC3    O2 9918   2.157   0.498  10.260  0.6123  0.4722  0.8001
  667MPD2     C 9919   3.433   0.645  14.596 -0.4299  0.5957  0.7384
  667MPD2    C1 9920   3.476   0.544  14.682  0.1496  0.2868  0.0931
  667MPD2    C2 9921   3.438   0.416  14.661  0.4824 -0.8194  0.4412
  667MPD2    C3 9922   3.344   0.390  14.558 -0.2321  1.4030 -0.3630
  667MPD2    C4 9923   3.310   0.492  14.477 -0.6307  0.5834 -0.8036
  667MPD2    C5 9924   3.354   0.618  14.489  0.3233  0.4454  0.0861
  667MPD2     H 9925   3.471   0.336  14.726 -1.9470 -1.8240  0.4355
  667MPD2    H1 9926   3.254   0.483  14.384  0.4678 -1.7489 -1.2248
  667MPD2    H2 9927   3.444   0.752  14.610  2.0078  0.6542 -1.4760
  667MPD2    H3 9928   3.336   0.696  14.415 -2.8486 -2.7473 -2.5162
  667MPD2     N 9929   3.280   0.265  14.543  0.2603 -0.0779  0.8223
  667MPD2    H5 9930   3.207   0.256  14.473  0.8122 -1.2751  0.3983
  667MPD2    N1 9931   3.569   0.568  14.787  0.0453  0.4004 -0.2610
  667MPD2    H7 9932   3.586   0.495  14.855 -0.0302  0.2723 -0.3796
  668TMC3    C1 9933   3.695   0.692  14.933 -0.3263  0.6668 -0.8267
  668TMC3    C2 9934   3.766   0.810  14.940 -0.1276  0.3517  0.0865
  668TMC3    C3 9935   3.739   0.896  15.037  0.8304 -0.4626  0.4629
  668TMC3    C4 9936   3.600   0.666  15.027  0.3068  0.2200 -0.1392
  668TMC3    C5 9937   3.585   0.762  15.124 -0.8862 -0.3438  0.4259
  668TMC3    C6 9938   3.654   0.877  15.134  0.0259  0.3372  0.1727
  668TMC3     C 9939   3.649   0.680  14.803  0.4582  0.0463  0.0921
  668TMC3     O 9940   3.672   0.776  14.731  0.6885 -0.1204  0.1390
  668TMC3     H 9941   3.842   0.822  14.863 -0.3501 -1.8860 -0.4905
  668TMC3    H1 9942   3.555   0.568  15.029  1.0668 -0.2090 -2.9811
  668TMC3    H2 9943   3.635   0.951  15.211 -0.6128 -1.4556  1.7427
  668TMC3    C7 9944   3.463   0.755  15.199  0.9801 -0.0865  0.7750
  668TMC3    C8 9945   3.772   1.029  15.012 -0.3918  0.2455  0.0170
  668TMC3    O1 9946   3.451   0.809  15.308  0.0829  0.6131 -0.0878
  668TMC3    O2 9947   3.776   1.105  15.107 -0.5462 -0.1209 -0.3301
  669TMC3    C1 9948   1.591   0.519  14.572 -0.3051  0.1574  0.2906
  669TMC3    C2 9949   1.477   0.532  14.494  0.8368  0.5207 -0.6252
  669TMC3    C3 9950   1.472   0.614  14.393 -0.3011 -0.1144  0.0393
  669TMC3    C4 9951   1.702   0.599  14.555  1.2259  0.4214  0.5587
  669TMC3    C5 9952   1.679   0.704  14.460  0.2467  0.4103 -0.2977
  669TMC3    C6 9953   1.574   0.710  14.374  0.1772  0.1541 -0.1340
  669TMC3     C 9954   1.593   0.422  14.673 -0.8063 -0.5484  0.3784
  669TMC3     O 9955   1.480   0.393  14.714 -0.1421 -0.6763 -0.2818
  669TMC3     H 9956   1.393   0.463  14.504  1.2730 -0.0572 -0.9041
  669TMC3    H1 9957   1.796   0.595  14.610  0.7869 -1.4771  1.1711
  669TMC3    H2 9958   1.563   0.772  14.286  0.1768 -0.8178 -0.8232
  669TMC3    C7 9959   1.795   0.780  14.415  0.1594  0.1515  0.2839
  669TMC3    C8 9960   1.341   0.643  14.339  0.0559  0.1800 -0.5645
  669TMC3    O1 9961   1.764   0.869  14.338  0.1346  0.2104 -0.0795
  669TMC3    O2 9962   1.264   0.547  14.324  0.0623 -0.2378  0.0665
  670MPD2     C 9963   4.264   3.276  13.448 -0.1066  0.2441  0.4848
  670MPD2    C1 9964   4.375   3.262  13.525 -0.5051  0.5400  0.2243
  670MPD2    C2 9965   4.363   3.226  13.662  0.0534  0.9126 -0.4950
  670MPD2    C3 9966   4.244   3.184  13.714  0.6806 -0.4546 -0.4694
  670MPD2    C4 9967   4.131   3.199  13.632  0.4994 -0.3943  0.2001
  670MPD2    C5 9968   4.139   3.250  13.500  0.4447 -0.7253 -0.2707
  670MPD2     H 9969   4.454   3.220  13.720  0.9151  1.0221 -1.8422
  670MPD2    H1 9970   4.027   3.189  13.660  0.5987 -0.1586  0.6513
  670MPD2    H2 9971   4.256   3.318  13.348 -1.7549  1.1478  0.9954
  670MPD2    H3 9972   4.057   3.265  13.431 -0.7065 -0.7092  1.1158
  670MPD2     N 9973   4.246   3.145  13.854 -0.4397 -0.4431 -0.0910
  670MPD2    H5 9974   4.333   3.161  13.904 -0.7821  1.7101 -0.1544
  670MPD2    N1 9975   4.507   3.284  13.476 -0.2721  0.3912 -0.4934
  670MPD2    H7 9976   4.589   3.296  13.535 -0.8073  0.2320  0.2769
  671TMC3    C1 9977   4.137   3.071  14.064  0.0290  0.0011  0.6986
  671TMC3    C2 9978   4.257   3.058  14.118 -0.1726 -0.1919 -0.0811
  671TMC3    C3 9979   4.265   2.999  14.245 -0.5224 -0.0142  0.0531
  671TMC3    C4 9980   4.019   3.019  14.116 -0.2548  0.3646  0.1735
  671TMC3    C5 9981   4.034   2.959  14.240  0.1912 -0.2072 -0.4148
  671TMC3    C6 9982   4.150   2.958  14.312 -0.5022  0.5222 -0.3715
  671TMC3     C 9983   4.131   3.101  13.921  0.2728  0.3386  0.3957
  671TMC3     O 9984   4.019   3.093  13.880 -0.1316  0.3884  0.2572
  671TMC3     H 9985   4.347   3.099  14.072  2.1931 -1.1617  3.6745
  671TMC3    H1 9986   3.931   3.002  14.055  1.2014  1.6742 -2.2989
  671TMC3    H2 9987   4.146   2.883  14.391  0.7679  1.4679  0.5923
  671TMC3    C7 9988   3.940   2.845  14.244  0.6819  0.2891  0.0200
  671TMC3    C8 9989   4.386   2.939  14.286 -0.4596 -0.0852 -0.5291
  671TMC3    O1 9990   3.982   2.740  14.290 -0.2397 -0.2840 -0.2501
  671TMC3    O2 9991   4.478   2.936  14.205 -0.6481  0.0902  0.8725
  672MPD2     C 9992   4.699   3.862   0.621 -0.3717  0.0637 -0.1987
  672MPD2    C1 9993   0.068   3.781   0.580  0.1033  0.5220 -0.3770
  672MPD2    C2 9994   0.196   3.833   0.610 -0.0182 -0.0556 -0.7689
  672MPD2    C3 9995   0.216   3.951   0.684 -0.3883 -0.6505  0.1363
  672MPD2    C4 9996   0.107   4.023   0.726 -0.8034 -0.3385  0.8758
  672MPD2    C5 9997   4.725   3.982   0.686  0.0937 -0.3041  0.1662
  672MPD2     H 9998   0.282   3.771   0.588 -0.5676 -0.8848 -0.5808
  672MPD2    H1 9999   0.102   4.116   0.782  0.5426  1.5943 -2.2360
  672MPD2    H210000   4.601   3.837   0.583 -0.9927  2.0250  0.1282
  672MPD2    H310001   4.634   4.032   0.717 -0.8448 -1.1729 -1.2120
  672MPD2     N10002   0.347   3.999   0.708 -0.1368 -0.0948  0.1592
  672MPD2    H510003   0.353   4.080   0.768 -1.6546  0.7511 -0.8215
  672MPD2    N110004   0.049   3.650   0.521  0.0992  0.0105 -0.6395
  672MPD2    H710005   4.692   3.635   0.497  0.6420 -0.3238 -2.6124
  673TMC3    C110006   0.093   3.434   0.438 -0.0965 -0.5007 -0.4340
  673TMC3    C210007   0.188   3.340   0.397 -0.1433  0.4330 -1.0103
  673TMC3    C310008   0.136   3.222   0.358 -0.4044 -0.1705  0.6914
  673TMC3    C410009   4.703   3.411   0.435  0.4005  0.0225  0.3993
  673TMC3    C510010   4.653   3.289   0.399 -0.4493  0.4926  0.1826
  673TMC3    C610011   0.004   3.195   0.372  0.1333 -0.1141 -0.5089
  673TMC3     C10012   0.144   3.560   0.481  0.3140 -0.5465  0.7167
  673TMC3     O10013   0.264   3.571   0.504  0.1882 -0.3330  0.0688
  673TMC3     H10014   0.291   3.373   0.385 -0.4235  1.7888  0.2892
  673TMC3    H110015   4.632   3.488   0.463  1.7305  2.0458 -1.8196
  673TMC3    H210016   4.700   3.099   0.349  0.3202  0.2394 -2.3408
  673TMC3    C710017   4.529   3.281   0.326 -0.1648 -0.5037  0.2413
  673TMC3    C810018   0.223   3.110   0.335 -0.7066 -0.2788 -0.6412
  673TMC3    O110019   4.486   3.170   0.291  0.0408  0.0423 -0.1101
  673TMC3    O210020   0.168   3.016   0.281  0.2138  0.6474 -0.0546
  674MPD2     C10021   0.058   2.598  17.211  0.4861  0.4193 -0.2838
  674MPD2    C110022   0.049   2.598  17.348  0.5610 -0.2747 -0.4177
  674MPD2    C210023   0.010   2.723  17.396 -0.0076  0.0288  0.1191
  674MPD2    C310024   4.736   2.842  17.321  0.3132 -0.4010 -0.0949
  674MPD2    C410025   0.006   2.829  17.185 -0.5308  0.1809  0.5919
  674MPD2    C510026   0.051   2.710  17.133  0.6850  0.1358  0.1821
  674MPD2     H10027   4.711   2.735  17.496 -1.3084  2.7630 -0.7290
  674MPD2    H110028   4.725   2.910  17.117  1.0995  0.9796  1.0338
  674MPD2    H210029   0.074   2.502  17.164 -0.4352 -0.7012  1.7126
  674MPD2    H310030   0.059   2.704  17.025  0.2670 -1.0270  0.2133
  674MPD2     N10031   4.714   2.965  17.393 -0.1913 -0.3199 -0.1986
  674MPD2    H510032   4.680   2.949  17.487  0.9026 -1.9949 -0.0796
  674MPD2    N110033   0.057   2.482  17.426  0.1816 -0.1133 -0.7755
  674MPD2    H710034   0.077   2.391  17.385  2.9384  0.1337  0.0149
  675TMC3    C110035   0.074   2.570  17.651 -0.3381 -0.7007  0.2814
  675TMC3    C210036   4.735   2.594   0.003 -0.3090  0.0194 -0.3107
  675TMC3    C310037   0.038   2.677   0.102 -0.3397 -0.9397  0.6035
  675TMC3    C410038   0.195   2.636  17.642  0.4805  0.2250 -0.2212
  675TMC3    C510039   0.227   2.730  17.742 -0.1129 -0.1853  0.0529
  675TMC3    C610040   0.157   2.745   0.091  0.0887  0.1193 -0.2447
  675TMC3     C10041   0.042   2.466  17.567  0.3185  0.2325  0.3156
  675TMC3     O10042   0.026   2.361  17.627 -0.9235  0.0478  0.6956
  675TMC3     H10043   4.647   2.533   0.019 -0.3117 -0.0173 -0.4672
  675TMC3    H110044   0.270   2.631  17.564 -0.2766  0.7674 -0.9823
  675TMC3    H210045   0.207   2.800   0.170  0.1249 -2.3945  1.4516
  675TMC3    C710046   0.318   2.834  17.704  0.2020  0.2047  0.7895
  675TMC3    C810047   4.723   2.653   0.233 -0.1320  0.0748 -0.3833
  675TMC3    O110048   0.424   2.805  17.649  0.2971  0.1842 -0.1947
  675TMC3    O210049   4.653   2.551   0.239 -0.0368 -0.0826 -0.2182
  676MPD2     C10050   2.755   1.857  11.173  0.0748  0.0767  0.0730
  676MPD2    C110051   2.621   1.812  11.168  0.1431  0.3779 -0.5006
  676MPD2    C210052   2.590   1.696  11.092 -0.0521  0.1704 -0.3251
  676MPD2    C310053   2.677   1.649  10.995 -0.2403  0.7678  0.2170
  676MPD2    C410054   2.800   1.713  10.983 -0.2874 -0.3613  0.0378
  676MPD2    C510055   2.835   1.809  11.076 -0.3843  0.4235 -0.2262
  676MPD2     H10056   2.485   1.670  11.099  0.3171 -1.2136 -0.0223
  676MPD2    H110057   2.871   1.687  10.907 -0.6143 -1.6224  0.1631
  676MPD2    H210058   2.794   1.941  11.229 -0.9147 -0.0995  1.0257
  676MPD2    H310059   2.935   1.845  11.053 -0.9511  3.6589  2.3421
  676MPD2     N10060   2.634   1.543  10.922 -0.2021 -0.0148  0.4116
  676MPD2    H510061   2.701   1.520  10.849 -1.7492  0.1823 -1.0784
  676MPD2    N110062   2.521   1.864  11.257  0.1208  0.4536  0.0299
  676MPD2    H710063   2.451   1.793  11.279  1.0731  0.3032  2.5183
  677TMC3    C110064   2.424   2.021  11.416  0.1709 -0.1807  0.4262
  677TMC3    C210065   2.307   1.946  11.420  0.4995  0.5941  0.2341
  677TMC3    C310066   2.217   1.985  11.520  0.1679 -0.7191 -0.1505
  677TMC3    C410067   2.454   2.124  11.493  0.1132  0.3978 -0.1231
  677TMC3    C510068   2.357   2.160  11.585  1.2221 -0.1298  0.7715
  677TMC3    C610069   2.243   2.083  11.607  0.0407  0.0011  0.1043
  677TMC3     C10070   2.534   1.991  11.324 -0.3082  0.1274  0.6112
  677TMC3     O10071   2.611   2.078  11.290  0.5928 -0.3306 -0.0338
  677TMC3     H10072   2.292   1.855  11.362  1.8359  1.3455 -1.2922
  677TMC3    H110073   2.560   2.142  11.502  0.3278 -1.1326  0.4060
  677TMC3    H210074   2.170   2.099  11.686  0.8412 -0.9695  1.0351
  677TMC3    C710075   2.393   2.237  11.699  0.0689  0.1532  0.3932
  677TMC3    C810076   2.143   1.873  11.571  0.7094  0.6411 -0.4067
  677TMC3    O110077   2.317   2.249  11.792  1.3953  0.0344  0.4427
  677TMC3    O210078   2.201   1.766  11.556 -0.2103  0.2153  0.0255
  678MPD2     C10079   4.016   1.540   1.083  0.4507 -0.3737  0.1118
  678MPD2    C110080   3.992   1.480   0.962  0.3688  0.6562  0.0718
  678MPD2    C210081   3.877   1.508   0.898 -0.0223 -0.4921  0.3196
  678MPD2    C310082   3.793   1.612   0.934 -0.4780 -0.5794  0.6329
  678MPD2    C410083   3.824   1.674   1.055 -0.3593  0.4262 -0.1572
  678MPD2    C510084   3.930   1.632   1.127  0.5750  0.5365 -0.1930
  678MPD2     H10085   3.855   1.453   0.808  1.3136  2.1394 -1.5894
  678MPD2    H110086   3.771   1.755   1.104  2.4711  3.0953 -1.5330
  678MPD2    H210087   4.102   1.508   1.140  1.0332 -0.6986 -0.9568
  678MPD2    H310088   3.953   1.691   1.215  1.9896  0.2525 -0.3768
  678MPD2     N10089   3.684   1.648   0.857  0.1820 -0.4583 -0.1877
  678MPD2    H510090   3.666   1.593   0.774 -0.6864 -0.9833  0.3488
  678MPD2    N110091   4.078   1.392   0.897  0.1063 -1.0091  0.5314
  678MPD2    H710092   4.039   1.350   0.813  3.3039 -3.0229  0.0728
  679TMC3    C110093   4.453   1.137   0.795  0.1046 -0.6035  0.7553
  679TMC3    C210094   4.388   1.214   0.889 -0.5008  0.9941  0.1183
  679TMC3    C310095   4.272   1.285   0.847  0.4433 -0.6993  0.5961
  679TMC3    C410096   4.410   1.122   0.666  0.1051  0.7826 -0.3593
  679TMC3    C510097   4.297   1.189   0.626  0.1427  0.3424 -0.4583
  679TMC3    C610098   4.228   1.276   0.713 -0.1970  0.0681 -0.4686
  679TMC3     C10099   4.571   1.061   0.827 -0.3282  0.5566 -0.2438
  679TMC3     O10100   4.558   0.944   0.786  0.1637 -0.6378  0.4489
  679TMC3     H10101   4.430   1.237   0.986  0.8704 -0.1876 -0.2030
  679TMC3    H110102   4.459   1.053   0.598  2.1733  1.6605  0.2448
  679TMC3    H210103   4.157   1.345   0.668 -0.2872 -0.5527 -1.2757
  679TMC3    C710104   4.281   1.215   0.484  0.0057 -0.5681  0.2800
  679TMC3    C810105   4.205   1.369   0.944 -0.3904 -0.3354  0.2399
  679TMC3    O110106   4.219   1.318   0.452  0.1304  0.8318 -0.0395
  679TMC3    O210107   4.259   1.385   1.054 -0.1413  0.6954  0.2403
  680MPD2     C10108   4.007   0.776  13.424  1.0593 -0.1550 -0.5444
  680MPD2    C110109   4.071   0.740  13.541  0.3152 -0.1661 -0.4955
  680MPD2    C210110   4.096   0.833  13.644  1.0622  0.4885 -0.6588
  680MPD2    C310111   4.066   0.968  13.628  0.1074  1.2361 -0.3543
  680MPD2    C410112   3.998   1.006  13.512  0.0927  0.1916  0.1616
  680MPD2    C510113   3.966   0.907  13.416 -0.3592 -0.1320 -0.6984
  680MPD2     H10114   4.134   0.797  13.740 -2.3300 -0.4507  0.3205
  680MPD2    H110115   3.959   1.106  13.502  0.0810  0.2837  1.1117
  680MPD2    H210116   3.984   0.716  13.337  1.1971 -0.1332 -0.5956
  680MPD2    H310117   3.904   0.936  13.332  2.0750  0.6532 -2.2232
  680MPD2     N10118   4.111   1.072  13.722 -0.5521  0.2374 -0.0234
  680MPD2    H510119   4.092   1.169  13.699  0.7150  1.3900  3.7610
  680MPD2    N110120   4.137   0.617  13.559 -0.6931  0.4612 -0.1363
  680MPD2    H710121   4.191   0.601  13.644 -1.9598  1.3552  0.8496
  681TMC3    C110122   4.245   0.418  13.515 -0.5358 -0.2395  0.1085
  681TMC3    C210123   4.272   0.392  13.652 -0.7414  0.4963  0.4053
  681TMC3    C310124   4.364   0.295  13.684  0.1711 -0.2463 -0.4955
  681TMC3    C410125   4.313   0.351  13.417 -0.0758 -0.0229  0.8841
  681TMC3    C510126   4.402   0.255  13.454 -0.2403 -0.7737 -0.2962
  681TMC3    C610127   4.430   0.226  13.588 -0.3236  0.9082  0.1102
  681TMC3     C10128   4.150   0.516  13.468  0.2870 -0.3040 -0.2175
  681TMC3     O10129   4.115   0.507  13.352 -0.5314  0.4448  0.1835
  681TMC3     H10130   4.211   0.445  13.725  0.2695  0.2251  1.4465
  681TMC3    H110131   4.316   0.395  13.318  0.5596  1.8389  1.7405
  681TMC3    H210132   4.502   0.149  13.614 -0.6895  0.6773  0.4412
  681TMC3    C710133   4.516   0.230  13.370 -0.7435 -0.2332  0.1057
  681TMC3    C810134   4.418   0.313  13.815  0.0055  0.2449 -0.0684
  681TMC3    O110135   4.608   0.169  13.424  0.0708  0.0200 -0.3802
  681TMC3    O210136   4.540   0.314  13.820 -0.4149 -0.0793  0.4969
  682MPD2     C10137   1.518   2.096  10.614 -0.3078  0.4799 -0.5115
  682MPD2    C110138   1.510   1.976  10.681  0.1825  0.2045  0.3878
  682MPD2    C210139   1.457   1.972  10.802 -0.1329 -0.1258 -0.1308
  682MPD2    C310140   1.402   2.090  10.860  0.4681 -0.5580 -0.1084
  682MPD2    C410141   1.416   2.209  10.793 -0.3693 -0.2091 -0.9837
  682MPD2    C510142   1.467   2.213  10.669  0.2872 -0.6953  0.1755
  682MPD2     H10143   1.436   1.877  10.850  0.2087  0.1568  0.5852
  682MPD2    H110144   1.381   2.304  10.832  1.0136 -0.0170 -0.2387
  682MPD2    H210145   1.545   2.100  10.509  0.8016  0.1270 -0.2336
  682MPD2    H310146   1.462   2.303  10.610  1.2620 -0.0571  1.0582
  682MPD2     N10147   1.368   2.071  10.997 -0.0884 -0.1082  0.9067
  682MPD2    H510148   1.385   1.979  11.036 -0.2188 -0.3561  0.3828
  682MPD2    N110149   1.537   1.856  10.618  0.2029 -1.0741  0.3313
  682MPD2    H710150   1.521   1.773  10.674 -1.3376 -0.6026  0.6023
  683TMC3    C110151   1.270   2.098  11.440  0.5932 -0.3760  0.2941
  683TMC3    C210152   1.253   1.960  11.441  0.3202 -0.5444 -0.7720
  683TMC3    C310153   1.223   1.906  11.321  0.4213  0.5692 -0.4809
  683TMC3    C410154   1.283   2.168  11.324 -0.8027 -0.0152  0.2536
  683TMC3    C510155   1.272   2.099  11.207 -0.1553 -0.1596 -0.2961
  683TMC3    C610156   1.247   1.964  11.200 -0.2151 -0.1429  0.9747
  683TMC3     C10157   1.317   2.159  11.567  0.7600 -0.4308 -0.0598
  683TMC3     O10158   1.300   2.279  11.580 -0.0890 -0.5069 -0.2433
  683TMC3     H10159   1.240   1.904  11.532  1.7547  0.2163 -0.1077
  683TMC3    H110160   1.299   2.275  11.328  0.2248 -0.0976 -1.5489
  683TMC3    H210161   1.238   1.908  11.108  0.2700  1.5987 -0.1255
  683TMC3    C710162   1.321   2.160  11.084 -0.0083 -0.0543  0.3057
  683TMC3    C810163   1.202   1.767  11.317  0.3035  0.2265  0.5649
  683TMC3    O110164   1.297   2.279  11.063 -0.3549  0.0771 -0.7273
  683TMC3    O210165   1.160   1.725  11.214 -0.3458 -0.0427 -0.3445
  684MPD2     C10166   0.181   0.841  16.237  0.6220 -0.3582  0.2755
  684MPD2    C110167   0.100   0.904  16.146  0.5574  0.1756  0.3537
  684MPD2    C210168   0.035   1.014  16.188 -0.6268  0.5387 -0.2326
  684MPD2    C310169   0.044   1.066  16.315  0.7352  0.4452 -0.0794
  684MPD2    C410170   0.111   0.994  16.411 -0.4996 -0.3092  0.5326
  684MPD2    C510171   0.190   0.883  16.365 -0.2883 -0.4048  0.3208
  684MPD2     H10172   4.718   1.074  16.118  2.1979  3.4046 -0.0979
  684MPD2    H110173   0.124   1.022  16.515  0.2956 -0.5861  0.5085
  684MPD2    H210174   0.240   0.751  16.225  1.4249  0.1702  0.2209
  684MPD2    H310175   0.251   0.821  16.430  0.2736  1.7355  1.8695
  684MPD2     N10176   4.730   1.185  16.359 -0.4887 -0.8422 -0.3929
  684MPD2    H510177   0.019   1.216  16.450 -1.4362 -0.8529 -0.0811
  684MPD2    N110178   0.091   0.858  16.013  0.0488 -0.2839 -0.0804
  684MPD2    H710179   0.027   0.910  15.954 -0.1615  0.7395  1.0593
  685TMC3    C110180   0.130   0.703  15.843 -0.2547  0.7184  0.0243
  685TMC3    C210181   0.032   0.770  15.774 -0.4502 -0.1272 -0.0191
  685TMC3    C310182   0.056   0.800  15.641  0.3533  0.2686 -0.8845
  685TMC3    C410183   0.240   0.657  15.771  0.2526 -0.0354  0.1383
  685TMC3    C510184   0.268   0.705  15.648 -0.4818  0.1428 -0.1116
  685TMC3    C610185   0.165   0.770  15.576 -0.7586  0.1426  0.4236
  685TMC3     C10186   0.177   0.759  15.967  0.1966 -0.0783  0.5396
  685TMC3     O10187   0.293   0.737  16.003  0.1533 -0.2179  0.0879
  685TMC3     H10188   4.684   0.789  15.833 -2.4818 -0.9747 -2.7873
  685TMC3    H110189   0.321   0.607  15.823 -0.6594 -1.1453  0.4947
  685TMC3    H210190   0.192   0.808  15.478 -0.8056 -2.5998 -0.6582
  685TMC3    C710191   0.390   0.782  15.647 -0.2268  0.2169  0.2782
  685TMC3    C810192   4.689   0.841  15.557  0.5872 -0.3917 -0.4690
  685TMC3    O110193   0.440   0.811  15.537  0.2303  0.0128  0.1994
  685TMC3    O210194   4.711   0.845  15.435  0.2795  0.0704 -0.8045
  686MPD2     C10195   1.664   1.433  15.644 -0.6152 -0.3343  0.4300
  686MPD2    C110196   1.544   1.369  15.631 -0.0047  0.7148  0.0637
  686MPD2    C210197   1.487   1.346  15.507  0.4327  0.2739  0.0390
  686MPD2    C310198   1.563   1.378  15.388 -0.0001 -0.4827 -0.3286
  686MPD2    C410199   1.691   1.430  15.404  0.6619 -0.0186  0.7592
  686MPD2    C510200   1.733   1.456  15.528  0.2762 -0.6370  0.0869
  686MPD2     H10201   1.389   1.301  15.497 -0.1608  1.4220  0.6673
  686MPD2    H110202   1.746   1.453  15.313  1.5998  0.1532  1.3750
  686MPD2    H210203   1.701   1.459  15.743  2.2223 -1.5050 -0.3259
  686MPD2    H310204   1.822   1.516  15.541  0.7158 -1.3329  0.2204
  686MPD2     N10205   1.513   1.354  15.255  0.6590 -0.5185 -0.0938
  686MPD2    H510206   1.560   1.401  15.179  0.4381 -0.7839 -0.3933
  686MPD2    N110207   1.488   1.329  15.754 -0.3065 -0.4417 -0.0331
  686MPD2    H710208   1.530   1.365  15.839 -0.2561  2.0660 -1.1046
  687TMC3    C110209   1.335   1.182  15.279 -0.7059 -0.1651  0.8114
  687TMC3    C210210   1.200   1.164  15.268 -0.6704  0.0238 -0.0480
  687TMC3    C310211   1.147   1.067  15.343 -0.2584 -0.2161  0.4418
  687TMC3    C410212   1.414   1.108  15.357 -0.0177 -0.3518  0.0964
  687TMC3    C510213   1.352   1.004  15.430  0.3073 -0.2036  0.1728
  687TMC3    C610214   1.219   0.989  15.423 -0.0932 -0.3992 -0.8786
  687TMC3     C10215   1.388   1.301  15.215 -1.0494  0.8813  0.2472
  687TMC3     O10216   1.332   1.325  15.110 -0.1166  0.4979  0.1606
  687TMC3     H10217   1.138   1.220  15.200  0.2341 -0.3233 -1.1619
  687TMC3    H110218   1.520   1.106  15.333  0.0416  0.9932  0.2560
  687TMC3    H210219   1.172   0.925  15.496 -0.9439  0.5747 -0.5833
  687TMC3    C710220   1.443   0.938  15.519 -0.1520  0.8018 -0.4229
  687TMC3    C810221   1.012   1.077  15.382  0.0181 -0.0489  0.2583
  687TMC3    O110222   1.558   0.976  15.515 -0.1568 -0.8154  0.4239
  687TMC3    O210223   0.955   0.969  15.412 -0.2378 -0.1060  0.0021
  688MPD2     C10224   0.495   4.728  17.095 -0.2910 -0.5979  0.4556
  688MPD2    C110225   0.500   4.593  17.120 -1.0745  0.1020 -0.0570
  688MPD2    C210226   0.582   4.509  17.049 -0.0158  0.7615 -0.3400
  688MPD2    C310227   0.660   4.555  16.943 -0.4411 -0.3647  0.0371
  688MPD2    C410228   0.650   4.689  16.908 -0.4691 -0.0792 -0.0452
  688MPD2    C510229   0.574   0.029  16.989  0.3857 -0.6091  0.3195
  688MPD2     H10230   0.584   4.404  17.075 -0.3987  0.7045 -0.5584
  688MPD2    H110231   0.712   4.739  16.835 -0.3197 -2.6887 -1.6990
  688MPD2    H210232   0.434   0.054  17.156  0.4174  0.8266 -0.4035
  688MPD2    H310233   0.577   0.136  16.970 -0.9052 -0.5825  0.2696
  688MPD2     N10234   0.743   4.486  16.850 -0.1034  0.5456 -0.0682
  688MPD2    H510235   0.768   4.540  16.768 -2.1311  0.5876 -0.6543
  688MPD2    N110236   0.446   4.536  17.239  0.1098  0.3417  0.1465
  688MPD2    H710237   0.477   4.443  17.263  1.4195  0.2490 -1.9195
  689TMC3    C110238   0.291   4.521  17.419 -0.8016 -0.2078  0.4706
  689TMC3    C210239   0.229   4.585  17.523 -0.4140  0.2368 -0.5721
  689TMC3    C310240   0.191   4.508  17.633 -0.1287  0.2671 -0.0614
  689TMC3    C410241   0.302   4.385  17.421  0.1127  0.0851  0.0808
  689TMC3    C510242   0.275   4.321  17.535 -0.4170  0.2959  0.1743
  689TMC3    C610243   0.219   4.379  17.647 -0.2106 -0.0656 -0.2351
  689TMC3     C10244   0.359   4.600  17.321  0.1542 -0.3776 -0.0050
  689TMC3     O10245   0.297   4.705  17.303 -0.6600 -0.2993 -0.0522
  689TMC3     H10246   0.229   4.694  17.519 -1.1885  0.1873 -1.9863
  689TMC3    H110247   0.345   4.326  17.340  2.0352  1.6914 -0.0799
  689TMC3    H210248   0.190   4.311  17.726  3.6144  0.4268  1.6219
  689TMC3    C710249   0.272   4.179  17.551  0.3257 -0.4615 -0.9841
  689TMC3    C810250   0.156   4.573  17.753 -0.2793 -0.1571  0.2545
  689TMC3    O110251   0.322   4.141  17.655  0.3596 -0.0790  0.3274
  689TMC3    O210252   0.233   4.669   0.008  0.1371 -0.2114  0.1025
  690MPD2     C10253   3.031   1.540  15.258 -0.9326  0.1052 -0.8669
  690MPD2    C110254   2.951   1.541  15.152  0.6543  0.4639  0.1498
  690MPD2    C210255   3.007   1.560  15.026 -0.6417  0.0845  0.2004
  690MPD2    C310256   3.147   1.552  15.010 -0.0819  0.0463  0.3127
  690MPD2    C410257   3.222   1.552  15.123  0.4676  0.3902 -0.1659
  690MPD2    C510258   3.167   1.556  15.243 -0.2897 -0.4913  0.3676
  690MPD2     H10259   2.935   1.561  14.946 -0.6811  0.9870  0.2442
  690MPD2    H110260   3.329   1.552  15.108  0.5906  1.4689  0.7202
  690MPD2    H210261   2.998   1.536  15.361  0.9041 -3.7046 -0.4103
  690MPD2    H310262   3.226   1.536  15.332 -1.1193  1.4731  1.3417
  690MPD2     N10263   3.199   1.550  14.876  0.3106  0.1724  0.3638
  690MPD2    H510264   3.129   1.566  14.805 -0.0628 -1.0476  0.4611
  690MPD2    N110265   2.818   1.516  15.165 -0.2707  0.0286  0.4319
  690MPD2    H710266   2.762   1.508  15.080 -0.3572 -0.4467  0.5363
  691TMC3    C110267   2.628   1.424  15.265  0.4093  0.0539  0.0667
  691TMC3    C210268   2.532   1.513  15.238 -0.4376 -1.2016  0.1099
  691TMC3    C310269   2.410   1.485  15.297  0.5336 -0.2790  0.0747
  691TMC3    C410270   2.609   1.311  15.343 -0.1216  0.2351  0.6423
  691TMC3    C510271   2.479   1.286  15.383  0.0765 -0.3167  0.8083
  691TMC3    C610272   2.382   1.375  15.369 -0.0873  0.6313  0.1128
  691TMC3     C10273   2.771   1.455  15.278 -0.5748 -0.5199  0.1228
  691TMC3     O10274   2.819   1.402  15.380  0.5527 -0.3202  0.4543
  691TMC3     H10275   2.553   1.603  15.182  0.8150 -0.9692  0.9464
  691TMC3    H110276   2.686   1.237  15.362 -0.7569 -0.5132  0.3180
  691TMC3    H210277   2.282   1.360  15.407 -0.0977 -1.1441 -0.5947
  691TMC3    C710278   2.467   1.173  15.469  0.4140 -0.5806  0.2263
  691TMC3    C810279   2.290   1.519  15.215 -0.9922 -0.0535 -0.7943
  691TMC3    O110280   2.569   1.119  15.499 -0.0196  0.1413  0.3844
  691TMC3    O210281   2.260   1.449  15.116  0.5702  0.1642 -0.3059
  692TMC3    C110282   4.299   2.520  15.688  0.7599  0.1276 -0.0400
  692TMC3    C210283   4.390   2.562  15.782 -0.0071  0.1160  0.0747
  692TMC3    C310284   4.446   2.477  15.874  0.0445 -0.0368  0.6692
  692TMC3    C410285   4.261   2.389  15.684 -0.6846  0.5958 -0.1851
  692TMC3    C510286   4.316   2.299  15.761 -0.5313  0.4938  0.0204
  692TMC3    C610287   4.402   2.352  15.862  0.0653 -0.5758 -1.2020
  692TMC3     C10288   4.197   2.616  15.634 -0.2856 -0.7904  0.6967
  692TMC3     O10289   4.091   2.575  15.583  0.1050  0.2419  0.2028
  692TMC3     H10290   4.411   2.666  15.802  2.2583 -0.7590  2.2464
  692TMC3    H110291   4.171   2.362  15.630 -1.2226  2.6005 -0.2847
  692TMC3    H210292   4.416   2.290  15.950  0.6964 -1.2123 -1.7479
  692TMC3    C710293   4.267   2.164  15.760 -0.8803  0.1822  0.3419
  692TMC3    C810294   4.427   2.536  16.002  0.2104 -1.1357  0.0149
  692TMC3    O110295   4.177   2.136  15.683 -0.7612  0.0207  0.4555
  692TMC3    O210296   4.503   2.502  16.093 -0.6398  0.0206 -0.4033
  693MPD2     C10297   3.749   0.963  10.959  0.1421  0.4282 -0.2146
  693MPD2    C110298   3.656   0.883  10.892 -0.5032  0.1484 -0.6055
  693MPD2    C210299   3.696   0.751  10.861  0.1194  0.5117 -0.3778
  693MPD2    C310300   3.824   0.706  10.889 -0.1731 -0.3767  0.0572
  693MPD2    C410301   3.910   0.791  10.951  0.0208 -0.8186 -0.1946
  693MPD2    C510302   3.872   0.913  10.981  0.9939 -0.0092  0.3768
  693MPD2     H10303   3.628   0.685  10.809 -0.1306 -0.5093  1.2544
  693MPD2    H110304   4.010   0.758  10.977  0.4744  1.6254  1.1025
  693MPD2    H210305   3.740   1.070  10.969  0.0588  0.3439  0.5876
  693MPD2    H310306   3.949   0.979  11.019  0.5697  1.7077 -1.8081
  693MPD2     N10307   3.858   0.565  10.865 -0.4121 -0.0439  0.8959
  693MPD2    H510308   3.783   0.496  10.860 -0.6076  0.4113 -2.2118
  693MPD2    N110309   3.530   0.935  10.862 -0.4037  0.2285  0.4845
  693MPD2    H710310   3.510   1.026  10.902  0.1172  0.6580 -0.2504
  694TMC3    C110311   3.318   0.963  10.737  0.1486  0.4299  0.5525
  694TMC3    C210312   3.250   0.904  10.634  0.1465 -0.4336 -0.1165
  694TMC3    C310313   3.117   0.894  10.644  0.6829  0.1584  0.0068
  694TMC3    C410314   3.250   1.024  10.838  0.5986  0.4289 -0.9548
  694TMC3    C510315   3.119   1.005  10.846  0.6609  0.1411 -0.1681
  694TMC3    C610316   3.045   0.930  10.752  0.2914  0.2732  0.8659
  694TMC3     C10317   3.435   0.882  10.777  0.3943  0.5146  0.0900
  694TMC3     O10318   3.416   0.766  10.747 -0.2272  0.5608  0.4168
  694TMC3     H10319   3.301   0.842  10.560  0.4384  0.0476 -0.3163
  694TMC3    H110320   3.304   1.072  10.919  0.4568 -0.5015 -0.3032
  694TMC3    H210321   2.939   0.911  10.764  0.5452 -1.0581  0.9564
  694TMC3    C710322   3.066   1.007  10.982 -0.1947  0.2337  0.4686
  694TMC3    C810323   3.031   0.822  10.542  0.7240 -0.2112  0.1379
  694TMC3    O110324   3.097   1.094  11.067 -0.1876  0.0642  0.3670
  694TMC3    O210325   2.925   0.772  10.579  0.2901  0.2808  0.2193
  695MPD2     C10326   4.505   2.268  13.605 -0.1251 -0.0285 -0.0951
  695MPD2    C110327   4.468   2.301  13.739 -0.1309  0.3480 -0.3050
  695MPD2    C210328   4.340   2.342  13.759 -0.1209 -0.6726 -0.4030
  695MPD2    C310329   4.253   2.362  13.657  0.1282 -0.1204  0.4390
  695MPD2    C410330   4.297   2.332  13.529  0.6101 -0.2941 -0.1248
  695MPD2    C510331   4.422   2.286  13.502 -0.2304  1.1026 -0.2148
  695MPD2     H10332   4.306   2.381  13.855  2.5983 -2.0594  1.1366
  695MPD2    H110333   4.224   2.351  13.451 -1.5468 -0.1674  1.9317
  695MPD2    H210334   4.605   2.251  13.566  0.3343 -0.6761  1.3825
  695MPD2    H310335   4.465   2.273  13.403 -0.7099 -1.0207 -0.1353
  695MPD2     N10336   4.119   2.402  13.691  0.6093  0.0810  0.2816
  695MPD2    H510337   4.099   2.413  13.790 -0.8922 -1.0768  0.1195
  695MPD2    N110338   4.567   2.313  13.843  0.7502 -0.7103  0.1655
  695MPD2    H710339   4.533   2.358  13.927  3.9507 -2.0710  2.2109
  696TMC3    C110340   3.893   2.466  13.675 -0.0790 -0.8869  0.2365
  696TMC3    C210341   3.854   2.381  13.771  0.1546 -0.3222  0.2155
  696TMC3    C310342   3.720   2.389  13.814 -0.1703  0.1741 -0.3925
  696TMC3    C410343   3.801   2.553  13.609  0.6103  0.0917  0.6011
  696TMC3    C510344   3.668   2.555  13.650 -0.2275  0.3501  0.0919
  696TMC3    C610345   3.625   2.461  13.740 -0.2182  0.3227 -0.0771
  696TMC3     C10346   4.018   2.444  13.609 -0.2695  0.8104 -0.4102
  696TMC3     O10347   4.033   2.480  13.493  0.3141 -0.0723 -0.6810
  696TMC3     H10348   3.922   2.306  13.811 -0.8981 -1.1567  0.4282
  696TMC3    H110349   3.832   2.623  13.533 -1.4677  0.2284 -0.1312
  696TMC3    H210350   3.520   2.443  13.760  0.3555 -2.8913 -0.0519
  696TMC3    C710351   3.604   2.677  13.641 -0.5631  0.0122 -0.1133
  696TMC3    C810352   3.732   2.461  13.940 -0.6517  0.4655  0.2211
  696TMC3    O110353   3.480   2.671  13.641  0.3017  0.1511 -0.0056
  696TMC3    O210354   3.849   2.490  13.960  0.4857  0.3348  0.2821
  697MPD2     C10355   4.083   4.207  15.738 -0.1925  0.4824 -0.0809
  697MPD2    C110356   4.017   4.196  15.622 -0.3146 -0.6612 -0.3628
  697MPD2    C210357   4.001   4.308  15.542  0.6181  0.5469  0.0824
  697MPD2    C310358   4.052   4.430  15.579  0.6007 -0.8349  0.0306
  697MPD2    C410359   4.116   4.440  15.700  0.6364  0.3320  0.2887
  697MPD2    C510360   4.125   4.332  15.783 -0.5003  0.7099  0.4576
  697MPD2     H10361   3.949   4.295  15.448  1.6298  0.1536 -0.4134
  697MPD2    H110362   4.162   4.536  15.722  1.2007 -0.0576  0.7976
  697MPD2    H210363   4.104   4.119  15.798 -2.1444 -0.6425 -1.0479
  697MPD2    H310364   4.187   4.340  15.872  0.6943 -0.0007 -0.3207
  697MPD2     N10365   4.008   4.534  15.499 -1.0597 -0.0597 -0.1146
  697MPD2    H510366   3.975   4.500  15.410  0.5522 -2.6939  0.2903
  697MPD2    N110367   3.975   4.070  15.565  0.4423 -0.2898  0.2491
  697MPD2    H710368   3.934   4.073  15.473  0.6685  0.7201  0.1790
  698TMC3    C110369   3.987   0.008  15.416 -0.0864  0.2801 -0.0318
  698TMC3    C210370   4.038   0.131  15.426 -0.1000 -0.2889 -0.6864
  698TMC3    C310371   4.066   0.203  15.315 -0.3387  0.4967 -0.4195
  698TMC3    C410372   3.977   4.692  15.292 -1.0863  0.2802 -0.0832
  698TMC3    C510373   4.018   0.019  15.180 -0.4864 -0.3891 -0.2868
  698TMC3    C610374   4.067   0.146  15.188  0.4613  0.0101  0.0625
  698TMC3     C10375   4.004   4.666  15.531 -0.3223 -1.0899 -0.3486
  698TMC3     O10376   4.028   4.715  15.640 -0.0197  1.0413 -0.6132
  698TMC3     H10377   4.010   0.181  15.518  0.9226 -2.3074  0.7372
  698TMC3    H110378   3.928   4.596  15.276  0.7182 -0.6922  0.2088
  698TMC3    H210379   4.081   0.202  15.096  1.7567 -0.4946 -0.0429
  698TMC3    C710380   3.993   4.704  15.050  0.2034 -0.0063 -1.1822
  698TMC3    C810381   4.149   0.320  15.339  0.2506  0.5207  0.2572
  698TMC3    O110382   3.882   4.651  15.041  0.9524  0.2604 -0.2209
  698TMC3    O210383   4.165   0.355  15.453 -0.2319  0.3808  0.2895
  699TMC3    C110384   3.745   2.985  12.771  0.4770  0.2792 -0.2209
  699TMC3    C210385   3.829   2.880  12.802  0.2458  1.1318 -0.2697
  699TMC3    C310386   3.785   2.793  12.894  0.2110  0.2702  0.3071
  699TMC3    C410387   3.626   3.004  12.833 -0.3011  0.2116 -1.0527
  699TMC3    C510388   3.588   2.913  12.925  0.2616 -0.3903 -0.0420
  699TMC3    C610389   3.670   2.808  12.956 -0.1792 -0.3936  0.5633
  699TMC3     C10390   3.765   3.063  12.654  0.1187  0.2518 -0.1764
  699TMC3     O10391   3.666   3.127  12.610  0.3703 -0.7870 -0.2706
  699TMC3     H10392   3.922   2.860  12.750  1.1651 -0.9240  2.1701
  699TMC3    H110393   3.575   3.098  12.814  0.0728  1.3390  3.5840
  699TMC3    H210394   3.631   2.733  13.023 -1.5237  0.2752  0.5347
  699TMC3    C710395   3.457   2.919  12.987  0.8930 -0.3972  0.4367
  699TMC3    C810396   3.834   2.660  12.890 -0.2480  0.8282 -1.0761
  699TMC3    O110397   3.424   2.824  13.057  0.6958  0.3174 -0.7841
  699TMC3    O210398   3.754   2.568  12.912 -0.0373 -0.3525 -0.1232
  700TMC3    C110399   3.063   4.707  16.905 -0.6734 -0.6200  0.4921
  700TMC3    C210400   3.110   4.574  16.892 -0.2633 -0.5078 -0.0489
  700TMC3    C310401   3.203   4.527  16.973  0.0927  0.2642 -0.9201
  700TMC3    C410402   3.114   0.046  17.007  0.2551  0.0832 -0.1231
  700TMC3    C510403   3.220   4.731  17.078 -0.0858 -0.1266 -0.2701
  700TMC3    C610404   3.262   4.602  17.070  0.0927 -0.4109 -0.1099
  700TMC3     C10405   3.013   0.024  16.782 -0.5205  0.8785  1.2006
  700TMC3     O10406   2.997   4.683  16.692  0.2091  0.3292 -0.4571
  700TMC3     H10407   3.073   4.500  16.822 -1.8538 -0.8845  1.1904
  700TMC3    H110408   3.086   0.148  17.031 -0.7840 -0.1046 -0.5334
  700TMC3    H210409   3.353   4.576  17.122  0.2755 -1.0922 -0.7775
  700TMC3    C710410   3.317   0.081  17.132  0.4718 -0.0117  0.0988
  700TMC3    C810411   3.279   4.415  16.915 -0.7310  0.1953  0.6133
  700TMC3    O110412   3.378   0.050  17.233  0.2252  0.3741 -0.1288
  700TMC3    O210413   3.285   4.405  16.791  0.0026 -0.2495  0.4304
  701TMC3    C110414   2.972   3.660  15.616 -0.5679 -0.2349  0.5625
  701TMC3    C210415   3.046   3.561  15.555 -0.9714  0.5027 -0.0126
  701TMC3    C310416   3.179   3.591  15.529  0.2927  0.4309 -0.6151
  701TMC3    C410417   3.037   3.765  15.678 -0.6297 -0.3049 -0.0422
  701TMC3    C510418   3.176   3.782  15.660 -0.4164  0.5837 -0.5514
  701TMC3    C610419   3.247   3.693  15.590 -0.0524  0.0475 -0.3335
  701TMC3     C10420   2.857   3.608  15.686 -0.1599  1.0446 -0.4175
  701TMC3     O10421   2.828   3.677  15.783 -0.2657 -0.1021  0.7513
  701TMC3     H10422   2.998   3.480  15.503  1.8526  0.9314 -3.2630
  701TMC3    H110423   2.987   3.841  15.738 -0.2301 -0.3192  0.3134
  701TMC3    H210424   3.355   3.703  15.585 -0.0676 -0.5338 -1.7561
  701TMC3    C710425   3.223   3.913  15.631 -0.6443 -0.0195  0.2159
  701TMC3    C810426   3.243   3.541  15.410 -0.3869  0.2972  0.1088
  701TMC3    O110427   3.143   3.992  15.580 -0.2271 -0.1479 -0.3134
  701TMC3    O210428   3.330   3.616  15.369 -0.0533  0.2954 -0.5763
  702MPD2     C10429   2.352   1.443  10.254  0.9322 -0.4987 -0.0715
  702MPD2    C110430   2.420   1.512  10.351 -0.4436  0.1803 -0.0292
  702MPD2    C210431   2.455   1.639  10.331 -0.4605 -0.5740  0.2924
  702MPD2    C310432   2.398   1.721  10.228 -1.3305  0.6688 -0.4110
  702MPD2    C410433   2.309   1.652  10.142 -0.2409 -0.0083  1.1561
  702MPD2    C510434   2.294   1.513  10.150  0.2333  0.1158 -0.1195
  702MPD2     H10435   2.526   1.680  10.403  1.4313 -3.4501  0.0617
  702MPD2    H110436   2.259   1.708  10.064 -0.1869  0.6216  1.5767
  702MPD2    H210437   2.322   1.339  10.260 -0.7368 -0.2083 -3.0868
  702MPD2    H310438   2.225   1.471  10.077  0.3201 -1.5199  0.7387
  702MPD2     N10439   2.402   1.861  10.216  0.0216 -0.2091  0.2034
  702MPD2    H510440   2.360   1.902  10.133  0.1393  0.2341  0.3652
  702MPD2    N110441   2.478   1.448  10.466  0.8068  0.5740  0.2868
  702MPD2    H710442   2.531   1.512  10.524  1.4035 -0.7647  1.2245
  703TMC3    C110443   2.477   1.915  10.435  0.3483  0.5321 -0.0782
  703TMC3    C210444   2.388   1.848  10.512  0.6204 -0.5006 -0.1301
  703TMC3    C310445   2.410   1.835  10.649 -0.2442 -0.4927 -0.0300
  703TMC3    C410446   2.584   1.974  10.494 -0.1694  0.1493 -0.8523
  703TMC3    C510447   2.611   1.955  10.629  0.4766  0.2297 -0.0355
  703TMC3    C610448   2.523   1.887  10.709  0.3199 -0.3825 -0.5874
  703TMC3     C10449   2.455   1.955  10.300 -0.2316 -0.5946  0.2544
  703TMC3     O10450   2.475   2.074  10.285  0.2795 -0.3574 -0.3262
  703TMC3     H10451   2.290   1.814  10.480  0.0257  0.2507  0.9091
  703TMC3    H110452   2.650   2.042  10.442 -0.5618  1.2847  0.1217
  703TMC3    H210453   2.544   1.867  10.814 -1.0204 -0.9444 -0.4272
  703TMC3    C710454   2.742   2.002  10.673 -0.4130  0.1749  0.3595
  703TMC3    C810455   2.337   1.727  10.713 -0.0703  0.0140  0.3786
  703TMC3    O110456   2.825   2.036  10.592  0.2557 -0.1843  0.5075
  703TMC3    O210457   2.310   1.635  10.637  0.2192  0.1148 -0.4138
  704TMC3    C110458   0.645   4.404  12.719 -1.4090  0.1369 -0.3048
  704TMC3    C210459   0.730   4.420  12.614  0.3762  0.3746 -0.2638
  704TMC3    C310460   0.857   4.368  12.626  0.0756  0.5258  0.4132
  704TMC3    C410461   0.677   4.333  12.831  0.7082  0.2334  0.2749
  704TMC3    C510462   0.792   4.266  12.835  0.0969 -0.3134  0.9711
  704TMC3    C610463   0.882   4.281  12.730 -0.5894  0.1006  0.7655
  704TMC3     C10464   0.516   4.383  12.674  0.0870 -0.1484 -0.1058
  704TMC3     O10465   0.424   4.389  12.756  0.2045 -0.1390 -1.1882
  704TMC3     H10466   0.707   4.497  12.541  0.1027 -0.9288 -1.5495
  704TMC3    H110467   0.596   4.314  12.901 -1.0433 -4.1349 -2.9983
  704TMC3    H210468   0.962   4.208  12.723 -1.5292 -0.8524  0.1279
  704TMC3    C710469   0.838   4.202  12.958  0.1159 -0.2116  0.1764
  704TMC3    C810470   0.930   4.338  12.505  0.5435 -0.1993  0.3173
  704TMC3    O110471   0.962   4.195  12.962  0.0845 -0.3024  0.7106
  704TMC3    O210472   0.859   4.365  12.407 -0.1923 -0.4657  0.3192
  705MPD2     C10473   0.011   2.149  16.420  0.2895 -0.6739  0.9488
  705MPD2    C110474   4.685   2.255  16.366  0.0429  0.3414 -0.3410
  705MPD2    C210475   4.579   2.320  16.432 -0.6584  0.1084 -0.3934
  705MPD2    C310476   4.536   2.276  16.555 -0.6713  0.1303  0.2270
  705MPD2    C410477   4.601   2.160  16.605  0.6999  0.5371 -0.1187
  705MPD2    C510478   4.713   2.100  16.543  0.3051  0.3399 -0.0592
  705MPD2     H10479   4.542   2.413  16.391  0.3258  1.4522  1.7551
  705MPD2    H110480   4.564   2.113  16.695  4.0798  1.1086  1.5456
  705MPD2    H210481   0.090   2.094  16.369 -1.3004  0.1685 -2.3815
  705MPD2    H310482   0.027   2.011  16.571  0.0249 -0.0626 -0.8038
  705MPD2     N10483   4.425   2.324  16.622  0.4291  0.1992 -0.9702
  705MPD2    H510484   4.392   2.265  16.698  1.6190 -1.1279 -1.4747
  705MPD2    N110485   4.723   2.310  16.237  0.0155  0.5624  0.0725
  705MPD2    H710486   4.675   2.398  16.219 -0.7120  0.2689  0.5637
  706TMC3    C110487   0.164   2.367  15.813 -0.3436 -0.2134  0.0154
  706TMC3    C210488   0.120   2.497  15.810 -0.2389 -0.1922 -0.3780
  706TMC3    C310489   0.068   2.558  15.923  0.1257 -0.2253 -0.4423
  706TMC3    C410490   0.151   2.286  15.926  0.7635  0.4120 -0.4071
  706TMC3    C510491   0.094   2.351  16.033  0.1898 -0.6497  0.6849
  706TMC3    C610492   0.051   2.483  16.035  0.4429 -0.3656  0.3500
  706TMC3     C10493   0.280   2.331  15.731  0.3764  0.2216  0.1368
  706TMC3     O10494   0.354   2.245  15.775  0.0722 -0.9134  0.5164
  706TMC3     H10495   0.132   2.553  15.718 -1.7197  0.7719  0.0091
  706TMC3    H110496   0.182   2.183  15.928  0.2426  0.2578 -0.1718
  706TMC3    H210497   0.002   2.528  16.120  0.2014 -1.2467  0.6779
  706TMC3    C710498   0.090   2.273  16.152  0.3091 -0.1396  0.9214
  706TMC3    C810499   0.022   2.694  15.916 -0.2294  0.0455  0.3904
  706TMC3    O110500   0.179   2.186  16.164 -0.3060  0.4895 -0.2160
  706TMC3    O210501   0.031   2.744  15.804  0.1218 -0.0312  0.5923
  707TMC3    C110502   1.821   1.505   0.627  0.5194  0.8837  0.4832
  707TMC3    C210503   1.778   1.388   0.557 -0.0296 -0.0591 -0.9341
  707TMC3    C310504   1.669   1.404   0.472  0.3018  0.5160  0.6884
  707TMC3    C410505   1.738   1.614   0.617  0.1767  0.8271 -0.6167
  707TMC3    C510506   1.640   1.625   0.521 -0.5867  0.8465 -0.2991
  707TMC3    C610507   1.598   1.519   0.450 -0.3485  0.4431  0.2372
  707TMC3     C10508   1.963   1.526   0.636 -0.0568  0.2457  0.0585
  707TMC3     O10509   1.999   1.645   0.630  0.3250 -0.6976 -0.2972
  707TMC3     H10510   1.842   1.301   0.545 -0.4579 -0.6668  1.1490
  707TMC3    H110511   1.780   1.700   0.669  0.3273  0.2104  0.2774
  707TMC3    H210512   1.526   1.519   0.369  0.8112 -1.6270 -0.7843
  707TMC3    C710513   1.630   1.765   0.474 -0.0110  0.6994 -0.6390
  707TMC3    C810514   1.626   1.288   0.391 -0.9721 -0.6354  0.6154
  707TMC3    O110515   1.734   1.829   0.492 -0.0424 -0.0176 -0.3767
  707TMC3    O210516   1.555   1.302   0.293  0.0478 -0.1167  0.2810
  708MPD2     C10517   2.452   0.311  13.579  0.2801 -0.4667  0.5351
  708MPD2    C110518   2.573   0.348  13.631 -0.4160 -0.1849  0.0295
  708MPD2    C210519   2.595   0.330  13.766  0.4330  0.0440  0.0133
  708MPD2    C310520   2.500   0.280  13.849  0.2246 -0.3592  0.0685
  708MPD2    C410521   2.374   0.251  13.793 -0.1352 -0.1049 -0.7057
  708MPD2    C510522   2.344   0.266  13.652 -0.4189 -0.3667  0.7826
  708MPD2     H10523   2.683   0.379  13.807  0.9333 -0.8023 -0.0564
  708MPD2    H110524   2.298   0.216  13.862  0.2249  2.0895  0.8206
  708MPD2    H210525   2.430   0.346  13.478 -0.6010  2.7259  1.8151
  708MPD2    H310526   2.249   0.241  13.606  0.5647  0.1277 -1.5104
  708MPD2     N10527   2.515   0.268  13.987 -0.4169 -0.3922  0.0950
  708MPD2    H510528   2.435   0.238  14.042 -1.3237  1.3131 -0.2752
  708MPD2    N110529   2.673   0.395  13.539 -0.0247 -0.0977  0.3116
  708MPD2    H710530   2.644   0.407  13.442  1.1270  0.9135  0.0944
  709TMC3    C110531   2.866   0.514  13.470  0.1404 -0.6272 -0.7435
  709TMC3    C210532   2.791   0.585  13.383  0.4695 -0.1402  0.2915
  709TMC3    C310533   2.825   0.714  13.354 -0.0796 -0.2597  0.0105
  709TMC3    C410534   2.972   0.574  13.528 -0.2147 -0.5965 -0.2849
  709TMC3    C510535   3.002   0.703  13.501  0.1284 -0.2610  0.1081
  709TMC3    C610536   2.930   0.778  13.410 -0.2465  1.1033  0.3757
  709TMC3     C10537   2.791   0.446  13.575  0.2569  0.0459 -0.0906
  709TMC3     O10538   2.843   0.454  13.687  0.1893 -0.0127 -0.8470
  709TMC3     H10539   2.710   0.534  13.332  1.6692 -3.0425  1.2766
  709TMC3    H110540   3.050   0.512  13.570 -0.4934 -0.4025  0.5130
  709TMC3    H210541   2.961   0.881  13.400 -1.5269  1.3900 -0.6843
  709TMC3    C710542   3.001   0.782  13.626 -0.5640 -0.2635  0.0169
  709TMC3    C810543   2.717   0.808  13.333 -0.1927 -0.4948  0.4610
  709TMC3    O110544   3.025   0.899  13.611 -0.0232 -0.0601  0.2163
  709TMC3    O210545   2.607   0.757  13.359 -0.0005  0.0686  0.3886
  710TMC3    C110546   4.383   1.751  17.614  0.5113  0.4096  0.7516
  710TMC3    C210547   4.507   1.725  17.556  0.6299  0.3919 -0.0026
  710TMC3    C310548   4.561   1.600  17.570  0.2724  0.0159 -0.8212
  710TMC3    C410549   4.310   1.651  17.670  0.1061  0.6274  0.5977
  710TMC3    C510550   4.365   1.524  17.676 -0.7216  0.1081 -0.2134
  710TMC3    C610551   4.494   1.495  17.630  0.0629 -0.0734  0.0236
  710TMC3     C10552   4.316   1.870  17.573 -0.1234 -0.4211 -0.0226
  710TMC3     O10553   4.317   1.893  17.454 -0.2092  0.2081  0.7891
  710TMC3     H10554   4.558   1.814  17.520  0.4593  0.5814  0.2289
  710TMC3    H110555   4.207   1.661  17.703  0.2104 -2.1438  1.7802
  710TMC3    H210556   4.550   1.405  17.653 -1.5049 -1.8151 -2.9682
  710TMC3    C710557   4.300   1.435   0.012  0.2172  0.0394  0.2376
  710TMC3    C810558   4.692   1.583  17.516 -0.7973  0.1969 -0.6612
  710TMC3    O110559   4.252   1.488   0.111 -0.5865 -0.2587 -0.5007
  710TMC3    O210560   4.720   1.476  17.458  0.0364  0.3599  0.1383
  711TMC3    C110561   3.689   3.254  14.910  0.1658 -0.2286  0.3012
  711TMC3    C210562   3.713   3.306  15.038  0.6356  0.6432 -0.5512
  711TMC3    C310563   3.832   3.282  15.096 -0.2483  0.1555  0.8122
  711TMC3    C410564   3.782   3.178  14.846 -0.0979 -0.0842  0.3735
  711TMC3    C510565   3.888   3.135  14.923 -0.2515 -0.3222  0.1957
  711TMC3    C610566   3.921   3.191  15.042 -0.2150  0.5955 -0.2431
  711TMC3     C10567   3.562   3.180  14.904 -0.4267  0.2490 -0.1086
  711TMC3     O10568   3.543   3.136  14.792 -0.1712  0.2004 -0.6456
  711TMC3     H10569   3.644   3.380  15.079 -0.4776 -0.7175  0.0353
  711TMC3    H110570   3.762   3.119  14.757  1.0447  1.2249 -0.7521
  711TMC3    H210571   3.996   3.140  15.101  0.0651  2.5101  1.0456
  711TMC3    C710572   3.907   2.996  14.927  0.5131 -0.1259  0.0530
  711TMC3    C810573   3.855   3.342  15.222 -0.2477  0.2913 -0.0381
  711TMC3    O110574   4.017   2.956  14.973  0.7302 -0.7913  0.0320
  711TMC3    O210575   3.759   3.388  15.282 -0.3781  0.4327 -0.1109
  712MPD2     C10576   0.379   4.228  13.873 -0.6300 -0.5139  0.4761
  712MPD2    C110577   0.318   4.258  13.751 -0.3818 -0.0665 -0.4145
  712MPD2    C210578   0.348   4.374  13.682 -0.3803  0.5974 -0.3228
  712MPD2    C310579   0.438   4.464  13.739 -0.3657  0.6357  0.3960
  712MPD2    C410580   0.502   4.435  13.856 -0.0709  0.9815 -0.1322
  712MPD2    C510581   0.473   4.317  13.918  0.8644  0.0968 -0.0317
  712MPD2     H10582   0.300   4.391  13.586  0.4714 -0.4695 -0.9282
  712MPD2    H110583   0.585   4.493  13.893  1.1997 -0.9325 -0.0056
  712MPD2    H210584   0.374   4.133  13.925  0.8787 -0.9440 -0.1380
  712MPD2    H310585   0.519   4.298  14.014  0.0727 -0.0106  0.3291
  712MPD2     N10586   0.455   4.601  13.686  0.2356 -0.0659 -0.4288
  712MPD2    H510587   0.516   4.667  13.733 -0.8609  0.1891  0.6586
  712MPD2    N110588   0.236   4.163  13.680 -0.2655  0.9087  0.0946
  712MPD2    H710589   0.202   4.185  13.587  2.7712  0.0221 -1.2241
  713TMC3    C110590   0.413   0.054  13.567  0.8878 -0.0299  0.1255
  713TMC3    C210591   0.550   0.083  13.573 -0.1856 -0.2098 -0.1417
  713TMC3    C310592   0.587   0.203  13.517  0.3056  0.0809  0.5851
  713TMC3    C410593   0.318   0.133  13.515 -0.7188  0.2207  0.0230
  713TMC3    C510594   0.372   0.254  13.469 -0.3597 -0.1722  0.4036
  713TMC3    C610595   0.500   0.288  13.461 -0.2120  0.6219  0.0376
  713TMC3     C10596   0.376   4.661  13.587  1.0379 -0.1751  0.5463
  713TMC3     O10597   0.287   4.615  13.513 -0.2853 -0.4180  0.5053
  713TMC3     H10598   0.623   0.008  13.604  0.2056  0.5366  0.7317
  713TMC3    H110599   0.212   0.114  13.520 -0.4148 -1.1511  1.1810
  713TMC3    H210600   0.541   0.386  13.438 -0.6611  1.0728  1.1734
  713TMC3    C710601   0.270   0.352  13.418  0.3166  0.7183 -0.4763
  713TMC3    C810602   0.725   0.246  13.525  0.1472 -0.0272 -0.4326
  713TMC3    O110603   0.271   0.393  13.304 -0.0685  0.0596 -0.3878
  713TMC3    O210604   0.766   0.327  13.443 -0.4024 -0.4426  0.1773
  714MPD2     C10605   2.742   3.165   0.841 -0.2294 -0.0439  0.0661
  714MPD2    C110606   2.721   3.035   0.794 -0.5160  0.1356 -0.3319
  714MPD2    C210607   2.591   2.998   0.775 -0.0035  0.0017  0.3257
  714MPD2    C310608   2.483   3.084   0.792 -0.1065 -0.5247  0.3426
  714MPD2    C410609   2.506   3.216   0.835 -0.2150  0.7230 -0.7145
  714MPD2    C510610   2.634   3.253   0.848 -0.9149  0.7291 -0.2555
  714MPD2     H10611   2.573   2.893   0.754  0.9702 -0.4489  1.7648
  714MPD2    H110612   2.431   3.294   0.848 -0.7921  0.1997 -0.8802
  714MPD2    H210613   2.841   3.208   0.856 -0.5918  1.1319 -0.9170
  714MPD2    H310614   2.650   3.354   0.882  0.5364  0.2826  0.3725
  714MPD2     N10615   2.351   3.034   0.773 -0.1486  0.6713  0.2748
  714MPD2    H510616   2.339   2.935   0.756  2.6107  0.6682 -1.7507
  714MPD2    N110617   2.835   2.947   0.770  0.6980 -0.0918 -0.0656
  714MPD2    H710618   2.930   2.981   0.768  1.0465 -1.0044  0.7644
  715TMC3    C110619   2.963   2.758   0.713 -0.4080  0.4117 -0.8187
  715TMC3    C210620   2.959   2.625   0.674 -0.0555 -0.4272  0.5647
  715TMC3    C310621   3.071   2.577   0.618 -0.3072  0.0145 -0.1924
  715TMC3    C410622   3.074   2.837   0.691 -0.3877 -0.3336  0.1930
  715TMC3    C510623   3.184   2.776   0.634  0.0903 -0.2366  0.6968
  715TMC3    C610624   3.191   2.647   0.599 -0.3776 -0.0144 -0.0783
  715TMC3     C10625   2.832   2.813   0.732 -0.5768  0.0667  0.4998
  715TMC3     O10626   2.738   2.735   0.725 -0.2143  0.3128  0.5633
  715TMC3     H10627   2.878   2.559   0.703 -1.2990  0.6980 -0.3901
  715TMC3    H110628   3.092   2.940   0.718  0.2483 -1.0790  2.6157
  715TMC3    H210629   3.278   2.607   0.548 -0.3494  0.5807 -0.4964
  715TMC3    C710630   3.306   2.852   0.616 -0.2827 -0.8962 -0.2240
  715TMC3    C810631   3.047   2.455   0.539 -0.4051 -0.3680  0.1294
  715TMC3    O110632   3.413   2.792   0.620  0.1152  0.3487  0.2444
  715TMC3    O210633   2.945   2.398   0.566  0.1211 -0.0032 -0.0605
  716MPD2     C10634   2.437   0.606   9.197  0.3880 -0.1874  0.0961
  716MPD2    C110635   2.402   0.735   9.187 -0.0372  0.5347 -0.0542
  716MPD2    C210636   2.262   0.765   9.170 -0.4090 -0.5153  0.1332
  716MPD2    C310637   2.167   0.663   9.152  0.5995  0.1943 -0.2685
  716MPD2    C410638   2.212   0.534   9.155 -0.6796 -0.2172  0.0111
  716MPD2    C510639   2.339   0.512   9.189 -0.4268 -0.0133  0.2765
  716MPD2     H10640   2.230   0.869   9.167 -1.2091 -0.8243 -1.7691
  716MPD2    H110641   2.148   0.447   9.163 -0.1452 -0.5850  0.2758
  716MPD2    H210642   2.534   0.562   9.214 -0.3070 -0.9483  2.1905
  716MPD2    H310643   2.377   0.410   9.197 -0.5823 -0.3015 -2.4318
  716MPD2     N10644   2.031   0.705   9.119  0.3350 -0.0973 -0.1145
  716MPD2    H510645   2.011   0.805   9.117 -2.8122 -0.7241  0.4326
  716MPD2    N110646   2.502   0.833   9.214  0.4042  0.0318  0.1055
  716MPD2    H710647   2.597   0.801   9.232 -0.0309 -0.8999  0.7358
  717TMC3    C110648   1.800   0.657   9.063 -0.2438 -0.4403  0.3285
  717TMC3    C210649   1.766   0.788   9.091 -0.0622  0.5262 -0.3956
  717TMC3    C310650   1.636   0.829   9.079  0.1347  0.4357 -0.4803
  717TMC3    C410651   1.709   0.568   9.018 -0.1079 -0.1621  0.7695
  717TMC3    C510652   1.574   0.606   9.018 -0.2707 -0.1928  0.2466
  717TMC3    C610653   1.535   0.737   9.049  0.4683  0.0970  0.5915
  717TMC3     C10654   1.938   0.611   9.078  0.1667  0.1053  0.7332
  717TMC3     O10655   1.942   0.491   9.078 -0.7492  0.4938 -0.8719
  717TMC3     H10656   1.851   0.852   9.111  1.1542 -1.3624  0.4787
  717TMC3    H110657   1.729   0.480   8.959 -1.8785  0.0860 -0.1916
  717TMC3    H210658   1.429   0.760   9.056  0.1901 -0.3567 -2.3738
  717TMC3    C710659   1.478   0.508   8.994  0.5858 -0.4973 -0.2175
  717TMC3    C810660   1.613   0.955   9.133 -0.1626  0.7658 -1.1357
  717TMC3    O110661   1.362   0.554   8.979  0.4940 -0.2803  0.6434
  717TMC3    O210662   1.708   1.009   9.191 -0.1319  0.2857 -0.4469
  718MPD2     C10663   1.983   0.276  12.764 -0.1504 -0.0294  0.6234
  718MPD2    C110664   1.862   0.313  12.710  0.0905 -0.0115 -0.1811
  718MPD2    C210665   1.769   0.213  12.688  0.6801 -0.0601 -0.5934
  718MPD2    C310666   1.791   0.078  12.724  0.0847 -0.0869 -0.0123
  718MPD2    C410667   1.903   0.044  12.793  0.3340  0.3214  0.8232
  718MPD2    C510668   1.998   0.145  12.809  0.3486 -0.1252 -0.5554
  718MPD2     H10669   1.679   0.227  12.628 -0.7996 -0.0183  1.6440
  718MPD2    H110670   1.914   4.684  12.831 -1.9351  0.4523  1.8329
  718MPD2    H210671   2.062   0.346  12.791  0.9642 -0.7533 -0.7363
  718MPD2    H310672   2.080   0.125  12.877  0.3602  1.3369 -0.1291
  718MPD2     N10673   1.699   4.725  12.665  0.4989 -0.2155 -0.0434
  718MPD2    H510674   1.629   0.023  12.602  1.1948  0.7700 -0.2164
  718MPD2    N110675   1.857   0.450  12.668  0.7831  0.7798  0.5335
  718MPD2    H710676   1.949   0.495  12.664  1.5711 -1.1671 -2.9676
  719TMC3    C110677   1.791   0.614  12.508 -0.3194  0.7616 -0.1367
  719TMC3    C210678   1.694   0.624  12.413  0.3014 -0.4345 -0.0431
  719TMC3    C310679   1.740   0.653  12.287 -0.7181  0.5524  0.2371
  719TMC3    C410680   1.924   0.644  12.487 -0.3611 -0.2134 -1.1865
  719TMC3    C510681   1.968   0.671  12.361 -0.2437 -0.1507 -0.6835
  719TMC3    C610682   1.874   0.682  12.262 -0.6826 -0.2309  0.0815
  719TMC3     C10683   1.749   0.510  12.612 -0.3674 -0.5205 -0.1546
  719TMC3     O10684   1.631   0.476  12.615 -0.3276  0.0859 -0.3172
  719TMC3     H10685   1.591   0.598  12.432  0.1493  1.0340  1.1674
  719TMC3    H110686   1.991   0.666  12.569  0.3689 -1.7199 -1.3751
  719TMC3    H210687   1.901   0.691  12.157 -2.9255 -1.2144 -0.5629
  719TMC3    C710688   2.108   0.661  12.323 -0.0925  0.4626 -0.9404
  719TMC3    C810689   1.690   0.566  12.188  0.4858  0.2991 -0.1623
  719TMC3    O110690   2.131   0.640  12.203  0.5443  0.6883  0.4982
  719TMC3    O210691   1.690   0.599  12.070  0.0884  0.4543 -0.1033
  720MPD2     C10692   0.167   1.541  13.981  0.2261  0.0383  0.0538
  720MPD2    C110693   0.277   1.528  13.897  0.6588 -0.7961 -0.1253
  720MPD2    C210694   0.401   1.496  13.953  0.3429  0.2052  0.2513
  720MPD2    C310695   0.416   1.488  14.090 -0.8539 -0.7736  0.0044
  720MPD2    C410696   0.305   1.501  14.169  0.2453  1.3781  0.3912
  720MPD2    C510697   0.181   1.536  14.114 -0.0280 -0.8442  0.0137
  720MPD2     H10698   0.490   1.502  13.892 -0.6329 -1.2969 -1.3176
  720MPD2    H110699   0.320   1.492  14.276 -1.1966 -1.5747  0.3428
  720MPD2    H210700   0.076   1.580  13.937  1.1072 -0.0006 -1.8249
  720MPD2    H310701   0.098   1.554  14.182 -0.0227 -0.3448 -0.1196
  720MPD2     N10702   0.552   1.468  14.141 -0.0166 -0.5042 -0.2276
  720MPD2    H510703   0.627   1.449  14.076 -0.8759  1.2577 -1.7366
  720MPD2    N110704   0.271   1.558  13.765 -0.0092  0.0103 -0.3073
  720MPD2    H710705   0.359   1.541  13.717  0.2818 -1.4967  0.7720
  721TMC3    C110706   0.730   1.474  14.295  0.5090 -0.0128 -0.3036
  721TMC3    C210707   0.742   1.520  14.419  0.0367 -0.0738  0.2470
  721TMC3    C310708   0.866   1.575  14.456  0.3929  1.1862  0.6258
  721TMC3    C410709   0.817   1.493  14.194  0.8684  0.4258 -0.3962
  721TMC3    C510710   0.933   1.551  14.227  0.0810  0.6604  0.0372
  721TMC3    C610711   0.955   1.581  14.354 -0.4318 -0.3012  0.6047
  721TMC3     C10712   0.586   1.468  14.274  0.5200  0.0104  0.3428
  721TMC3     O10713   0.514   1.486  14.371  0.1834  0.1361  0.0289
  721TMC3     H10714   0.674   1.503  14.501  0.3360  0.1254  0.5362
  721TMC3    H110715   0.802   1.448  14.096  0.8863 -0.5325  0.0377
  721TMC3    H210716   1.053   1.625  14.371 -0.4454 -0.1358  0.2547
  721TMC3    C710717   1.043   1.516  14.141  0.5555  0.0254  0.0635
  721TMC3    C810718   0.917   1.569  14.588  0.3301  0.3357 -0.3677
  721TMC3    O110719   1.042   1.569  14.030  0.0096 -0.6201  0.9336
  721TMC3    O210720   1.036   1.559  14.600  0.4035 -0.4249  0.6191
  722MPD2     C10721   4.073   0.223  12.877  0.2979  0.0550 -0.4176
  722MPD2    C110722   4.056   0.356  12.840 -0.7078 -0.2785 -0.0110
  722MPD2    C210723   3.975   0.386  12.729 -0.5452  0.3562 -0.2587
  722MPD2    C310724   3.908   0.292  12.663 -0.7709 -0.9662 -0.0761
  722MPD2    C410725   3.930   0.155  12.696 -0.2703 -0.4212  0.0661
  722MPD2    C510726   4.013   0.124  12.804 -0.1234  0.3478 -0.1003
  722MPD2     H10727   3.965   0.491  12.706 -0.4257 -0.0971 -2.3324
  722MPD2    H110728   3.879   0.078  12.639 -0.6313  0.5159 -0.8946
  722MPD2    H210729   4.124   0.192  12.968  2.5474 -0.8137 -1.9564
  722MPD2    H310730   4.023   0.022  12.839 -0.4563  1.0370  1.9682
  722MPD2     N10731   3.810   0.332  12.574  0.2690 -0.5602 -0.3832
  722MPD2    H510732   3.798   0.432  12.581  2.5802 -0.2384 -1.0289
  722MPD2    N110733   4.126   0.460  12.907  0.5368 -0.2703  0.3003
  722MPD2    H710734   4.127   0.553  12.866  1.0174 -0.4188 -0.0243
  723TMC3    C110735   3.623   0.328  12.424  0.1559 -0.1039 -0.0222
  723TMC3    C210736   3.538   0.251  12.351 -1.0715 -0.0683 -0.4000
  723TMC3    C310737   3.432   0.317  12.293  0.1195  0.1306 -0.2661
  723TMC3    C410738   3.614   0.465  12.444 -0.1581 -0.2656  0.1172
  723TMC3    C510739   3.503   0.520  12.375  0.8992  0.3913 -0.9239
  723TMC3    C610740   3.424   0.451  12.296 -0.1453  0.3070 -0.0713
  723TMC3     C10741   3.729   0.248  12.493  0.9900  0.2103 -0.1538
  723TMC3     O10742   3.738   0.127  12.473  0.5526  0.1189  0.0797
  723TMC3     H10743   3.546   0.143  12.343  0.0423  0.1593 -2.2869
  723TMC3    H110744   3.681   0.519  12.510  0.0063  0.0168 -0.2763
  723TMC3    H210745   3.346   0.496  12.235 -1.1723 -0.7418  0.4797
  723TMC3    C710746   3.461   0.656  12.408 -0.0077  0.1024 -0.0406
  723TMC3    C810747   3.297   0.248  12.273 -0.1558  0.4001 -0.0473
  723TMC3    O110748   3.494   0.702  12.517  0.2968 -0.1755  0.3520
  723TMC3    O210749   3.203   0.309  12.227  0.1825  0.0249  0.0278
  724TMC3    C110750   4.214   2.817   9.883 -0.5863 -0.3634  0.4319
  724TMC3    C210751   4.221   2.806   9.745  0.2864 -1.1055 -0.6325
  724TMC3    C310752   4.319   2.878   9.685  0.2301 -0.3677  0.0350
  724TMC3    C410753   4.312   2.881   9.957  0.5437  0.4680  0.4329
  724TMC3    C510754   4.421   2.931   9.893  0.2683 -0.4027 -0.2126
  724TMC3    C610755   4.430   2.925   9.757 -0.4203  0.4717  0.5843
  724TMC3     C10756   4.098   2.763   9.958 -0.5648 -0.1245  0.1930
  724TMC3     O10757   4.108   2.772  10.082 -0.5230  0.2647  0.6811
  724TMC3     H10758   4.134   2.787   9.684 -0.8608 -0.3911  0.7758
  724TMC3    H110759   4.302   2.889  10.064 -1.2465 -0.2886  0.3094
  724TMC3    H210760   4.521   2.958   9.707  0.8961  0.2264  2.7689
  724TMC3    C710761   4.527   3.008   9.960 -0.3295 -0.3430 -0.0639
  724TMC3    C810762   4.286   2.936   9.562  0.0661  0.3159  0.0328
  724TMC3    O110763   4.626   3.048   9.899 -0.4197  0.2472  0.7636
  724TMC3    O210764   4.196   2.897   9.485  0.0619 -0.2612 -0.0915
  725TMC3    C110765   0.939   2.505  12.914 -0.3929 -0.2433 -0.0431
  725TMC3    C210766   0.983   2.472  12.788  1.1620 -0.2868 -0.8294
  725TMC3    C310767   0.945   2.364  12.720  0.2214  0.4605  0.0540
  725TMC3    C410768   0.878   2.409  12.978  0.2100  0.6128  0.4417
  725TMC3    C510769   0.849   2.289  12.920  0.4004  0.0200  0.7680
  725TMC3    C610770   0.876   2.263  12.789  0.1378 -0.1127  0.1464
  725TMC3     C10771   1.047   2.561  12.993  0.2151  0.3330 -0.1823
  725TMC3     O10772   1.093   2.669  12.962  0.0043 -0.1619 -0.5307
  725TMC3     H10773   1.062   2.535  12.748  2.3245 -0.8481  0.5918
  725TMC3    H110774   0.844   2.423  13.079 -0.9915  1.2745 -0.0568
  725TMC3    H210775   0.845   2.176  12.732  1.2711  0.2782 -1.0566
  725TMC3    C710776   0.847   2.177  13.019 -0.1931 -0.5629 -0.3825
  725TMC3    C810777   1.029   2.315  12.611 -0.2200  0.1398  0.1611
  725TMC3    O110778   0.861   2.207  13.138 -0.3838  0.3247 -0.2721
  725TMC3    O210779   1.045   2.191  12.604  0.3180 -0.6513 -0.2148
  726MPD2     C10780   4.013   3.192  10.429  0.6726 -1.0363  0.1970
  726MPD2    C110781   3.913   3.253  10.351 -0.4436  0.0026 -0.0749
  726MPD2    C210782   3.782   3.214  10.371  0.0653 -0.1834  0.0496
  726MPD2    C310783   3.749   3.131  10.473 -0.2294 -0.5663 -0.6472
  726MPD2    C410784   3.841   3.081  10.550 -0.0162 -0.1550  0.4193
  726MPD2    C510785   3.973   3.108  10.530  0.3974  0.0096 -0.1629
  726MPD2     H10786   3.705   3.247  10.303 -0.4429  0.0958  0.7698
  726MPD2    H110787   3.811   3.019  10.634  2.0643 -1.0577  0.4920
  726MPD2    H210788   4.120   3.199  10.411  0.6937 -1.0708  0.3141
  726MPD2    H310789   4.056   3.076  10.593  0.1502  1.2897  0.8059
  726MPD2     N10790   3.618   3.110  10.515 -0.4806  0.0930  0.3980
  726MPD2    H510791   3.608   3.056  10.601  1.7159  1.9464  1.8194
  726MPD2    N110792   3.948   3.343  10.247 -0.2571 -0.6979  0.5513
  726MPD2    H710793   4.047   3.364  10.233 -0.3873 -0.4462  0.0441
  727TMC3    C110794   3.914   3.520  10.095 -0.3683  0.5435 -0.2423
  727TMC3    C210795   3.973   3.623  10.164 -0.4773 -0.5707  0.2731
  727TMC3    C310796   4.006   3.732  10.091  0.7894 -0.5665 -0.4924
  727TMC3    C410797   3.877   3.527   9.966  0.1654 -0.3810 -0.6299
  727TMC3    C510798   3.914   3.637   9.893 -0.1259 -0.4671 -0.6220
  727TMC3    C610799   3.980   3.740   9.957  0.1196  0.2300  0.0055
  727TMC3     C10800   3.859   3.403  10.160 -0.3789 -0.4123 -0.6621
  727TMC3     O10801   3.744   3.379  10.137  0.7462  0.2824 -0.0945
  727TMC3     H10802   3.996   3.623  10.270  2.8041 -3.0446 -0.4381
  727TMC3    H110803   3.829   3.447   9.911  0.2648 -0.7709 -0.1514
  727TMC3    H210804   4.001   3.826   9.894  3.0505 -0.2615  0.3359
  727TMC3    C710805   3.890   3.637   9.751  0.6829 -0.5982  0.6884
  727TMC3    C810806   4.045   3.856  10.165  0.1448  0.1832 -0.5256
  727TMC3    O110807   3.888   3.528   9.694  0.3286  0.1474  0.1635
  727TMC3    O210808   4.071   3.845  10.283 -0.1608 -0.2623 -0.1405
  728TMC3    C110809   3.342   1.559  14.691 -0.2886  0.5724  0.0217
  728TMC3    C210810   3.467   1.606  14.654 -0.4977 -0.3369  0.9193
  728TMC3    C310811   3.473   1.689  14.549 -0.2117 -0.1111  0.6417
  728TMC3    C410812   3.231   1.602  14.610 -0.3801  0.3764  0.2414
  728TMC3    C510813   3.252   1.677  14.496  0.3463 -0.2639 -0.6685
  728TMC3    C610814   3.376   1.720  14.464 -0.2554  0.1821 -0.1241
  728TMC3     C10815   3.331   1.552  14.834 -0.3913 -0.0905 -0.2484
  728TMC3     O10816   3.434   1.551  14.898  0.4448  0.3126  0.1340
  728TMC3     H10817   3.550   1.592  14.722 -0.0181 -0.5438  0.2934
  728TMC3    H110818   3.127   1.583  14.635 -0.4136 -2.3986 -2.0208
  728TMC3    H210819   3.401   1.786  14.382 -2.4090  0.6815 -0.3880
  728TMC3    C710820   3.137   1.727  14.424  0.5385 -0.1451 -0.2736
  728TMC3    C810821   3.604   1.727  14.517 -0.0701  0.6017 -0.1830
  728TMC3    O110822   3.061   1.654  14.361 -0.4644  0.1178 -0.2442
  728TMC3    O210823   3.633   1.746  14.401  0.2079 -0.2559 -0.0337
  729MPD2     C10824   0.065   3.514  16.398  0.2186  0.4930 -0.9068
  729MPD2    C110825   0.166   3.420  16.373  0.6993 -0.4455 -0.6781
  729MPD2    C210826   0.236   3.374  16.481  0.6379 -0.0947  0.5737
  729MPD2    C310827   0.229   3.428  16.606 -0.3776  0.5393  0.0122
  729MPD2    C410828   0.137   3.530  16.626 -0.1238 -0.9053 -0.8317
  729MPD2    C510829   0.046   3.560  16.529  0.4997  0.8524 -0.2944
  729MPD2     H10830   0.304   3.291  16.461  0.7846  0.1190  0.1774
  729MPD2    H110831   0.135   3.576  16.724  2.0784 -1.6271 -0.4436
  729MPD2    H210832   0.001   3.555  16.321  1.1441 -0.0674 -1.9722
  729MPD2    H310833   4.703   3.623  16.555 -1.6356 -1.4378 -1.7067
  729MPD2     N10834   0.298   3.370  16.718  0.3971 -0.0374 -0.8770
  729MPD2    H510835   0.290   3.418  16.807 -2.1961 -0.5174 -0.8569
  729MPD2    N110836   0.190   3.381  16.239  0.0691  0.7042 -0.0368
  729MPD2    H710837   0.146   3.436  16.165 -2.4904 -1.9074 -0.4613
  730TMC3    C110838   0.442   3.243  16.843 -0.1543  0.3114 -0.2351
  730TMC3    C210839   0.577   3.247  16.819 -0.5255  0.1352  0.4956
  730TMC3    C310840   0.652   3.317  16.906  0.3578 -0.2150  0.3850
  730TMC3    C410841   0.379   3.312  16.947  0.2069  0.1339 -0.3730
  730TMC3    C510842   0.456   3.385  17.034  0.7136 -0.0734  0.0319
  730TMC3    C610843   0.594   3.386  17.018  0.3641 -0.0647 -0.3325
  730TMC3     C10844   0.383   3.260  16.717  0.4429  0.1171  0.0383
  730TMC3     O10845   0.413   3.188  16.626 -0.0433  0.9256 -0.3174
  730TMC3     H10846   0.613   3.186  16.737 -3.7084  0.9604 -1.5482
  730TMC3    H110847   0.272   3.302  16.962  0.1635  0.1755 -0.6566
  730TMC3    H210848   0.662   3.439  17.084  0.3275 -1.5150  0.8696
  730TMC3    C710849   0.394   3.509  17.078  0.2930 -0.1326 -0.4015
  730TMC3    C810850   0.766   3.380  16.837 -0.6730  0.7982  0.1791
  730TMC3    O110851   0.304   3.530  16.998  0.2345 -0.1932  0.5043
  730TMC3    O210852   0.784   3.339  16.724  0.1810  0.0088 -0.2139
  731MPD2     C10853   4.601   1.628  12.342  0.1829 -0.3658 -0.1885
  731MPD2    C110854   4.720   1.564  12.304 -0.2529  0.4440 -0.3934
  731MPD2    C210855   0.061   1.526  12.412  0.7068 -0.6208  0.2065
  731MPD2    C310856   0.026   1.558  12.547  0.3221  0.6364 -0.4330
  731MPD2    C410857   4.658   1.640  12.575 -0.3610  0.3454 -0.1474
  731MPD2    C510858   4.573   1.668  12.471  0.3581  0.2682  0.6170
  731MPD2     H10859   0.145   1.460  12.393  1.0803 -0.5253  1.5319
  731MPD2    H110860   4.634   1.679  12.673 -0.3819 -0.2333  0.0745
  731MPD2    H210861   4.536   1.667  12.265 -1.4004 -0.7591  0.9398
  731MPD2    H310862   4.488   1.733  12.483  0.8289  0.9049  0.4705
  731MPD2     N10863   0.107   1.500  12.650  0.2257 -0.2607 -0.3822
  731MPD2    H510864   0.176   1.430  12.624 -0.3279 -2.0413  2.9043
  731MPD2    N110865   0.018   1.541  12.170 -0.2770  0.4047  0.0347
  731MPD2    H710866   0.101   1.485  12.155 -0.6247  0.4377 -2.0648
  732TMC3    C110867   0.001   1.514  11.932 -0.7427 -0.0336 -0.6097
  732TMC3    C210868   4.650   1.469  11.839 -0.2223  0.2448  0.4805
  732TMC3    C310869   4.694   1.371  11.751 -0.3180  0.2739 -1.2105
  732TMC3    C410870   0.139   1.488  11.928  0.1983  0.4284  0.1541
  732TMC3    C510871   0.177   1.399  11.826 -0.1650 -0.5520  0.7344
  732TMC3    C610872   0.087   1.343  11.736  0.2357 -0.4589 -0.6166
  732TMC3     C10873   4.685   1.573  12.056 -0.1148 -0.4411 -0.7765
  732TMC3     O10874   4.567   1.604  12.034 -0.3727  0.2762  0.0441
  732TMC3     H10875   4.549   1.508  11.841 -0.8321 -1.2546 -1.2840
  732TMC3    H110876   0.204   1.538  11.999  0.4545 -0.0161  0.2295
  732TMC3    H210877   0.107   1.271  11.658  0.2908  0.4706 -1.4560
  732TMC3    C710878   0.315   1.369  11.801 -0.6377 -0.5797 -0.3951
  732TMC3    C810879   4.605   1.262  11.731  0.5928 -0.8175  0.4087
  732TMC3    O110880   0.335   1.308  11.698  0.1497 -0.0358  0.2160
  732TMC3    O210881   4.654   1.163  11.684 -0.3862 -0.8252 -0.4550
  733TMC3    C110882   1.348   4.507  12.634  0.2106  0.7042  0.3396
  733TMC3    C210883   1.473   4.492  12.690 -0.6835  0.4096 -0.2536
  733TMC3    C310884   1.575   4.542  12.613 -0.5356 -0.3533  0.4452
  733TMC3    C410885   1.330   4.533  12.496 -0.1776 -0.0277  0.3838
  733TMC3    C510886   1.439   4.556  12.421  0.3147 -1.0808  0.3498
  733TMC3    C610887   1.563   4.561  12.477  0.2872  0.4851  0.2256
  733TMC3     C10888   1.236   4.523  12.722 -0.2372  0.1642 -0.2650
  733TMC3     O10889   1.140   4.583  12.680  0.5240  0.3350 -0.0557
  733TMC3     H10890   1.483   4.486  12.798 -0.3720 -0.2858 -0.3197
  733TMC3    H110891   1.234   4.543  12.447  1.3682  1.1455 -2.4054
  733TMC3    H210892   1.652   4.568  12.415 -0.1557 -1.9797 -0.7061
  733TMC3    C710893   1.417   4.648  12.305 -0.4227 -0.1004  0.2310
  733TMC3    C810894   1.687   4.590  12.690  0.2304  0.0224  1.1342
  733TMC3    O110895   1.318   4.622  12.236  0.3927 -0.5155 -0.4586
  733TMC3    O210896   1.731   4.525  12.788 -0.0448 -0.6799  0.4111
  734MPD2     C10897   3.628   2.441  11.994  0.0521  0.9325  0.5974
  734MPD2    C110898   3.531   2.377  11.924 -0.3219 -0.0623 -0.7231
  734MPD2    C210899   3.532   2.402  11.787  0.4351  0.8613  0.2439
  734MPD2    C310900   3.623   2.477  11.722 -0.4713  0.7235 -0.2006
  734MPD2    C410901   3.722   2.531  11.802 -0.2410 -0.0457 -0.2741
  734MPD2    C510902   3.731   2.507  11.937  0.6918  0.0960 -0.2756
  734MPD2     H10903   3.464   2.342  11.728  0.6630  1.7368 -0.8953
  734MPD2    H110904   3.807   2.587  11.766 -0.1113 -0.0694 -0.0005
  734MPD2    H210905   3.624   2.419  12.100 -0.7932  0.2978  0.4356
  734MPD2    H310906   3.799   2.553  12.007 -1.5739  1.3731  1.0672
  734MPD2     N10907   3.619   2.502  11.586 -0.0170 -1.4770  0.7259
  734MPD2    H510908   3.533   2.462  11.548 -0.3221 -1.3159  1.2405
  734MPD2    N110909   3.435   2.296  11.993 -0.0833  0.4411  0.0737
  734MPD2    H710910   3.462   2.279  12.090 -1.6633 -1.0991  0.2456
  735TMC3    C110911   3.269   2.125  11.988 -0.1661  0.3315  1.0200
  735TMC3    C210912   3.168   2.079  11.908  0.0420 -0.1806  0.4187
  735TMC3    C310913   3.170   1.947  11.882 -0.1219 -0.3784 -0.0895
  735TMC3    C410914   3.358   2.037  12.049  0.2012  0.3780  0.2003
  735TMC3    C510915   3.346   1.905  12.016  0.2003 -0.4685  0.7158
  735TMC3    C610916   3.258   1.858  11.923  0.8897  0.0049 -0.3541
  735TMC3     C10917   3.322   2.242  11.929 -0.0869  0.4543 -0.4227
  735TMC3     O10918   3.274   2.262  11.817  0.4269  0.0164 -0.1339
  735TMC3     H10919   3.098   2.142  11.853  0.8857  0.0376 -0.4076
  735TMC3    H110920   3.437   2.081  12.109 -0.4181  0.8823  0.6420
  735TMC3    H210921   3.261   1.754  11.895 -1.2106  0.1268 -1.0324
  735TMC3    C710922   3.468   1.831  12.023 -0.3391 -0.2353 -0.2508
  735TMC3    C810923   3.144   1.930  11.739 -0.0818  1.2882  0.9704
  735TMC3    O110924   3.484   1.726  11.959 -0.2126 -0.0479  0.3825
  735TMC3    O210925   3.127   1.815  11.704  0.1373 -0.6933  0.6847
  736MPD2     C10926   3.752   1.916  12.223 -0.3429 -0.0267  0.5854
  736MPD2    C110927   3.689   1.841  12.129  0.0558 -0.0905  0.4328
  736MPD2    C210928   3.756   1.755  12.048 -0.1333 -0.5043 -0.3553
  736MPD2    C310929   3.893   1.746  12.066 -0.0265  0.1918  0.2933
  736MPD2    C410930   3.953   1.817  12.165  1.5271 -0.0475  0.5664
  736MPD2    C510931   3.884   1.895  12.245 -0.1956  0.2988  0.4307
  736MPD2     H10932   3.704   1.703  11.968  0.9292  0.1218 -1.4533
  736MPD2    H110933   4.060   1.804  12.181  1.2937 -0.8292  1.5157
  736MPD2    H210934   3.695   1.993  12.276 -0.9000  0.4062 -0.6366
  736MPD2    H310935   3.939   1.955  12.317  1.2354  0.2084 -0.5845
  736MPD2     N10936   3.975   1.676  11.981 -0.3087 -0.1102 -0.2916
  736MPD2    H510937   4.075   1.693  11.980 -0.2623 -0.2833  1.4520
  736MPD2    N110938   3.559   1.878  12.112 -0.8620 -0.0891 -0.4957
  736MPD2    H710939   3.515   1.944  12.176 -0.4828  0.9951 -1.3453
  737TMC3    C110940   4.021   1.547  11.797 -0.2232 -0.1080  0.8405
  737TMC3    C210941   4.120   1.638  11.775  0.1043 -0.6063 -0.1601
  737TMC3    C310942   4.236   1.597  11.712  0.6163 -0.7932 -0.4074
  737TMC3    C410943   4.032   1.419  11.753 -0.0157 -1.2616  0.2998
  737TMC3    C510944   4.146   1.384  11.696  0.0537 -0.2741 -0.0517
  737TMC3    C610945   4.253   1.467  11.675  0.1885  0.2130 -0.1129
  737TMC3     C10946   3.920   1.576  11.897  0.2828 -0.0664 -0.2419
  737TMC3     O10947   3.826   1.496  11.913  0.6459  0.2339 -0.1021
  737TMC3     H10948   4.108   1.744  11.796  0.0921 -0.8199  0.9214
  737TMC3    H110949   3.954   1.347  11.778 -0.9223 -0.4634 -0.2113
  737TMC3    H210950   4.353   1.437  11.644 -0.1237  1.6348 -2.5297
  737TMC3    C710951   4.161   1.256  11.643 -0.3917 -0.1940 -0.5676
  737TMC3    C810952   4.347   1.692  11.702  0.0677 -1.4190 -0.1689
  737TMC3    O110953   4.072   1.176  11.673  0.5699  0.1158 -0.3591
  737TMC3    O210954   4.353   1.768  11.799  0.1513 -0.0111 -0.2447
  738MPD2     C10955   4.263   0.584  15.333 -0.4577 -0.1626  0.2500
  738MPD2    C110956   4.291   0.493  15.236  0.5653 -0.4488 -0.5055
  738MPD2    C210957   4.380   0.527  15.135 -0.0213 -0.2228 -0.6154
  738MPD2    C310958   4.441   0.653  15.131 -0.0611  0.3825  0.8904
  738MPD2    C410959   4.434   0.736  15.241 -0.1169  0.7822  0.2325
  738MPD2    C510960   4.341   0.703  15.333  1.1462 -0.1116  0.7136
  738MPD2     H10961   4.389   0.458  15.052 -0.2331 -1.6325  0.5267
  738MPD2    H110962   4.486   0.829  15.256  1.0900  0.3749 -1.4030
  738MPD2    H210963   4.186   0.584  15.409 -0.0143  2.6615  0.7024
  738MPD2    H310964   4.316   0.776  15.410 -2.3229 -1.4211  0.8194
  738MPD2     N10965   4.531   0.692  15.028 -0.0158 -0.2929  0.1057
  738MPD2    H510966   4.584   0.774  15.054  0.4556 -0.4715 -0.3052
  738MPD2    N110967   4.224   0.362  15.232  0.3211 -0.4698 -0.1902
  738MPD2    H710968   4.223   0.301  15.152  1.1963  0.8124 -1.1907
  739TMC3    C110969   4.637   0.677  14.821  0.3611 -0.5976 -0.1470
  739TMC3    C210970   4.609   0.721  14.693  0.6954 -0.7905 -0.2710
  739TMC3    C310971   4.708   0.783  14.625 -0.4956 -0.1104 -0.6438
  739TMC3    C410972   0.009   0.710  14.884  0.1016 -0.2174 -0.8235
  739TMC3    C510973   0.107   0.776  14.811 -0.0563  0.5520  0.0520
  739TMC3    C610974   0.085   0.826  14.685 -0.0095 -0.4581  0.6504
  739TMC3     C10975   4.523   0.640  14.903  0.1673 -0.1001 -0.1174
  739TMC3     O10976   4.437   0.574  14.849  0.6767  0.4481 -0.4743
  739TMC3     H10977   4.521   0.677  14.648  0.3559 -0.1559 -0.2186
  739TMC3    H110978   0.022   0.680  14.987  0.4553 -0.3678 -0.9146
  739TMC3    H210979   0.164   0.876  14.630 -0.4698 -0.3141  0.1234
  739TMC3    C710980   0.249   0.752  14.851 -0.0112  0.5826 -0.4600
  739TMC3    C810981   4.677   0.844  14.499 -0.4070 -0.0307  0.3154
  739TMC3    O110982   0.327   0.739  14.762  0.7566  0.1668 -0.3427
  739TMC3    O210983   4.556   0.848  14.472  0.1306 -0.0287 -0.0958
  740TMC3    C110984   0.241   1.800  14.438 -0.1096 -0.2030  0.4329
  740TMC3    C210985   0.274   1.765  14.567 -0.6421  0.1579  0.5267
  740TMC3    C310986   0.408   1.763  14.599  0.5025  0.5987 -0.3674
  740TMC3    C410987   0.330   1.852  14.349  0.0830 -0.2813 -0.6609
  740TMC3    C510988   0.465   1.840  14.377 -0.0596  0.6258 -0.4018
  740TMC3    C610989   0.497   1.800  14.499  0.1604 -0.0770  0.4906
  740TMC3     C10990   0.101   1.830  14.403 -1.1732 -0.0424  0.2690
  740TMC3     O10991   0.069   1.856  14.286 -0.2545  0.1847 -0.5093
  740TMC3     H10992   0.202   1.714  14.629 -0.5637  3.0683  3.0437
  740TMC3    H110993   0.290   1.892  14.256 -1.2271 -1.0227 -0.4165
  740TMC3    H210994   0.602   1.779  14.513  0.4854 -0.0870 -1.8785
  740TMC3    C710995   0.562   1.823  14.268  0.1327 -0.1054  0.3265
  740TMC3    C810996   0.465   1.715  14.725 -0.3199 -0.1704 -0.3865
  740TMC3    O110997   0.678   1.805  14.303 -0.0590  0.0873 -0.3260
  740TMC3    O210998   0.586   1.700  14.733 -0.3890  0.0379 -0.2479
  741TMC3    C110999   4.434   1.491  14.334  0.4083  0.3784 -0.8933
  741TMC3    C211000   4.339   1.393  14.356 -0.2092  0.0686 -0.2037
  741TMC3    C311001   4.394   1.285  14.423 -0.0251 -0.1130  0.1927
  741TMC3    C411002   4.563   1.490  14.384  0.0271 -0.0726 -0.2800
  741TMC3    C511003   4.607   1.378  14.450  0.1893 -0.0771  0.0093
  741TMC3    C611004   4.523   1.277  14.476 -0.7914  0.0543  0.1187
  741TMC3     C11005   4.393   1.609  14.273  0.3388 -0.1871 -0.2800
  741TMC3     O11006   4.276   1.637  14.288 -0.5430  0.1103 -0.4123
  741TMC3     H11007   4.235   1.396  14.324  0.4353  1.7046 -2.1729
  741TMC3    H111008   4.623   1.580  14.380 -2.6562  1.6757 -1.2865
  741TMC3    H211009   4.561   1.179  14.503 -1.2233  0.3908  1.9716
  741TMC3    C711010   0.007   1.375  14.492 -0.5824 -1.0585  0.2051
  741TMC3    C811011   4.316   1.171  14.418  0.1607 -0.3402 -0.3387
  741TMC3    O111012   0.088   1.448  14.434  0.1591  0.6314  0.1943
  741TMC3    O211013   4.233   1.173  14.332 -0.6053 -0.1916 -0.1125
  742TMC3    C111014   0.094   4.160  15.429 -0.0614  0.1850 -0.7540
  742TMC3    C211015   4.724   4.138  15.348 -0.9529 -0.1075  0.0884
  742TMC3    C311016   4.723   4.031  15.270 -0.2976  0.2883  0.2952
  742TMC3    C411017   0.215   4.091  15.419  0.3674 -0.3824  0.4731
  742TMC3    C511018   0.214   3.993  15.326 -0.6564 -0.3973 -0.2859
  742TMC3    C611019   0.096   3.960  15.256 -0.2143 -0.2894 -0.1949
  742TMC3     C11020   0.082   4.274  15.519  0.3929 -0.2505 -0.1091
  742TMC3     O11021   4.709   4.302  15.561  0.1109  0.3376  0.1456
  742TMC3     H11022   4.632   4.189  15.377 -0.5621  1.3042 -1.1759
  742TMC3    H111023   0.307   4.115  15.472 -0.0345 -2.3149  2.0544
  742TMC3    H211024   0.093   3.881  15.182  1.5142  1.8816 -2.5689
  742TMC3    C711025   0.318   3.900  15.308  0.1256 -0.0431  0.3566
  742TMC3    C811026   4.621   4.014  15.168 -0.1297  0.8694  0.2847
  742TMC3    O111027   0.331   3.829  15.209  0.1444  0.0499 -0.5094
  742TMC3    O211028   4.629   3.912  15.100 -0.5642  0.8798 -0.1557
  743MPD2     C11029   2.193   0.569   1.260 -0.2162 -0.1481 -0.1153
  743MPD2    C111030   2.268   0.569   1.145 -0.1398 -0.0931 -0.0577
  743MPD2    C211031   2.404   0.575   1.158  0.6929 -0.0913  0.0051
  743MPD2    C311032   2.472   0.583   1.273  0.3655 -0.0945 -0.3930
  743MPD2    C411033   2.396   0.584   1.386 -0.7539 -0.3776 -0.4652
  743MPD2    C511034   2.259   0.589   1.381  0.4521  0.0943  0.2231
  743MPD2     H11035   2.460   0.560   1.066 -1.8153 -1.8277 -1.2233
  743MPD2    H111036   2.435   0.592   1.487  1.2566  0.8246 -1.3294
  743MPD2    H211037   2.084   0.569   1.266 -0.2007  1.4654  0.1713
  743MPD2    H311038   2.205   0.589   1.475  0.1721  1.4754  0.0676
  743MPD2     N11039   2.610   0.591   1.274  0.6545  0.5968  0.5513
  743MPD2    H511040   2.660   0.591   1.186  0.2908 -0.3328  0.3449
  743MPD2    N111041   2.215   0.550   1.014  1.1962 -0.1357 -0.0737
  743MPD2    H711042   2.277   0.553   0.933  2.4665  2.1055  1.0008
  744TMC3    C111043   2.056   0.522   0.841 -0.7174  0.5421  0.3010
  744TMC3    C211044   1.956   0.602   0.798  0.4727 -0.6745  0.4433
  744TMC3    C311045   1.944   0.617   0.660 -0.0170  0.5371 -0.4262
  744TMC3    C411046   2.148   0.466   0.762 -0.6234 -0.0310  0.4296
  744TMC3    C511047   2.131   0.483   0.629  0.1834  0.3952  0.0462
  744TMC3    C611048   2.030   0.554   0.571  0.1398 -0.5574 -0.0098
  744TMC3     C11049   2.079   0.530   0.988  0.2145  0.5839  0.1911
  744TMC3     O11050   1.983   0.555   1.064 -0.3812 -0.3605  1.1050
  744TMC3     H11051   1.873   0.627   0.863 -0.1257  0.4819 -0.7559
  744TMC3    H111052   2.243   0.427   0.796  0.4129  1.0760 -1.1787
  744TMC3    H211053   2.022   0.570   0.464  1.1272 -0.7197 -0.1053
  744TMC3    C711054   2.213   0.410   0.539  0.3088 -0.4254 -0.1367
  744TMC3    C811055   1.854   0.717   0.609 -0.2244  0.2638  0.0425
  744TMC3    O111056   2.247   0.468   0.433 -0.0177 -0.2304  0.0807
  744TMC3    O211057   1.835   0.806   0.696 -0.1913 -0.5313 -0.2876
  745TMC3    C111058   0.090   3.994  13.639 -1.1773 -0.3794  0.1492
  745TMC3    C211059   4.712   3.971  13.695 -0.4368  0.3123 -0.5725
  745TMC3    C311060   4.606   3.955  13.616  0.5415 -0.4222  0.3371
  745TMC3    C411061   0.115   4.004  13.503  0.4641  0.4253  0.2659
  745TMC3    C511062   0.007   3.970  13.428  0.0475 -0.1738  1.2650
  745TMC3    C611063   4.623   3.945  13.483 -0.3624 -0.0960 -0.2814
  745TMC3     C11064   0.181   4.052  13.736 -0.2200 -0.4175  0.4479
  745TMC3     O11065   0.169   4.025  13.853 -0.0343 -0.0379  0.1559
  745TMC3     H11066   4.703   3.970  13.803 -3.6634 -0.6669 -0.8640
  745TMC3    H111067   0.210   4.033  13.458  0.9415  0.2260  1.1493
  745TMC3    H211068   4.539   3.918  13.420 -1.8159  0.7725  1.3118
  745TMC3    C711069   0.020   3.994  13.291 -0.2053  0.3205  0.1613
  745TMC3    C811070   4.518   4.062  13.627  0.1867  0.3352  0.5078
  745TMC3    O111071   4.731   3.906  13.211  0.3471 -0.2766 -0.0567
  745TMC3    O211072   4.434   4.079  13.538  0.0292  0.0849 -0.3269
  746TMC3    C111073   2.508   1.353  10.860  0.4214  0.1295 -0.4412
  746TMC3    C211074   2.542   1.375  10.726  0.2697  0.6963  0.4110
  746TMC3    C311075   2.520   1.277  10.635  0.4999 -0.7522  0.6484
  746TMC3    C411076   2.460   1.236  10.916 -0.2545  0.1853 -0.0389
  746TMC3    C511077   2.429   1.151  10.818 -0.5337 -0.7457 -0.3567
  746TMC3    C611078   2.457   1.163  10.686  0.0072  0.3911 -0.0800
  746TMC3     C11079   2.526   1.461  10.957 -0.2855 -0.2312 -0.1190
  746TMC3     O11080   2.453   1.456  11.056  0.1017  0.1472  0.0449
  746TMC3     H11081   2.577   1.472  10.692 -1.3268  1.9745  2.3659
  746TMC3    H111082   2.431   1.223  11.020  0.3329 -1.6587 -0.1184
  746TMC3    H211083   2.422   1.085  10.619  0.4698 -0.1487  0.3139
  746TMC3    C711084   2.337   1.041  10.850 -0.2887  0.1236 -0.0075
  746TMC3    C811085   2.461   1.313  10.502  0.1941 -0.5345 -0.4697
  746TMC3    O111086   2.283   0.990  10.756 -1.0200  0.4131  0.3565
  746TMC3    O211087   2.410   1.223  10.438  0.4393  0.2087  0.1162
  747TMC3    C111088   0.186   1.049  10.932 -0.5553 -0.5619  0.1956
  747TMC3    C211089   0.058   1.048  10.980  0.4651 -0.2896 -0.0512
  747TMC3    C311090   0.033   1.054  11.113  0.2928  0.5775  0.5754
  747TMC3    C411091   0.295   1.058  11.022 -0.6041  0.3767 -0.7701
  747TMC3    C511092   0.265   1.079  11.153 -0.2437  0.3400 -0.5000
  747TMC3    C611093   0.137   1.075  11.204  0.1225 -0.1347  0.6498
  747TMC3     C11094   0.218   1.099  10.800  0.5081 -1.2790  0.3420
  747TMC3     O11095   0.313   1.180  10.793  0.5196  0.4346 -0.5023
  747TMC3     H11096   4.714   1.046  10.913  1.3462  1.0453 -1.1888
  747TMC3    H111097   0.396   1.061  10.984 -0.8617 -0.7644 -1.5408
  747TMC3    H211098   0.129   1.091  11.311 -0.9444  0.8875  0.4218
  747TMC3    C711099   0.369   1.102  11.253 -0.2310  1.1205 -0.2821
  747TMC3    C811100   4.654   0.996  11.170 -0.2523  0.4538 -0.0802
  747TMC3    O111101   0.331   1.163  11.355  0.0712 -0.0015 -0.2061
  747TMC3    O211102   4.608   0.887  11.133 -0.2139 -0.4075 -0.0176
  748MPD2     C11103   1.314   2.099   1.224 -0.3037  0.9692 -0.6943
  748MPD2    C111104   1.299   1.965   1.178  0.1654 -0.4619  0.6635
  748MPD2    C211105   1.406   1.879   1.180 -0.4356 -0.3141 -0.7075
  748MPD2    C311106   1.532   1.928   1.227 -0.0402  0.2812  0.1467
  748MPD2    C411107   1.539   2.050   1.283  0.1093  0.7607  1.0037
  748MPD2    C511108   1.433   2.134   1.285  0.4596 -0.4080 -0.5915
  748MPD2     H11109   1.405   1.779   1.140 -1.4646 -1.4571  2.1587
  748MPD2    H111110   1.634   2.091   1.317  0.6594  1.0932 -0.9058
  748MPD2    H211111   1.235   2.173   1.216 -0.0978  1.2468 -0.1953
  748MPD2    H311112   1.439   2.234   1.325  0.3544 -0.9004  0.6534
  748MPD2     N11113   1.648   1.847   1.193 -0.8058  0.1659  0.1066
  748MPD2    H511114   1.631   1.765   1.135 -0.2440 -0.5584  0.9708
  748MPD2    N111115   1.175   1.936   1.114 -0.4820 -0.0811  0.2687
  748MPD2    H711116   1.113   2.015   1.098  1.0133  0.8855 -0.7751
  749TMC3    C111117   1.858   1.815   1.090 -0.2583  0.1835  0.1158
  749TMC3    C211118   1.848   1.680   1.095  0.4519  0.4648 -0.2686
  749TMC3    C311119   1.932   1.605   1.023 -0.4616 -0.3130 -0.1463
  749TMC3    C411120   1.953   1.874   1.004  0.4025  0.7617  0.3758
  749TMC3    C511121   2.035   1.794   0.937  0.3700 -0.2937 -0.0317
  749TMC3    C611122   2.031   1.660   0.946  0.8352 -0.5863  0.0707
  749TMC3     C11123   1.773   1.895   1.178 -1.1393 -0.7119  0.5882
  749TMC3     O11124   1.813   2.003   1.216  0.2018 -0.5547  0.4709
  749TMC3     H11125   1.772   1.637   1.160  0.0883  3.3038  1.1756
  749TMC3    H111126   1.971   1.979   0.987 -0.0945  0.7565 -0.1889
  749TMC3    H211127   2.089   1.601   0.876 -0.9938 -1.9905 -0.2555
  749TMC3    C711128   2.137   1.853   0.850 -0.1203 -0.4453 -0.2995
  749TMC3    C811129   1.929   1.459   1.048  0.0600 -0.1040 -0.4499
  749TMC3    O111130   2.106   1.963   0.805 -0.0187  0.1963 -0.3185
  749TMC3    O211131   1.824   1.403   1.086 -0.1304 -0.1718  0.0254
  750MPD2     C11132   2.004   3.498  11.332 -0.5399 -0.1446  0.1445
  750MPD2    C111133   1.929   3.404  11.396  0.1948 -0.3941  0.4925
  750MPD2    C211134   1.990   3.280  11.422  0.6738 -0.2693 -0.0979
  750MPD2    C311135   2.118   3.255  11.376 -0.0783  0.2781 -0.9055
  750MPD2    C411136   2.177   3.352  11.299  0.3945  0.0284 -0.2456
  750MPD2    C511137   2.123   3.472  11.277 -0.2324  0.4112  0.0476
  750MPD2     H11138   1.946   3.212  11.494  0.7620  0.4908  0.6857
  750MPD2    H111139   2.277   3.337  11.259  0.6520  0.6848  0.1380
  750MPD2    H211140   1.973   3.602  11.335  1.1937  0.3506  1.1469
  750MPD2    H311141   2.183   3.553  11.237  0.8630 -0.0399  0.7864
  750MPD2     N11142   2.194   3.137  11.395  0.2499 -0.6102 -0.2408
  750MPD2    H511143   2.288   3.148  11.360  0.6427 -1.0966  0.6686
  750MPD2    N111144   1.809   3.448  11.450 -1.0309 -0.6809  0.1770
  750MPD2    H711145   1.766   3.537  11.424 -0.8968  0.0688  2.5552
  751TMC3    C111146   2.216   2.898  11.435 -0.6555  0.1873  0.6546
  751TMC3    C211147   2.183   2.794  11.522  0.4846  0.2925  0.1699
  751TMC3    C311148   2.226   2.669  11.500 -0.0023  0.0095  0.2537
  751TMC3    C411149   2.286   2.871  11.319  1.4295 -0.1343  0.1432
  751TMC3    C511150   2.334   2.742  11.304  0.1718 -0.2969  0.6457
  751TMC3    C611151   2.303   2.640  11.389 -0.0984  0.0228 -0.2373
  751TMC3     C11152   2.139   3.018  11.449 -0.2833  0.5345 -0.1481
  751TMC3     O11153   2.042   2.997  11.520  0.2199 -0.1979  0.0618
  751TMC3     H11154   2.153   2.828  11.621  1.9900  2.8868 -0.2609
  751TMC3    H111155   2.310   2.943  11.242 -0.7976 -1.0261 -1.3739
  751TMC3    H211156   2.332   2.536  11.375  1.9943  0.3281  1.9554
  751TMC3    C711157   2.383   2.718  11.167 -0.1486 -0.6934  0.9234
  751TMC3    C811158   2.122   2.571  11.539 -0.2925 -0.7977  0.1591
  751TMC3    O111159   2.401   2.813  11.091  0.2216 -0.1389 -0.1357
  751TMC3    O211160   2.151   2.457  11.516 -0.2083 -0.1297 -0.2242
  752TMC3    C111161   1.064   2.832  16.606  0.0674 -0.0616 -0.0722
  752TMC3    C211162   1.134   2.737  16.667 -0.2322 -0.4068 -0.2861
  752TMC3    C311163   1.132   2.745  16.802 -0.8022  0.0990  0.8854
  752TMC3    C411164   0.988   2.925  16.671  0.0233  0.7049  0.6858
  752TMC3    C511165   1.008   2.931  16.807 -0.2590  0.6816 -0.7885
  752TMC3    C611166   1.072   2.837  16.881 -0.3267  0.2960  0.6231
  752TMC3     C11167   1.051   2.823  16.454 -0.1911  0.3588  0.9634
  752TMC3     O11168   1.120   2.737  16.403  0.2315 -0.0059 -0.8735
  752TMC3     H11169   1.186   2.651  16.625  1.8793 -0.1206  1.7068
  752TMC3    H111170   0.935   3.003  16.617 -3.0289 -0.7876  1.4953
  752TMC3    H211171   1.082   2.837  16.989  2.6160 -0.6293  0.3702
  752TMC3    C711172   0.894   2.996  16.877 -0.5480 -0.2057 -0.0306
  752TMC3    C811173   1.206   2.631  16.866 -0.5238 -0.3511  0.4530
  752TMC3    O111174   0.794   3.013  16.814  0.2027 -0.3150  0.1967
  752TMC3    O211175   1.301   2.586  16.802  0.7821 -0.1495  0.3492
  753TMC3    C111176   3.320   3.961  13.466  0.0121 -0.7341 -0.5321
  753TMC3    C211177   3.343   3.899  13.587  0.0763 -0.2877 -0.4965
  753TMC3    C311178   3.444   3.806  13.588 -0.6293  0.3015 -0.0094
  753TMC3    C411179   3.381   3.924  13.351  0.5979 -0.3249  0.0348
  753TMC3    C511180   3.485   3.835  13.358  0.1350 -0.0012  0.1463
  753TMC3    C611181   3.517   3.773  13.472  1.0751 -0.0116 -0.3526
  753TMC3     C11182   3.240   4.080  13.450 -0.2161  0.0918 -0.2494
  753TMC3     O11183   3.228   4.124  13.338 -0.0282  0.7881 -0.4296
  753TMC3     H11184   3.297   3.930  13.680 -0.7729 -1.1916 -0.6191
  753TMC3    H111185   3.343   3.964  13.258  0.9134  0.9798  0.4686
  753TMC3    H211186   3.594   3.697  13.465 -0.1947 -1.2369 -0.9152
  753TMC3    C711187   3.582   3.824  13.240 -0.4185 -0.1350  0.0327
  753TMC3    C811188   3.501   3.765  13.718 -0.5917  0.5596  0.2117
  753TMC3    O111189   3.643   3.718  13.225  0.7317 -0.2255  0.1862
  753TMC3    O211190   3.543   3.648  13.722  0.0270  0.2788 -0.9225
  754MPD2     C11191   2.239   3.004  12.918 -0.1061 -0.4543 -0.5705
  754MPD2    C111192   2.141   2.914  12.929  0.2272 -0.5143 -0.4981
  754MPD2    C211193   2.016   2.947  12.977  0.9682  0.1161  0.3188
  754MPD2    C311194   1.993   3.066  13.033 -0.1370  0.0648  0.9344
  754MPD2    C411195   2.093   3.161  13.024  0.2304  0.0404 -0.1389
  754MPD2    C511196   2.214   3.134  12.964 -0.0052 -0.4068 -0.0318
  754MPD2     H11197   1.942   2.868  12.968  0.7990  0.3300 -0.1603
  754MPD2    H111198   2.074   3.260  13.063  0.4530 -0.1806  0.5371
  754MPD2    H211199   2.335   2.975  12.876  1.1155 -1.1472  2.6717
  754MPD2    H311200   2.292   3.208  12.954  1.1438 -2.0359 -2.9829
  754MPD2     N11201   1.870   3.081  13.098  0.2008 -0.6188  0.1701
  754MPD2    H511202   1.838   3.176  13.115  1.9053 -0.0048 -0.1129
  754MPD2    N111203   2.167   2.785  12.877  0.1065 -0.6190 -0.4096
  754MPD2    H711204   2.252   2.793  12.823 -0.6128  1.0457 -1.2829
  755MPD2     C11205   1.434   3.804  13.012 -0.0265 -0.0935  0.4953
  755MPD2    C111206   1.337   3.712  13.016  0.0127  0.2849 -0.3837
  755MPD2    C211207   1.368   3.580  13.039 -0.1882 -1.1096  0.2952
  755MPD2    C311208   1.498   3.533  13.051 -0.3973 -0.1909 -0.1729
  755MPD2    C411209   1.599   3.626  13.038  0.7833  0.2409  0.1455
  755MPD2    C511210   1.565   3.757  13.010  0.8270  0.7713  0.2175
  755MPD2     H11211   1.288   3.507  13.046 -1.6906  0.5356  0.2738
  755MPD2    H111212   1.705   3.604  13.049  0.0386 -3.6216 -0.2702
  755MPD2    H211213   1.409   3.908  12.997  0.9372  0.4197  2.4576
  755MPD2    H311214   1.647   3.827  13.003  0.6468  0.9360 -0.2604
  755MPD2     N11215   1.524   3.398  13.081 -0.0818 -0.0698 -0.6077
  755MPD2    H511216   1.622   3.374  13.088 -0.7849 -1.6929  3.1239
  755MPD2    N111217   1.200   3.747  12.993 -0.3005 -0.1060  0.1034
  755MPD2    H711218   1.135   3.669  12.981 -0.7302  0.2694 -0.0193
  756MPD2     C11219   2.106   4.134   9.727  0.2442  0.2706  0.4098
  756MPD2    C111220   2.021   4.042   9.792  0.3807 -0.2493 -0.1926
  756MPD2    C211221   1.902   4.015   9.734  0.0579 -0.6143  0.1083
  756MPD2    C311222   1.863   4.058   9.608  0.1435  0.4503 -0.1243
  756MPD2    C411223   1.952   4.140   9.542  0.8587 -0.5682  0.4557
  756MPD2    C511224   2.067   4.178   9.606 -0.3477  0.2305 -0.3993
  756MPD2     H11225   1.827   3.964   9.795 -0.8908  0.1032 -0.4588
  756MPD2    H111226   1.932   4.183   9.444  0.4946 -0.9551  0.3576
  756MPD2    H211227   2.200   4.166   9.769  0.8161 -1.8429  0.7431
  756MPD2    H311228   2.136   4.245   9.556  1.9613  0.6786  3.3394
  756MPD2     N11229   1.732   4.026   9.564 -0.0983 -0.3890 -0.4871
  756MPD2    H511230   1.666   3.984   9.628  0.3573  0.1404  0.3188
  756MPD2    N111231   2.054   3.996   9.919 -0.4788  0.1250  0.2062
  756MPD2    H711232   1.988   3.929   9.957  0.1088  0.2242  1.4187
  757MPD2     C11233   1.111   3.588   9.993  1.0792  0.0395  0.1151
  757MPD2    C111234   1.245   3.558   9.969  0.0740 -0.2462 -0.4638
  757MPD2    C211235   1.317   3.619   9.867 -0.4578 -0.3229  0.3332
  757MPD2    C311236   1.248   3.712   9.790  0.5741  0.2561 -0.6478
  757MPD2    C411237   1.116   3.751   9.817 -0.4806  0.2242  0.2171
  757MPD2    C511238   1.054   3.688   9.917 -0.8595  0.1834 -0.2625
  757MPD2     H11239   1.419   3.593   9.843  0.1749  2.3243  0.1299
  757MPD2    H111240   1.049   3.815   9.760  1.0131  1.7323  0.1357
  757MPD2    H211241   1.045   3.538  10.063  2.1104 -0.7605  0.5174
  757MPD2    H311242   0.946   3.695   9.921 -0.9522 -0.1865 -2.2390
  757MPD2     N11243   1.320   3.772   9.682 -0.5093 -0.3066 -0.3369
  757MPD2    H511244   1.408   3.734   9.650  0.3944 -0.5322  2.4211
  757MPD2    N111245   1.305   3.469  10.059 -0.2334 -0.0500 -0.4915
  757MPD2    H711246   1.231   3.436  10.122  1.3935 -1.1701  0.8265
  758MPD2     C11247   2.353   2.411  15.379 -0.6496  0.4320 -1.1944
  758MPD2    C111248   2.353   2.293  15.452 -0.0435  0.0886  0.4450
  758MPD2    C211249   2.287   2.292  15.575 -0.4570 -0.7229 -0.1323
  758MPD2    C311250   2.225   2.404  15.626 -0.2935  0.5124  0.5714
  758MPD2    C411251   2.226   2.524  15.546  1.0708  0.0918  0.3178
  758MPD2    C511252   2.287   2.524  15.420 -0.0846  0.0796  0.0384
  758MPD2     H11253   2.272   2.197  15.626  2.3093  0.0911  2.2136
  758MPD2    H111254   2.199   2.622  15.584  0.2261 -0.3897  0.9559
  758MPD2    H211255   2.410   2.419  15.287  0.2346  1.1005 -0.5949
  758MPD2    H311256   2.280   2.616  15.364  0.6676  0.6380  0.8708
  758MPD2     N11257   2.168   2.400  15.758  0.5770 -0.0671  0.3876
  758MPD2    H511258   2.204   2.322  15.813  1.4525  0.8998  1.1862
  758MPD2    N111259   2.415   2.183  15.398  0.3347 -0.1569  0.9576
  758MPD2    H711260   2.440   2.195  15.300  1.8100  2.7140  1.6684
  759MPD2     C11261   0.747   0.684  10.157 -0.7668  0.0399  0.6041
  759MPD2    C111262   0.767   0.665  10.290 -0.6639 -0.5123  0.6130
  759MPD2    C211263   0.820   0.767  10.360  0.2647 -0.3056 -0.1229
  759MPD2    C311264   0.844   0.887  10.306 -0.0065  0.7614 -0.4457
  759MPD2    C411265   0.825   0.905  10.171  0.4840 -0.0409 -0.5187
  759MPD2    C511266   0.782   0.804  10.097  0.3885  0.5095 -0.3276
  759MPD2     H11267   0.834   0.756  10.467 -1.6072 -1.7802 -0.0112
  759MPD2    H111268   0.837   1.000  10.119  0.8056 -0.2605 -0.8512
  759MPD2    H211269   0.691   0.610  10.101  1.0266 -0.7224 -0.1841
  759MPD2    H311270   0.768   0.824   9.991  0.1135  2.0913  0.0163
  759MPD2     N11271   0.893   0.983  10.394  0.4168  0.2989 -0.7007
  759MPD2    H511272   0.916   0.962  10.491  0.6923 -0.6395 -0.9748
  759MPD2    N111273   0.725   0.543  10.351  0.2017 -0.3754 -0.3680
  759MPD2    H711274   0.675   0.485  10.284  3.4140 -1.8347 -1.4798
  760MPD2     C11275   0.490   3.188  12.015  0.6021 -0.1543 -0.3705
  760MPD2    C111276   0.572   3.231  11.917 -0.7890 -0.8327  0.7525
  760MPD2    C211277   0.680   3.148  11.891  0.1921  0.0051  0.1356
  760MPD2    C311278   0.713   3.039  11.975 -0.0957 -0.1020  0.5483
  760MPD2    C411279   0.623   2.994  12.072 -0.5797 -0.0839  0.2161
  760MPD2    C511280   0.511   3.074  12.086  0.7102 -0.5174  0.1221
  760MPD2     H11281   0.743   3.180  11.809 -0.5825 -0.5168 -0.6619
  760MPD2    H111282   0.651   2.906  12.128 -0.4490  1.2766  2.2722
  760MPD2    H211283   0.401   3.245  12.036 -0.7039 -1.7876 -1.5421
  760MPD2    H311284   0.442   3.051  12.167  0.7593  0.0016  0.3116
  760MPD2     N11285   0.837   2.970  11.960  0.8165 -0.2712  0.1054
  760MPD2    H511286   0.863   2.918  12.043 -0.6883  0.0869  0.8076
  760MPD2    N111287   0.572   3.350  11.838  0.7659  0.3415  0.9310
  760MPD2    H711288   0.656   3.369  11.785 -0.8433  1.0319 -1.3839
  761MPD2     C11289   1.625   2.474  11.608 -0.7015  0.2063 -0.7772
  761MPD2    C111290   1.732   2.387  11.588 -0.2250 -0.0570  0.4835
  761MPD2    C211291   1.862   2.440  11.582  0.3810  0.4887  0.0689
  761MPD2    C311292   1.876   2.578  11.590 -0.6542  0.1847  0.0699
  761MPD2    C411293   1.768   2.661  11.618 -0.4875 -0.1356  0.4383
  761MPD2    C511294   1.644   2.604  11.645 -0.3639 -0.5851 -0.6131
  761MPD2     H11295   1.945   2.376  11.555 -0.0578 -0.4910  1.0175
  761MPD2    H111296   1.781   2.769  11.615 -2.8705  0.1470  0.5742
  761MPD2    H211297   1.521   2.450  11.591 -0.1143 -1.9972 -1.2910
  761MPD2    H311298   1.554   2.663  11.660  0.6422  0.6060  0.7270
  761MPD2     N11299   2.004   2.642  11.583 -0.5565  0.2845  0.3750
  761MPD2    H511300   2.009   2.742  11.599 -0.2540 -0.0246  2.2120
  761MPD2    N111301   1.711   2.258  11.536 -0.0536  0.3206  0.1759
  761MPD2    H711302   1.624   2.246  11.484 -0.0793  3.0228 -0.3657
  762MPD2     C11303   2.032   1.530  11.061  0.5953 -0.5788 -0.1420
  762MPD2    C111304   2.039   1.663  11.085 -0.9077  0.6825  0.4811
  762MPD2    C211305   2.132   1.734  11.017 -0.5986  0.2406 -0.2754
  762MPD2    C311306   2.207   1.676  10.913 -0.6831 -0.7442 -0.0303
  762MPD2    C411307   2.185   1.542  10.880  0.0440 -0.5138 -0.2248
  762MPD2    C511308   2.104   1.470  10.958 -0.0598  0.2939  0.3459
  762MPD2     H11309   2.149   1.840  11.028  0.1539  0.0699  0.2391
  762MPD2    H111310   2.237   1.490  10.800  1.5208  2.1909 -1.0193
  762MPD2    H211311   1.969   1.464  11.120 -0.1001 -1.5208 -1.9673
  762MPD2    H311312   2.086   1.366  10.933  0.5781  0.4339 -0.6467
  762MPD2     N11313   2.294   1.752  10.840  0.0560 -0.1954 -0.2735
  762MPD2    H511314   2.323   1.842  10.878  1.4288 -0.5378 -0.4891
  762MPD2    N111315   1.958   1.711  11.188 -0.3552 -0.2469  0.0153
  762MPD2    H711316   1.911   1.642  11.245  0.0901 -0.8670 -0.3667
  763MPD2     C11317   3.146   2.382  15.775  0.1402  0.3253  0.5780
  763MPD2    C111318   3.286   2.365  15.775  0.2378  0.1102 -0.7552
  763MPD2    C211319   3.371   2.424  15.866  0.1163  0.0031  0.3811
  763MPD2    C311320   3.312   2.517  15.954 -0.6926  0.2150  0.6107
  763MPD2    C411321   3.174   2.540  15.952 -0.5827 -0.0243 -0.0502
  763MPD2    C511322   3.086   2.470  15.870 -0.2929  0.0417  0.2127
  763MPD2     H11323   3.476   2.399  15.861  0.7681  3.0298 -0.9456
  763MPD2    H111324   3.125   2.621  16.006 -1.3292 -0.3632 -0.2149
  763MPD2    H211325   3.080   2.320  15.715  0.7344 -0.2910  0.5643
  763MPD2    H311326   2.980   2.488  15.869 -0.4250 -0.6787  1.9883
  763MPD2     N11327   3.401   2.584  16.044 -0.2061  0.4234  0.0108
  763MPD2    H511328   3.495   2.546  16.047  0.1447  1.1933 -1.0963
  763MPD2    N111329   3.346   2.288  15.670  0.4177  0.2315  0.4550
  763MPD2    H711330   3.446   2.282  15.684  0.7295 -1.5155 -2.3343
  764MPD2     C11331   1.632   3.243  17.079  0.4855  0.0455 -0.1071
  764MPD2    C111332   1.573   3.368  17.091 -0.2235 -0.1808 -0.9605
  764MPD2    C211333   1.558   3.427  17.217 -0.1414 -0.2397  0.4625
  764MPD2    C311334   1.591   3.364  17.332 -0.4308 -0.6545  0.1746
  764MPD2    C411335   1.658   3.239  17.319  0.2543  0.3696  0.4348
  764MPD2    C511336   1.672   3.180  17.196  0.9612 -0.0844 -0.0146
  764MPD2     H11337   1.497   3.517  17.226 -0.4124 -0.3829  0.0804
  764MPD2    H111338   1.695   3.191  17.408  0.8912 -0.9573 -0.5537
  764MPD2    H211339   1.631   3.190  16.984  0.8174  1.7094 -1.0486
  764MPD2    H311340   1.716   3.081  17.186  0.8484 -0.1811  0.4302
  764MPD2     N11341   1.564   3.422  17.454 -0.0439  0.0978  0.0583
  764MPD2    H511342   1.538   3.520  17.452 -0.3523 -0.0583 -2.7471
  764MPD2    N111343   1.522   3.440  16.977  0.0762  0.3318 -0.3450
  764MPD2    H711344   1.469   3.525  16.997 -0.6457 -1.0324  3.5924
  765MPD2     C11345   1.822   1.730  15.220  0.5419  0.1821 -0.3721
  765MPD2    C111346   1.888   1.778  15.333  0.1340 -0.0106  0.1638
  765MPD2    C211347   2.017   1.729  15.360 -0.3407 -0.0707 -0.1562
  765MPD2    C311348   2.075   1.639  15.270 -0.3266  0.1433 -0.0176
  765MPD2    C411349   2.002   1.598  15.160  0.5694  0.8834 -0.2426
  765MPD2    C511350   1.877   1.644  15.133  0.1846  1.2250 -0.4131
  765MPD2     H11351   2.068   1.767  15.449 -2.2871  1.8582  0.1261
  765MPD2    H111352   2.042   1.527  15.089  0.0240 -0.3902  0.7095
  765MPD2    H211353   1.724   1.773  15.203 -0.0133 -1.3157 -1.0231
  765MPD2    H311354   1.834   1.607  15.041  2.3456  0.7786 -1.2567
  765MPD2     N11355   2.204   1.594  15.295 -0.2801  0.0458  0.1894
  765MPD2    H511356   2.244   1.627  15.383 -2.1029 -0.0374  1.0573
  765MPD2    N111357   1.818   1.874  15.412  0.2493 -0.1147  0.1193
  765MPD2    H711358   1.726   1.897  15.375  0.3174 -2.5060 -1.5690
  766MPD2     C11359   1.244   1.999  15.369  0.1933 -0.0857 -0.1745
  766MPD2    C111360   1.378   2.020  15.334  0.2538 -1.0044  1.2415
  766MPD2    C211361   1.418   1.990  15.201  0.5306 -0.2138  0.0777
  766MPD2    C311362   1.332   1.932  15.109 -0.5022 -0.0356 -0.2043
  766MPD2    C411363   1.203   1.901  15.151 -0.6260  0.1411  0.0982
  766MPD2    C511364   1.160   1.943  15.279  0.3125 -0.7743 -0.1295
  766MPD2     H11365   1.518   2.022  15.175 -0.0568  1.1571 -0.4723
  766MPD2    H111366   1.135   1.851  15.083 -0.0559  1.1723 -1.2377
  766MPD2    H211367   1.216   2.021  15.472  1.5125 -0.6440  0.3160
  766MPD2    H311368   1.057   1.923  15.304  0.7357 -0.0040  2.2999
  766MPD2     N11369   1.371   1.899  14.978  0.3312  0.2417 -0.6714
  766MPD2    H511370   1.302   1.889  14.904 -0.1552  2.5330 -0.5043
  766MPD2    N111371   1.474   2.080  15.416  0.0975  0.0795 -0.4254
  766MPD2    H711372   1.567   2.084  15.375  0.2210 -0.1780 -0.1723
  767MPD2     C11373   1.036   2.145  15.027 -0.9991 -0.3461  0.3201
  767MPD2    C111374   1.143   2.181  14.949  0.6789 -0.8093 -0.2169
  767MPD2    C211375   1.163   2.136  14.823 -0.3187 -0.3021  0.0712
  767MPD2    C311376   1.076   2.043  14.769 -0.1030  0.0515  0.2911
  767MPD2    C411377   0.966   2.009  14.852  0.6736 -0.1254 -0.2683
  767MPD2    C511378   0.950   2.056  14.976  0.0343  0.0186 -0.3372
  767MPD2     H11379   1.251   2.161  14.764 -0.4260 -0.7220 -0.2652
  767MPD2    H111380   0.892   1.941  14.811  1.4712  0.2171 -2.2895
  767MPD2    H211381   1.013   2.193  15.121 -3.4580 -0.6925 -0.1182
  767MPD2    H311382   0.874   2.019  15.044  0.6966  0.8758  0.8714
  767MPD2     N11383   1.094   1.988  14.642 -0.4946  0.1048  0.3928
  767MPD2    H511384   1.178   2.007  14.589 -2.0119  0.5114 -1.8359
  767MPD2    N111385   1.237   2.274  15.003 -0.2175 -0.3556 -0.3194
  767MPD2    H711386   1.228   2.297  15.101 -1.3198  0.7499 -0.6851
  768MPD2     C11387   2.112   0.706  10.487  0.0935 -0.0621 -0.5025
  768MPD2    C111388   2.088   0.628  10.596  0.6989 -0.1271 -0.2331
  768MPD2    C211389   2.193   0.630  10.686 -0.4945  0.0717 -0.1655
  768MPD2    C311390   2.321   0.682  10.668 -0.4215  0.0335  0.2625
  768MPD2    C411391   2.340   0.758  10.551 -0.0826 -0.5860 -0.0404
  768MPD2    C511392   2.225   0.775  10.465 -0.0757  0.6387  0.0966
  768MPD2     H11393   2.175   0.591  10.785  0.6761  1.8103  0.7152
  768MPD2    H111394   2.435   0.806  10.532 -0.3541  0.0154  0.0985
  768MPD2    H211395   2.028   0.723  10.421 -2.0358  0.3350  2.3033
  768MPD2    H311396   2.219   0.846  10.383 -2.0730 -0.4194 -0.6554
  768MPD2     N11397   2.422   0.681  10.761  0.5670  0.5098  0.7736
  768MPD2    H511398   2.512   0.724  10.741  0.3157 -0.2851 -2.0691
  768MPD2    N111399   1.972   0.570  10.641  0.0988 -0.1174 -0.0046
  768MPD2    H711400   1.992   0.508  10.719 -0.6686  0.6409  0.7947
  769MPD2     C11401   3.225   3.281  14.980  0.4278 -0.2259 -0.0890
  769MPD2    C111402   3.120   3.238  15.055 -0.5847 -0.7251 -0.6708
  769MPD2    C211403   3.106   3.286  15.186 -0.5304 -0.2247 -0.1279
  769MPD2    C311404   3.200   3.376  15.233 -0.6628 -0.2474  0.1937
  769MPD2    C411405   3.306   3.426  15.153 -0.3911  0.7344 -0.7215
  769MPD2    C511406   3.320   3.376  15.028 -0.4615 -0.3201  0.5910
  769MPD2     H11407   3.026   3.246  15.247  0.2268 -0.0347  0.9868
  769MPD2    H111408   3.376   3.502  15.186  2.0360 -0.9418 -1.9945
  769MPD2    H211409   3.257   3.253  14.880  0.3598  0.5491 -0.3311
  769MPD2    H311410   3.397   3.409  14.959  0.6421  1.5527  2.7364
  769MPD2     N11411   3.192   3.417  15.367 -0.4776 -0.2195 -1.0348
  769MPD2    H511412   3.120   3.367  15.418 -1.2722  2.4327  0.4081
  769MPD2    N111413   3.034   3.143  14.997  0.4560 -0.2231 -0.0623
  769MPD2    H711414   3.033   3.133  14.896  0.3631  0.9654 -0.1868
  770MPD2     C11415   2.699   2.212  14.663  0.1793  0.1306 -0.1681
  770MPD2    C111416   2.594   2.295  14.626  0.1505  0.0380 -0.2372
  770MPD2    C211417   2.579   2.421  14.677 -0.0275  0.6903 -0.1613
  770MPD2    C311418   2.667   2.460  14.776  0.3232  0.0627 -0.4444
  770MPD2    C411419   2.759   2.368  14.826 -0.1631  0.4024  0.4048
  770MPD2    C511420   2.774   2.243  14.771 -0.9077  0.1466  0.0940
  770MPD2     H11421   2.510   2.498  14.644 -0.2691  0.4810 -0.1450
  770MPD2    H111422   2.835   2.394  14.899  0.3792  2.3244 -0.8396
  770MPD2    H211423   2.722   2.125  14.602  0.1712  0.4679 -0.6493
  770MPD2    H311424   2.854   2.174  14.797 -0.5053 -1.0728 -4.4179
  770MPD2     N11425   2.665   2.595  14.816  0.4519  0.5196  0.0980
  770MPD2    H511426   2.590   2.647  14.771  2.3220  2.2567 -0.9468
  770MPD2    N111427   2.514   2.250  14.521  0.5463  0.3912 -0.2994
  770MPD2    H711428   2.550   2.170  14.472 -0.6292 -1.0674  1.2168
  771MPD2     C11429   3.812   1.448  13.267 -0.4431  0.1288 -0.0060
  771MPD2    C111430   3.741   1.560  13.220  0.0077 -0.6417 -0.5116
  771MPD2    C211431   3.628   1.539  13.143 -0.7631 -0.6860  0.0753
  771MPD2    C311432   3.589   1.409  13.106  0.2354  0.7533 -0.1857
  771MPD2    C411433   3.670   1.303  13.146  0.0148 -0.0167  0.7232
  771MPD2    C511434   3.776   1.322  13.229 -0.0458  0.0159  0.2471
  771MPD2     H11435   3.568   1.626  13.118 -1.6157 -0.6198  2.3496
  771MPD2    H111436   3.654   1.202  13.111  1.3909 -0.4231  1.2554
  771MPD2    H211437   3.905   1.452  13.323 -0.6517 -0.7849  0.4206
  771MPD2    H311438   3.822   1.227  13.252 -0.2124  0.6286  3.2050
  771MPD2     N11439   3.475   1.398  13.022  0.8468  0.1650 -0.2073
  771MPD2    H511440   3.425   1.484  13.000 -0.5916 -0.6065  0.0613
  771MPD2    N111441   3.770   1.693  13.256  0.9063 -0.5770 -0.2757
  771MPD2    H711442   3.699   1.762  13.235  1.2101 -0.9642 -2.5538
  772MPD2     C11443   3.431   2.239  13.554 -0.8399  0.0156  0.0406
  772MPD2    C111444   3.448   2.126  13.478  0.4789 -0.6519  0.0844
  772MPD2    C211445   3.330   2.061  13.447 -0.0462 -0.5322  0.9398
  772MPD2    C311446   3.204   2.114  13.482  0.1306  1.0946 -0.7071
  772MPD2    C411447   3.199   2.222  13.565 -0.5321 -0.5275  0.7360
  772MPD2    C511448   3.314   2.291  13.599  0.5211 -0.2640 -0.9370
  772MPD2     H11449   3.335   1.971  13.387 -0.7013 -0.4962  0.8318
  772MPD2    H111450   3.103   2.267  13.583 -0.2697 -0.4059  1.8262
  772MPD2    H211451   3.520   2.287  13.593 -0.0742 -0.8758 -0.6363
  772MPD2    H311452   3.308   2.376  13.666 -0.7914  0.1553 -1.5780
  772MPD2     N11453   3.079   2.051  13.457 -0.1017 -0.0049 -0.0059
  772MPD2    H511454   2.999   2.105  13.490 -2.0772 -2.1753 -1.2896
  772MPD2    N111455   3.575   2.073  13.445 -0.1974  0.9438 -0.3659
  772MPD2    H711456   3.573   1.986  13.391 -0.6535 -1.8592  4.1862
  773MPD2     C11457   2.212   2.685  17.325  0.9640  0.1403 -0.3706
  773MPD2    C111458   2.243   2.580  17.241 -0.0644  0.2935 -0.1539
  773MPD2    C211459   2.308   2.468  17.288  1.1518  0.4803 -0.1665
  773MPD2    C311460   2.332   2.454  17.423  0.3607  1.2652 -0.0629
  773MPD2    C411461   2.306   2.556  17.503 -0.3516 -0.0710 -0.1845
  773MPD2    C511462   2.248   2.672  17.450 -0.8254  0.1180 -0.2370
  773MPD2     H11463   2.326   2.386  17.219  1.5564 -0.4677  1.0854
  773MPD2    H111464   2.321   2.558  17.611 -2.6309 -0.7052  0.1436
  773MPD2    H211465   2.172   2.778  17.287 -0.5575  0.0744  1.0350
  773MPD2    H311466   2.232   2.747  17.527  1.6890 -0.2052  0.5889
  773MPD2     N11467   2.411   2.341  17.465 -0.0685  0.4202  0.4645
  773MPD2    H511468   2.427   2.268  17.397  0.0130  0.4695  0.4313
  773MPD2    N111469   2.228   2.591  17.101  0.0358 -0.3877 -0.1450
  773MPD2    H711470   2.242   2.504  17.051  1.8634 -0.1069 -0.1018
  774MPD2     C11471   1.576   2.065  13.452 -0.1584  0.1746  0.1883
  774MPD2    C111472   1.708   2.041  13.489 -0.5505  0.4571  0.7071
  774MPD2    C211473   1.811   2.107  13.409  0.0829  0.0439  0.2301
  774MPD2    C311474   1.772   2.195  13.311 -0.3613  0.5975  0.7673
  774MPD2    C411475   1.642   2.211  13.276  0.4574  0.2237  0.1791
  774MPD2    C511476   1.547   2.146  13.346  0.1578 -0.4738  0.0505
  774MPD2     H11477   1.916   2.093  13.433  0.2647  2.1740  0.7463
  774MPD2    H111478   1.609   2.270  13.192 -3.3897  0.6566  1.9867
  774MPD2    H211479   1.498   2.019  13.512 -1.6861  1.9832 -0.4149
  774MPD2    H311480   1.447   2.160  13.307 -0.2975 -0.1448  1.3494
  774MPD2     N11481   1.874   2.260  13.247  0.5186  0.1868  1.0351
  774MPD2    H511482   1.965   2.245  13.289  0.1552 -0.1996  1.6773
  774MPD2    N111483   1.747   1.955  13.596  0.6932 -0.3435 -0.3705
  774MPD2    H711484   1.846   1.943  13.616  1.6145  1.2989 -4.0630
  775MPD2     C11485   3.311   3.208  15.628 -0.0426 -0.9046  0.2049
  775MPD2    C111486   3.311   3.322  15.698  0.3582  0.5530 -0.0499
  775MPD2    C211487   3.414   3.414  15.675 -0.4114  0.9546 -0.0588
  775MPD2    C311488   3.512   3.389  15.581 -0.3501 -0.0548 -0.1791
  775MPD2    C411489   3.501   3.269  15.500  0.4272  0.7580  0.4388
  775MPD2    C511490   3.400   3.183  15.517  0.1861  0.2678 -0.9655
  775MPD2     H11491   3.414   3.506  15.732 -1.2268  0.4738  0.7107
  775MPD2    H111492   3.566   3.248  15.416  0.8959  0.8404  0.7764
  775MPD2    H211493   3.221   3.149  15.642  0.2249 -1.8137 -2.0066
  775MPD2    H311494   3.378   3.092  15.462  1.6007  1.0975 -2.8802
  775MPD2     N11495   3.610   3.476  15.543 -0.6218  0.1178  0.0892
  775MPD2    H511496   3.654   3.450  15.456 -2.0381  0.0442 -0.6023
  775MPD2    N111497   3.202   3.330  15.793  0.2083 -0.4362 -0.4784
  775MPD2    H711498   3.126   3.263  15.792  0.1638 -0.4060  0.9988
  776MPD2     C11499   1.715   4.108  11.431 -0.7292 -0.0368 -0.9702
  776MPD2    C111500   1.719   3.978  11.391 -0.3484  0.4017  0.2886
  776MPD2    C211501   1.835   3.935  11.329  0.1073  0.3902  0.7748
  776MPD2    C311502   1.927   4.020  11.280  0.4415  0.4173 -0.5778
  776MPD2    C411503   1.921   4.149  11.327 -0.1752 -0.1286  0.1400
  776MPD2    C511504   1.821   4.192  11.398 -0.2539 -0.0165  0.1691
  776MPD2     H11505   1.862   3.832  11.311 -2.8535 -0.5330  1.5746
  776MPD2    H111506   1.997   4.221  11.298  0.1826 -0.3237  0.5783
  776MPD2    H211507   1.636   4.141  11.497  0.2021  0.8884 -0.3338
  776MPD2    H311508   1.822   4.288  11.448  0.5513 -0.1923  0.4898
  776MPD2     N11509   2.038   3.977  11.203  0.2256 -0.4819  0.1668
  776MPD2    H511510   2.104   4.049  11.174 -0.3672  0.3804  0.9535
  776MPD2    N111511   1.621   3.881  11.431  0.3087  0.3036  0.2632
  776MPD2    H711512   1.535   3.916  11.473  0.3823  2.0912 -1.0489
  777MPD2     C11513   2.939   1.129   0.339  0.4186 -0.2846 -0.0793
  777MPD2    C111514   2.925   1.039   0.444 -0.4407 -0.2978 -0.2965
  777MPD2    C211515   2.926   0.899   0.411 -0.0616  0.7525  0.1674
  777MPD2    C311516   2.937   0.847   0.288 -0.3150 -0.1268  0.0952
  777MPD2    C411517   2.961   0.942   0.190  0.2728 -0.2452 -0.4904
  777MPD2    C511518   2.967   1.078   0.214  0.0893  0.3729  0.5994
  777MPD2     H11519   2.905   0.819   0.482  0.1693 -1.3244 -2.0928
  777MPD2    H111520   2.988   0.915   0.088 -0.4725  0.3558 -0.8465
  777MPD2    H211521   2.944   1.237   0.343 -0.5325 -0.2099 -0.8292
  777MPD2    H311522   2.992   1.152   0.139 -1.4774 -2.0025 -2.2629
  777MPD2     N11523   2.936   0.708   0.262 -0.0876 -0.4236  0.1617
  777MPD2    H511524   2.906   0.648   0.338 -0.2427 -0.2635  0.2275
  777MPD2    N111525   2.890   1.092   0.569 -0.4639  0.3322  0.3961
  777MPD2    H711526   2.883   1.193   0.573  0.8922  0.4478 -0.1021
  778MPD2     C11527   3.837   1.287  14.902 -0.2075 -0.1998  0.1569
  778MPD2    C111528   3.845   1.173  14.829  0.5458 -0.6339  0.1306
  778MPD2    C211529   3.869   1.178  14.695 -0.7833  0.6161  0.4159
  778MPD2    C311530   3.879   1.297  14.630  0.4042  0.3031 -0.0963
  778MPD2    C411531   3.878   1.414  14.704 -0.7861 -0.9751  0.1613
  778MPD2    C511532   3.850   1.409  14.839 -0.1842  0.6126 -0.0892
  778MPD2     H11533   3.865   1.083  14.642 -1.8213  0.7248  0.3054
  778MPD2    H111534   3.878   1.513  14.661 -2.1896 -0.9600  0.1975
  778MPD2    H211535   3.804   1.293  15.005 -3.5080 -0.8335 -0.8570
  778MPD2    H311536   3.830   1.500  14.896 -1.5920 -0.2519  0.7995
  778MPD2     N11537   3.895   1.294  14.486 -0.5335 -0.5299 -0.6787
  778MPD2    H511538   3.876   1.212  14.430 -0.4130  0.5929 -2.3451
  778MPD2    N111539   3.813   1.050  14.880 -0.1356 -0.0064  0.3583
  778MPD2    H711540   3.832   0.969  14.822  0.4984  1.3213 -1.2888
  779MPD2     C11541   3.346   0.115  14.174 -0.8018 -0.3081  0.5570
  779MPD2    C111542   3.447   0.120  14.268 -0.0287 -0.7100 -0.7170
  779MPD2    C211543   3.520   0.245  14.279  0.7119 -0.3242  0.4947
  779MPD2    C311544   3.468   0.351  14.206 -0.0857  0.0505  0.1175
  779MPD2    C411545   3.367   0.341  14.113 -0.4429 -0.6697 -0.3308
  779MPD2    C511546   3.308   0.221  14.097  0.0826  0.2392  0.1838
  779MPD2     H11547   3.606   0.262  14.342 -0.9248  1.2895  2.3133
  779MPD2    H111548   3.332   0.425  14.054 -2.0585 -1.1399 -0.0401
  779MPD2    H211549   3.294   0.021  14.159 -1.2017 -0.5754  3.7069
  779MPD2    H311550   3.222   0.217  14.031  0.2508  2.1839 -0.1441
  779MPD2     N11551   3.518   0.484  14.215  0.0027 -0.2305 -1.0244
  779MPD2    H511552   3.480   0.555  14.153 -0.1486  0.3543 -0.2592
  779MPD2    N111553   3.491   0.002  14.333  0.0477  0.2846  0.5058
  779MPD2    H711554   3.585   0.015  14.367  0.7105 -0.7860 -0.8728
  780MPD2     C11555   2.833   4.544   0.746 -0.6694 -0.3361 -0.6576
  780MPD2    C111556   2.855   4.539   0.613 -0.0466 -0.5793 -0.0605
  780MPD2    C211557   2.968   4.606   0.558 -0.1066 -0.1517 -0.2895
  780MPD2    C311558   3.047   4.682   0.646  0.6743  0.9377 -0.6735
  780MPD2    C411559   3.015   4.681   0.785 -0.6776  0.6899 -1.0384
  780MPD2    C511560   2.908   4.617   0.829 -0.8954 -0.2770  0.1329
  780MPD2     H11561   2.990   4.603   0.452  0.2298  1.2129 -0.2686
  780MPD2    H111562   3.076   4.736   0.856 -3.0892  4.6982 -2.0408
  780MPD2    H211563   2.751   4.489   0.792  0.3725  0.6038  2.3077
  780MPD2    H311564   2.879   4.607   0.933  2.0615 -0.6714  0.9369
  780MPD2     N11565   3.158   0.019   0.599 -0.1639 -0.4546  0.0747
  780MPD2    H511566   3.165   0.033   0.498 -0.9999  1.9007  0.3594
  780MPD2    N111567   2.767   4.462   0.531 -0.1709 -0.5519 -0.5168
  780MPD2    H711568   2.683   4.427   0.577  0.7328  1.5934  2.7345
  781MPD2     C11569   0.123   1.795  11.764 -0.2679  0.5679 -0.4044
  781MPD2    C111570   0.209   1.814  11.872 -0.6014 -0.1029 -1.0856
  781MPD2    C211571   0.343   1.779  11.863 -0.5669  0.0164  0.3660
  781MPD2    C311572   0.397   1.715  11.752  0.5222  0.6115 -0.1565
  781MPD2    C411573   0.309   1.687  11.650  0.8839  0.0697 -0.6327
  781MPD2    C511574   0.178   1.729  11.656  0.8067 -0.0615  0.0966
  781MPD2     H11575   0.406   1.786  11.952  0.7216  0.9456 -0.6134
  781MPD2    H111576   0.334   1.631  11.561  1.3830  0.5779 -0.8110
  781MPD2    H211577   0.018   1.821  11.774 -0.3492  0.5250 -1.1469
  781MPD2    H311578   0.117   1.699  11.572  0.5973  0.3486  0.1034
  781MPD2     N11579   0.531   1.664  11.741  0.2434  0.2546 -0.4191
  781MPD2    H511580   0.560   1.603  11.665  0.2736  0.4566 -0.5672
  781MPD2    N111581   0.168   1.881  11.991  0.3073 -0.8422 -0.3122
  781MPD2    H711582   0.245   1.899  12.054  0.2951  0.5238 -0.6832
  782MPD2     C11583   2.696   3.261  10.120  0.2700 -0.1279 -0.4239
  782MPD2    C111584   2.683   3.184  10.234  0.4299 -0.0432  0.1221
  782MPD2    C211585   2.790   3.178  10.329  0.6438  0.0149  0.0584
  782MPD2    C311586   2.903   3.255  10.311 -0.0902 -0.4881  0.0570
  782MPD2    C411587   2.902   3.340  10.206 -0.2256 -0.2226 -0.7861
  782MPD2    C511588   2.804   3.339  10.112 -0.0216 -0.9027  0.1514
  782MPD2     H11589   2.792   3.087  10.387 -1.5136  1.4056  2.2926
  782MPD2    H111590   2.995   3.392  10.185 -1.4470  2.7916  1.4478
  782MPD2    H211591   2.637   3.244  10.030  0.8056 -0.5999 -0.6909
  782MPD2    H311592   2.816   3.400  10.023  1.8092 -2.6854 -0.8256
  782MPD2     N11593   3.021   3.229  10.387  0.3686 -0.2881  0.1084
  782MPD2    H511594   3.110   3.269  10.361 -1.0309  2.7987  0.0336
  782MPD2    N111595   2.580   3.093  10.242  0.4356  0.4415 -0.2081
  782MPD2    H711596   2.540   3.077  10.150 -0.4746  0.5358  0.1785
  783MPD2     C11597   2.484   2.393  11.039  0.7109  0.2708 -0.6000
  783MPD2    C111598   2.437   2.523  11.021  0.1480 -0.1351 -0.0419
  783MPD2    C211599   2.435   2.577  10.898 -0.4908 -0.1019  0.5458
  783MPD2    C311600   2.494   2.511  10.787 -0.3215 -0.0101  0.6964
  783MPD2    C411601   2.543   2.384  10.811  0.6297 -0.0778 -0.1309
  783MPD2    C511602   2.556   2.338  10.934 -0.1629 -0.0314 -0.4158
  783MPD2     H11603   2.387   2.674  10.894  1.1047  0.7195  1.3431
  783MPD2    H111604   2.585   2.319  10.735 -0.5248 -0.9823  0.0225
  783MPD2    H211605   2.493   2.339  11.132  1.2291  2.0530  0.3922
  783MPD2    H311606   2.605   2.244  10.953 -0.1358 -0.2145 -1.4382
  783MPD2     N11607   2.504   2.557  10.654  0.2206  0.0393 -0.1158
  783MPD2    H511608   2.569   2.504  10.597  0.5038 -1.5280  1.6900
  783MPD2    N111609   2.387   2.584  11.139 -0.3395  0.1315 -0.4451
  783MPD2    H711610   2.374   2.516  11.213  0.4415 -0.4679 -0.8507
  784MPD2     C11611   0.664   2.861   0.419  0.1343 -0.3427  0.2994
  784MPD2    C111612   0.652   2.968   0.500 -0.2318 -0.0247  0.0510
  784MPD2    C211613   0.535   3.046   0.498  0.4721  0.0178  0.6021
  784MPD2    C311614   0.440   3.019   0.403  0.2663  0.0984 -0.2920
  784MPD2    C411615   0.454   2.917   0.313  0.3374  0.2593  0.2652
  784MPD2    C511616   0.568   2.843   0.320 -0.4876 -0.5926 -0.0299
  784MPD2     H11617   0.525   3.132   0.564 -1.6262 -1.0665  1.7059
  784MPD2    H111618   0.385   2.892   0.233 -0.3554 -0.5898  1.1306
  784MPD2    H211619   0.754   2.801   0.431 -0.5435 -1.3279  0.4461
  784MPD2    H311620   0.584   2.773   0.238  0.4155 -1.7388  1.1347
  784MPD2     N11621   0.347   3.125   0.392  0.3967  0.0940 -0.5642
  784MPD2    H511622   0.361   3.205   0.453 -0.1200 -0.4073  0.2170
  784MPD2    N111623   0.739   3.007   0.597  0.6566  1.3304 -0.6552
  784MPD2    H711624   0.714   3.087   0.655  0.0298  0.2127  0.6123
  785MPD2     C11625   0.756   1.820  11.501  0.2960 -0.1306 -0.1994
  785MPD2    C111626   0.633   1.791  11.447  0.9061  0.6208 -0.4051
  785MPD2    C211627   0.621   1.697  11.352  0.5465  0.2497 -0.6191
  785MPD2    C311628   0.728   1.617  11.308  0.3014 -0.2335  0.4076
  785MPD2    C411629   0.850   1.640  11.361  0.0724  0.3777  0.1940
  785MPD2    C511630   0.861   1.742  11.454 -0.1996 -0.1466  0.1685
  785MPD2     H11631   0.521   1.673  11.316  0.4636  1.1674 -0.9918
  785MPD2    H111632   0.939   1.587  11.330  0.1104 -0.1015  1.1248
  785MPD2    H211633   0.776   1.887  11.584  3.9031 -2.6490  0.9629
  785MPD2    H311634   0.956   1.761  11.504 -0.2483 -0.4970  0.4026
  785MPD2     N11635   0.702   1.521  11.207  0.1516 -0.5909  0.0019
  785MPD2    H511636   0.606   1.502  11.179 -0.7103  0.0221  2.5487
  785MPD2    N111637   0.521   1.872  11.476  0.5182 -0.4813 -0.1018
  785MPD2    H711638   0.433   1.858  11.426  0.6817  2.3801 -1.2075
  786MPD2     C11639   4.298   4.235  14.845 -0.3492 -0.0862 -1.6323
  786MPD2    C111640   4.346   4.106  14.847 -0.5948 -0.1217  1.1754
  786MPD2    C211641   4.430   4.077  14.945 -0.0516 -0.1944  0.9405
  786MPD2    C311642   4.465   4.168  15.042 -0.1344 -0.5616  0.3798
  786MPD2    C411643   4.414   4.292  15.034  0.0065  0.2998 -0.4167
  786MPD2    C511644   4.330   4.329  14.935  0.2665 -0.2725 -0.1640
  786MPD2     H11645   4.471   3.976  14.938  0.0627 -0.0489 -0.5909
  786MPD2    H111646   4.445   4.370  15.102  0.6901 -0.7353  0.4515
  786MPD2    H211647   4.230   4.267  14.767 -1.1408  1.3393 -0.3598
  786MPD2    H311648   4.288   4.429  14.932  0.4679 -0.1448  1.4504
  786MPD2     N11649   4.556   4.132  15.140  0.2625  0.5813 -0.2530
  786MPD2    H511650   4.584   4.214  15.193  4.0496 -0.8391 -0.0676
  786MPD2    N111651   4.315   4.005  14.754 -0.0195 -0.1014 -0.9818
  786MPD2    H711652   4.357   3.914  14.770  2.9558  1.2876 -0.9550
  787MPD2     C11653   4.455   3.355  14.793  0.0477 -0.4083 -0.3956
  787MPD2    C111654   4.426   3.405  14.670 -0.8083 -0.1768  0.6348
  787MPD2    C211655   4.479   3.343  14.559 -0.1046  0.8954 -0.3712
  787MPD2    C311656   4.566   3.229  14.569  0.1428  0.4419  0.8129
  787MPD2    C411657   4.584   3.185  14.699 -0.0964 -0.5311 -0.2234
  787MPD2    C511658   4.529   3.240  14.812 -0.0884 -0.4961 -0.2570
  787MPD2     H11659   4.465   3.392  14.464 -1.3987 -0.9230 -1.1001
  787MPD2    H111660   4.660   3.108  14.713 -1.4716 -2.1641 -1.7439
  787MPD2    H211661   4.420   3.412  14.879 -2.3703  0.1312 -1.7662
  787MPD2    H311662   4.558   3.202  14.909 -0.0289  0.2004  0.0027
  787MPD2     N11663   4.630   3.172  14.452 -0.2271  0.2566  0.3554
  787MPD2    H511664   4.616   3.223  14.366  0.0371 -0.6469 -0.2242
  787MPD2    N111665   4.336   3.520  14.660  0.3734 -0.2816  0.1266
  787MPD2    H711666   4.328   3.588  14.735 -1.6494  0.0849 -0.4205
  788MPD2     C11667   1.510   2.680   0.936  0.2485  0.5181 -0.6679
  788MPD2    C111668   1.582   2.641   0.823  0.4213  1.2210 -0.2585
  788MPD2    C211669   1.588   2.731   0.725 -0.2925  0.5581 -0.4145
  788MPD2    C311670   1.520   2.847   0.724 -0.0691 -0.2424  0.0102
  788MPD2    C411671   1.445   2.879   0.837 -0.0468 -0.1625 -0.6958
  788MPD2    C511672   1.452   2.797   0.950 -0.2588 -0.0001  0.1587
  788MPD2     H11673   1.657   2.722   0.641  0.4135 -1.9339  0.4273
  788MPD2    H111674   1.380   2.967   0.839  0.8273  0.4434  0.7049
  788MPD2    H211675   1.499   2.617   1.024  3.6839 -1.9752 -1.9926
  788MPD2    H311676   1.397   2.832   1.037 -1.6017  0.0130 -0.6936
  788MPD2     N11677   1.510   2.938   0.619  0.0605  0.0171  0.0900
  788MPD2    H511678   1.456   3.023   0.633 -0.6729 -0.4751  0.2396
  788MPD2    N111679   1.633   2.507   0.806  0.0299  0.3734  0.3991
  788MPD2    H711680   1.688   2.494   0.721 -1.1024  0.8837 -0.4219
  789MPD2     C11681   1.602   2.278  16.293  0.5273 -0.2909 -0.5429
  789MPD2    C111682   1.505   2.259  16.196  0.6264  0.4516 -0.0639
  789MPD2    C211683   1.383   2.308  16.215 -0.2163  0.1146  0.2235
  789MPD2    C311684   1.343   2.366  16.340  0.0989 -0.1875  0.3178
  789MPD2    C411685   1.448   2.375  16.433  0.0174 -0.0463  0.7800
  789MPD2    C511686   1.581   2.334  16.415  0.0221  0.4030 -0.3672
  789MPD2     H11687   1.310   2.301  16.135  1.1547 -2.1515 -0.8392
  789MPD2    H111688   1.421   2.404  16.534  0.2780 -0.9521  1.1029
  789MPD2    H211689   1.700   2.235  16.275  1.7033  2.5835 -1.0219
  789MPD2    H311690   1.653   2.335  16.496 -0.6618 -1.6870  0.2709
  789MPD2     N11691   1.213   2.410  16.369  0.0973  0.3961 -0.9518
  789MPD2    H511692   1.216   2.455  16.460  2.5165  0.3470 -1.0118
  789MPD2    N111693   1.527   2.191  16.077  0.0013  0.0383 -0.4468
  789MPD2    H711694   1.446   2.190  16.017 -1.0188 -0.6725  0.9498
  790MPD2     C11695   2.547   3.884  13.633 -0.5955 -0.0980 -0.1935
  790MPD2    C111696   2.574   3.807  13.522  0.4262 -0.1054  0.2075
  790MPD2    C211697   2.534   3.870  13.394  0.1166 -0.0356  0.3511
  790MPD2    C311698   2.456   3.986  13.383 -0.5501  0.7727 -0.4075
  790MPD2    C411699   2.420   4.047  13.501 -0.3498 -0.1688  0.2406
  790MPD2    C511700   2.465   3.995  13.619 -0.1882 -0.5082  0.1322
  790MPD2     H11701   2.584   3.844  13.302 -2.2276  0.0671 -0.9310
  790MPD2    H111702   2.359   4.137  13.497 -0.6557 -0.4135 -0.5697
  790MPD2    H211703   2.582   3.847  13.729  0.5082 -1.2454 -1.0360
  790MPD2    H311704   2.437   4.036  13.716 -2.9298 -1.3825 -0.3043
  790MPD2     N11705   2.417   4.033  13.257 -0.1394  0.3373  0.3613
  790MPD2    H511706   2.458   3.992  13.173  1.1531 -0.0255  1.1758
  790MPD2    N111707   2.659   3.698  13.535  0.3021  0.4159  0.2978
  790MPD2    H711708   2.674   3.654  13.625  0.3956  2.6184  1.3597
  791MPD2     C11709   1.789   4.189  12.601  0.1317 -0.1702  0.5275
  791MPD2    C111710   1.828   4.102  12.695  0.3355 -0.1468 -0.5541
  791MPD2    C211711   1.741   3.999  12.718 -0.1215 -0.1348 -0.6730
  791MPD2    C311712   1.619   3.998  12.660  0.1392  0.6433  0.2244
  791MPD2    C411713   1.575   4.104  12.594 -0.1428  0.2247 -0.0782
  791MPD2    C511714   1.659   4.204  12.563 -0.1330 -0.3963 -0.2136
  791MPD2     H11715   1.781   3.914  12.772 -2.9722 -0.4354  1.0120
  791MPD2    H111716   1.483   4.111  12.536 -0.4473  0.5515  0.4434
  791MPD2    H211717   1.852   4.264  12.554  0.1411 -0.1834  0.5190
  791MPD2    H311718   1.643   4.283  12.491  1.4265 -1.3948 -1.6773
  791MPD2     N11719   1.544   3.878  12.665 -0.1924  0.1891 -0.2743
  791MPD2    H511720   1.588   3.792  12.696 -2.1529 -0.5394  0.4870
  791MPD2    N111721   1.958   4.109  12.754  0.3040  0.4289  0.8724
  791MPD2    H711722   2.021   4.171  12.704 -1.5741  0.6881 -1.1573
  792MPD2     C11723   2.818   3.209  10.960  0.0661 -0.9827 -0.3904
  792MPD2    C111724   2.736   3.316  10.950 -0.1296 -0.0597 -0.4191
  792MPD2    C211725   2.599   3.304  10.948  0.4863  0.4844  0.6774
  792MPD2    C311726   2.546   3.183  10.993  0.6874  0.1044  0.4743
  792MPD2    C411727   2.630   3.076  11.022 -0.5120 -0.3310 -0.8632
  792MPD2    C511728   2.763   3.095  11.000  0.1034  0.0006 -0.1491
  792MPD2     H11729   2.546   3.393  10.917  0.4907 -0.5768 -2.3299
  792MPD2    H111730   2.594   2.979  11.054 -1.1951  0.3275  0.3771
  792MPD2    H211731   2.926   3.214  10.953 -0.0479  1.2293 -0.7014
  792MPD2    H311732   2.833   3.013  11.014 -0.5231 -0.4450  0.3963
  792MPD2     N11733   2.404   3.157  10.995 -0.4601 -0.1460 -0.2950
  792MPD2    H511734   2.374   3.060  10.999 -0.4129 -0.1295  0.4788
  792MPD2    N111735   2.813   3.432  10.927  0.4592  0.5512  0.8418
  792MPD2    H711736   2.908   3.417  10.896 -0.6544 -0.2516 -2.1672
  793MPD2     C11737   1.797   3.776  10.597 -1.1124  0.3101  0.4846
  793MPD2    C111738   1.893   3.688  10.556 -0.2336  0.4944  0.4644
  793MPD2    C211739   1.926   3.580  10.634  0.0609 -0.2324 -0.1857
  793MPD2    C311740   1.870   3.556  10.755  0.6118 -0.3263 -0.3785
  793MPD2    C411741   1.778   3.647  10.804 -0.0611 -0.4813 -0.1691
  793MPD2    C511742   1.743   3.758  10.727 -0.0935  0.4629  0.0692
  793MPD2     H11743   2.000   3.508  10.601  0.3604 -0.7529  1.6318
  793MPD2    H111744   1.736   3.634  10.904  0.5231 -1.1156 -0.0020
  793MPD2    H211745   1.770   3.863  10.537 -0.8201 -0.3576 -0.6099
  793MPD2    H311746   1.686   3.834  10.778 -1.3545 -1.2078  1.1493
  793MPD2     N11747   1.919   3.445  10.834 -0.4427 -0.4559 -0.8764
  793MPD2    H511748   2.002   3.410  10.787  0.6874  2.0604 -0.7694
  793MPD2    N111749   1.969   3.706  10.433 -0.2591  0.1574  0.0266
  793MPD2    H711750   2.032   3.628  10.412 -2.1637 -1.0277 -1.2556
  794MPD2     C11751   1.784   3.069  16.533  0.4394 -0.3210 -0.8087
  794MPD2    C111752   1.872   2.993  16.460  0.8368  0.0852 -0.6427
  794MPD2    C211753   1.848   2.983  16.321  0.0247  0.1519 -0.0257
  794MPD2    C311754   1.734   3.042  16.264 -0.1538  0.9058 -0.6089
  794MPD2    C411755   1.643   3.111  16.354 -0.0698 -0.5035  0.0843
  794MPD2    C511756   1.672   3.128  16.483  0.4571 -0.4377 -0.6169
  794MPD2     H11757   1.915   2.923  16.260 -0.4057  0.9185 -1.2388
  794MPD2    H111758   1.552   3.146  16.305  0.1699  0.4870  0.3382
  794MPD2    H211759   1.814   3.098  16.634  2.1707 -2.3379 -0.7694
  794MPD2    H311760   1.599   3.182  16.542 -0.1391 -2.7377  0.7401
  794MPD2     N11761   1.691   3.009  16.133  0.5057  0.0154  0.3475
  794MPD2    H511762   1.600   3.038  16.101  0.6593  0.1270  0.0120
  794MPD2    N111763   1.977   2.921  16.519  0.7649 -0.0533 -0.7243
  794MPD2    H711764   2.024   2.853  16.460 -1.8566 -3.1130  0.6814
  795MPD2     C11765   4.571   0.572  13.556  0.1836 -0.2745  0.5366
  795MPD2    C111766   4.627   0.576  13.420 -0.3278 -0.2683  0.0926
  795MPD2    C211767   0.002   0.503  13.409  0.1619 -0.3449  0.6617
  795MPD2    C311768   0.069   0.453  13.524  0.3611 -0.3366 -0.2918
  795MPD2    C411769   0.009   0.465  13.652 -0.0114 -0.2246 -0.0066
  795MPD2    C511770   4.631   0.521  13.669 -0.1962  0.4311 -0.8699
  795MPD2     H11771   0.051   0.486  13.314 -2.4062  1.0555 -0.9177
  795MPD2    H111772   0.060   0.432  13.742 -0.1411 -3.5862 -1.1378
  795MPD2    H211773   4.491   0.640  13.584  0.2113 -0.4878  1.1224
  795MPD2    H311774   4.598   0.542  13.770 -0.5613 -3.4340 -0.1881
  795MPD2     N11775   0.190   0.377  13.522 -0.2095 -0.0994 -0.1538
  795MPD2    H511776   0.214   0.333  13.610 -2.3131  3.5988  2.2443
  795MPD2    N111777   4.572   0.639  13.308  0.0120 -0.5991  0.1294
  795MPD2    H711778   4.602   0.610  13.215 -1.7251  1.4140 -1.0730
  796MPD2     C11779   4.215   1.713  15.993  0.0766  0.5081 -0.5539
  796MPD2    C111780   4.329   1.769  16.046  0.1250 -0.6800 -0.4110
  796MPD2    C211781   4.368   1.893  15.993  0.1025  0.3589  0.2889
  796MPD2    C311782   4.286   1.964  15.907 -0.2063  0.1248  0.0391
  796MPD2    C411783   4.169   1.908  15.861  0.0877  0.2540 -0.2077
  796MPD2    C511784   4.136   1.781  15.901  0.0699  0.5204 -0.3271
  796MPD2     H11785   4.458   1.945  16.021  1.4289 -0.6624 -2.0868
  796MPD2    H111786   4.107   1.951  15.784 -0.4977  0.1918  0.2262
  796MPD2    H211787   4.187   1.612  16.018  1.4781  0.1334 -0.5135
  796MPD2    H311788   4.047   1.729  15.869  2.3166 -2.6709 -1.2971
  796MPD2     N11789   4.329   2.089  15.856 -0.6642 -0.1953  0.4378
  796MPD2    H511790   4.422   2.114  15.887 -0.0158 -1.0927 -0.7732
  796MPD2    N111791   4.401   1.694  16.139  0.0346  0.0524  0.8789
  796MPD2    H711792   4.367   1.603  16.168 -1.1789  0.2468  0.0405
  797MPD2     C11793   0.776   1.273  17.499 -0.3065  0.7136  0.9490
  797MPD2    C111794   0.885   1.352  17.476  0.3050 -0.4950 -0.0362
  797MPD2    C211795   0.919   1.377  17.348  0.1536 -0.3531 -0.3279
  797MPD2    C311796   0.829   1.342  17.251  0.7458  0.3532 -0.3592
  797MPD2    C411797   0.718   1.271  17.280  0.4981 -0.2069 -0.1470
  797MPD2    C511798   0.680   1.245  17.406  0.3754  0.5837 -0.3913
  797MPD2     H11799   1.000   1.441  17.314 -0.4931 -0.4817 -2.1073
  797MPD2    H111800   0.646   1.232  17.209  1.2232 -1.9066  0.0597
  797MPD2    H211801   0.762   1.240  17.601 -1.2839 -0.5669  0.4040
  797MPD2    H311802   0.592   1.183  17.416  1.3870 -0.7821  0.0581
  797MPD2     N11803   0.854   1.388  17.121  0.5380  0.0017  0.6144
  797MPD2    H511804   0.939   1.440  17.104  0.9512 -1.4104 -1.6961
  797MPD2    N111805   0.965   1.404  17.576  0.4860 -0.9508  0.5320
  797MPD2    H711806   1.039   1.466  17.543 -0.3265 -0.0114  0.5005
  798MPD2     C11807   1.234   1.957  17.175 -0.5676  0.6588 -0.0873
  798MPD2    C111808   1.184   1.830  17.173 -1.5390 -0.3153 -0.1154
  798MPD2    C211809   1.180   1.756  17.290  0.1985 -0.5049 -0.3071
  798MPD2    C311810   1.224   1.819  17.411  0.0841 -0.0234  0.5864
  798MPD2    C411811   1.279   1.939  17.402  0.6624 -0.1248 -0.4029
  798MPD2    C511812   1.283   2.010  17.288  0.3024 -0.3876  0.1918
  798MPD2     H11813   1.115   1.669  17.295 -1.6188  0.9281  1.4697
  798MPD2    H111814   1.314   1.991  17.490  4.0736  0.8549 -2.3303
  798MPD2    H211815   1.245   2.020  17.087  0.0383 -1.1091 -1.2740
  798MPD2    H311816   1.317   2.113  17.294  0.7030 -0.4285 -1.2183
  798MPD2     N11817   1.197   1.756  17.531 -0.0235  0.2696 -0.1103
  798MPD2    H511818   1.168   1.659  17.515  1.0164 -0.1129  0.3564
  798MPD2    N111819   1.123   1.783  17.051  0.0602  0.5468  0.0854
  798MPD2    H711820   1.124   1.843  16.969  1.4670  0.8563  0.3223
  799MPD2     C11821   4.155   2.959  14.688 -0.4546 -0.0700  0.5554
  799MPD2    C111822   4.034   2.942  14.627  0.0945 -0.3957 -0.3543
  799MPD2    C211823   3.972   3.044  14.559  0.4921  1.0989 -0.1408
  799MPD2    C311824   4.034   3.169  14.547 -0.2904 -0.2943  0.0821
  799MPD2    C411825   4.148   3.185  14.613  0.1768 -0.2279 -0.1621
  799MPD2    C511826   4.205   3.085  14.688  0.0566  0.4020  0.4583
  799MPD2     H11827   3.870   3.022  14.530  0.4250  0.6535  0.4305
  799MPD2    H111828   4.196   3.282  14.619  1.3724 -0.9142  1.4933
  799MPD2    H211829   4.196   2.876  14.745  1.8084  1.6841  1.4961
  799MPD2    H311830   4.296   3.113  14.740 -0.3317 -1.3573  2.0589
  799MPD2     N11831   4.007   3.270  14.449 -0.8981  0.0565 -0.4839
  799MPD2    H511832   4.073   3.347  14.441 -0.2002 -0.8379 -3.2312
  799MPD2    N111833   3.965   2.814  14.627  0.0838 -0.2881  0.3865
  799MPD2    H711834   3.879   2.814  14.572  0.1508 -0.4005  0.2807
  800MPD2     C11835   4.557   4.576  13.708  0.0642  0.3496  0.6400
  800MPD2    C111836   4.655   4.505  13.768 -1.0953  1.0853 -0.0687
  800MPD2    C211837   4.658   4.367  13.766 -0.3208 -0.1285  0.2871
  800MPD2    C311838   4.564   4.292  13.705  0.2733 -0.3872  0.6379
  800MPD2    C411839   4.466   4.363  13.637 -0.6454 -0.1389 -0.0566
  800MPD2    C511840   4.465   4.498  13.631  0.5041 -0.2711  0.2924
  800MPD2     H11841   4.735   4.305  13.811 -0.3938  0.3409  1.0650
  800MPD2    H111842   4.392   4.319  13.571 -0.9332 -1.7581  1.3270
  800MPD2    H211843   4.555   4.683  13.693  1.1814  0.2446 -0.2388
  800MPD2    H311844   4.383   4.550  13.582 -2.2743 -3.6863  1.3370
  800MPD2     N11845   4.576   4.155  13.711 -0.2236 -0.1729  0.0453
  800MPD2    H511846   4.653   4.119  13.766 -0.5969 -0.5219  0.3316
  800MPD2    N111847   0.016   4.584  13.832 -0.3092  0.4162  0.5927
  800MPD2    H711848   0.004   4.683  13.814 -0.9307  0.4476  1.1804
  801MPD2     C11849   0.286   0.552  13.836 -0.0533 -0.0232 -0.1511
  801MPD2    C111850   0.315   0.486  13.952  0.2363  0.6854  0.1424
  801MPD2    C211851   0.350   0.561  14.062  0.1275 -0.0059 -0.0081
  801MPD2    C311852   0.331   0.704  14.061 -0.4907  0.2148  0.0756
  801MPD2    C411853   0.303   0.765  13.948 -0.2931 -0.1157 -0.2454
  801MPD2    C511854   0.286   0.687  13.833 -0.6676  0.6831 -0.0887
  801MPD2     H11855   0.395   0.517  14.149  0.8601  1.3478  0.2951
  801MPD2    H111856   0.290   0.871  13.934 -0.9629 -0.3278 -1.2368
  801MPD2    H211857   0.272   0.497  13.743  2.8506 -3.7837  1.6235
  801MPD2    H311858   0.292   0.739  13.738 -0.2170 -1.0836 -1.0244
  801MPD2     N11859   0.356   0.780  14.174 -0.3492  0.0929 -0.1649
  801MPD2    H511860   0.372   0.878  14.152  0.1319 -0.3479 -1.7800
  801MPD2    N111861   0.311   0.351  13.970 -0.2044 -0.1849  0.3058
  801MPD2    H711862   0.346   0.317  14.059 -0.4337  1.1151  0.8998
  802MPD2     C11863   3.901   0.584  17.380 -0.2643 -0.0221 -0.0473
  802MPD2    C111864   4.020   0.589  17.454  0.3048 -0.3161 -0.2351
  802MPD2    C211865   4.117   0.488  17.448  0.2569 -0.1149  0.2354
  802MPD2    C311866   4.098   0.391  17.361 -0.0456  0.3515  0.2999
  802MPD2    C411867   3.991   0.384  17.284  0.3429  0.8993  0.3255
  802MPD2    C511868   3.898   0.478  17.293  0.3881  0.3612 -1.0801
  802MPD2     H11869   4.207   0.502  17.506  0.3944  3.3904 -0.7630
  802MPD2    H111870   3.979   0.307  17.208 -1.8107  3.1166 -1.5580
  802MPD2    H211871   3.826   0.662  17.376 -0.4895 -0.0724  4.0455
  802MPD2    H311872   3.808   0.460  17.235 -0.2100 -1.8277  0.5537
  802MPD2     N11873   4.197   0.291  17.360 -0.5309  0.9719  0.6862
  802MPD2    H511874   4.279   0.305  17.418 -1.3801  3.1399  1.3814
  802MPD2    N111875   4.049   0.704  17.534  0.7898  0.2377 -0.1213
  802MPD2    H711876   4.134   0.689  17.587  1.3357  2.8621 -0.2424
  803MPD2     C11877   0.425   3.956  11.822 -0.4782 -0.5535  0.2953
  803MPD2    C111878   0.518   4.006  11.908 -0.5202  0.2140  0.2280
  803MPD2    C211879   0.503   3.975  12.042 -0.0436 -0.0003 -0.1886
  803MPD2    C311880   0.405   3.889  12.083 -0.2662 -0.3586  0.3526
  803MPD2    C411881   0.317   3.838  11.992 -0.0413 -0.1099  0.0782
  803MPD2    C511882   0.324   3.867  11.853  0.5548  1.0221  0.8311
  803MPD2     H11883   0.566   4.010  12.123  0.8443 -2.0777  0.0395
  803MPD2    H111884   0.246   3.768  12.034  1.3769 -0.3277  2.1384
  803MPD2    H211885   0.433   3.989  11.719 -1.5230 -0.6272  0.1832
  803MPD2    H311886   0.248   3.834  11.784  2.0847  0.0021 -0.3639
  803MPD2     N11887   0.390   3.838  12.212 -0.6257 -0.2278 -0.0862
  803MPD2    H511888   0.317   3.767  12.218 -0.0601 -0.9758 -2.0269
  803MPD2    N111889   0.632   4.081  11.876 -0.0410 -0.0118  0.0434
  803MPD2    H711890   0.678   4.116  11.959  1.5917 -1.6205 -0.1817
  804MPD2     C11891   0.245   0.282  16.904 -0.5303 -0.4224  0.0465
  804MPD2    C111892   0.238   0.211  17.022 -0.7878 -0.1960  0.0349
  804MPD2    C211893   0.295   0.258  17.140  0.4297  0.1648 -0.5262
  804MPD2    C311894   0.362   0.377  17.137 -0.8640 -0.2982 -0.9307
  804MPD2    C411895   0.362   0.453  17.016 -0.0810 -0.1172  0.1663
  804MPD2    C511896   0.303   0.407  16.906  0.0123 -0.4288 -0.4964
  804MPD2     H11897   0.287   0.200  17.232 -0.4356  0.4573 -0.4160
  804MPD2    H111898   0.406   0.552  17.014 -1.5732  0.5561  0.3530
  804MPD2    H211899   0.193   0.244  16.817 -1.6841  1.3529 -0.0282
  804MPD2    H311900   0.293   0.467  16.816  2.5608  2.9387  1.4660
  804MPD2     N11901   0.432   0.421  17.252  0.0063  0.5869 -0.3819
  804MPD2    H511902   0.416   0.377  17.342  1.5113 -0.4831 -0.6225
  804MPD2    N111903   0.192   0.073  17.031  0.4759 -0.5844  0.2739
  804MPD2    H711904   0.183   0.051  17.130  0.3177 -2.0334 -0.0613
  805MPD2     C11905   3.957   3.432  15.490 -0.4139 -0.7305  0.0396
  805MPD2    C111906   4.036   3.390  15.385  0.9445  0.6270 -0.2735
  805MPD2    C211907   4.171   3.394  15.394  0.2011 -0.0609  0.0588
  805MPD2    C311908   4.235   3.443  15.507  0.0121  0.6449  0.1621
  805MPD2    C411909   4.157   3.482  15.611 -0.2652  0.0122  0.4556
  805MPD2    C511910   4.025   3.475  15.605 -1.0078  1.0183 -0.1667
  805MPD2     H11911   4.228   3.344  15.317  0.5956 -0.7382  0.7891
  805MPD2    H111912   4.189   3.502  15.713  0.2082  0.9866  0.1194
  805MPD2    H211913   3.848   3.432  15.491 -0.4169  0.5932  0.1633
  805MPD2    H311914   3.971   3.498  15.697 -1.4339 -1.3664  0.1849
  805MPD2     N11915   4.370   3.422  15.509 -0.7895 -0.0009 -0.2944
  805MPD2    H511916   4.423   3.402  15.425  0.1484 -1.0498  0.5267
  805MPD2    N111917   3.982   3.341  15.263 -0.1357  0.3380 -0.3566
  805MPD2    H711918   4.049   3.294  15.204 -0.4750 -1.2646  0.5415
  806MPD2     C11919   4.514   2.848   0.668 -0.2525  0.0367 -0.1407
  806MPD2    C111920   4.640   2.912   0.643  0.2310 -0.0889  0.0500
  806MPD2    C211921   4.701   2.874   0.520 -0.2885 -0.3423 -0.9094
  806MPD2    C311922   4.655   2.781   0.432  0.0444 -0.8139 -0.1833
  806MPD2    C411923   4.527   2.721   0.460  0.9891  0.0687 -0.0864
  806MPD2    C511924   4.465   2.755   0.578 -0.0096 -0.3661 -0.4662
  806MPD2     H11925   0.054   2.922   0.493 -0.7334  0.6248 -0.7634
  806MPD2    H111926   4.494   2.634   0.405 -0.8573  1.2184 -0.7730
  806MPD2    H211927   4.464   2.855   0.764 -3.0981  0.1345 -1.6031
  806MPD2    H311928   4.384   2.694   0.617 -1.9786  0.5204 -3.1995
  806MPD2     N11929   0.001   2.754   0.324  0.2481 -0.3660 -0.5681
  806MPD2    H511930   0.070   2.824   0.302 -0.0360  0.5134  1.3828
  806MPD2    N111931   4.688   3.017   0.734 -0.2124  0.2951 -0.5868
  806MPD2    H711932   4.633   3.030   0.818  0.9171 -1.0959  0.3630
  807MPD2     C11933   4.520   3.435   1.304  0.2242 -0.0643  0.0370
  807MPD2    C111934   4.511   3.324   1.226  0.7078  0.0860  0.6226
  807MPD2    C211935   4.386   3.246   1.240 -0.3073  0.7920  0.0137
  807MPD2    C311936   4.290   3.287   1.332  0.4555 -1.3678  0.1285
  807MPD2    C411937   4.304   3.396   1.415  0.5500 -0.7090  0.2635
  807MPD2    C511938   4.419   3.470   1.396 -0.6240  0.1530 -0.0872
  807MPD2     H11939   4.376   3.168   1.165 -2.0598  1.5908 -0.5808
  807MPD2    H111940   4.232   3.427   1.490  0.7593  0.6916 -0.1255
  807MPD2    H211941   4.608   3.499   1.303  0.2620 -0.1552 -2.9727
  807MPD2    H311942   4.433   3.565   1.447 -0.4550  0.9549 -1.6495
  807MPD2     N11943   4.176   3.204   1.343  0.6682 -0.0515  0.1019
  807MPD2    H511944   4.170   3.112   1.302 -0.8552  0.7919 -1.6010
  807MPD2    N111945   4.605   3.281   1.128  0.2963  0.6118  0.1891
  807MPD2    H711946   4.583   3.195   1.079  1.2697 -0.2058  1.1576
  808MPD2     C11947   0.174   4.097   9.179 -0.1723 -0.2608  0.6169
  808MPD2    C111948   0.198   4.090   9.315 -0.0152  0.2138  0.2190
  808MPD2    C211949   0.246   4.210   9.378  0.2510 -0.2854  1.3944
  808MPD2    C311950   0.277   4.324   9.305  0.5073  0.3106  0.0021
  808MPD2    C411951   0.275   4.317   9.165 -0.3803  0.4726  0.5672
  808MPD2    C511952   0.216   4.206   9.111 -0.0300  1.2106  0.7014
  808MPD2     H11953   0.264   4.208   9.485  0.7892  1.7162  1.3347
  808MPD2    H111954   0.309   4.404   9.110 -1.7651 -1.2700 -3.0206
  808MPD2    H211955   0.123   4.020   9.123  1.3374 -0.2055 -0.8407
  808MPD2    H311956   0.205   4.211   9.003 -1.0600  4.3311  0.9458
  808MPD2     N11957   0.314   4.442   9.367  0.1890 -0.2386  0.4733
  808MPD2    H511958   0.370   4.509   9.314 -1.5483 -0.2620 -1.3979
  808MPD2    N111959   0.174   3.976   9.391  0.1711  0.0305 -0.2282
  808MPD2    H711960   0.197   3.988   9.489 -0.5173 -0.9090  0.0429
  809MPD2     C11961   0.861   0.505   9.325  0.3436  0.1740 -0.6798
  809MPD2    C111962   0.848   0.472   9.460  0.8444 -0.3402 -0.0452
  809MPD2    C211963   0.736   0.405   9.503  0.4818 -0.1750 -0.0609
  809MPD2    C311964   0.640   0.364   9.414 -0.1951 -0.3289 -0.4212
  809MPD2    C411965   0.656   0.390   9.279  0.2043  0.1542 -0.3704
  809MPD2    C511966   0.762   0.463   9.237  0.6691 -0.1969  0.0019
  809MPD2     H11967   0.729   0.380   9.608 -2.3448  0.8796  0.0208
  809MPD2    H111968   0.584   0.365   9.202  1.3043 -1.5136 -0.8460
  809MPD2    H211969   0.953   0.553   9.294  0.2206  0.0676 -1.2127
  809MPD2    H311970   0.766   0.489   9.132  1.2603 -1.0859 -0.1986
  809MPD2     N11971   0.544   0.276   9.457  0.2089  0.3438 -0.1596
  809MPD2    H511972   0.533   0.275   9.558  0.6778 -2.0795 -0.1310
  809MPD2    N111973   0.947   0.497   9.559 -0.0846  0.4198  0.0866
  809MPD2    H711974   0.938   0.459   9.653 -0.7082  0.3909  0.0163
  810MPD2     C11975   4.571   3.494  10.608  0.7372  0.0412 -0.9878
  810MPD2    C111976   4.563   3.587  10.514  0.3962 -0.1560 -0.4151
  810MPD2    C211977   4.553   3.722  10.559  0.1219 -0.3490  0.4221
  810MPD2    C311978   4.531   3.750  10.689  0.0176 -0.5208  0.1916
  810MPD2    C411979   4.550   3.651  10.785  0.4187 -0.0580  0.4986
  810MPD2    C511980   4.564   3.523  10.739 -0.3457  0.1738  0.6462
  810MPD2     H11981   4.540   3.796  10.481  0.1412 -0.8864 -0.0933
  810MPD2    H111982   4.543   3.666  10.892 -3.1734  1.5344  0.0486
  810MPD2    H211983   4.582   3.390  10.578  1.1761 -0.0184 -0.6190
  810MPD2    H311984   4.547   3.437  10.803 -1.5813  0.5242  0.7868
  810MPD2     N11985   4.502   3.882  10.727 -0.0187  0.6243 -0.3549
  810MPD2    H511986   4.500   3.896  10.827  1.4812 -2.6546  0.1179
  810MPD2    N111987   4.560   3.552  10.379 -0.0547 -0.1099  0.6296
  810MPD2    H711988   4.572   3.453  10.361 -2.6048 -0.0842 -1.1494
  811MPD2     C11989   4.178   3.824   9.575 -0.1637  0.5571  0.7858
  811MPD2    C111990   4.237   3.847   9.691 -0.6003  0.8667  0.5741
  811MPD2    C211991   4.238   3.978   9.739  0.4573  0.7455 -0.2309
  811MPD2    C311992   4.178   4.079   9.664 -0.1858 -0.3495 -0.3632
  811MPD2    C411993   4.113   4.054   9.546  0.0060 -0.3257  0.7995
  811MPD2    C511994   4.112   3.925   9.504 -0.4175 -0.0010  0.4397
  811MPD2     H11995   4.285   4.008   9.832 -0.1497 -1.4907  0.8146
  811MPD2    H111996   4.059   4.126   9.484  0.9188 -0.6256 -0.3488
  811MPD2    H211997   4.184   3.725   9.531 -0.6439 -0.2468  2.5310
  811MPD2    H311998   4.073   3.902   9.406  0.8598  1.7232 -0.4636
  811MPD2     N11999   4.174   4.201   9.728  0.0988 -0.4762  0.3783
  811MPD2    H512000   4.236   4.218   9.806 -0.7217  2.3788  0.3754
  811MPD2    N112001   4.303   3.750   9.763 -0.1767 -0.3133 -0.7133
  811MPD2    H712002   4.284   3.657   9.726  0.0984 -0.6642  0.0188
  812MPD2     C12003   2.719   3.457  12.231 -0.0078  0.0108 -0.1782
  812MPD2    C112004   2.836   3.528  12.214  0.3140 -0.0891  0.0869
  812MPD2    C212005   2.932   3.524  12.319 -0.0042 -0.1445  0.3151
  812MPD2    C312006   2.909   3.463  12.439 -0.0190  0.4161  0.2930
  812MPD2    C412007   2.799   3.389  12.443  0.1057  0.1097 -0.2403
  812MPD2    C512008   2.700   3.387  12.344 -0.0763 -0.3911  0.5280
  812MPD2     H12009   3.021   3.584  12.305 -0.5299  0.1364 -1.8630
  812MPD2    H112010   2.769   3.327  12.527 -2.3355  0.3757 -0.9030
  812MPD2    H212011   2.645   3.446  12.153  0.3767  0.2247 -0.5784
  812MPD2    H312012   2.605   3.337  12.360  1.8605 -4.4827 -0.7769
  812MPD2     N12013   3.002   3.481  12.541 -0.0334 -0.1141 -0.2379
  812MPD2    H512014   3.091   3.521  12.514  0.5659 -0.5730  1.0491
  812MPD2    N112015   2.844   3.612  12.096  0.3497 -0.3261 -0.1218
  812MPD2    H712016   2.768   3.601  12.030 -0.1130 -0.2815  0.4000
  813MPD2     C12017   2.521   0.878  12.873  1.0317 -0.5708  0.1682
  813MPD2    C112018   2.464   1.004  12.860  0.5420  0.1964  0.6530
  813MPD2    C212019   2.359   1.033  12.942  0.3848 -0.4633 -0.6461
  813MPD2    C312020   2.318   0.947  13.041  0.7072  1.3015  0.2442
  813MPD2    C412021   2.369   0.820  13.045  0.0570 -0.0943 -0.7111
  813MPD2    C512022   2.472   0.788  12.956  0.2809 -0.5684 -0.3564
  813MPD2     H12023   2.314   1.131  12.939  0.5554 -0.3943 -1.0683
  813MPD2    H112024   2.346   0.748  13.123  1.2781 -0.5686 -0.7913
  813MPD2    H212025   2.605   0.849  12.811  0.7015  0.0128 -0.5514
  813MPD2    H312026   2.518   0.692  12.975  1.7136  0.2034  0.0320
  813MPD2     N12027   2.225   0.996  13.140 -0.1087  0.0286 -0.3130
  813MPD2    H512028   2.214   1.096  13.131 -1.1579 -0.0639 -0.0802
  813MPD2    N112029   2.532   1.095  12.778  0.3214  0.3760 -0.4037
  813MPD2    H712030   2.622   1.058  12.748 -0.3856 -1.1968 -0.5788
  814MPD2     C12031   2.497   2.121  12.531  0.2765 -0.0890  0.4033
  814MPD2    C112032   2.561   2.131  12.405  0.4215 -0.5587 -0.3710
  814MPD2    C212033   2.631   2.244  12.386  0.7299 -0.4331  0.6152
  814MPD2    C312034   2.650   2.339  12.483 -0.1526  0.3463  0.6169
  814MPD2    C412035   2.589   2.325  12.604 -0.1179  0.0554 -0.2108
  814MPD2    C512036   2.518   2.213  12.631  0.0068  0.3116 -0.5692
  814MPD2     H12037   2.680   2.260  12.291 -1.8123  0.9779 -0.4438
  814MPD2    H112038   2.592   2.398  12.684 -0.1153  1.0464 -1.1238
  814MPD2    H212039   2.437   2.038  12.567  1.7923 -0.6322  1.6519
  814MPD2    H312040   2.469   2.197  12.726 -0.6129 -0.3211 -0.9950
  814MPD2     N12041   2.698   2.470  12.453  0.8432  0.0208 -0.2275
  814MPD2    H512042   2.714   2.529  12.534 -0.9396  0.3599 -0.1156
  814MPD2    N112043   2.544   2.034  12.301 -0.4133  0.3039  0.3679
  814MPD2    H712044   2.582   2.055  12.209  0.8906 -3.8185 -0.0180
  815MPD2     C12045   3.350   0.496  11.435  0.2148 -0.5589 -0.3446
  815MPD2    C112046   3.336   0.371  11.484 -0.2612 -0.2995 -0.4697
  815MPD2    C212047   3.273   0.347  11.606 -0.1268 -0.4150  0.3084
  815MPD2    C312048   3.235   0.452  11.687 -0.5434 -0.2189  0.5054
  815MPD2    C412049   3.265   0.580  11.650 -0.2090 -0.2774 -0.0219
  815MPD2    C512050   3.320   0.596  11.525 -0.1252  0.0318 -0.6994
  815MPD2     H12051   3.248   0.246  11.635  1.5324 -1.9612 -3.6106
  815MPD2    H112052   3.256   0.667  11.714 -1.6746  0.3005 -0.9904
  815MPD2    H212053   3.386   0.518  11.335 -0.9260 -1.0653 -0.8672
  815MPD2    H312054   3.320   0.697  11.486  1.2237  0.1669 -0.3366
  815MPD2     N12055   3.143   0.424  11.796  0.0262 -0.1754  0.8534
  815MPD2    H512056   3.112   0.328  11.808  0.9929 -0.6791 -0.7230
  815MPD2    N112057   3.373   0.268  11.397 -0.1756  0.2622  0.3157
  815MPD2    H712058   3.388   0.305  11.304 -0.7374  1.5526  0.7476
  816MPD2     C12059   3.285   4.081  17.079 -0.2989 -0.3058  0.2089
  816MPD2    C112060   3.317   4.176  16.987  0.0615 -0.8364 -0.4324
  816MPD2    C212061   3.396   4.149  16.877  1.0413  0.0704 -0.4695
  816MPD2    C312062   3.437   4.018  16.861  0.2452  0.2030 -0.1196
  816MPD2    C412063   3.394   3.919  16.950  0.7720 -0.2476 -0.6159
  816MPD2    C512064   3.312   3.956  17.052 -0.8699 -0.3983 -0.0818
  816MPD2     H12065   3.418   4.227  16.806  0.4377  1.3299  0.7251
  816MPD2    H112066   3.431   3.817  16.947  0.1415 -0.5493  1.8032
  816MPD2    H212067   3.222   4.107  17.163  2.0888  1.8125  1.3194
  816MPD2    H312068   3.279   3.877  17.119 -1.0798 -1.5414 -1.5420
  816MPD2     N12069   3.520   4.002  16.751  0.0272 -0.8264  0.1398
  816MPD2    H512070   3.542   4.086  16.699 -3.8763 -0.0875 -0.2958
  816MPD2    N112071   3.274   4.313  17.009  0.3183  0.8652 -0.4720
  816MPD2    H712072   3.233   4.344  17.096  0.5222 -0.3560  0.0569
  817MPD2     C12073   3.192   1.745  10.672  0.4402 -0.6617 -0.4479
  817MPD2    C112074   3.231   1.701  10.545  0.3106 -0.3500 -0.4787
  817MPD2    C212075   3.141   1.643  10.460  0.0102 -0.1302 -0.4964
  817MPD2    C312076   3.005   1.648  10.495  0.6204  0.4126 -0.3968
  817MPD2    C412077   2.964   1.710  10.619 -0.4184  0.4591 -0.3978
  817MPD2    C512078   3.062   1.745  10.713  0.7631  0.1771  0.0284
  817MPD2     H12079   3.178   1.608  10.364  2.8768  0.7442  0.2838
  817MPD2    H112080   2.860   1.715  10.647  0.4061 -1.7302  3.0527
  817MPD2    H212081   3.262   1.788  10.743  1.5097 -1.2197 -1.1579
  817MPD2    H312082   3.038   1.773  10.815  2.1052 -0.4535  0.5114
  817MPD2     N12083   2.919   1.607  10.391 -0.2132  0.3443 -0.4646
  817MPD2    H512084   2.967   1.585  10.305  1.4698  2.5831 -0.1165
  817MPD2    N112085   3.361   1.690  10.500 -0.3206  0.7483 -0.6705
  817MPD2    H712086   3.376   1.638  10.414 -1.3510  1.2192 -1.1322
  818MPD2     C12087   1.963   1.390   9.992 -0.0809 -0.5924  0.2777
  818MPD2    C112088   1.864   1.324  10.058  0.2953 -0.0480  0.2340
  818MPD2    C212089   1.861   1.184  10.042  0.4503  0.1132  0.0652
  818MPD2    C312090   1.959   1.115   9.965  0.6264 -0.4475 -0.4415
  818MPD2    C412091   2.059   1.194   9.913  0.2558  0.6892  0.4224
  818MPD2    C512092   2.060   1.335   9.920 -0.8674 -0.5809 -0.2224
  818MPD2     H12093   1.788   1.129  10.101 -1.7336  3.0411  0.1159
  818MPD2    H112094   2.143   1.149   9.860 -1.1878 -0.9553 -0.4730
  818MPD2    H212095   1.956   1.497   9.981 -0.4059 -0.3295  3.1715
  818MPD2    H312096   2.138   1.398   9.880  0.3063 -2.1410 -0.4074
  818MPD2     N12097   1.957   0.976   9.942  0.3728 -0.4634  0.6274
  818MPD2    H512098   2.043   0.936   9.906  0.0886 -1.9024  1.5613
  818MPD2    N112099   1.767   1.390  10.136 -0.3913 -0.1079  0.0813
  818MPD2    H712100   1.698   1.332  10.183 -0.3893  0.6297  0.9952
  819MPD2     C12101   4.355   2.881  15.336 -0.0609 -0.5584 -0.8276
  819MPD2    C112102   4.411   2.754  15.325  0.0141 -0.2138 -0.5944
  819MPD2    C212103   4.547   2.733  15.334 -0.0380 -0.2134 -0.4191
  819MPD2    C312104   4.620   2.840  15.380 -0.6228  0.6729 -0.2737
  819MPD2    C412105   4.563   2.967  15.397  0.4392  0.4560  0.8841
  819MPD2    C512106   4.433   2.990  15.366 -0.3802 -0.1275  0.1348
  819MPD2     H12107   4.594   2.638  15.312  1.5833  0.3346  0.7030
  819MPD2    H112108   4.622   3.055  15.419  1.8309 -0.1680 -0.3524
  819MPD2    H212109   4.248   2.887  15.320 -0.2711 -0.1884  0.6758
  819MPD2    H312110   4.388   3.088  15.352 -1.2039 -0.5140  0.1069
  819MPD2     N12111   0.018   2.816  15.409 -0.2957  0.2419  0.4160
  819MPD2    H512112   0.056   2.727  15.382  1.3870  1.8324 -2.4234
  819MPD2    N112113   4.318   2.647  15.303 -0.3061  0.4630 -0.3595
  819MPD2    H712114   4.224   2.672  15.273 -1.0004 -2.8419 -0.9057
  820MPD2     C12115   3.638   2.735  14.892 -0.0400 -0.1432  0.0140
  820MPD2    C112116   3.763   2.786  14.926 -0.5816 -0.1372  0.0266
  820MPD2    C212117   3.852   2.700  14.979 -0.4058 -0.2934  0.2514
  820MPD2    C312118   3.824   2.571  15.013  0.0218  0.3509 -0.4114
  820MPD2    C412119   3.698   2.528  14.990 -0.2985 -0.2078 -0.5888
  820MPD2    C512120   3.605   2.611  14.932 -0.5294 -0.1641  0.2886
  820MPD2     H12121   3.946   2.730  15.023  0.8363 -3.2476 -0.3773
  820MPD2    H112122   3.670   2.424  15.005  1.4594 -0.4513  0.9688
  820MPD2    H212123   3.560   2.802  14.860 -0.6143 -2.0162 -2.5340
  820MPD2    H312124   3.502   2.581  14.915 -0.3293  0.2563 -1.6747
  820MPD2     N12125   3.923   2.508  15.081  0.1407 -0.4112  0.2563
  820MPD2    H512126   4.015   2.548  15.092 -0.4783  0.5288  2.1633
  820MPD2    N112127   3.790   2.925  14.906  0.2699  0.2518 -0.1833
  820MPD2    H712128   3.717   2.977  14.859 -0.9312 -0.3884  0.9577
  821MPD2     C12129   4.741   4.136  13.029 -0.3422  0.2322  0.2509
  821MPD2    C112130   0.062   4.184  13.143 -0.4404  0.2668  0.8384
  821MPD2    C212131   0.124   4.309  13.133 -0.3987 -0.1916  0.2270
  821MPD2    C312132   0.132   4.379  13.015  0.6922 -0.2309 -0.0773
  821MPD2    C412133   0.061   4.334  12.906  0.0725 -0.3676 -0.2853
  821MPD2    C512134   0.005   4.213  12.913 -0.5741  0.0988 -0.6362
  821MPD2     H12135   0.174   4.355  13.218 -1.7323  0.5313  0.6220
  821MPD2    H112136   0.059   4.371  12.804 -2.2190 -0.5965 -0.3352
  821MPD2    H212137   4.693   4.039  13.017 -0.6303  0.1724  1.9060
  821MPD2    H312138   4.707   4.163  12.825 -0.0642 -0.7275 -0.3981
  821MPD2     N12139   0.213   4.491  13.001 -0.1342 -0.2753  0.3668
  821MPD2    H512140   0.228   4.523  12.906 -0.2481  2.1454  1.1807
  821MPD2    N112141   0.069   4.116  13.268 -0.2007  0.1344 -0.4637
  821MPD2    H712142   0.102   4.179  13.341  1.5589 -0.2154 -0.9380
  822MPD2     C12143   0.864   4.365  15.451 -0.2491  0.4230 -0.5050
  822MPD2    C112144   0.864   4.326  15.579  0.4610 -0.5673  0.8319
  822MPD2    C212145   0.827   4.410  15.677 -0.3077  0.4652  0.1092
  822MPD2    C312146   0.802   4.540  15.658 -0.0699 -0.4812 -0.0922
  822MPD2    C412147   0.804   4.582  15.526  0.3626 -0.1243 -0.0024
  822MPD2    C512148   0.837   4.494  15.427  0.2708 -0.0412 -0.2806
  822MPD2     H12149   0.819   4.366  15.776  0.8461  0.9362  0.4158
  822MPD2    H112150   0.778   4.684  15.499 -2.1876 -0.9489 -0.6978
  822MPD2    H212151   0.888   4.297  15.370 -0.5565  0.3724 -0.5540
  822MPD2    H312152   0.845   4.523  15.323  0.1669  0.8566 -0.0365
  822MPD2     N12153   0.790   4.625  15.768  0.6109 -0.0333  0.5390
  822MPD2    H512154   0.793   4.574  15.855 -1.6567 -0.8065  0.1468
  822MPD2    N112155   0.903   4.193  15.612  0.0728  0.2377  0.2719
  822MPD2    H712156   0.896   4.161  15.708 -0.9209  0.1995  0.1875
  823MPD2     C12157   0.459   0.193  16.504  0.1066 -0.1674 -0.2233
  823MPD2    C112158   0.453   0.106  16.403 -0.6197  0.6819 -0.0011
  823MPD2    C212159   0.418   4.716  16.438  0.3384 -0.2746 -0.2980
  823MPD2    C312160   0.419   4.668  16.564  0.1956  0.1834  0.2668
  823MPD2    C412161   0.422   0.013  16.667 -0.1783 -0.6174  0.4122
  823MPD2    C512162   0.444   0.147  16.635  1.0497  0.9302  0.6912
  823MPD2     H12163   0.431   4.642  16.360  2.2251  1.3952 -1.5580
  823MPD2    H112164   0.418   4.722  16.771  0.6585  1.4363  1.0664
  823MPD2    H212165   0.479   0.296  16.477 -1.7171 -0.0474 -1.0436
  823MPD2    H312166   0.450   0.216  16.718 -1.8191 -1.7259  3.1436
  823MPD2     N12167   0.432   4.529  16.588  0.2638  0.0309  0.1304
  823MPD2    H512168   0.444   4.510  16.687  0.7110  0.7528  0.2161
  823MPD2    N112169   0.503   0.150  16.277  0.0953  0.1821 -0.1952
  823MPD2    H712170   0.546   0.242  16.267  1.5742 -0.7318 -2.3321
  824MPD2     C12171   1.112   3.296  15.668  0.3117 -0.5660  0.2913
  824MPD2    C112172   1.150   3.405  15.593 -0.6309 -0.0739  0.6324
  824MPD2    C212173   1.269   3.397  15.520 -0.1452 -0.2427 -0.0587
  824MPD2    C312174   1.332   3.277  15.501  0.4228  0.4989  0.3164
  824MPD2    C412175   1.280   3.161  15.555 -0.3906  0.1357 -0.0531
  824MPD2    C512176   1.168   3.177  15.631  0.2041  0.6497  0.5748
  824MPD2     H12177   1.315   3.482  15.470  0.1426 -0.4537 -0.1556
  824MPD2    H112178   1.334   3.067  15.552 -1.0289 -0.1748 -1.9303
  824MPD2    H212179   1.032   3.288  15.740  1.3203 -1.0032  1.3754
  824MPD2    H312180   1.127   3.087  15.675  2.1381 -0.6872 -0.3659
  824MPD2     N12181   1.456   3.281  15.433  0.6333 -0.2344 -0.9785
  824MPD2    H512182   1.484   3.368  15.388 -0.8551 -0.0488 -1.5486
  824MPD2    N112183   1.087   3.525  15.622  0.0556 -0.2041  0.4133
  824MPD2    H712184   1.023   3.522  15.701  1.8509 -0.2428  1.8765
  825MPD2     C12185   2.088   3.555  14.889  0.1577  0.2720 -0.2762
  825MPD2    C112186   2.006   3.572  15.006  0.0450  0.2767  0.5644
  825MPD2    C212187   2.000   3.684  15.078  0.5475  0.1032  0.2491
  825MPD2    C312188   2.069   3.794  15.028 -0.3661 -0.0986 -0.1454
  825MPD2    C412189   2.150   3.777  14.912  0.1459 -0.6089 -0.9268
  825MPD2    C512190   2.164   3.655  14.846 -0.1943  0.6189 -0.3135
  825MPD2     H12191   1.940   3.700  15.167 -0.8055  0.8624 -0.8110
  825MPD2    H112192   2.211   3.856  14.869  2.3101 -0.1927  2.9282
  825MPD2    H212193   2.094   3.457  14.843  0.3678 -0.5324  1.4617
  825MPD2    H312194   2.226   3.634  14.760 -0.6115 -2.0250  0.0512
  825MPD2     N12195   2.056   3.927  15.082  0.0126  0.3704 -0.4364
  825MPD2    H512196   2.101   3.994  15.021  0.4018 -0.7362 -1.3518
  825MPD2    N112197   1.935   3.456  15.044 -0.3674  0.0454 -0.2827
  825MPD2    H712198   1.958   3.373  14.990  0.6353  0.6729 -0.8263
  826MPD2     C12199   1.302   3.595  13.357  0.2226 -0.2648  0.1875
  826MPD2    C112200   1.393   3.665  13.428  0.4790  0.5467  0.1085
  826MPD2    C212201   1.341   3.763  13.506 -0.2827 -0.0554 -0.0382
  826MPD2    C312202   1.202   3.807  13.503 -0.0798  0.0140  0.6133
  826MPD2    C412203   1.122   3.733  13.418 -1.3919 -0.0741  0.0825
  826MPD2    C512204   1.172   3.633  13.358 -0.2267  0.2981  0.1762
  826MPD2     H12205   1.407   3.817  13.573 -1.0570  2.4647 -1.3074
  826MPD2    H112206   1.014   3.743  13.425 -1.4590 -1.4107  0.9999
  826MPD2    H212207   1.333   3.516  13.290  0.7889  0.8460 -0.8674
  826MPD2    H312208   1.100   3.584  13.293  0.4094 -0.8362  0.3306
  826MPD2     N12209   1.140   3.905  13.585 -0.2788 -0.1294 -0.5182
  826MPD2    H512210   1.040   3.917  13.578 -0.6113 -2.3049  0.4704
  826MPD2    N112211   1.527   3.624  13.423  0.4486 -0.0540 -0.5347
  826MPD2    H712212   1.542   3.538  13.371 -0.7663 -1.1432  0.9341
  827MPD2     C12213   2.353   0.454   9.932 -0.0379  0.1570  0.0613
  827MPD2    C112214   2.342   0.330   9.991 -1.0548 -0.1693  0.3276
  827MPD2    C212215   2.225   0.262   9.970 -0.3802  0.2064  0.1227
  827MPD2    C312216   2.124   0.310   9.885 -0.8670  0.1526  0.3508
  827MPD2    C412217   2.143   0.433   9.821 -0.0369  0.5368 -0.3858
  827MPD2    C512218   2.252   0.501   9.853 -0.3894 -0.5848 -0.0608
  827MPD2     H12219   2.203   0.169  10.022 -3.5787  1.0499  0.2815
  827MPD2    H112220   2.080   0.467   9.741 -1.1703 -4.9230 -1.8563
  827MPD2    H212221   2.449   0.503   9.944  2.1967 -3.7298 -1.8434
  827MPD2    H312222   2.252   0.604   9.818 -0.4177  0.1024  1.9866
  827MPD2     N12223   2.009   0.224   9.870 -0.1263 -0.1117  0.4578
  827MPD2    H512224   2.010   0.145   9.935 -0.1753 -1.5922 -1.3374
  827MPD2    N112225   2.451   0.287  10.070  0.3635  0.3015 -0.8710
  827MPD2    H712226   2.530   0.349  10.081  0.3043  0.3583 -0.7729
  828MPD2     C12227   0.723   0.264  12.514 -0.0538 -0.0484 -0.0509
  828MPD2    C112228   0.647   0.235  12.399  0.1476  0.4658 -0.7388
  828MPD2    C212229   0.654   0.310  12.290 -0.6244 -0.1018 -0.2517
  828MPD2    C312230   0.755   0.403  12.275  0.1467  0.2407  0.8485
  828MPD2    C412231   0.820   0.442  12.393  0.3361 -0.1826 -0.2055
  828MPD2    C512232   0.801   0.374  12.514  0.6061  0.9332 -0.4891
  828MPD2     H12233   0.590   0.282  12.206 -1.1713  1.1158 -0.2467
  828MPD2    H112234   0.892   0.523  12.386 -0.8444  0.7718 -1.3986
  828MPD2    H212235   0.704   0.216  12.610  0.8146  1.5516  0.9293
  828MPD2    H312236   0.867   0.380  12.600  0.5257 -0.1320 -0.3413
  828MPD2     N12237   0.788   0.470  12.160  0.0540  0.3345  0.1097
  828MPD2    H512238   0.864   0.537  12.163  1.1472 -0.8619 -0.7441
  828MPD2    N112239   0.540   0.137  12.392  0.4541  0.0133  0.0138
  828MPD2    H712240   0.496   0.135  12.301  1.7848  2.6569 -0.6840
  829MPD2     C12241   0.160   0.082  11.672 -0.2082  0.0173  0.1950
  829MPD2    C112242   0.112   4.701  11.723  0.4787  0.2307  0.4582
  829MPD2    C212243   0.145   4.666  11.855  0.5223  0.8471  0.7631
  829MPD2    C312244   0.228   0.009  11.932  0.2469 -0.3897 -0.2523
  829MPD2    C412245   0.289   0.121  11.867  0.3049  0.4780  0.2371
  829MPD2    C512246   0.253   0.159  11.740  0.2891 -0.0559  0.3941
  829MPD2     H12247   0.104   4.576  11.898 -1.4001  1.4097  0.1388
  829MPD2    H112248   0.347   0.190  11.927  0.3766  0.5267  0.1108
  829MPD2    H212249   0.133   0.110  11.571 -1.0764  0.4134  0.5346
  829MPD2    H312250   0.304   0.242  11.693  0.1817 -0.6475 -0.7698
  829MPD2     N12251   0.260   4.728  12.069 -0.3888  0.6565 -0.6209
  829MPD2    H512252   0.326   0.054  12.109 -1.3131  1.9876 -1.3160
  829MPD2    N112253   0.004   4.632  11.654  0.0094  0.0789  0.3780
  829MPD2    H712254   4.705   4.669  11.569 -1.2251 -0.5451  0.6903
  830MPD2     C12255   0.849   2.638  15.334 -0.5948  0.0938  0.2246
  830MPD2    C112256   0.724   2.603  15.294  0.2078  0.2767  0.5470
  830MPD2    C212257   0.707   2.525  15.177  0.2539 -0.1115 -0.3544
  830MPD2    C312258   0.822   2.496  15.100  0.7228 -0.0626  0.2592
  830MPD2    C412259   0.950   2.516  15.153 -0.3445  0.0257  0.1095
  830MPD2    C512260   0.958   2.592  15.267  0.8189 -0.2684 -0.0587
  830MPD2     H12261   0.605   2.514  15.143  0.5677 -1.0134 -1.0092
  830MPD2    H112262   1.031   2.474  15.095 -0.1559  1.9890 -1.0870
  830MPD2    H212263   0.859   2.684  15.431 -1.5908 -0.3184  0.5220
  830MPD2    H312264   1.056   2.609  15.310  1.7743 -2.9864 -1.1368
  830MPD2     N12265   0.819   2.444  14.967 -0.6002 -0.5985  0.5977
  830MPD2    H512266   0.911   2.434  14.927 -0.1335 -2.7371  2.2291
  830MPD2    N112267   0.620   2.647  15.374 -0.4314  0.1964  0.7844
  830MPD2    H712268   0.644   2.693  15.461 -1.6462  1.0580  0.6736
  831MPD2     C12269   0.922   4.581  16.155 -0.1186 -0.0887  0.1734
  831MPD2    C112270   0.912   4.482  16.066 -0.3408 -0.3182  0.5301
  831MPD2    C212271   0.789   4.423  16.043  0.2702 -0.2801 -1.1881
  831MPD2    C312272   0.672   4.448  16.110  0.6320 -0.3741 -0.0489
  831MPD2    C412273   0.688   4.536  16.214  0.5358  0.0682 -0.0773
  831MPD2    C512274   0.808   4.605  16.226 -0.1365 -0.2233 -0.1526
  831MPD2     H12275   0.788   4.349  15.964 -1.2340  1.2203 -2.5837
  831MPD2    H112276   0.603   4.565  16.273 -1.0538 -0.2818 -2.1705
  831MPD2    H212277   1.009   4.644  16.170  1.0792 -1.8215  0.5005
  831MPD2    H312278   0.799   4.680  16.304  1.0027 -0.6036  0.3353
  831MPD2     N12279   0.542   4.389  16.086  0.1500 -0.2209 -0.4064
  831MPD2    H512280   0.464   4.416  16.146  1.8385  1.8319  0.8672
  831MPD2    N112281   1.018   4.448  15.984  0.9826  0.7789 -0.7255
  831MPD2    H712282   1.102   4.505  15.990 -0.3654  2.6988  0.0383
  832MPD2     C12283   4.024   0.494  16.965 -0.1362  0.2364 -0.1485
  832MPD2    C112284   4.020   0.625  16.923 -0.2408  0.2314 -0.4069
  832MPD2    C212285   3.923   0.656  16.829  1.0278 -0.5041 -0.3087
  832MPD2    C312286   3.835   0.566  16.772 -0.2609  0.1571  0.5955
  832MPD2    C412287   3.855   0.433  16.802  0.1238  0.0785 -0.1109
  832MPD2    C512288   3.954   0.403  16.891 -0.3900 -0.3888 -0.7470
  832MPD2     H12289   3.913   0.764  16.820  1.6883 -0.3770  0.5739
  832MPD2    H112290   3.794   0.354  16.759  0.0086  0.7097 -1.0852
  832MPD2    H212291   4.100   0.464  17.037 -0.1078  1.0249  0.1511
  832MPD2    H312292   3.971   0.298  16.914  0.7195 -0.3785 -1.5633
  832MPD2     N12293   3.730   0.596  16.686 -0.6235  0.1125 -0.2264
  832MPD2    H512294   3.662   0.523  16.669  2.7236 -3.2009  0.7582
  832MPD2    N112295   4.116   0.713  16.983 -0.3229  0.1267 -0.0730
  832MPD2    H712296   4.179   0.684  17.057  0.8572 -0.5681 -1.3287
  833MPD2     C12297   1.243   2.707  12.652  0.0589 -0.7019  0.4787
  833MPD2    C112298   1.274   2.822  12.585  0.3545  0.8188  0.4043
  833MPD2    C212299   1.386   2.829  12.502 -0.5042  0.3307  0.5776
  833MPD2    C312300   1.465   2.715  12.477  1.0657  0.0082  0.3071
  833MPD2    C412301   1.425   2.600  12.543 -0.4933  0.1605  0.1557
  833MPD2    C512302   1.319   2.594  12.627 -0.1216 -0.2370  0.0700
  833MPD2     H12303   1.406   2.923  12.451  0.7528 -0.8117 -1.0162
  833MPD2    H112304   1.478   2.510  12.517  0.2046  0.9763 -1.2277
  833MPD2    H212305   1.146   2.698  12.699 -0.1474 -1.1779 -0.0453
  833MPD2    H312306   1.288   2.509  12.686  1.1912 -0.1236  0.9239
  833MPD2     N12307   1.577   2.707  12.386  0.1521  0.5874  0.0410
  833MPD2    H512308   1.612   2.616  12.359 -3.5336 -0.7710 -0.1222
  833MPD2    N112309   1.190   2.935  12.604  0.3555 -0.3139  0.3091
  833MPD2    H712310   1.121   2.929  12.679  1.3813  3.0139  1.5221
  834MPD2     C12311   1.456   1.996  11.873  0.3996  0.1215  0.6719
  834MPD2    C112312   1.413   2.103  11.793  0.4531 -0.1631 -0.5232
  834MPD2    C212313   1.438   2.234  11.835  0.1410 -0.1786  0.2978
  834MPD2    C312314   1.502   2.259  11.955 -0.3562 -0.2625  0.5030
  834MPD2    C412315   1.547   2.145  12.030  0.4072  0.1652 -0.1011
  834MPD2    C512316   1.522   2.016  11.990 -0.1832 -1.1199 -0.1092
  834MPD2     H12317   1.410   2.327  11.786  0.5000  0.5890  1.5491
  834MPD2    H112318   1.593   2.150  12.128 -1.6115  2.2936  0.7324
  834MPD2    H212319   1.452   1.894  11.837  1.4140  0.0464  0.7872
  834MPD2    H312320   1.559   1.932  12.047 -0.8447  0.5170  2.7008
  834MPD2     N12321   1.526   2.390  11.995  0.3349 -0.1699 -0.3328
  834MPD2    H512322   1.463   2.463  11.962 -0.5753 -0.3725  0.9757
  834MPD2    N112323   1.365   2.072  11.664  0.0810 -0.2124 -0.0077
  834MPD2    H712324   1.354   1.972  11.650 -0.2982 -0.3007  0.9220
  835MPD2     C12325   1.391   0.349  11.359 -0.4304  1.2541 -0.0968
  835MPD2    C112326   1.294   0.446  11.368 -0.0461  0.0070 -0.1026
  835MPD2    C212327   1.305   0.543  11.469 -0.1268 -0.1594  0.2557
  835MPD2    C312328   1.397   0.522  11.569  0.2752  0.4621  0.4406
  835MPD2    C412329   1.478   0.409  11.562  0.7339 -0.4377 -0.3384
  835MPD2    C512330   1.484   0.330  11.458  0.7911  0.6652  0.3538
  835MPD2     H12331   1.233   0.623  11.460 -0.2050  0.0174  2.5679
  835MPD2    H112332   1.557   0.389  11.633  0.0477  3.4777  1.5614
  835MPD2    H212333   1.392   0.287  11.270 -0.8479  0.7096  0.2784
  835MPD2    H312334   1.563   0.256  11.450  0.7736  0.8316 -1.2461
  835MPD2     N12335   1.417   0.600  11.686 -0.8426  0.6039  0.7067
  835MPD2    H512336   1.507   0.591  11.732  0.0918  4.1552 -0.4446
  835MPD2    N112337   1.194   0.458  11.269 -0.2825  0.4978 -0.1516
  835MPD2    H712338   1.132   0.536  11.287  1.5647  1.4478  2.1365
  836MPD2     C12339   0.871   0.869  11.699  0.4187  0.1075  0.0093
  836MPD2    C112340   0.902   0.887  11.835 -0.1066 -0.0167 -0.7357
  836MPD2    C212341   0.800   0.868  11.925  0.4388 -0.5201  0.0454
  836MPD2    C312342   0.674   0.823  11.876  0.1988  0.7379 -0.0190
  836MPD2    C412343   0.659   0.795  11.741 -0.1474  0.3688  0.0031
  836MPD2    C512344   0.750   0.827  11.650 -0.3833 -0.1178  0.4139
  836MPD2     H12345   0.813   0.884  12.031  0.1103 -1.4747  0.2307
  836MPD2    H112346   0.565   0.769  11.695  0.0447 -0.6264  0.1844
  836MPD2    H212347   0.942   0.889  11.619  1.3001  2.9832  1.4955
  836MPD2    H312348   0.726   0.814  11.545 -1.3536  0.4953  0.5627
  836MPD2     N12349   0.557   0.802  11.947  0.7519  0.1284  0.5010
  836MPD2    H512350   0.486   0.759  11.888 -1.1087  2.4936  1.0235
  836MPD2    N112351   1.037   0.915  11.855  0.1440 -0.7360  0.2166
  836MPD2    H712352   1.093   0.929  11.772  1.1758  1.0875  1.2088
  837MPD2     C12353   4.392   0.197   9.647 -0.3811 -0.7446 -0.7315
  837MPD2    C112354   4.344   0.182   9.773  0.4415 -0.1355  0.6072
  837MPD2    C212355   4.328   0.296   9.845 -0.1706 -0.1879  0.3716
  837MPD2    C312356   4.350   0.420   9.788  0.6956  0.0255  0.6118
  837MPD2    C412357   4.413   0.434   9.668 -0.0458  0.4540 -0.7821
  837MPD2    C512358   4.429   0.323   9.597  0.0454  1.1419  0.0996
  837MPD2     H12359   4.285   0.276   9.943 -1.1907 -0.8981 -0.2173
  837MPD2    H112360   4.443   0.531   9.632  3.2711 -0.9247 -1.7453
  837MPD2    H212361   4.418   0.112   9.585 -0.2809 -2.3272  1.4474
  837MPD2    H312362   4.481   0.332   9.502 -0.0327  1.1565  0.0574
  837MPD2     N12363   4.295   0.531   9.856 -0.1311  0.1320 -0.0580
  837MPD2    H512364   4.235   0.506   9.933  0.9395  1.7760  1.3244
  837MPD2    N112365   4.314   0.061   9.831  0.3799  0.5048  0.5882
  837MPD2    H712366   4.293   0.066   9.930  2.2676 -1.4374  1.0735
  838MPD2     C12367   2.670   3.423  11.840 -0.0016  0.3138 -0.7373
  838MPD2    C112368   2.662   3.296  11.871 -0.3042 -0.5138 -0.3488
  838MPD2    C212369   2.559   3.251  11.946 -0.7315  0.0184 -0.3526
  838MPD2    C312370   2.462   3.339  12.009 -0.4074  0.4541  0.5105
  838MPD2    C412371   2.473   3.470  11.973  0.6855 -0.1054  0.1522
  838MPD2    C512372   2.579   3.510  11.893  0.1617 -0.1278  0.2552
  838MPD2     H12373   2.559   3.144  11.966 -1.6499 -0.2036 -1.5656
  838MPD2    H112374   2.398   3.544  11.999  0.8665  0.2288 -0.2671
  838MPD2    H212375   2.755   3.468  11.790 -0.2671  0.1563 -1.3261
  838MPD2    H312376   2.580   3.612  11.855 -0.7564  0.4311  1.7430
  838MPD2     N12377   2.355   3.286  12.085 -0.3727  0.2595 -0.0245
  838MPD2    H512378   2.337   3.187  12.096  0.1374  0.1803  0.0829
  838MPD2    N112379   2.754   3.199  11.824 -0.2504  0.4858 -0.2402
  838MPD2    H712380   2.744   3.105  11.863  0.5828  0.1111 -0.9185
  839MPD2     C12381   2.503   2.433  11.894  0.4678 -0.1031  0.1421
  839MPD2    C112382   2.535   2.429  11.756 -0.4493 -0.1537  0.6488
  839MPD2    C212383   2.625   2.518  11.707  0.3627 -0.6392  0.2329
  839MPD2    C312384   2.671   2.621  11.789 -0.4114  0.5365 -0.2692
  839MPD2    C412385   2.631   2.633  11.916 -0.4922  0.0436 -0.3410
  839MPD2    C512386   2.555   2.535  11.970 -0.2865  0.2054  0.3374
  839MPD2     H12387   2.666   2.504  11.608  0.7006 -2.2389  0.6041
  839MPD2    H112388   2.675   2.712  11.976 -1.3546 -0.0595  0.4320
  839MPD2    H212389   2.430   2.370  11.944 -0.5423  1.6103  0.8474
  839MPD2    H312390   2.523   2.544  12.073 -0.2565 -1.7769  0.5113
  839MPD2     N12391   2.755   2.724  11.747  0.1838  0.9193  0.7139
  839MPD2    H512392   2.769   2.797  11.816 -0.0199  0.1474  1.5846
  839MPD2    N112393   2.496   2.327  11.666  0.3572  0.0314  0.5355
  839MPD2    H712394   2.544   2.329  11.576 -1.2995  0.2806 -0.3421
  840MPD2     C12395   3.043   0.516  10.119 -0.2754  0.1683  0.4304
  840MPD2    C112396   2.979   0.493  10.235 -0.0663 -0.1686  0.1839
  840MPD2    C212397   3.003   0.584  10.340  0.9252  0.7202 -0.3283
  840MPD2    C312398   3.076   0.697  10.327 -0.8071  0.2074 -0.3785
  840MPD2    C412399   3.142   0.711  10.208 -0.6597 -0.4913  0.5335
  840MPD2    C512400   3.122   0.625  10.103 -0.6298 -0.0544 -0.0124
  840MPD2     H12401   2.943   0.569  10.429  0.0115 -0.6535 -1.1746
  840MPD2    H112402   3.209   0.792  10.182 -1.8637  0.3663  0.1117
  840MPD2    H212403   3.032   0.448  10.036  0.5419 -0.9930  1.2717
  840MPD2    H312404   3.188   0.639  10.018 -0.5303  0.1257  0.0942
  840MPD2     N12405   3.106   0.795  10.426 -0.3464  0.4499 -0.1012
  840MPD2    H512406   3.173   0.867  10.402  0.0340 -0.1102 -0.7037
  840MPD2    N112407   2.907   0.370  10.237  0.6218 -0.3257  0.5895
  840MPD2    H712408   2.885   0.329  10.147  0.6618 -0.7689  0.7786
  841MPD2     C12409   2.522   4.632  14.060 -0.3487  0.3081  0.7498
  841MPD2    C112410   2.491   4.618  14.196  0.2924  0.2283  0.2385
  841MPD2    C212411   2.587   4.640  14.291  0.7933 -0.2390  0.2940
  841MPD2    C312412   2.715   4.683  14.252 -0.3052  0.7839  0.1059
  841MPD2    C412413   2.745   4.694  14.118  0.0415 -0.6303  0.7507
  841MPD2    C512414   2.653   4.671  14.021  0.5887  0.3561  0.0797
  841MPD2     H12415   2.569   4.616  14.395  0.2784  1.4340  0.5917
  841MPD2    H112416   2.845   4.718  14.082  0.7458 -1.8327  1.8931
  841MPD2    H212417   2.449   4.611  13.983  1.6297  0.1248 -1.0949
  841MPD2    H312418   2.678   4.683  13.917 -1.1825  3.7285  0.0333
  841MPD2     N12419   2.814   4.701  14.349 -0.3064  0.2486  0.2854
  841MPD2    H512420   2.786   4.700  14.446 -0.1284 -0.3148  0.3306
  841MPD2    N112421   2.365   4.559  14.237  0.0456  0.7858  0.3056
  841MPD2    H712422   2.356   4.530  14.334 -3.2553  1.0350  0.0610
  842MPD2     C12423   3.362   1.163  16.555  0.3299 -0.4299 -0.0385
  842MPD2    C112424   3.239   1.109  16.529 -0.3701 -0.6275 -0.7754
  842MPD2    C212425   3.177   1.025  16.627 -0.1971 -0.4676 -0.1265
  842MPD2    C312426   3.238   1.011  16.751 -0.2028 -0.3210  0.1673
  842MPD2    C412427   3.369   1.053  16.766  0.5073 -0.1742  0.0853
  842MPD2    C512428   3.428   1.130  16.676 -0.3179 -0.4907 -0.1431
  842MPD2     H12429   3.074   0.991  16.621  0.0684 -0.8718 -2.2991
  842MPD2    H112430   3.423   1.017  16.853  1.1656 -0.5392 -0.4788
  842MPD2    H212431   3.417   1.228  16.487 -1.8296 -0.2455 -1.5827
  842MPD2    H312432   3.527   1.169  16.696 -0.7145 -1.0638  2.9604
  842MPD2     N12433   3.160   0.952  16.849 -0.6526  0.3873  0.1035
  842MPD2    H512434   3.073   0.907  16.819 -0.7239  0.8200 -0.3360
  842MPD2    N112435   3.179   1.135  16.405  0.1543  0.2979 -0.9323
  842MPD2    H712436   3.223   1.205  16.346  2.2705 -0.8098 -0.6709
  843MPD2     C12437   0.736   1.693  17.335  0.2614  0.3614  0.4292
  843MPD2    C112438   0.700   1.691  17.466  0.3516 -0.4768 -0.1684
  843MPD2    C212439   0.760   1.781  17.554  0.7761  0.2313 -0.4395
  843MPD2    C312440   0.819   1.891  17.497 -0.5294  0.1277 -0.3191
  843MPD2    C412441   0.847   1.901  17.360 -0.2655  0.3868  0.2964
  843MPD2    C512442   0.815   1.794  17.283 -0.2690 -0.3984  0.0041
  843MPD2     H12443   0.727   1.774  17.657  1.5748  3.3917  0.0193
  843MPD2    H112444   0.892   1.989  17.315 -1.6647  1.4999  1.0741
  843MPD2    H212445   0.697   1.621  17.264  0.4219 -1.4092  2.1655
  843MPD2    H312446   0.854   1.786  17.182  0.2531 -1.7332  0.3048
  843MPD2     N12447   0.851   2.007  17.572 -0.1923 -0.1167  0.3397
  843MPD2    H512448   0.917   2.070  17.527  0.1966 -1.5177 -1.0292
  843MPD2    N112449   0.615   1.583  17.507 -0.0655 -0.0641  0.0395
  843MPD2    H712450   0.572   1.528  17.434 -2.0713  0.6072  0.7096
  844MPD2     C12451   3.689   0.056  16.484 -0.0479 -0.4989 -0.7105
  844MPD2    C112452   3.691   0.149  16.381 -0.5476  0.4286 -0.5378
  844MPD2    C212453   3.781   0.254  16.387 -0.0542  0.0685 -0.2044
  844MPD2    C312454   3.874   0.256  16.493 -0.3245  0.1331 -0.4864
  844MPD2    C412455   3.877   0.162  16.590  0.0388 -0.2507  0.0571
  844MPD2    C512456   3.781   0.064  16.588 -0.1146  0.5917  0.2300
  844MPD2     H12457   3.783   0.333  16.313 -0.7912  2.2640  2.1324
  844MPD2    H112458   3.950   0.171  16.669 -1.6015  0.1270  1.5323
  844MPD2    H212459   3.619   4.714  16.490  0.1456 -0.5143  1.4519
  844MPD2    H312460   3.777   4.723  16.659 -0.6771  0.9191  0.5775
  844MPD2     N12461   3.963   0.365  16.498  0.0126 -0.1214  0.0904
  844MPD2    H512462   4.039   0.366  16.565 -0.6853 -2.6983  0.9352
  844MPD2    N112463   3.600   0.147  16.269 -0.2718 -0.3053  0.2840
  844MPD2    H712464   3.614   0.226  16.206 -3.4270  0.8809  1.0494
  845MPD2     C12465   4.069   1.429  16.607  0.1388 -0.0551 -0.5473
  845MPD2    C112466   4.064   1.357  16.724  0.0021  1.0336  0.4137
  845MPD2    C212467   4.071   1.216  16.724 -0.4314 -0.0377 -0.0767
  845MPD2    C312468   4.076   1.151  16.603 -0.2152 -1.0563 -0.6640
  845MPD2    C412469   4.069   1.217  16.484  0.3903 -0.2249 -0.0932
  845MPD2    C512470   4.078   1.358  16.489 -0.3227  0.4660 -0.0764
  845MPD2     H12471   4.062   1.161  16.817 -2.5647  0.0824 -0.2142
  845MPD2    H112472   4.096   1.167  16.392 -0.7432 -0.5321 -0.2537
  845MPD2    H212473   4.066   1.537  16.595 -1.2415  0.0287  0.4650
  845MPD2    H312474   4.077   1.413  16.395 -2.0521 -0.7634 -0.7800
  845MPD2     N12475   4.080   1.006  16.605  0.0499 -0.5563 -0.4124
  845MPD2    H512476   4.106   0.957  16.690  1.7441 -0.1154 -0.6869
  845MPD2    N112477   4.049   1.424  16.849  0.0486 -0.5110  0.0088
  845MPD2    H712478   4.020   1.521  16.851 -0.5870 -0.7246  0.8945
  846MPD2     C12479   0.668   1.799  13.765  0.4207  0.1954  0.4284
  846MPD2    C112480   0.554   1.869  13.782 -0.0741  0.5206  0.7241
  846MPD2    C212481   0.498   1.879  13.908  0.3017 -0.1215  0.5414
  846MPD2    C312482   0.563   1.827  14.018  0.9998 -0.0273  0.0977
  846MPD2    C412483   0.686   1.774  14.000  0.4649  0.7417  0.1922
  846MPD2    C512484   0.740   1.760  13.875  0.2961  0.0592 -0.4617
  846MPD2     H12485   0.395   1.915  13.911 -0.1102 -1.1299 -1.4617
  846MPD2    H112486   0.750   1.743  14.081 -0.1110 -2.2069 -0.4973
  846MPD2    H212487   0.710   1.786  13.667  2.1948  1.1188  1.0777
  846MPD2    H312488   0.837   1.711  13.873  0.5447  0.5151  0.2687
  846MPD2     N12489   0.499   1.839  14.142 -0.0932 -0.3353  0.0441
  846MPD2    H512490   0.399   1.854  14.134  0.2956  3.3152  1.8522
  846MPD2    N112491   0.495   1.932  13.664  0.3046 -0.1616 -0.4519
  846MPD2    H712492   0.420   2.000  13.676 -2.1242 -2.8168 -0.4373
  847MPD2     C12493   0.875   3.003  13.774 -0.0438 -0.1041 -0.3000
  847MPD2    C112494   0.963   3.003  13.874  0.9407 -0.8294  0.3391
  847MPD2    C212495   1.011   2.884  13.913  0.1311 -0.3575  0.0475
  847MPD2    C312496   0.955   2.766  13.875 -0.3490  0.4494  0.4711
  847MPD2    C412497   0.867   2.770  13.768 -0.1438 -0.3693  0.0277
  847MPD2    C512498   0.824   2.889  13.724  0.3111  0.5756  0.5260
  847MPD2     H12499   1.090   2.872  13.985  1.7317 -0.6178 -1.7379
  847MPD2    H112500   0.819   2.684  13.722 -0.5482 -1.0983  1.7963
  847MPD2    H212501   0.835   3.095  13.732  0.3873  1.5032  2.8047
  847MPD2    H312502   0.756   2.889  13.640 -0.1249 -1.6922  0.8775
  847MPD2     N12503   0.989   2.647  13.939 -0.1419 -0.2185 -0.0065
  847MPD2    H512504   1.053   2.653  14.017 -0.0672 -1.1152  0.0025
  847MPD2    N112505   1.019   3.118  13.936 -0.0320 -0.5083 -0.3607
  847MPD2    H712506   1.105   3.108  13.988 -1.3653 -0.4376  1.8268
  848MPD2     C12507   3.444   1.015  16.030  0.8811 -0.2029 -0.9387
  848MPD2    C112508   3.520   1.051  16.139 -0.3774 -0.1944 -0.2694
  848MPD2    C212509   3.604   1.164  16.129 -0.1535  0.1296  0.4635
  848MPD2    C312510   3.613   1.234  16.015 -0.3288 -0.3223  0.2001
  848MPD2    C412511   3.538   1.190  15.909  0.5848  0.0782 -0.2654
  848MPD2    C512512   3.458   1.081  15.915  0.1507  0.6093  0.6371
  848MPD2     H12513   3.654   1.198  16.218 -1.8764  1.6289  0.8709
  848MPD2    H112514   3.532   1.246  15.816  0.4558  2.0231  0.8989
  848MPD2    H212515   3.372   0.935  16.041  0.5457  0.1526 -0.4886
  848MPD2    H312516   3.399   1.055  15.828 -2.3335  1.4177  2.0860
  848MPD2     N12517   3.668   1.367  16.008 -0.6253  0.0692  0.7578
  848MPD2    H512518   3.650   1.416  15.921  1.4242  1.0493  0.8884
  848MPD2    N112519   3.508   0.987  16.262  0.2625 -0.1453 -0.3855
  848MPD2    H712520   3.577   1.004  16.333 -1.9903 -1.4644  2.1161
  849MPD2     C12521   2.863   0.904  13.873 -0.7612 -0.2970  0.1811
  849MPD2    C112522   2.866   0.771  13.838  0.0937 -0.1386 -0.6843
  849MPD2    C212523   2.803   0.681  13.924 -0.4530  0.2067  0.2044
  849MPD2    C312524   2.739   0.712  14.035  0.2605  0.2866 -0.2947
  849MPD2    C412525   2.741   0.844  14.075 -0.1325  1.0009 -0.3040
  849MPD2    C512526   2.813   0.935  13.998 -0.8467 -0.5301 -0.1751
  849MPD2     H12527   2.805   0.577  13.896 -2.1318 -0.4216  2.4622
  849MPD2    H112528   2.711   0.875  14.174  2.0987 -0.8126  0.9297
  849MPD2    H212529   2.926   0.978  13.824 -0.3424 -0.3750  0.6044
  849MPD2    H312530   2.814   1.038  14.031 -0.9145 -0.3044 -0.8882
  849MPD2     N12531   2.674   0.608  14.113 -0.2774 -0.1246 -0.2222
  849MPD2    H512532   2.678   0.516  14.069 -0.0895 -1.4502  2.5745
  849MPD2    N112533   2.930   0.715  13.727  0.2284  0.2873 -0.0649
  849MPD2    H712534   2.911   0.618  13.707  2.4681 -0.1950  0.2632
  850MPD2     C12535   1.133   3.682  14.497  0.4591 -0.3051  0.6293
  850MPD2    C112536   1.150   3.652  14.632  0.4298 -0.3917 -0.0180
  850MPD2    C212537   1.273   3.654  14.693 -0.6867  0.1200  0.1786
  850MPD2    C312538   1.381   3.685  14.619  0.0790 -0.5874 -0.0311
  850MPD2    C412539   1.368   3.725  14.489 -0.6671 -0.6952  0.2618
  850MPD2    C512540   1.243   3.722  14.426  0.8433  0.8887 -0.2093
  850MPD2     H12541   1.285   3.619  14.795  0.9723 -0.1679 -0.1212
  850MPD2    H112542   1.456   3.764  14.440 -0.1704 -1.6083  0.4319
  850MPD2    H212543   1.037   3.680  14.447  0.5204 -1.0896  0.5393
  850MPD2    H312544   1.233   3.765  14.327  1.2934  0.3808 -0.4705
  850MPD2     N12545   1.515   3.690  14.665  0.8759  0.1070  0.8565
  850MPD2    H512546   1.587   3.735  14.609 -0.8335 -0.2094 -1.5823
  850MPD2    N112547   1.031   3.619  14.699  0.2803  0.0418 -0.3415
  850MPD2    H712548   0.953   3.590  14.641  1.5090 -2.7582 -0.5808
  851MPD2     C12549   1.145   2.930  15.081 -0.6907 -0.8402  0.2919
  851MPD2    C112550   1.059   2.974  14.984 -0.1410  0.2155  0.1733
  851MPD2    C212551   1.035   2.886  14.881  0.5050  0.4953  0.0885
  851MPD2    C312552   1.080   2.760  14.883 -0.3176  0.2090  0.4059
  851MPD2    C412553   1.176   2.721  14.972 -0.0550  0.2497 -0.1086
  851MPD2    C512554   1.199   2.802  15.076 -0.5855  0.1064 -0.8326
  851MPD2     H12555   0.963   2.913  14.804  0.0760 -1.6999 -0.2791
  851MPD2    H112556   1.208   2.617  14.966  0.0870  0.3609 -1.2249
  851MPD2    H212557   1.170   2.990  15.167  1.6353 -1.1464 -0.1559
  851MPD2    H312558   1.265   2.758  15.150  0.7688  0.9975 -1.5158
  851MPD2     N12559   1.041   2.684  14.773  0.3574  0.5984 -0.5006
  851MPD2    H512560   0.983   2.740  14.711  1.7193 -0.6937 -2.9493
  851MPD2    N112561   1.008   3.102  14.996 -0.0189  0.2536  0.0388
  851MPD2    H712562   1.041   3.161  15.072 -1.5540  0.5653  0.4556
  852MPD2     C12563   0.855   1.604  10.447  0.1636 -0.0100  0.5850
  852MPD2    C112564   0.830   1.651  10.579 -0.1953 -0.1926  0.6099
  852MPD2    C212565   0.880   1.772  10.629 -0.3496 -0.4184  0.3343
  852MPD2    C312566   0.953   1.849  10.542  0.8970 -0.5809 -0.4604
  852MPD2    C412567   0.973   1.809  10.417  0.4237  0.1705  0.4956
  852MPD2    C512568   0.940   1.683  10.370  0.6522 -0.4022  0.1090
  852MPD2     H12569   0.869   1.798  10.734  2.8907 -1.2412  0.8698
  852MPD2    H112570   1.028   1.867  10.343  1.0888  1.6744  2.1517
  852MPD2    H212571   0.821   1.507  10.414  0.4819  0.8396 -2.2914
  852MPD2    H312572   0.962   1.656  10.267  0.6086 -1.0220  0.2634
  852MPD2     N12573   0.995   1.970  10.600 -0.1700  0.4374  0.2744
  852MPD2    H512574   0.965   1.989  10.695  2.8063 -1.4480  1.5968
  852MPD2    N112575   0.775   1.570  10.680  0.4027 -0.1524 -0.1245
  852MPD2    H712576   0.766   1.609  10.773 -0.6658  1.8026 -1.0386
  853MPD2     C12577   2.526   1.536  12.404  0.0815  0.3852 -0.2563
  853MPD2    C112578   2.395   1.509  12.392 -0.1639 -0.0932 -0.3898
  853MPD2    C212579   2.352   1.404  12.304 -0.2176 -0.1345  0.1063
  853MPD2    C312580   2.443   1.338  12.226  0.2482 -0.0335  0.1330
  853MPD2    C412581   2.579   1.376  12.232 -0.4891 -0.2762 -0.6306
  853MPD2    C512582   2.614   1.470  12.322 -0.0349  0.9413  0.1816
  853MPD2     H12583   2.247   1.376  12.299  0.3216 -1.9780 -0.7204
  853MPD2    H112584   2.659   1.328  12.176  1.2571  1.0110  0.7876
  853MPD2    H212585   2.568   1.613  12.468 -2.0087  3.2123 -2.2207
  853MPD2    H312586   2.710   1.517  12.306 -0.0000  0.8417  0.0944
  853MPD2     N12587   2.402   1.249  12.128  0.1628  0.6585 -0.7989
  853MPD2    H512588   2.468   1.219  12.057 -2.4801 -2.4078 -1.9902
  853MPD2    N112589   2.304   1.579  12.468  0.3555  0.4409 -0.8072
  853MPD2    H712590   2.341   1.639  12.542 -0.6465 -1.4675  1.2388
  854MPD2     C12591   4.465   2.477  12.714 -0.3989  0.2102  0.8439
  854MPD2    C112592   4.363   2.378  12.725 -0.1265  0.1518  0.6637
  854MPD2    C212593   4.378   2.269  12.804  0.2241  0.3665  0.1685
  854MPD2    C312594   4.487   2.258  12.888  0.2956  0.2159  0.2715
  854MPD2    C412595   4.585   2.350  12.881  0.0439  0.2503  0.5913
  854MPD2    C512596   4.582   2.454  12.791 -0.0990 -0.0038 -0.3512
  854MPD2     H12597   4.300   2.195  12.815 -0.1953  0.6478 -0.8918
  854MPD2    H112598   4.668   2.340  12.950 -1.6471  1.1749  2.7909
  854MPD2    H212599   4.461   2.555  12.639 -0.2417 -1.4891 -0.9473
  854MPD2    H312600   4.670   2.518  12.791  2.2229 -3.1819  4.2433
  854MPD2     N12601   4.498   2.167  12.992  0.6857 -0.0993 -0.0995
  854MPD2    H512602   4.566   2.190  13.063  0.1761  0.0744  0.3325
  854MPD2    N112603   4.246   2.400  12.648  0.1325 -0.0538  0.4982
  854MPD2    H712604   4.244   2.485  12.593 -0.0075 -0.5539 -0.2701
  855MPD2     C12605   4.057   1.799  13.760 -0.0792 -0.5451  0.6008
  855MPD2    C112606   4.160   1.716  13.706 -0.0686  0.4044  0.7032
  855MPD2    C212607   4.248   1.763  13.617 -0.6584 -0.1890  0.1413
  855MPD2    C312608   4.249   1.897  13.564 -0.1080  0.9078  0.1726
  855MPD2    C412609   4.141   1.975  13.607  0.2545  1.3962 -0.2207
  855MPD2    C512610   4.048   1.925  13.702  0.2382 -0.6760  0.1345
  855MPD2     H12611   4.330   1.704  13.578  0.5012  0.0181  2.2740
  855MPD2    H112612   4.144   2.081  13.584  0.3302  2.0748  2.9277
  855MPD2    H212613   3.982   1.763  13.830 -0.0124 -0.2562  0.8244
  855MPD2    H312614   3.962   1.985  13.731  1.3993  1.0856 -0.0747
  855MPD2     N12615   4.349   1.955  13.475 -0.0066  0.3260  0.0591
  855MPD2    H512616   4.317   2.028  13.413  1.3008  0.0597 -0.9205
  855MPD2    N112617   4.198   1.591  13.766 -0.3150  0.2359 -0.1367
  855MPD2    H712618   4.290   1.558  13.739  0.2297  3.0804 -1.8184
  856MPD2     C12619   1.464   2.150  13.826  0.5154  0.1045 -0.7427
  856MPD2    C112620   1.536   2.266  13.832  1.0129 -0.7815 -0.0372
  856MPD2    C212621   1.477   2.387  13.801 -0.5831 -0.0039  0.1553
  856MPD2    C312622   1.350   2.385  13.746 -0.9988  0.4134 -1.4412
  856MPD2    C412623   1.278   2.267  13.744 -0.0661  0.1668  0.3267
  856MPD2    C512624   1.333   2.153  13.792  0.2041 -0.2991 -0.1090
  856MPD2     H12625   1.533   2.480  13.812  0.4463 -0.3314 -2.4192
  856MPD2    H112626   1.177   2.261  13.708 -0.8765  0.0704  2.5779
  856MPD2    H212627   1.505   2.054  13.856  2.8799  1.4180  0.2877
  856MPD2    H312628   1.269   2.068  13.772 -4.1543  2.0306  3.8360
  856MPD2     N12629   1.281   2.505  13.719  0.2888  0.0113 -0.0354
  856MPD2    H512630   1.198   2.500  13.661 -0.1162 -1.5662  0.6934
  856MPD2    N112631   1.668   2.290  13.883 -0.3789  0.2540  0.3150
  856MPD2    H712632   1.687   2.390  13.886  0.2848  0.1718 -0.9929
  857MPD2     C12633   3.012   4.556  12.301 -0.2919 -0.1064 -0.1139
  857MPD2    C112634   3.140   4.534  12.336  0.9985 -1.4081 -0.1260
  857MPD2    C212635   3.237   4.635  12.328  0.0246 -0.3020 -0.0832
  857MPD2    C312636   3.201   0.019  12.285  1.0270 -0.0131  0.0053
  857MPD2    C412637   3.070   0.044  12.249  0.2112  0.8224  0.6512
  857MPD2    C512638   2.976   4.680  12.263 -0.4876 -0.1590  0.0371
  857MPD2     H12639   3.340   4.617  12.359 -1.4409 -1.8465  3.8706
  857MPD2    H112640   3.035   0.144  12.225  1.2261  0.6087 -1.7795
  857MPD2    H212641   2.930   4.485  12.297 -0.6575  0.4019 -1.4938
  857MPD2    H312642   2.871   4.703  12.251 -0.5020 -2.2970 -4.0767
  857MPD2     N12643   3.313   0.115  12.298 -0.0682 -0.5027 -0.4860
  857MPD2    H512644   3.400   0.074  12.330 -0.1852 -1.9889 -2.0579
  857MPD2    N112645   3.181   4.399  12.369 -1.0241  0.0741 -0.5020
  857MPD2    H712646   3.101   4.337  12.379 -0.9754 -0.3822 -2.9427
  858MPD2     C12647   3.498   3.302  16.551  0.1517 -1.0280 -0.0647
  858MPD2    C112648   3.617   3.257  16.497 -0.2806 -0.2905  0.6022
  858MPD2    C212649   3.736   3.314  16.540 -0.3254 -0.1738 -0.9338
  858MPD2    C312650   3.740   3.414  16.633  0.5614  0.3228  0.3148
  858MPD2    C412651   3.621   3.460  16.686 -0.6456  0.2455 -0.7669
  858MPD2    C512652   3.500   3.397  16.644  0.1879 -0.0075  0.0335
  858MPD2     H12653   3.828   3.288  16.488 -0.5572 -3.0700  0.1726
  858MPD2    H112654   3.627   3.547  16.751  1.3157  0.9586 -1.9248
  858MPD2    H212655   3.397   3.273  16.527 -1.3623  3.9680  0.3566
  858MPD2    H312656   3.407   3.442  16.678  0.4109  0.2837  0.2594
  858MPD2     N12657   3.863   3.481  16.674  0.4387 -0.3147 -0.5621
  858MPD2    H512658   3.852   3.558  16.739 -0.8809 -0.2158 -0.8986
  858MPD2    N112659   3.622   3.142  16.413  0.3232  0.0648 -0.3912
  858MPD2    H712660   3.713   3.106  16.388 -0.2348  0.3349 -2.7743
  859MPD2     C12661   2.288   0.619  15.107 -0.4059  0.3125  0.0420
  859MPD2    C112662   2.417   0.580  15.099  0.0821  0.2551 -0.6090
  859MPD2    C212663   2.443   0.449  15.143  0.5110  0.8515 -0.6262
  859MPD2    C312664   2.345   0.370  15.206  0.3061  0.5772  0.0569
  859MPD2    C412665   2.218   0.423  15.211  0.4028  0.7675  0.5444
  859MPD2    C512666   2.195   0.548  15.173 -0.5733 -0.0810 -0.3056
  859MPD2     H12667   2.539   0.401  15.125 -1.3873 -2.8919 -0.7288
  859MPD2    H112668   2.141   0.358  15.251  0.9771 -0.7079 -0.7583
  859MPD2    H212669   2.260   0.716  15.069 -0.3411  0.5153  0.5145
  859MPD2    H312670   2.099   0.596  15.192 -1.0622 -1.1770  0.0279
  859MPD2     N12671   2.359   0.236  15.248  0.0775  0.0289 -0.5156
  859MPD2    H512672   2.277   0.188  15.283  0.5802 -1.8957 -2.0191
  859MPD2    N112673   2.513   0.663  15.049 -0.6209  0.3102  0.0721
  859MPD2    H712674   2.482   0.753  15.015  2.3598  0.6276 -1.7721
  860MPD2     C12675   4.396   1.043  11.821  0.7702 -0.2548  0.1464
  860MPD2    C112676   4.415   1.169  11.872  0.3604 -0.6900 -0.4269
  860MPD2    C212677   4.321   1.206  11.969 -0.2041 -0.7638 -0.3118
  860MPD2    C312678   4.233   1.120  12.030  0.1310 -0.3752  0.3000
  860MPD2    C412679   4.222   0.994  11.980 -0.6352 -0.7775 -0.0154
  860MPD2    C512680   4.306   0.959  11.877  0.0183 -0.6094  0.3589
  860MPD2     H12681   4.324   1.310  12.000  0.1636 -0.7286 -0.4694
  860MPD2    H112682   4.154   0.915  12.010 -2.3743  0.7170 -0.0980
  860MPD2    H212683   4.453   1.011  11.735  0.3798  1.8818 -0.8984
  860MPD2    H312684   4.300   0.858  11.838 -3.3986  0.1911 -1.1501
  860MPD2     N12685   4.155   1.182  12.128  0.5977  0.1366 -0.7704
  860MPD2    H512686   4.183   1.277  12.151 -0.6243 -0.2251  2.2167
  860MPD2    N112687   4.510   1.265  11.833  0.2412  0.6560 -0.0477
  860MPD2    H712688   4.499   1.351  11.886 -0.0138 -0.4770  1.7180
  861MPD2     C12689   4.179   3.731  10.845 -0.1180  0.4538 -0.5791
  861MPD2    C112690   4.109   3.837  10.887  0.7015 -0.3874  0.0940
  861MPD2    C212691   4.039   3.915  10.793  0.4757 -0.0744 -0.1909
  861MPD2    C312692   4.052   3.885  10.660 -0.0006  1.1562  0.0433
  861MPD2    C412693   4.126   3.779  10.612  0.0619  0.2356  0.1223
  861MPD2    C512694   4.183   3.698  10.715 -0.0560  0.2936  0.0650
  861MPD2     H12695   3.983   3.998  10.835 -0.2176 -0.3940 -0.4850
  861MPD2    H112696   4.135   3.744  10.510  0.8551 -2.5305  1.1253
  861MPD2    H212697   4.237   3.661  10.905 -1.0521 -0.8154 -1.1517
  861MPD2    H312698   4.245   3.611  10.691 -0.6667 -0.0158 -0.3814
  861MPD2     N12699   3.980   3.959  10.558  0.0535  0.5336  0.0910
  861MPD2    H512700   3.998   3.916  10.468  1.0804  2.6927 -0.7352
  861MPD2    N112701   4.094   3.862  11.026 -0.4053  0.3604 -0.3995
  861MPD2    H712702   4.020   3.927  11.051  1.7656  2.8863 -0.5302
  862MPD2     C12703   3.284   4.115  10.052 -0.6972 -0.0543 -0.0363
  862MPD2    C112704   3.371   4.051  10.137  0.2230 -0.3398 -0.1868
  862MPD2    C212705   3.338   3.919  10.173 -0.0697  1.3316 -0.1906
  862MPD2    C312706   3.221   3.863  10.129 -0.5232  0.2049  0.2936
  862MPD2    C412707   3.128   3.940  10.062  0.0717 -0.1045 -0.4960
  862MPD2    C512708   3.166   4.062  10.013 -0.0169 -0.0813 -0.3869
  862MPD2     H12709   3.403   3.863  10.240  0.7289  0.1544 -1.9581
  862MPD2    H112710   3.027   3.908  10.037 -0.1837  1.5659 -1.6184
  862MPD2    H212711   3.307   4.217  10.024  0.3403 -0.7975 -1.8940
  862MPD2    H312712   3.101   4.112   9.944  0.2035  2.2393  1.0718
  862MPD2     N12713   3.185   3.730  10.171 -0.2597  0.3557 -0.5168
  862MPD2    H512714   3.090   3.694  10.174  0.0423 -0.3231  0.9348
  862MPD2    N112715   3.492   4.109  10.175  0.8173  0.5756  0.0946
  862MPD2    H712716   3.504   4.208  10.160 -0.6783  0.7517 -0.0115
  863MPD2     C12717   2.215   2.089  16.493 -1.0130 -0.8855  0.6145
  863MPD2    C112718   2.283   2.178  16.410 -0.2305 -0.1653  0.5667
  863MPD2    C212719   2.421   2.184  16.421  0.2739  0.2976  0.3935
  863MPD2    C312720   2.491   2.103  16.513 -0.4807 -0.4167 -0.6751
  863MPD2    C412721   2.419   2.010  16.588  0.0024 -0.1998  0.5139
  863MPD2    C512722   2.282   2.005  16.572 -0.5481  0.5025 -0.6689
  863MPD2     H12723   2.472   2.268  16.374  0.7236 -1.7705 -2.8079
  863MPD2    H112724   2.464   1.944  16.661  0.7933 -0.3873 -0.1414
  863MPD2    H212725   2.107   2.079  16.494 -0.8674 -2.5928  0.3806
  863MPD2    H312726   2.221   1.937  16.631 -0.4691 -0.3194 -1.5368
  863MPD2     N12727   2.627   2.121  16.538  0.4826 -0.6466 -0.2317
  863MPD2    H512728   2.663   2.070  16.618  0.9024 -0.9374 -0.6098
  863MPD2    N112729   2.198   2.264  16.331 -0.3000  0.6911 -0.0276
  863MPD2    H712730   2.106   2.225  16.308  0.7915 -1.2367 -1.1368
  864MPD2     C12731   2.832   3.773  17.142  0.0384  0.6081 -0.1278
  864MPD2    C112732   2.840   3.671  17.052 -0.0422  0.0239 -0.7157
  864MPD2    C212733   2.921   3.688  16.941 -0.1130  1.0417  0.5920
  864MPD2    C312734   2.997   3.802  16.914  0.3435 -0.5627 -0.4039
  864MPD2    C412735   2.980   3.912  17.003 -0.2957 -0.1423 -0.1599
  864MPD2    C512736   2.905   3.888  17.118 -0.4889  0.3328 -0.3264
  864MPD2     H12737   2.927   3.606  16.870  0.9358  1.1698  0.5274
  864MPD2    H112738   3.019   4.012  16.991  2.0470 -1.1249 -0.8368
  864MPD2    H212739   2.755   3.771  17.219 -0.1247 -2.4186 -0.3539
  864MPD2    H312740   2.892   3.972  17.185 -1.3580  0.0963 -0.1904
  864MPD2     N12741   3.061   3.828  16.797  0.1805 -0.1997  0.1368
  864MPD2    H512742   3.080   3.923  16.770  0.6788 -0.0094  1.1582
  864MPD2    N112743   2.777   3.544  17.084 -0.5463 -0.0902 -0.2410
  864MPD2    H712744   2.733   3.534  17.175  1.0890 -2.8660  0.2321
  865MPD2     C12745   2.923   4.028  15.971  0.2091  0.2864  0.1234
  865MPD2    C112746   2.941   3.936  16.072  0.2417 -0.5843  0.3704
  865MPD2    C212747   2.987   3.997  16.189 -0.6694 -0.4135 -0.5695
  865MPD2    C312748   3.039   4.119  16.193 -0.1247 -0.5281  0.1054
  865MPD2    C412749   3.029   4.203  16.080  0.0176 -0.6695  0.7077
  865MPD2    C512750   2.963   4.154  15.975 -0.1637 -0.2443  0.0354
  865MPD2     H12751   2.966   3.945  16.282 -0.0020  0.6866  0.1964
  865MPD2    H112752   3.079   4.299  16.078  0.4734 -0.9144  0.2432
  865MPD2    H212753   2.868   3.994  15.885  0.0091  0.9525 -0.0130
  865MPD2    H312754   2.948   4.218  15.888 -4.2456 -1.3946 -0.0939
  865MPD2     N12755   3.100   4.182  16.305 -0.1091 -0.3340 -0.3034
  865MPD2    H512756   3.104   4.281  16.286 -2.6527 -0.4922 -1.7035
  865MPD2    N112757   2.899   3.805  16.058  0.1635 -0.6400  0.0504
  865MPD2    H712758   2.864   3.778  15.966  0.7660  1.6560 -0.8466
  866MPD2     C12759   4.671   4.374  11.258  0.3756 -0.6392 -0.4169
  866MPD2    C112760   4.605   4.251  11.266 -0.2640  0.2246  0.1806
  866MPD2    C212761   4.479   4.245  11.213 -0.4880  0.3359 -0.3473
  866MPD2    C312762   4.408   4.356  11.170 -0.3267  0.7433 -0.6292
  866MPD2    C412763   4.476   4.472  11.165  0.6176 -0.5375  0.3057
  866MPD2    C512764   4.599   4.481  11.221 -0.4961  0.1626  0.7694
  866MPD2     H12765   4.430   4.150  11.200  0.3061 -0.1352  0.0953
  866MPD2    H112766   4.432   4.567  11.138 -0.2927 -1.1621 -0.4061
  866MPD2    H212767   0.022   4.393  11.313  0.2568 -1.3733  0.0323
  866MPD2    H312768   4.641   4.581  11.219 -0.1582 -0.0423 -2.4230
  866MPD2     N12769   4.285   4.337  11.120 -0.3983 -0.3134 -0.1086
  866MPD2    H512770   4.244   4.250  11.151 -0.8152  0.1805  0.7284
  866MPD2    N112771   4.682   4.132  11.301 -0.1951 -0.2926 -0.4801
  866MPD2    H712772   0.035   4.157  11.333 -0.4301 -0.5790  0.4352
  867MPD2     C12773   1.282   3.520  15.918  0.1387  0.7844 -0.3742
  867MPD2    C112774   1.336   3.414  15.993  0.1628 -0.1842  0.9947
  867MPD2    C212775   1.339   3.425  16.131  0.7035  0.6611 -0.5393
  867MPD2    C312776   1.296   3.548  16.190 -0.2706  0.5527  0.3314
  867MPD2    C412777   1.239   3.647  16.112 -0.3452 -0.6738  0.5536
  867MPD2    C512778   1.246   3.632  15.977 -0.8983 -0.0960  0.4478
  867MPD2     H12779   1.387   3.344  16.184 -0.5306 -1.3831 -2.5281
  867MPD2    H112780   1.189   3.733  16.155 -2.4533 -1.4458 -0.3152
  867MPD2    H212781   1.280   3.522  15.810 -2.3977 -1.4851 -0.3498
  867MPD2    H312782   1.209   3.714  15.916  2.9604  0.5652 -1.0163
  867MPD2     N12783   1.317   3.571  16.330 -0.2814 -0.1350  0.1567
  867MPD2    H512784   1.299   3.663  16.369  1.0314  0.4039 -0.4993
  867MPD2    N112785   1.394   3.305  15.924  0.1841  0.3492 -0.1157
  867MPD2    H712786   1.408   3.316  15.824 -0.9273 -0.1218 -0.3173
  868MPD2     C12787   3.161   3.099  12.877  0.0960 -0.1073 -0.0974
  868MPD2    C112788   3.230   3.017  12.959 -0.0465  0.1173  0.3638
  868MPD2    C212789   3.155   2.936  13.053  0.3130 -0.0616 -0.8979
  868MPD2    C312790   3.018   2.940  13.061  0.0299  0.6515 -0.1013
  868MPD2    C412791   2.950   3.024  12.974 -0.0241  0.1235  0.1468
  868MPD2    C512792   3.025   3.093  12.884 -0.7339  0.8443 -0.6520
  868MPD2     H12793   3.197   2.858  13.116 -0.6698 -0.3149 -0.5627
  868MPD2    H112794   2.843   3.038  12.980  0.1568  1.1754  0.7876
  868MPD2    H212795   3.215   3.175  12.822 -0.4624  0.9606  0.8346
  868MPD2    H312796   2.977   3.165  12.819 -1.3687  0.3483 -0.7314
  868MPD2     N12797   2.950   2.863  13.157  0.3552 -0.0395  0.5344
  868MPD2    H512798   3.003   2.825  13.235 -0.0055 -1.7318 -0.0409
  868MPD2    N112799   3.370   3.008  12.931  0.2636  0.1434 -0.5896
  868MPD2    H712800   3.405   3.074  12.863  2.2615 -0.5579 -0.2345
  869MPD2     C12801   4.694   0.142   0.067  0.6725  0.0159 -0.1287
  869MPD2    C112802   4.628   0.193   0.175  0.1746  0.2624 -0.1034
  869MPD2    C212803   4.691   0.288   0.256  0.5353  0.7760  0.0753
  869MPD2    C312804   0.076   0.334   0.229 -0.9972  0.1971 -0.1254
  869MPD2    C412805   0.142   0.276   0.120 -0.8488  0.0029  0.2734
  869MPD2    C512806   0.078   0.191   0.042  1.0140 -0.2282  0.8659
  869MPD2     H12807   4.644   0.316   0.349 -2.5233  1.8637 -1.7712
  869MPD2    H112808   0.241   0.304   0.084  0.7306 -1.6663  3.2578
  869MPD2    H212809   4.657   0.059   0.008 -0.1920  0.6646 -0.4974
  869MPD2    H312810   0.130   0.156  17.714  1.4541  0.1770  0.9643
  869MPD2     N12811   0.161   0.414   0.316  0.2730 -0.2358 -0.7014
  869MPD2    H512812   0.260   0.402   0.302  0.5871  1.4963  0.0102
  869MPD2    N112813   4.499   0.135   0.207  0.2984  0.0165  0.1631
  869MPD2    H712814   4.469   0.068   0.136  1.9178 -0.4267 -0.1151
  870MPD2     C12815   4.431   4.090   1.255  0.4096  0.3991  0.0461
  870MPD2    C112816   4.376   4.042   1.139 -0.6134  0.2069  0.3160
  870MPD2    C212817   4.269   4.109   1.066  0.1058 -0.1659  0.0579
  870MPD2    C312818   4.222   4.228   1.118 -0.9664  0.5332  0.1344
  870MPD2    C412819   4.283   4.275   1.240 -0.1812 -0.2299  0.0193
  870MPD2    C512820   4.388   4.207   1.303 -0.2185 -0.6793  0.0250
  870MPD2     H12821   4.214   4.066   0.984 -2.0817 -1.9735  2.4839
  870MPD2    H112822   4.250   4.368   1.284  1.6393 -0.1099  1.1562
  870MPD2    H212823   4.505   4.025   1.300  0.1002  0.9555  1.3617
  870MPD2    H312824   4.439   4.228   1.396 -0.7994 -0.8112  0.3734
  870MPD2     N12825   4.120   4.294   1.050  0.1094  0.3749  0.5630
  870MPD2    H512826   4.086   4.250   0.965 -0.1668  0.5496  0.5803
  870MPD2    N112827   4.441   3.926   1.092  0.0555  0.2461  0.4462
  870MPD2    H712828   4.519   3.885   1.141  0.0299 -0.9327 -0.4898
  871MPD2     C12829   0.616   4.020  16.080 -0.8363  0.4632  0.0273
  871MPD2    C112830   0.567   3.949  16.186 -0.3938  1.0214 -0.5819
  871MPD2    C212831   0.513   3.824  16.159 -0.4728  1.3328 -0.1321
  871MPD2    C312832   0.506   3.777  16.032  0.3262 -0.7499  0.3083
  871MPD2    C412833   0.563   3.851  15.929 -0.0022 -0.1498 -0.2198
  871MPD2    C512834   0.616   3.970  15.955  0.1840 -0.2327  0.0055
  871MPD2     H12835   0.461   3.771  16.238 -0.5140  0.6365 -0.6350
  871MPD2    H112836   0.573   3.814  15.827  0.7051 -3.0137  0.8938
  871MPD2    H212837   0.662   4.118  16.087  0.8029 -0.4654  2.4265
  871MPD2    H312838   0.652   4.026  15.870 -2.8910 -1.1501 -1.9137
  871MPD2     N12839   0.457   3.647  16.009  0.0881  0.4457  0.7249
  871MPD2    H512840   0.417   3.601  16.091  2.5643 -0.9860  1.1253
  871MPD2    N112841   0.555   4.013  16.310 -0.6899  0.5851 -1.1144
  871MPD2    H712842   0.606   4.100  16.315 -1.3240  0.9129 -0.4026
  872MPD2     C12843   1.511   1.329  14.106 -0.0262 -0.6748 -0.2804
  872MPD2    C112844   1.459   1.431  14.027 -0.0472  0.4991 -0.4290
  872MPD2    C212845   1.330   1.478  14.058 -0.5798  0.2447  0.5004
  872MPD2    C312846   1.263   1.413  14.166 -0.8363 -0.0807  0.9147
  872MPD2    C412847   1.310   1.304  14.237 -0.2604  1.0077 -0.3680
  872MPD2    C512848   1.438   1.267  14.202  0.3007 -0.2992 -0.3533
  872MPD2     H12849   1.281   1.560  14.007 -0.2284  0.5525  0.6558
  872MPD2    H112850   1.262   1.249  14.318  2.2607  0.0895  0.5181
  872MPD2    H212851   1.605   1.280  14.085 -0.3258 -1.8049  1.0312
  872MPD2    H312852   1.479   1.183  14.257  1.1713  0.0946 -0.4042
  872MPD2     N12853   1.135   1.442  14.209  0.3561 -0.8318 -0.1788
  872MPD2    H512854   1.107   1.396  14.294 -0.9022  0.1990 -0.0354
  872MPD2    N112855   1.542   1.503  13.930  0.3994 -0.4868 -0.2875
  872MPD2    H712856   1.494   1.580  13.883  1.0097  0.2710  0.3344
  873MPD2     C12857   3.229   1.497   0.200 -0.7551  0.1555  0.0283
  873MPD2    C112858   3.250   1.448   0.325  0.4142  0.3836 -0.1053
  873MPD2    C212859   3.265   1.310   0.348  0.2150 -0.3846  0.5774
  873MPD2    C312860   3.268   1.223   0.241  0.2530 -0.9112 -0.6114
  873MPD2    C412861   3.241   1.277   0.114  0.2142  0.1563  0.3475
  873MPD2    C512862   3.205   1.404   0.096 -0.3726  0.4021  0.0730
  873MPD2     H12863   3.293   1.275   0.447 -1.0727 -1.5668  0.5290
  873MPD2    H112864   3.247   1.221   0.021  1.1074 -0.4573  0.7737
  873MPD2    H212865   3.225   1.603   0.180  0.7239 -0.2703 -2.6032
  873MPD2    H312866   3.181   1.442  17.758 -1.6723  0.8587  0.5674
  873MPD2     N12867   3.292   1.084   0.252 -0.5073 -0.2053 -0.1228
  873MPD2    H512868   3.293   1.052   0.156  0.1927 -0.2945 -0.0882
  873MPD2    N112869   3.269   1.546   0.430  0.0542 -0.8469  0.1198
  873MPD2    H712870   3.261   1.639   0.391  0.0135 -2.0791 -2.8172
  874MPD2     C12871   3.280   1.351  15.612  0.9283 -0.5085 -0.0787
  874MPD2    C112872   3.276   1.377  15.746 -0.3123  0.3366 -0.6436
  874MPD2    C212873   3.353   1.486  15.792  0.2477  0.1715  0.4074
  874MPD2    C312874   3.450   1.543  15.705 -0.2355 -0.2007  0.1120
  874MPD2    C412875   3.449   1.514  15.571  0.6256  0.2510  0.3729
  874MPD2    C512876   3.361   1.420  15.529 -0.0013 -0.6705 -0.8117
  874MPD2     H12877   3.337   1.516  15.895 -0.0383 -0.0936  0.4388
  874MPD2    H112878   3.522   1.561  15.505 -1.5255  2.4294 -0.4635
  874MPD2    H212879   3.243   1.260  15.567  1.8002 -1.5531  1.3191
  874MPD2    H312880   3.367   1.384  15.427  1.3565  0.1934 -1.0331
  874MPD2     N12881   3.551   1.628  15.747 -0.5722  0.7876  0.1689
  874MPD2    H512882   3.632   1.634  15.687 -0.7995 -2.4337 -0.4723
  874MPD2    N112883   3.198   1.292  15.828 -0.1510 -0.0927 -0.3453
  874MPD2    H712884   3.134   1.228  15.782 -1.1810 -0.1994  1.2532
  875MPD2     C12885   4.133   4.535  14.574  0.0769 -0.3155 -0.0453
  875MPD2    C112886   4.014   4.548  14.640  0.2992 -0.4772 -0.0094
  875MPD2    C212887   4.005   4.593  14.767 -0.2592  0.0308 -0.0483
  875MPD2    C312888   4.110   4.638  14.837  0.4773 -0.4940 -0.0014
  875MPD2    C412889   4.226   4.643  14.767 -0.4259 -0.0056 -0.3538
  875MPD2    C512890   4.243   4.582  14.645  0.0161  0.4601  0.7603
  875MPD2     H12891   3.910   4.602  14.819  0.5920  1.1364  1.3358
  875MPD2    H112892   4.312   4.694  14.810  1.6522 -1.5490 -2.7343
  875MPD2    H212893   4.147   4.499  14.473 -2.8109  0.4698 -0.7166
  875MPD2    H312894   4.338   4.587  14.594 -0.4403  1.1987 -0.0038
  875MPD2     N12895   4.109   4.698  14.969  0.4060  0.3314  0.5197
  875MPD2    H512896   4.190   0.012  14.996  1.3627  0.2538 -2.1213
  875MPD2    N112897   3.895   4.520  14.568 -0.1418  0.3351 -0.3919
  875MPD2    H712898   3.810   4.532  14.622  0.2104  1.2680 -0.0497
  876MPD2     C12899   2.792   0.978  15.725  0.5716  0.5497 -0.3426
  876MPD2    C112900   2.900   0.920  15.661 -0.2558 -0.1372 -0.3599
  876MPD2    C212901   2.937   0.795  15.688 -0.5499 -0.1806  0.6429
  876MPD2    C312902   2.877   0.728  15.791  0.2446 -0.5676  0.3430
  876MPD2    C412903   2.765   0.777  15.857 -0.6567  0.6140  0.4322
  876MPD2    C512904   2.720   0.908  15.821 -0.4283 -0.5612  0.0368
  876MPD2     H12905   3.020   0.747  15.638 -0.8732 -0.3464  0.2607
  876MPD2    H112906   2.698   0.725  15.925 -0.9144  0.6996  0.2459
  876MPD2    H212907   2.765   1.081  15.702  1.8701  0.1214 -3.7608
  876MPD2    H312908   2.624   0.938  15.860 -0.1042 -0.3860  0.7016
  876MPD2     N12909   2.931   0.600  15.814 -0.1699 -0.4962 -0.2367
  876MPD2    H512910   3.015   0.582  15.760  0.1120  0.5478 -0.1427
  876MPD2    N112911   2.950   0.997  15.556 -0.4686  0.1604  0.2075
  876MPD2    H712912   2.894   1.073  15.520  0.3476  1.5603  1.9303
  877MPD2     C12913   2.805   1.268  14.834 -0.0961 -0.1806 -0.0493
  877MPD2    C112914   2.947   1.247  14.847  0.3731 -0.0259 -1.0545
  877MPD2    C212915   3.027   1.263  14.732 -0.4605  0.4285  0.0230
  877MPD2    C312916   2.964   1.300  14.614 -0.0623 -0.5088 -0.1873
  877MPD2    C412917   2.826   1.316  14.596 -0.1363  0.2738 -0.0552
  877MPD2    C512918   2.749   1.308  14.710 -0.0030 -0.2738  0.2001
  877MPD2     H12919   3.135   1.262  14.742 -0.5490 -2.6651  0.7664
  877MPD2    H112920   2.782   1.362  14.509 -0.0081 -0.7117 -0.6346
  877MPD2    H212921   2.734   1.248  14.913 -0.4317 -1.4409 -0.6763
  877MPD2    H312922   2.643   1.328  14.700 -0.4881 -2.3157  1.2834
  877MPD2     N12923   3.035   1.311  14.495 -0.1649 -0.3285  0.0489
  877MPD2    H512924   2.972   1.318  14.416 -0.9600 -1.8469  0.5386
  877MPD2    N112925   3.015   1.213  14.964 -0.5684  0.1827 -0.0507
  877MPD2    H712926   3.114   1.213  14.945 -0.8213 -1.0823 -1.4063
  878MPD2     C12927   2.519   1.270  13.219  0.1245 -0.1195  0.0150
  878MPD2    C112928   2.646   1.258  13.166  0.1957  0.5133 -0.7229
  878MPD2    C212929   2.730   1.154  13.191 -0.1271 -0.3464 -0.2990
  878MPD2    C312930   2.679   1.046  13.263 -0.6251 -0.5743  0.5487
  878MPD2    C412931   2.546   1.059  13.307 -0.1347  1.1217  0.3328
  878MPD2    C512932   2.469   1.172  13.290 -0.2189 -0.5201  0.7808
  878MPD2     H12933   2.834   1.161  13.160 -0.4257 -1.6507 -1.6233
  878MPD2    H112934   2.494   0.990  13.373  2.4105 -0.8930  0.2043
  878MPD2    H212935   2.455   1.355  13.200  0.6668  0.2930  0.0424
  878MPD2    H312936   2.366   1.181  13.321  0.0093  2.7116  0.5554
  878MPD2     N12937   2.759   0.927  13.284  0.1770  0.4565  0.0220
  878MPD2    H512938   2.857   0.939  13.258  0.0674  0.1765 -0.5280
  878MPD2    N112939   2.678   1.362  13.076 -0.5737 -0.2674 -0.2542
  878MPD2    H712940   2.613   1.440  13.064 -0.7439 -0.6455 -1.7634
  879MPD2     C12941   3.281   2.409  16.419 -0.3736  0.0843  0.9362
  879MPD2    C112942   3.291   2.315  16.518  0.4080  0.4184 -0.7801
  879MPD2    C212943   3.238   2.187  16.494  0.6566  0.3035  0.0353
  879MPD2    C312944   3.198   2.151  16.368  0.0131 -0.1327 -0.3939
  879MPD2    C412945   3.204   2.247  16.267 -0.0823  0.8053 -0.9308
  879MPD2    C512946   3.236   2.376  16.293  0.2250 -0.5422 -0.3717
  879MPD2     H12947   3.237   2.116  16.576 -0.4269 -1.1402 -1.2360
  879MPD2    H112948   3.148   2.223  16.177 -0.5611  0.0408 -0.4397
  879MPD2    H212949   3.295   2.513  16.446 -0.1622  0.0118  1.1065
  879MPD2    H312950   3.226   2.451  16.216 -0.1800 -1.1363 -0.9009
  879MPD2     N12951   3.166   2.026  16.317  0.1661 -0.1332  0.3966
  879MPD2    H512952   3.136   2.031  16.220  0.8800 -0.0321  0.1822
  879MPD2    N112953   3.347   2.370  16.637  0.4333 -0.0944 -0.4423
  879MPD2    H712954   3.363   2.470  16.633 -2.8032  0.4261 -0.7772
  880MPD2     C12955   4.138   3.507   0.071  0.0857 -0.0947 -0.8100
  880MPD2    C112956   4.231   3.602   0.103 -0.3045 -0.0225  0.8995
  880MPD2    C212957   4.348   3.570   0.171  0.8272  0.6824  0.1385
  880MPD2    C312958   4.376   3.437   0.203  0.3880  0.9181  0.1505
  880MPD2    C412959   4.286   3.342   0.166 -0.0991  0.0828 -0.6027
  880MPD2    C512960   4.169   3.381   0.100  0.0714 -0.0887  0.3367
  880MPD2     H12961   4.417   3.643   0.214 -0.3949  2.3559 -0.7265
  880MPD2    H112962   4.300   3.238   0.190 -1.8772  0.2466  1.1984
  880MPD2    H212963   4.039   3.529   0.031  0.0326  1.8600  0.3659
  880MPD2    H312964   4.101   3.301   0.074  0.2679 -0.0864 -0.1924
  880MPD2     N12965   4.482   3.407   0.288  0.7745  0.1118 -0.9996
  880MPD2    H512966   4.512   3.494   0.331 -1.4502  1.2609 -1.7926
  880MPD2    N112967   4.196   3.737   0.082  0.0851  0.3911 -0.2474
  880MPD2    H712968   4.098   3.766   0.082  0.4015  1.4376  1.4032
  881MPD2     C12969   4.549   4.724  17.528 -0.6278 -0.1659 -0.6231
  881MPD2    C112970   4.581   4.596  17.476  0.2745  0.0904 -0.0981
  881MPD2    C212971   4.496   4.497  17.523 -0.4931  0.0252  0.3176
  881MPD2    C312972   4.415   4.508  17.633 -0.1563  0.7571 -0.1018
  881MPD2    C412973   4.398   4.634  17.692  0.1262  0.2382  0.6386
  881MPD2    C512974   4.461   4.740  17.635  0.0592 -0.0476  0.0254
  881MPD2     H12975   4.491   4.412  17.456 -0.6054 -0.8232  1.4158
  881MPD2    H112976   4.339   4.658   0.019 -0.5667  0.7013  0.0456
  881MPD2    H212977   4.585   0.073  17.479  1.7695 -0.6147  0.3513
  881MPD2    H312978   4.432   0.095  17.676 -0.3776 -1.8268  3.8842
  881MPD2     N12979   4.328   4.399  17.678  0.1501  0.0769  0.2590
  881MPD2    H512980   4.256   4.412  17.749  0.4427 -1.7049  0.8724
  881MPD2    N112981   4.645   4.587  17.353  0.0136 -0.7842  0.0912
  881MPD2    H712982   4.681   4.669  17.305  1.2249 -0.0158  2.3002
  882MPD2     C12983   2.968   1.224  13.664  0.2010  0.0044 -0.2316
  882MPD2    C112984   2.950   1.271  13.791 -0.0007 -0.0258  0.3668
  882MPD2    C212985   2.825   1.316  13.819  0.2047 -0.4860 -0.2567
  882MPD2    C312986   2.724   1.298  13.724 -0.0728 -0.6890 -0.2158
  882MPD2    C412987   2.738   1.233  13.605 -0.9608 -0.2795  0.0444
  882MPD2    C512988   2.865   1.206  13.572  0.1855  0.2377 -0.3099
  882MPD2     H12989   2.803   1.350  13.920  1.5990 -2.9058  0.8594
  882MPD2    H112990   2.659   1.217  13.533 -1.0167  1.6298 -0.3272
  882MPD2    H212991   3.068   1.197  13.631 -0.6299 -1.6772 -1.4302
  882MPD2    H312992   2.888   1.172  13.472  0.5088  0.0712 -0.1782
  882MPD2     N12993   2.589   1.300  13.769  0.0552  0.3031  0.4891
  882MPD2    H512994   2.519   1.252  13.713  1.4042 -0.3989 -0.5900
  882MPD2    N112995   3.043   1.264  13.898 -0.3930  0.2885  0.2169
  882MPD2    H712996   3.124   1.203  13.888 -0.0105  0.4704  2.1767
  883MPD2     C12997   0.092   1.313  15.997  0.2642 -0.7493 -0.1266
  883MPD2    C112998   0.070   1.435  15.935 -0.5203  1.0310  1.0929
  883MPD2    C212999   0.153   1.537  15.978  0.0039 -0.0438  0.9707
  883MPD2    C313000   0.248   1.517  16.071 -0.5759  0.4442 -0.0339
  883MPD2    C413001   0.265   1.393  16.132 -1.0910  0.2084  1.1238
  883MPD2    C513002   0.180   1.294  16.094  0.2694  0.0800 -0.6632
  883MPD2     H13003   0.141   1.633  15.930 -0.0252 -1.1994 -1.3721
  883MPD2    H113004   0.332   1.377  16.216  0.1729  2.9125  0.6289
  883MPD2    H213005   0.038   1.226  15.964  0.9837 -1.1987 -0.1117
  883MPD2    H313006   0.187   1.196  16.140 -0.6849 -0.6363 -2.0657
  883MPD2     N13007   0.323   1.630  16.100  0.5825 -0.7526 -0.3397
  883MPD2    H513008   0.285   1.719  16.068 -0.2207 -0.6824  0.8092
  883MPD2    N113009   4.698   1.471  15.858  0.2023  0.5710 -0.0625
  883MPD2    H713010   4.689   1.567  15.826 -0.4440  0.5639  0.0893
  884MPD2     C13011   2.058   1.925  14.931 -0.7714  0.4975 -0.8643
  884MPD2    C113012   2.002   2.006  14.832 -0.2239 -0.0800 -0.6828
  884MPD2    C213013   1.907   2.096  14.873 -0.8921 -0.5205  0.5696
  884MPD2    C313014   1.867   2.111  15.006  0.1338  0.0841 -0.2494
  884MPD2    C413015   1.918   2.021  15.095 -0.4376  0.6647  0.1641
  884MPD2    C513016   2.013   1.931  15.056 -0.4005  0.0270  0.5373
  884MPD2     H13017   1.864   2.156  14.795 -1.5065 -1.6681  0.0248
  884MPD2    H113018   1.887   2.023  15.199 -0.0562  0.5021  0.2792
  884MPD2    H213019   2.137   1.853  14.911 -1.6218 -0.4953 -0.6182
  884MPD2    H313020   2.050   1.865  15.134 -0.5826  1.5543  1.9003
  884MPD2     N13021   1.778   2.222  15.043 -0.2649  0.5804  0.2950
  884MPD2    H513022   1.766   2.297  14.975  0.2609 -0.0279 -0.4646
  884MPD2    N113023   2.055   2.018  14.700  0.6218  0.7036  0.1610
  884MPD2    H713024   1.994   2.068  14.636 -0.8329 -0.9235  0.2415
  885MPD2     C13025   0.421   2.237   0.146 -1.0462  0.1576 -0.4974
  885MPD2    C113026   0.512   2.337   0.167 -0.1478 -0.3987  0.3326
  885MPD2    C213027   0.536   2.428   0.064 -0.1402 -0.1073  0.1990
  885MPD2    C313028   0.480   2.418  17.699 -0.0267 -0.1602  0.2982
  885MPD2    C413029   0.378   2.328  17.686  0.0985 -0.4599  0.4965
  885MPD2    C513030   0.354   2.239   0.028 -0.1528  0.0583  0.3214
  885MPD2     H13031   0.605   2.511   0.078 -1.2448  0.9460 -0.5462
  885MPD2    H113032   0.323   2.325  17.593  1.1503 -1.9068 -0.0693
  885MPD2    H213033   0.393   2.166   0.222 -0.3017 -1.1438 -1.4483
  885MPD2    H313034   0.271   2.170   0.015 -1.3863  1.7496 -0.8368
  885MPD2     N13035   0.528   2.496  17.590  1.0008 -0.0493  0.4757
  885MPD2    H513036   0.596   2.568  17.614 -0.9514  1.3152  1.8929
  885MPD2    N113037   0.587   2.338   0.285 -0.3619 -0.0658 -0.1000
  885MPD2    H713038   0.567   2.258   0.344 -0.7916 -0.3643 -0.6493
  886MPD2     C13039   1.516   0.766  15.212 -0.2604 -0.9886  0.8861
  886MPD2    C113040   1.646   0.804  15.250 -0.0166 -0.1967 -0.1293
  886MPD2    C213041   1.701   0.917  15.192  0.4875 -0.3045 -0.0383
  886MPD2    C313042   1.626   0.995  15.103  0.3300  0.7832 -0.7920
  886MPD2    C413043   1.503   0.952  15.065  0.1176 -0.1163 -0.2840
  886MPD2    C513044   1.445   0.835  15.116  0.3097 -0.0868  0.1043
  886MPD2     H13045   1.798   0.960  15.216 -0.6004  1.5503  0.9708
  886MPD2    H113046   1.435   1.003  14.997  2.3251  2.3156 -0.6755
  886MPD2    H213047   1.459   0.679  15.243  0.4047 -1.0926  1.8088
  886MPD2    H313048   1.349   0.804  15.077  0.4402 -1.4058  0.8205
  886MPD2     N13049   1.687   1.110  15.040  0.1494 -0.0568 -0.4005
  886MPD2    H513050   1.632   1.155  14.967 -1.6341 -0.7705  0.5130
  886MPD2    N113051   1.713   0.743  15.363 -0.2867 -0.5331  0.3870
  886MPD2    H713052   1.804   0.782  15.388 -0.2137  0.9125 -2.0969
  887MPD2     C13053   2.243   0.852  15.800 -0.2953  0.1166  0.9922
  887MPD2    C113054   2.149   0.887  15.705  0.2060  0.3045  1.0269
  887MPD2    C213055   2.184   0.970  15.598 -0.8708  0.0849  0.7739
  887MPD2    C313056   2.312   1.026  15.593 -0.1583 -0.1117 -0.0606
  887MPD2    C413057   2.401   0.982  15.695 -0.2598  0.2506 -1.0037
  887MPD2    C513058   2.369   0.896  15.794  0.3187 -0.2897 -0.0872
  887MPD2     H13059   2.103   0.995  15.531  0.1579  0.4668 -0.3288
  887MPD2    H113060   2.506   1.011  15.697 -0.2971  0.4651 -2.3862
  887MPD2    H213061   2.212   0.795  15.887  1.4304 -0.1274  1.4419
  887MPD2    H313062   2.441   0.873  15.872 -0.4153  0.9253  0.9647
  887MPD2     N13063   2.339   1.126  15.499  0.6305 -0.1948 -0.1067
  887MPD2    H513064   2.261   1.153  15.440 -0.1981  1.2969  1.6691
  887MPD2    N113065   2.020   0.836  15.701  0.1106 -0.2764  0.4671
  887MPD2    H713066   1.964   0.856  15.618  2.1341  1.2804 -0.5078
  888MPD2     C13067   4.054   0.696  15.095  0.4013 -0.0307  0.6510
  888MPD2    C113068   4.009   0.791  15.185 -0.2990  0.0648  0.1156
  888MPD2    C213069   4.033   0.928  15.169  0.3018  0.2674  0.1113
  888MPD2    C313070   4.130   0.968  15.071  0.0520 -0.1749 -0.2458
  888MPD2    C413071   4.181   0.875  14.985  0.2043  0.3817 -0.2364
  888MPD2    C513072   4.141   0.741  15.000 -0.6850 -0.0373  0.0440
  888MPD2     H13073   3.993   0.993  15.245  2.4520  1.8425 -0.1174
  888MPD2    H113074   4.263   0.902  14.920 -1.7570 -0.3437 -3.0079
  888MPD2    H213075   4.058   0.591  15.118 -0.3023  0.0622  1.1878
  888MPD2    H313076   4.190   0.658  14.949 -2.6382 -0.8487 -0.4960
  888MPD2     N13077   4.166   1.106  15.062 -0.7564 -0.7242 -0.1791
  888MPD2    H513078   4.121   1.165  15.131 -2.0861 -1.1871 -0.6635
  888MPD2    N113079   3.956   0.749  15.306 -0.0555 -0.1532 -0.3390
  888MPD2    H713080   3.941   0.829  15.367 -1.5337 -1.4251  0.9414
  889MPD2     C13081   3.258   0.872  12.194  0.0656  0.8248 -0.1666
  889MPD2    C113082   3.305   0.828  12.315  0.5498 -0.3008  0.0392
  889MPD2    C213083   3.286   0.905  12.432 -0.2115  0.3428 -0.2767
  889MPD2    C313084   3.224   1.026  12.427  0.0707  0.1942  0.2726
  889MPD2    C413085   3.172   1.065  12.305 -0.7144  0.7284 -0.3490
  889MPD2    C513086   3.190   0.989  12.191 -0.0765  0.0226  0.4782
  889MPD2     H13087   3.349   0.888  12.519 -2.3767  0.9876  1.4084
  889MPD2    H113088   3.118   1.158  12.296  1.5556  2.1177  0.4387
  889MPD2    H213089   3.289   0.828  12.100 -0.3552  0.1521  0.0076
  889MPD2    H313090   3.131   1.025  12.108  3.1379  1.7545 -1.0584
  889MPD2     N13091   3.228   1.114  12.538 -0.1112 -0.0929 -0.3568
  889MPD2    H513092   3.269   1.079  12.623  0.1153  1.2762  0.1023
  889MPD2    N113093   3.390   0.717  12.302  0.0195 -0.6213 -0.0814
  889MPD2    H713094   3.375   0.661  12.219 -1.2477 -0.3337 -0.0381
  890MPD2     C13095   2.894   2.154  14.267 -0.5694  0.0507 -0.0245
  890MPD2    C113096   2.964   2.181  14.384  0.4146 -0.6996  0.2014
  890MPD2    C213097   3.047   2.079  14.427 -0.4735 -0.2256 -0.4199
  890MPD2    C313098   3.054   1.951  14.381  0.8060 -0.6089  0.1071
  890MPD2    C413099   2.971   1.928  14.273 -0.5872  0.0884  0.8625
  890MPD2    C513100   2.887   2.026  14.230 -0.3882 -0.6068  0.9399
  890MPD2     H13101   3.124   2.093  14.503 -0.1152  0.9062 -0.9888
  890MPD2    H113102   2.964   1.830  14.226 -1.1941  1.4564 -1.8627
  890MPD2    H213103   2.829   2.232  14.227  0.2031  1.3846  1.3168
  890MPD2    H313104   2.819   1.997  14.150  0.7930  1.3444 -0.7669
  890MPD2     N13105   3.140   1.859  14.440  0.4974 -0.0088  0.1527
  890MPD2    H513106   3.208   1.890  14.508 -1.0662  0.8708  1.3332
  890MPD2    N113107   2.956   2.305  14.449  0.7183  0.6126 -0.3467
  890MPD2    H713108   2.902   2.378  14.402  0.0788 -0.0324 -0.5976
  891MPD2     C13109   1.378   1.100  16.542  0.5263 -0.4434 -0.5025
  891MPD2    C113110   1.288   1.016  16.606  0.7422  0.4926  0.1146
  891MPD2    C213111   1.329   0.952  16.726  0.4180  0.8481 -0.0986
  891MPD2    C313112   1.454   0.961  16.777 -0.6301  0.3351 -0.8951
  891MPD2    C413113   1.545   1.044  16.713 -0.3211 -0.1245 -0.4652
  891MPD2    C513114   1.508   1.100  16.589 -0.3329  0.5008 -0.4412
  891MPD2     H13115   1.262   0.896  16.789  0.7202 -0.6202 -1.1009
  891MPD2    H113116   1.646   1.057  16.750  0.5594 -1.1927 -2.4544
  891MPD2    H213117   1.357   1.144  16.446 -3.1040  0.5093  0.7067
  891MPD2    H313118   1.591   1.144  16.535  1.2970 -0.6772  1.0981
  891MPD2     N13119   1.486   0.875  16.889 -0.0820 -0.3771  0.1407
  891MPD2    H513120   1.408   0.828  16.934  1.2418  0.1562  2.9710
  891MPD2    N113121   1.153   0.997  16.557 -0.3500 -0.4199  0.1141
  891MPD2    H713122   1.117   1.059  16.484  1.2476  0.6338  0.2312
  892MPD2     C13123   2.131   1.609  14.641  0.0636  0.2355 -0.5757
  892MPD2    C113124   2.053   1.650  14.537 -0.4287  0.5029  0.4112
  892MPD2    C213125   2.100   1.623  14.408 -0.2274  0.0158 -0.4095
  892MPD2    C313126   2.218   1.554  14.385 -0.1749 -0.1708 -0.1114
  892MPD2    C413127   2.301   1.522  14.488 -0.1033 -0.6404  0.1650
  892MPD2    C513128   2.254   1.547  14.613 -0.1801  0.1911  0.4932
  892MPD2     H13129   2.037   1.661  14.328 -1.9469 -2.7339 -0.3397
  892MPD2    H113130   2.397   1.476  14.470  1.4117  2.7061 -0.4202
  892MPD2    H213131   2.114   1.647  14.741 -1.1571 -1.5144 -0.1135
  892MPD2    H313132   2.319   1.523  14.696 -1.5727 -2.1432  0.9202
  892MPD2     N13133   2.256   1.509  14.255  0.5431 -0.0653  0.5133
  892MPD2    H513134   2.348   1.466  14.260  0.0349 -1.0540  1.4376
  892MPD2    N113135   1.936   1.725  14.555 -0.3481  0.4276  0.1139
  892MPD2    H713136   1.903   1.772  14.471 -1.5947 -2.2276 -0.8956
  893MPD2     C13137   3.898   1.349   1.300  0.1748  0.3441 -0.4138
  893MPD2    C113138   3.827   1.260   1.222 -0.2586 -0.0975 -0.1185
  893MPD2    C213139   3.690   1.268   1.220  0.2245  0.0156  0.2800
  893MPD2    C313140   3.625   1.352   1.309 -0.3728  0.5168  0.1547
  893MPD2    C413141   3.701   1.440   1.385 -0.1249  0.0520 -0.3847
  893MPD2    C513142   3.835   1.439   1.378  0.0836  0.7442 -0.2921
  893MPD2     H13143   3.629   1.198   1.164  1.5848 -0.7708 -0.2016
  893MPD2    H113144   3.649   1.493   1.463  0.7537  0.9681 -0.4221
  893MPD2    H213145   4.006   1.343   1.295  0.3098  1.2131  1.5616
  893MPD2    H313146   3.891   1.505   1.443 -0.6452  0.7568  0.3356
  893MPD2     N13147   3.486   1.352   1.329 -0.4168  0.1966  0.6191
  893MPD2    H513148   3.445   1.430   1.380 -1.2047  0.8347 -1.0023
  893MPD2    N113149   3.907   1.166   1.154  0.3733  0.5108 -0.1490
  893MPD2    H713150   4.006   1.175   1.173  0.1396 -0.9954  1.6628
  894MPD2     C13151   1.812   2.348   1.199  0.3498  0.4662  0.0527
  894MPD2    C113152   1.744   2.461   1.234 -0.1755 -0.0372 -0.0731
  894MPD2    C213153   1.761   2.581   1.166 -0.0757  0.2553 -0.6453
  894MPD2    C313154   1.847   2.587   1.063 -0.3216  0.4938 -0.0726
  894MPD2    C413155   1.905   2.469   1.023  1.1282  0.9706  0.5416
  894MPD2    C513156   1.890   2.356   1.092 -0.3415 -0.0068  0.3626
  894MPD2     H13157   1.703   2.665   1.200  0.6130  0.4661 -0.0058
  894MPD2    H113158   1.975   2.467   0.941 -0.0730 -1.4178 -0.4263
  894MPD2    H213159   1.797   2.252   1.247  3.6174 -1.3532 -2.5569
  894MPD2    H313160   1.940   2.267   1.056 -0.5913 -0.5572  1.3751
  894MPD2     N13161   1.875   2.708   1.003 -0.4526  0.1674 -0.3278
  894MPD2    H513162   1.827   2.791   1.037  0.4856  0.4254  0.3328
  894MPD2    N113163   1.652   2.459   1.334 -0.0842  0.2512 -0.2562
  894MPD2    H713164   1.599   2.544   1.344 -0.1645  0.2868 -0.9828
  895MPD2     C13165   1.066   1.257  13.827 -0.0869 -0.2477  0.0211
  895MPD2    C113166   1.001   1.162  13.761  0.0923  0.4167  0.1028
  895MPD2    C213167   1.081   1.052  13.730 -0.6394  0.0567  0.0476
  895MPD2    C313168   1.212   1.042  13.746  0.6679 -0.1119 -0.5141
  895MPD2    C413169   1.276   1.147  13.808  0.7560  0.3506 -0.5971
  895MPD2    C513170   1.204   1.257  13.841  0.5767  0.8286 -0.3495
  895MPD2     H13171   1.030   0.974  13.674 -1.1510 -0.0436  0.6509
  895MPD2    H113172   1.381   1.149  13.834  0.1810 -1.9139  1.9726
  895MPD2    H213173   1.012   1.341  13.867  0.2389  0.5466 -1.1963
  895MPD2    H313174   1.264   1.334  13.887  2.3264  0.1749 -1.5298
  895MPD2     N13175   1.268   0.937  13.687 -0.0335 -1.2423  0.3513
  895MPD2    H513176   1.204   0.880  13.631  0.3215 -2.2235  0.9429
  895MPD2    N113177   0.868   1.156  13.725  1.1770 -0.2469  0.2252
  895MPD2    H713178   0.837   1.067  13.686  0.8861 -0.7055  1.4930
  896MPD2     C13179   3.389   3.756   0.396 -0.7350 -0.9442 -0.4365
  896MPD2    C113180   3.377   3.631   0.335 -0.1738 -0.0674  0.1911
  896MPD2    C213181   3.252   3.573   0.322  0.3619 -0.4711  0.5860
  896MPD2    C313182   3.148   3.629   0.394 -0.4248 -0.6077  0.0541
  896MPD2    C413183   3.165   3.744   0.472  0.4688 -0.4350 -0.0325
  896MPD2    C513184   3.288   3.811   0.473 -0.3539  0.2074 -0.2939
  896MPD2     H13185   3.245   3.476   0.275 -1.4352  0.9253 -2.0596
  896MPD2    H113186   3.078   3.773   0.531  0.0942 -1.6966  0.0275
  896MPD2    H213187   3.482   3.812   0.399 -0.7990 -0.7476 -2.1007
  896MPD2    H313188   3.310   3.907   0.518 -0.9421  1.0061 -1.7013
  896MPD2     N13189   3.033   3.543   0.401 -0.5593  0.0228 -0.4282
  896MPD2    H513190   3.041   3.457   0.348  1.8265 -0.5713  0.8916
  896MPD2    N113191   3.496   3.567   0.283  0.3345  0.0294 -0.0975
  896MPD2    H713192   3.583   3.615   0.303 -0.4547  0.4252  2.4185
  897MPD2     C13193   4.564   0.141  10.307  0.6350  0.0748  0.0990
  897MPD2    C113194   4.513   0.267  10.310  0.0898 -0.2738  0.5953
  897MPD2    C213195   4.424   0.298  10.415  0.0554 -0.3936  0.2154
  897MPD2    C313196   4.385   0.196  10.499 -1.1629 -0.0147 -0.0224
  897MPD2    C413197   4.445   0.072  10.498 -0.2104 -0.4919  0.6038
  897MPD2    C513198   4.546   0.051  10.405 -0.0596 -0.5717  0.4599
  897MPD2     H13199   4.371   0.392  10.412 -2.2845 -1.6950  0.8181
  897MPD2    H113200   4.409   4.736  10.565 -1.4625 -2.0257 -1.8070
  897MPD2    H213201   4.642   0.131  10.233 -3.2196 -2.5778 -3.6038
  897MPD2    H313202   4.602   4.702  10.428  0.4645 -0.2833  0.3114
  897MPD2     N13203   4.283   0.221  10.591 -0.1001  0.3153 -0.1931
  897MPD2    H513204   4.233   0.307  10.570  0.7649  0.5025 -1.4989
  897MPD2    N113205   4.546   0.360  10.207  0.0213  0.1778 -0.2570
  897MPD2    H713206   4.607   0.332  10.131  0.4850 -0.7107  0.4447
  898MPD2     C13207   2.045   1.196  17.598 -0.0057 -0.1549  0.2830
  898MPD2    C113208   2.076   1.223  17.469 -0.0130  0.5349 -0.6908
  898MPD2    C213209   2.001   1.316  17.400  0.1439  0.3569 -0.4391
  898MPD2    C313210   1.895   1.377  17.471 -0.4036 -1.1297 -0.6239
  898MPD2    C413211   1.870   1.345  17.600  0.1999  0.2369  0.5927
  898MPD2    C513212   1.947   1.255  17.666  0.2060  0.1307 -0.1802
  898MPD2     H13213   2.028   1.346  17.300  1.1413 -1.8226 -0.8195
  898MPD2    H113214   1.789   1.392  17.654 -0.4038  2.4184 -2.2275
  898MPD2    H213215   2.100   1.131  17.666  1.2061 -0.0775 -0.6209
  898MPD2    H313216   1.929   1.220   0.007  1.4004  0.1682  0.0358
  898MPD2     N13217   1.814   1.472  17.394 -0.2716  0.1157 -0.0330
  898MPD2    H513218   1.830   1.478  17.294 -2.5732  0.7840 -0.3714
  898MPD2    N113219   2.191   1.173  17.398 -0.0137  0.0687 -0.4850
  898MPD2    H713220   2.207   1.212  17.306  1.0969  0.7179 -0.0068
  899MPD2     C13221   2.956   1.751  17.063 -0.3785 -0.8143 -0.5916
  899MPD2    C113222   2.876   1.838  16.990 -0.0102  0.9597 -0.7692
  899MPD2    C213223   2.739   1.835  17.018  0.6780  0.4572  0.4596
  899MPD2    C313224   2.687   1.751  17.114 -0.1546 -0.1616 -0.4219
  899MPD2    C413225   2.771   1.664  17.185  0.2152 -0.0711  0.0642
  899MPD2    C513226   2.907   1.663  17.153  0.2449  0.0496  0.1996
  899MPD2     H13227   2.668   1.899  16.967 -0.4633 -0.8704  0.4101
  899MPD2    H113228   2.735   1.601  17.266 -0.7701  1.6532  0.9752
  899MPD2    H213229   3.063   1.758  17.051 -0.3630  1.3610  0.7682
  899MPD2    H313230   2.974   1.606  17.217 -0.0849  0.6639  1.0849
  899MPD2     N13231   2.552   1.751  17.149 -0.1061 -0.3612  0.2126
  899MPD2    H513232   2.517   1.678  17.211  0.5426 -2.1012 -1.5041
  899MPD2    N113233   2.934   1.930  16.897  0.7408 -0.1238  0.1471
  899MPD2    H713234   3.035   1.941  16.898  0.8440 -1.0213 -0.6274
  900MPD2     C13235   2.139   3.801  12.603 -0.5362 -0.1333 -0.0811
  900MPD2    C113236   2.020   3.729  12.608  0.0324 -0.2999  0.7759
  900MPD2    C213237   1.916   3.772  12.523 -0.2210  0.3586 -0.5831
  900MPD2    C313238   1.926   3.874  12.429  0.1234  0.2613 -0.0388
  900MPD2    C413239   2.047   3.944  12.427  0.3282 -0.3821 -0.2337
  900MPD2    C513240   2.145   3.906  12.511  0.1147  0.9183 -0.2808
  900MPD2     H13241   1.820   3.723  12.519 -0.7720  1.4095 -0.1027
  900MPD2    H113242   2.066   4.029  12.363 -0.2345 -1.8144 -2.2901
  900MPD2    H213243   2.222   3.787  12.672 -1.1987 -0.6677  0.6075
  900MPD2    H313244   2.238   3.962  12.504  1.3052 -1.0324 -0.3186
  900MPD2     N13245   1.817   3.893  12.345 -0.9739  0.3282  0.1630
  900MPD2    H513246   1.742   3.824  12.349  1.3649 -2.2577 -0.5555
  900MPD2    N113247   2.007   3.626  12.701  0.3050 -0.4362  0.6162
  900MPD2    H713248   2.090   3.593  12.749  1.3044  0.2404 -0.6468
  901MPD2     C13249   1.567   2.618  12.886  0.5169  0.2309 -0.1477
  901MPD2    C113250   1.657   2.609  12.780  0.2251 -0.3923 -0.3833
  901MPD2    C213251   1.711   2.725  12.730  0.1574  0.0764  0.1137
  901MPD2    C313252   1.677   2.850  12.775  0.6496 -0.0365 -0.4903
  901MPD2    C413253   1.584   2.860  12.877  0.6049 -0.1695 -0.2546
  901MPD2    C513254   1.534   2.746  12.939 -0.2054 -0.0114 -0.1961
  901MPD2     H13255   1.785   2.725  12.651  0.4084 -1.7633  0.3438
  901MPD2    H113256   1.562   2.956  12.922 -2.6896 -1.5836  1.1811
  901MPD2    H213257   1.549   2.525  12.939  0.5702 -0.4092 -1.2656
  901MPD2    H313258   1.468   2.756  13.025  0.3130 -2.5113  0.5025
  901MPD2     N13259   1.751   2.960  12.728 -0.4560 -0.1890 -0.2097
  901MPD2    H513260   1.824   2.940  12.661  1.2347 -0.4650  1.6897
  901MPD2    N113261   1.705   2.485  12.732 -0.0484 -0.2820  0.2766
  901MPD2    H713262   1.668   2.398  12.768 -1.6134 -0.1226 -0.9511
  902MPD2     C13263   0.882   1.898  13.138 -0.1973 -0.3924 -0.3579
  902MPD2    C113264   0.861   1.930  13.006 -0.4368  0.2290  0.3029
  902MPD2    C213265   0.836   1.829  12.915 -0.5274 -0.0070 -0.2536
  902MPD2    C313266   0.822   1.697  12.953 -0.4004  0.4502 -0.8641
  902MPD2    C413267   0.840   1.665  13.086 -0.0757  0.6772 -0.3497
  902MPD2    C513268   0.871   1.768  13.178 -0.8774 -0.1136  0.1432
  902MPD2     H13269   0.830   1.861  12.811  0.0096 -0.0716 -0.3042
  902MPD2    H113270   0.837   1.561  13.115  2.4360  0.4834 -0.8489
  902MPD2    H213271   0.908   1.976  13.209 -2.2066 -0.0535  0.0133
  902MPD2    H313272   0.880   1.740  13.282 -2.8300  0.5455  0.4873
  902MPD2     N13273   0.806   1.589  12.863 -0.0991  0.1940 -0.0668
  902MPD2    H513274   0.804   1.497  12.907  0.0006  0.2082 -0.0328
  902MPD2    N113275   0.840   2.061  12.953 -0.6348  0.2782 -0.4857
  902MPD2    H713276   0.823   2.060  12.853 -4.3982  0.9944  0.1656
  903MPD2     C13277   0.740   1.194  12.024 -0.8262 -0.2467  0.2033
  903MPD2    C113278   0.668   1.265  12.117 -0.2851 -0.5604  0.3526
  903MPD2    C213279   0.552   1.320  12.073  0.0276  0.5305  0.9911
  903MPD2    C313280   0.500   1.307  11.948  0.4755  0.8220 -0.4817
  903MPD2    C413281   0.572   1.245  11.850  0.3774  0.3043  0.6378
  903MPD2    C513282   0.693   1.191  11.891  1.0523  0.4127  0.3049
  903MPD2     H13283   0.486   1.378  12.137  1.6241  1.1153  2.1175
  903MPD2    H113284   0.541   1.222  11.749  0.4219 -0.6623  0.8498
  903MPD2    H213285   0.837   1.151  12.047 -1.8362 -2.7075 -0.1815
  903MPD2    H313286   0.752   1.138  11.817  0.8511 -0.7490  0.9689
  903MPD2     N13287   0.380   1.367  11.923 -0.5612 -0.2685  0.5702
  903MPD2    H513288   0.326   1.404  12.000 -1.7451  0.4607 -0.6051
  903MPD2    N113289   0.733   1.287  12.239  0.3213 -0.0771 -0.3058
  903MPD2    H713290   0.830   1.260  12.251  1.3136  3.2132 -0.8683
  904MPD2     C13291   0.967   0.557  13.823  0.0309  0.5867 -0.0852
  904MPD2    C113292   0.970   0.465  13.926  0.4527  0.1520  0.9558
  904MPD2    C213293   1.085   0.434  13.996  0.0441  0.3885  0.0446
  904MPD2    C313294   1.203   0.514  13.975  0.4895 -0.2417  0.3562
  904MPD2    C413295   1.193   0.616  13.878 -0.6288 -0.3141  0.2687
  904MPD2    C513296   1.081   0.635  13.799  0.1044  0.2283 -0.3489
  904MPD2     H13297   1.077   0.358  14.073  0.1658  0.9336  0.5888
  904MPD2    H113298   1.281   0.676  13.860 -1.2106  1.2330  2.6255
  904MPD2    H213299   0.889   0.561  13.747  0.2153 -0.9295 -0.3542
  904MPD2    H313300   1.075   0.701  13.713 -2.2130  1.1792  0.5499
  904MPD2     N13301   1.327   0.464  14.041  0.4117  0.1334 -0.0626
  904MPD2    H513302   1.331   0.390  14.110 -0.0084 -0.0822 -0.2699
  904MPD2    N113303   0.851   0.395  13.962  0.2340  0.1503  0.2839
  904MPD2    H713304   0.875   0.310  14.014 -0.2583  0.1967  0.5906
  905MPD2     C13305   0.684   0.597  13.301 -0.0477  0.8901  0.3584
  905MPD2    C113306   0.739   0.666  13.406  0.8893 -0.1921 -0.2027
  905MPD2    C213307   0.876   0.699  13.401 -0.3058 -0.3646  0.0058
  905MPD2    C313308   0.950   0.669  13.288  0.9546  0.3065 -0.4386
  905MPD2    C413309   0.890   0.616  13.180 -0.5361 -0.3685  0.1315
  905MPD2    C513310   0.758   0.577  13.187  0.1819  0.0652 -0.1467
  905MPD2     H13311   0.918   0.743  13.491 -0.2918  0.7116 -0.5200
  905MPD2    H113312   0.942   0.593  13.088  0.1652  1.5463  0.0357
  905MPD2    H213313   0.580   0.568  13.308 -0.4431  1.8303 -1.5858
  905MPD2    H313314   0.715   0.527  13.102 -0.1981 -1.4573  0.9327
  905MPD2     N13315   1.090   0.694  13.279 -0.0172 -0.5205  0.1936
  905MPD2    H513316   1.147   0.654  13.205  0.7347 -0.7094  0.8788
  905MPD2    N113317   0.655   0.676  13.518  0.1505  0.5076  0.3697
  905MPD2    H713318   0.563   0.633  13.514  0.9574 -1.1062 -0.9015
  906MPD2     C13319   3.019   0.919  11.276 -0.5022 -0.2075 -0.7030
  906MPD2    C113320   3.023   0.839  11.162 -0.1214  0.0560  0.1241
  906MPD2    C213321   3.018   0.705  11.178 -0.8243 -0.0436  0.5783
  906MPD2    C313322   3.013   0.636  11.301 -0.1339 -0.6722 -0.5324
  906MPD2    C413323   3.020   0.723  11.410  0.0868 -1.0076  0.1697
  906MPD2    C513324   3.015   0.856  11.405  0.4359  0.3209  0.1493
  906MPD2     H13325   3.014   0.649  11.086  0.5715 -0.6452  0.8828
  906MPD2    H113326   3.004   0.678  11.507 -2.0398 -0.5929  0.0114
  906MPD2    H213327   3.028   1.026  11.267 -0.4021 -0.0957  0.7819
  906MPD2    H313328   3.019   0.915  11.496  0.3528 -1.7593  1.5064
  906MPD2     N13329   3.016   0.492  11.314 -0.0602 -0.3126 -0.0069
  906MPD2    H513330   3.029   0.462  11.410  2.1633 -1.7475 -0.7710
  906MPD2    N113331   3.030   0.880  11.025  0.0552  0.0949 -0.0847
  906MPD2    H713332   2.999   0.810  10.958 -1.5420  0.4952  0.2324
  907MPD2     C13333   2.081   4.414  15.752 -0.6939  0.5226 -0.3631
  907MPD2    C113334   2.036   4.282  15.735  0.0049 -0.1266  0.0722
  907MPD2    C213335   2.059   4.190  15.830  0.3213  0.1628 -0.1144
  907MPD2    C313336   2.128   4.220  15.950 -0.4177  0.2025 -0.8994
  907MPD2    C413337   2.171   4.349  15.964 -0.5022 -0.8566  0.4948
  907MPD2    C513338   2.148   4.443  15.867 -0.1534 -0.1063 -0.1379
  907MPD2     H13339   2.026   4.087  15.824  0.9203 -0.0756  0.7443
  907MPD2    H113340   2.221   4.386  16.053 -0.9559 -2.7085  1.5273
  907MPD2    H213341   2.069   4.495  15.681  2.6023  0.6053 -0.8189
  907MPD2    H313342   2.180   4.542  15.895 -0.4998  0.4401 -1.6421
  907MPD2     N13343   2.145   4.128  16.047 -0.8930  0.3913 -0.0660
  907MPD2    H513344   2.136   4.030  16.023  2.1198 -0.3613  1.8848
  907MPD2    N113345   1.957   4.237  15.632  0.2752  0.4676 -0.7855
  907MPD2    H713346   1.968   4.139  15.612  1.3107  0.5504 -0.6159
  908MPD2     C13347   0.066   0.171   9.429  0.1953  0.6616  0.5799
  908MPD2    C113348   0.024   0.110   9.552  0.4580  0.8082 -0.8119
  908MPD2    C213349   0.003   0.183   9.668  0.1310 -0.1285  0.5598
  908MPD2    C313350   0.026   0.319   9.665  0.1677  0.1787 -0.2699
  908MPD2    C413351   0.065   0.380   9.548  0.3057  0.4358 -0.0231
  908MPD2    C513352   0.098   0.306   9.433  0.7234 -0.3563  0.4698
  908MPD2     H13353   4.719   0.130   9.759 -0.6981 -1.1289 -0.2508
  908MPD2    H113354   0.079   0.487   9.541 -1.2744  0.5977 -0.7056
  908MPD2    H213355   0.066   0.116   9.335  2.6502  1.2777  0.2378
  908MPD2    H313356   0.134   0.352   9.341 -0.7624  0.3385  0.2427
  908MPD2     N13357   0.004   0.396   9.780 -0.5321  0.1426 -0.1996
  908MPD2    H513358   4.707   0.343   9.858 -0.4140  0.1984 -0.1046
  908MPD2    N113359   4.735   4.715   9.538 -0.7650 -0.3217  0.5890
  908MPD2    H713360   0.005   4.677   9.445  1.2658 -1.2154  1.1919
  909MPD2     C13361   4.702   2.837  11.614 -0.4828  0.2661  1.0850
  909MPD2    C113362   4.696   2.969  11.593  0.4470 -0.9913  0.9604
  909MPD2    C213363   4.635   3.053  11.684  0.1462  0.0158 -0.9953
  909MPD2    C313364   4.588   3.000  11.803 -0.2900 -0.7913  0.2575
  909MPD2    C413365   4.606   2.866  11.828  0.3998  0.1938 -0.1544
  909MPD2    C513366   4.665   2.785  11.739 -0.5710 -0.3924  0.3524
  909MPD2     H13367   4.632   3.158  11.656 -0.5752  0.2317 -0.0999
  909MPD2    H113368   4.576   2.823  11.923 -0.8577  2.2059  0.3604
  909MPD2    H213369   0.012   2.773  11.542  1.0694  3.0135 -0.2680
  909MPD2    H313370   4.679   2.679  11.759 -1.7190 -0.9132 -1.6059
  909MPD2     N13371   4.523   3.092  11.898 -0.3663  0.3011 -0.3357
  909MPD2    H513372   4.502   3.187  11.871  1.5341  0.9453  0.5028
  909MPD2    N113373   0.006   3.025  11.474  0.1600 -0.1001  0.4251
  909MPD2    H713374   4.714   3.118  11.449  1.7318  0.0940 -0.8829
  910MPD2     C13375   1.437   0.267  16.152 -0.0513  1.0077 -0.1795
  910MPD2    C113376   1.493   0.179  16.056 -0.1372 -0.1635 -0.2786
  910MPD2    C213377   1.475   0.188  15.921  0.0186 -0.1887  0.0405
  910MPD2    C313378   1.390   0.293  15.881  0.0929  0.2688  0.7513
  910MPD2    C413379   1.331   0.379  15.974 -0.3843  0.2615  0.3156
  910MPD2    C513380   1.361   0.363  16.104 -0.8732 -0.6767  0.3467
  910MPD2     H13381   1.533   0.132  15.848  1.7495 -0.7798  1.8484
  910MPD2    H113382   1.273   0.464  15.939 -2.6240 -1.4979 -0.3261
  910MPD2    H213383   1.462   0.267  16.257 -0.1830  0.6900 -0.1472
  910MPD2    H313384   1.339   0.450  16.165 -0.1734 -0.3388  0.1192
  910MPD2     N13385   1.363   0.297  15.739  0.2226  0.4143  0.1931
  910MPD2    H513386   1.319   0.385  15.713  0.0040 -0.2082 -1.5585
  910MPD2    N113387   1.587   0.078  16.091 -0.2451  0.4343 -0.1828
  910MPD2    H713388   1.628   0.034  16.009 -1.6870 -0.5371 -0.3776
  911MPD2     C13389   4.263   0.431  16.172  1.3523 -0.0992 -0.0352
  911MPD2    C113390   4.313   0.542  16.230 -0.0344 -0.1411  0.2509
  911MPD2    C213391   4.249   0.660  16.222  0.5375 -0.0000 -0.3106
  911MPD2    C313392   4.140   0.667  16.144  0.5136  0.5413  0.3394
  911MPD2    C413393   4.083   0.560  16.079 -0.3489 -0.0092 -0.3140
  911MPD2    C513394   4.145   0.437  16.098  0.3482 -0.6786  0.2683
  911MPD2     H13395   4.300   0.748  16.259 -1.0313 -0.1344  2.1385
  911MPD2    H113396   3.998   0.570  16.012  0.3941 -0.0102 -1.2619
  911MPD2    H213397   4.320   0.339  16.181  1.9463  0.5137  2.3891
  911MPD2    H313398   4.115   0.352  16.039  1.2520 -0.2045 -0.8818
  911MPD2     N13399   4.062   0.787  16.127  0.0591  0.7743  0.0752
  911MPD2    H513400   3.970   0.773  16.086 -0.7603  0.7893  1.9276
  911MPD2    N113401   4.434   0.526  16.300  0.1648 -0.2879 -0.1742
  911MPD2    H713402   4.478   0.434  16.304  0.2526 -0.2997 -1.4009
  912MPD2     C13403   3.562   0.714  15.634 -0.3088  0.3371  0.2017
  912MPD2    C113404   3.624   0.692  15.755  0.3436  0.1070  0.2226
  912MPD2    C213405   3.613   0.573  15.819  1.1397 -0.5634 -0.7438
  912MPD2    C313406   3.543   0.467  15.753 -0.0118  0.1147  0.5274
  912MPD2    C413407   3.482   0.494  15.626  1.0614  0.5198 -0.1214
  912MPD2    C513408   3.486   0.616  15.572 -0.1001  0.5307 -0.0470
  912MPD2     H13409   3.665   0.554  15.913 -0.9576 -2.6789 -0.0211
  912MPD2    H113410   3.414   0.425  15.578  4.1013 -3.1755  0.9099
  912MPD2    H213411   3.579   0.807  15.580 -1.8454  1.4975  1.7374
  912MPD2    H313412   3.433   0.631  15.478 -0.9880 -0.7947  0.2502
  912MPD2     N13413   3.523   0.352  15.826  0.8844  0.7149 -0.0349
  912MPD2    H513414   3.569   0.342  15.916  0.4387  0.8233  0.2050
  912MPD2    N113415   3.682   0.809  15.806  0.8324  0.1111  0.3185
  912MPD2    H713416   3.661   0.894  15.755 -1.3043 -1.0985 -0.8439
  913MPD2     C13417   3.915   2.414  10.640 -0.0385  0.4472  0.4549
  913MPD2    C113418   4.051   2.424  10.620 -0.1249 -0.3418  0.1497
  913MPD2    C213419   4.097   2.420  10.489 -0.3822  0.3551 -0.4964
  913MPD2    C313420   4.012   2.381  10.390  0.8150 -0.1920  0.4995
  913MPD2    C413421   3.878   2.361  10.416  0.3276 -0.2092  0.3209
  913MPD2    C513422   3.834   2.383  10.539  0.0572  0.3771 -0.4001
  913MPD2     H13423   4.203   2.443  10.479  0.0063 -1.2693 -0.2092
  913MPD2    H113424   3.810   2.345  10.334  0.0727  0.3794  0.4117
  913MPD2    H213425   3.873   2.418  10.740  3.9537 -0.8082  2.1939
  913MPD2    H313426   3.727   2.376  10.557 -0.1304  2.7798 -0.6286
  913MPD2     N13427   4.041   2.366  10.253 -0.0968  0.6670 -1.0649
  913MPD2    H513428   3.988   2.309  10.186 -1.5237 -0.1303  0.7348
  913MPD2    N113429   4.132   2.447  10.735 -0.1574  0.4353 -0.3745
  913MPD2    H713430   4.088   2.457  10.826 -0.5685  1.6332 -0.6997
  914MPD2     C13431   2.161   2.730  12.052  0.1103 -0.1646 -0.7406
  914MPD2    C113432   2.094   2.774  12.165 -0.5913 -0.6795 -0.5518
  914MPD2    C213433   2.046   2.680  12.255  0.0231  0.1667  0.3008
  914MPD2    C313434   2.076   2.548  12.236  0.0514  1.0980 -0.1126
  914MPD2    C413435   2.153   2.502  12.131  0.2479  0.5763 -0.1987
  914MPD2    C513436   2.190   2.596  12.043  0.3137  0.1863 -0.4642
  914MPD2     H13437   1.996   2.712  12.345  0.1660  0.5012  0.2633
  914MPD2    H113438   2.182   2.401  12.102 -1.1819  0.2964 -0.6633
  914MPD2    H213439   2.191   2.801  11.976  0.7585  1.3505  0.9371
  914MPD2    H313440   2.248   2.566  11.956  0.4009 -0.3035 -0.2383
  914MPD2     N13441   2.037   2.462  12.342  0.5203  0.6425 -0.4864
  914MPD2    H513442   1.967   2.497  12.406  0.8612 -0.7025  0.6406
  914MPD2    N113443   2.077   2.910  12.174  0.6139  0.1255 -0.2196
  914MPD2    H713444   2.111   2.964  12.094 -0.8355  1.1513 -0.1374
  915MPD2     C13445   0.501   2.251  15.277 -0.1311  0.6975 -0.2227
  915MPD2    C113446   0.370   2.282  15.260  0.0518  0.4253 -0.3326
  915MPD2    C213447   0.292   2.327  15.367  0.1483  0.1749 -0.2305
  915MPD2    C313448   0.350   2.331  15.491 -0.0068 -0.1520 -0.0688
  915MPD2    C413449   0.478   2.297  15.515  0.4614 -0.2511 -0.5748
  915MPD2    C513450   0.555   2.259  15.409 -0.0791  0.2160 -0.3486
  915MPD2     H13451   0.188   2.350  15.346  0.3284  0.1443 -1.1548
  915MPD2    H113452   0.525   2.308  15.612  2.0724 -2.2010 -1.1216
  915MPD2    H213453   0.566   2.219  15.196  0.0357 -1.3675  0.7272
  915MPD2    H313454   0.661   2.245  15.427 -0.4396 -0.1482  1.5357
  915MPD2     N13455   0.259   2.358  15.600  0.0833  0.1953 -0.1532
  915MPD2    H513456   0.166   2.386  15.569 -0.4391 -2.1809 -0.6759
  915MPD2    N113457   0.324   2.260  15.127 -0.0962 -0.8467 -0.4795
  915MPD2    H713458   0.394   2.234  15.059  1.6743  1.1219  0.5566
  916MPD2     C13459   2.890   0.133  15.266 -0.1897 -0.0492 -0.1168
  916MPD2    C113460   2.981   0.126  15.366 -0.4621  0.8677  0.0826
  916MPD2    C213461   3.099   0.075  15.325  0.0874 -0.1606  0.8182
  916MPD2    C313462   3.132   0.025  15.200  0.6982 -0.3112  0.7876
  916MPD2    C413463   3.034   0.033  15.104  0.0173 -0.3555  0.3369
  916MPD2    C513464   2.917   0.094  15.139 -0.0500  0.3776  0.0023
  916MPD2     H13465   3.183   0.097  15.390  0.9695  0.8804 -0.6650
  916MPD2    H113466   3.048   4.737  15.003 -0.7465 -1.3670  0.5963
  916MPD2    H213467   2.797   0.184  15.288 -0.8266 -1.0842 -0.4302
  916MPD2    H313468   2.832   0.104  15.072 -0.7021  2.9050  1.2025
  916MPD2     N13469   3.266   4.723  15.183  0.7301 -0.4155  0.3436
  916MPD2    H513470   3.312   4.709  15.273  1.7830 -1.0430 -0.2986
  916MPD2    N113471   2.961   0.185  15.493  0.2500 -0.1840 -1.0384
  916MPD2    H713472   2.881   0.248  15.493 -1.3916 -2.2907  0.4188
  917MPD2     C13473   3.177   2.601  11.226 -0.2554 -0.4509 -0.2648
  917MPD2    C113474   3.254   2.640  11.327 -0.5175  0.3998  0.0936
  917MPD2    C213475   3.360   2.725  11.294 -0.0956  0.1117  0.4102
  917MPD2    C313476   3.395   2.762  11.168  0.0445 -0.2997 -0.3696
  917MPD2    C413477   3.317   2.717  11.061  0.5391 -0.2211 -0.2387
  917MPD2    C513478   3.202   2.648  11.097  0.2476  0.0574 -0.5327
  917MPD2     H13479   3.427   2.747  11.377 -0.3430 -0.0021  0.6415
  917MPD2    H113480   3.345   2.730  10.958  0.1044  0.0232 -0.3275
  917MPD2    H213481   3.083   2.559  11.258 -0.8598 -0.6993 -2.3795
  917MPD2    H313482   3.147   2.610  11.011 -0.5279 -0.2534  0.1036
  917MPD2     N13483   3.519   2.830  11.136  0.1371 -0.0601  0.2466
  917MPD2    H513484   3.541   2.852  11.040  1.0948 -1.6085  0.1055
  917MPD2    N113485   3.222   2.594  11.459  0.3872  0.2629 -0.4975
  917MPD2    H713486   3.136   2.541  11.469  0.4805 -0.0223 -1.2163
  918MPD2     C13487   3.080   3.299  12.082  0.1989  0.3923  0.8959
  918MPD2    C113488   3.194   3.270  12.009 -0.8925  0.6419 -0.2031
  918MPD2    C213489   3.218   3.137  11.973 -0.6307 -0.5577 -0.4286
  918MPD2    C313490   3.123   3.037  11.995 -0.4124  0.2622 -0.1503
  918MPD2    C413491   3.014   3.067  12.075  0.3732 -0.2791 -0.3118
  918MPD2    C513492   2.994   3.197  12.115  0.1968 -0.0030  0.7889
  918MPD2     H13493   3.310   3.113  11.920 -1.1439 -0.2581 -1.4680
  918MPD2    H113494   2.941   2.998  12.114 -2.5521  2.2010 -1.3591
  918MPD2    H213495   3.046   3.400  12.098 -0.9925  0.5268 -2.3949
  918MPD2    H313496   2.909   3.220  12.178  0.3454  1.5466  0.4319
  918MPD2     N13497   3.150   2.903  11.949  0.4923  0.0171 -0.4510
  918MPD2    H513498   3.244   2.886  11.913  0.5544  2.7861 -1.6186
  918MPD2    N113499   3.300   3.364  11.989  0.0412  0.3625 -0.2046
  918MPD2    H713500   3.382   3.320  11.949 -1.3829  0.7213 -3.5019
  919MPD2     C13501   4.568   1.869  11.612  0.1222 -0.0141  0.3601
  919MPD2    C113502   4.500   1.785  11.533  0.1793 -0.1150 -0.0202
  919MPD2    C213503   4.538   1.772  11.403 -0.2952 -0.7238  0.0992
  919MPD2    C313504   4.620   1.856  11.341  0.1762  0.6049  0.8980
  919MPD2    C413505   4.676   1.956  11.421 -0.1013 -0.2543 -0.0267
  919MPD2    C513506   4.653   1.961  11.554 -0.5953 -0.0093  0.7670
  919MPD2     H13507   4.488   1.693  11.347 -1.0766 -0.0776 -0.1020
  919MPD2    H113508   4.736   2.036  11.380  2.4107 -2.0322  0.1988
  919MPD2    H213509   4.537   1.882  11.715  0.1369  0.7999  0.2658
  919MPD2    H313510   4.689   2.050  11.605  0.2268  0.8210 -1.2704
  919MPD2     N13511   4.630   1.858  11.201  0.7852  0.2959  0.8035
  919MPD2    H513512   4.677   1.933  11.152 -0.8272  0.7004 -0.1095
  919MPD2    N113513   4.398   1.700  11.578  0.1277 -0.8780  0.2593
  919MPD2    H713514   4.366   1.626  11.517 -0.5767  0.2910 -0.7934
  920MPD2     C13515   3.984   2.173  10.949  0.1450 -0.0302  0.3216
  920MPD2    C113516   3.982   2.114  10.822 -0.1403 -0.0734 -1.0919
  920MPD2    C213517   4.099   2.073  10.763 -0.2307 -0.5832  0.6141
  920MPD2    C313518   4.220   2.094  10.822 -0.2712  0.0761 -1.0901
  920MPD2    C413519   4.222   2.152  10.949 -0.4784 -0.7707 -0.2233
  920MPD2    C513520   4.102   2.188  11.007  1.1283  0.0289  0.3034
  920MPD2     H13521   4.094   2.029  10.664  0.1795 -1.2696  0.9027
  920MPD2    H113522   4.315   2.165  11.003 -1.7208  1.2181  1.4103
  920MPD2    H213523   3.897   2.210  11.002  0.0589 -1.1778  0.9938
  920MPD2    H313524   4.090   2.225  11.108 -3.7827 -0.4973 -0.0681
  920MPD2     N13525   4.339   2.036  10.760 -0.1224 -0.6543 -0.5664
  920MPD2    H513526   4.326   1.960  10.694 -3.1722  0.0648 -0.8096
  920MPD2    N113527   3.860   2.106  10.745 -0.2228  0.2291  0.6178
  920MPD2    H713528   3.865   2.071  10.650  2.3190  2.9168 -0.2523
  921MPD2     C13529   0.428   0.884  16.926  0.4253 -0.2963 -0.1599
  921MPD2    C113530   0.449   0.855  16.789  0.0299 -0.6154 -0.2306
  921MPD2    C213531   0.343   0.789  16.722 -0.7621 -0.0600  0.2425
  921MPD2    C313532   0.223   0.754  16.793 -0.0094  0.7060 -0.2443
  921MPD2    C413533   0.206   0.799  16.921 -0.2484  0.1088  0.0307
  921MPD2    C513534   0.303   0.865  16.992 -0.4232 -0.4988  0.0370
  921MPD2     H13535   0.364   0.744  16.625 -0.3184 -3.2588  1.8079
  921MPD2    H113536   0.105   0.781  16.957 -1.2120  1.3025 -2.0588
  921MPD2    H213537   0.509   0.937  16.977 -0.8844 -0.0509  1.6890
  921MPD2    H313538   0.282   0.885  17.096  0.0307 -0.4577  0.1241
  921MPD2     N13539   0.120   0.680  16.739  0.1352 -1.2587  0.1161
  921MPD2    H513540   0.034   0.684  16.791  0.9457 -1.1754  1.4422
  921MPD2    N113541   0.574   0.877  16.719 -0.0194 -0.3430 -0.0158
  921MPD2    H713542   0.651   0.909  16.778  0.0948  1.2626 -1.0432
  922MPD2     C13543   1.072   3.774  16.731 -0.9569  0.1384  0.0658
  922MPD2    C113544   1.044   3.786  16.863  0.5163 -0.3091  0.2960
  922MPD2    C213545   0.970   3.684  16.922 -0.2897  0.6001  0.0964
  922MPD2    C313546   0.923   3.576  16.844 -0.5576 -0.0335 -0.2064
  922MPD2    C413547   0.965   3.565  16.718  1.0922 -0.2104  0.8464
  922MPD2    C513548   1.045   3.660  16.660  0.2535  0.4643 -0.3757
  922MPD2     H13549   0.949   3.694  17.027  1.7035  0.1806  0.5297
  922MPD2    H113550   0.945   3.480  16.653  1.4969 -0.4649  1.0476
  922MPD2    H213551   1.125   3.848  16.672 -1.8250  1.9309  1.5472
  922MPD2    H313552   1.077   3.645  16.558  0.8486 -0.5457 -0.0418
  922MPD2     N13553   0.819   3.487  16.902 -0.0916  0.3785  0.0241
  922MPD2    H513554   0.780   3.516  16.991  1.0462 -1.1831  1.0376
  922MPD2    N113555   1.066   3.907  16.933  0.3644  0.0306  0.5617
  922MPD2    H713556   1.018   3.907  17.022  2.2200 -1.3569  1.5524
  923MPD2     C13557   1.283   1.262   9.380  0.1872  0.0856  0.3602
  923MPD2    C113558   1.414   1.241   9.404 -0.3160 -0.0365  0.6098
  923MPD2    C213559   1.488   1.159   9.319  0.4006  0.3734  0.5520
  923MPD2    C313560   1.421   1.082   9.225 -0.5569  0.1418 -0.2900
  923MPD2    C413561   1.292   1.101   9.206 -0.1095 -0.0246  0.1699
  923MPD2    C513562   1.219   1.195   9.274  0.8295 -0.0978 -0.9676
  923MPD2     H13563   1.595   1.143   9.326  0.6641  0.3170 -3.1960
  923MPD2    H113564   1.238   1.036   9.139  1.7555 -0.7284 -0.6604
  923MPD2    H213565   1.219   1.330   9.437 -0.1612  0.3963 -0.4064
  923MPD2    H313566   1.111   1.197   9.265  0.5369  0.9990  2.8131
  923MPD2     N13567   1.479   0.985   9.142  0.2880  0.7158 -0.1434
  923MPD2    H513568   1.407   0.948   9.082 -1.7263 -0.3011  2.8958
  923MPD2    N113569   1.478   1.323   9.496 -0.2604  0.7870  0.0122
  923MPD2    H713570   1.420   1.381   9.556 -3.0931 -2.0350  0.0217
  924MPD2     C13571   2.116   3.466  15.780 -0.1296  0.1209 -0.4779
  924MPD2    C113572   2.090   3.431  15.912 -0.3143  0.0404  0.3190
  924MPD2    C213573   2.154   3.499  16.014  0.6300  0.3362 -0.2102
  924MPD2    C313574   2.247   3.596  15.973 -0.0630  0.0097  0.2896
  924MPD2    C413575   2.278   3.619  15.841  0.0060 -0.3462  0.5452
  924MPD2    C513576   2.213   3.553  15.739 -0.6124 -0.5501  0.7892
  924MPD2     H13577   2.140   3.469  16.117 -2.9135  1.5383 -0.3418
  924MPD2    H113578   2.344   3.703  15.822 -1.0734  1.2356  3.7334
  924MPD2    H213579   2.057   3.429  15.696 -0.5342  2.0591 -1.0565
  924MPD2    H313580   2.225   3.581  15.635  0.7849 -0.4008  0.9865
  924MPD2     N13581   2.301   3.687  16.069 -0.0881  0.0164 -0.3574
  924MPD2    H513582   2.362   3.761  16.037 -0.9040  0.6702 -0.4075
  924MPD2    N113583   1.971   3.356  15.928 -0.3625 -0.3106  0.1848
  924MPD2    H713584   1.912   3.341  15.847  0.3304 -1.1747 -0.1604
  925MPD2     C13585   0.986   1.512  14.863 -0.4301  0.2678  0.3102
  925MPD2    C113586   0.878   1.589  14.826  0.6467  0.3203  0.0227
  925MPD2    C213587   0.821   1.671  14.923 -0.0592 -0.0306 -0.1576
  925MPD2    C313588   0.864   1.673  15.060 -0.4153 -0.4220 -0.0425
  925MPD2    C413589   0.971   1.596  15.085  0.7456 -1.3054 -0.2379
  925MPD2    C513590   1.031   1.514  14.993 -0.4921  0.2460  0.2237
  925MPD2     H13591   0.729   1.723  14.898 -0.6866  0.0228  2.3064
  925MPD2    H113592   1.010   1.590  15.186  0.5655 -2.2885 -0.2363
  925MPD2    H213593   1.034   1.441  14.797  0.1600 -1.5448  2.6679
  925MPD2    H313594   1.123   1.461  15.009 -0.2974  0.9869  1.5623
  925MPD2     N13595   0.800   1.744  15.162 -0.1293 -0.2562 -0.2237
  925MPD2    H513596   0.829   1.719  15.256 -1.5371 -0.9264  0.0310
  925MPD2    N113597   0.834   1.600  14.688 -0.1396 -0.4103  0.0777
  925MPD2    H713598   0.739   1.631  14.673  0.0929 -0.2946 -1.1472
  926MPD2     C13599   4.731   0.252  13.164 -0.1950 -0.3414 -0.1028
  926MPD2    C113600   4.595   0.267  13.141 -0.0013  0.2226  0.2237
  926MPD2    C213601   4.549   0.282  13.010 -0.2414  0.1242 -0.2673
  926MPD2    C313602   4.643   0.294  12.908 -0.7287  0.3220 -0.0576
  926MPD2    C413603   0.033   0.280  12.931  0.4472  0.0719  0.2144
  926MPD2    C513604   0.079   0.246  13.057 -0.6113 -0.0400 -0.7160
  926MPD2     H13605   4.443   0.284  12.987 -0.3599 -2.5383 -0.0357
  926MPD2    H113606   0.100   0.288  12.846  0.5781  0.5632  0.3628
  926MPD2    H213607   0.023   0.230  13.265 -1.9474  0.1644  0.5690
  926MPD2    H313608   0.186   0.238  13.072 -0.4691 -0.7775 -2.1627
  926MPD2     N13609   4.609   0.340  12.778 -0.5020  0.2824  0.0974
  926MPD2    H513610   4.680   0.342  12.707 -0.6397  1.9958  0.0103
  926MPD2    N113611   4.489   0.264  13.237  0.1150 -1.0100  0.2738
  926MPD2    H713612   4.395   0.285  13.204  0.4023  1.8559  1.2543
  927MPD2     C13613   0.256   1.780  17.596 -0.5290 -0.2645  0.8797
  927MPD2    C113614   0.165   1.702  17.519 -0.2480  0.3961  0.0437
  927MPD2    C213615   0.184   1.680  17.382  0.1438  0.2114 -0.4933
  927MPD2    C313616   0.298   1.732  17.324  0.2887  0.1562 -0.4638
  927MPD2    C413617   0.387   1.806  17.393 -0.2288 -0.1243  0.1470
  927MPD2    C513618   0.365   1.823  17.525 -0.0714  0.0418  0.0102
  927MPD2     H13619   0.104   1.623  17.337  1.6677 -2.2979 -0.0162
  927MPD2    H113620   0.467   1.865  17.348  0.3220 -1.8919 -1.1989
  927MPD2    H213621   0.235   1.812  17.697 -3.1502 -0.0558  0.2820
  927MPD2    H313622   0.428   1.895  17.576  1.3406 -1.2808  0.1460
  927MPD2     N13623   0.326   1.733  17.189 -0.0325  0.4011  0.1709
  927MPD2    H513624   0.403   1.783  17.146 -0.4081 -0.0981 -1.1001
  927MPD2    N113625   0.034   1.675  17.568  0.3549  0.4236 -0.4141
  927MPD2    H713626   0.002   1.733  17.644 -0.1279 -1.2441  0.6494
  928MPD2     C13627   2.320   0.056   0.547  0.3827 -0.3688 -0.5547
  928MPD2    C113628   2.333   0.192   0.517 -0.0444 -0.8734  0.1112
  928MPD2    C213629   2.420   0.233   0.422 -0.2031 -0.6484  0.0637
  928MPD2    C313630   2.504   0.140   0.371 -0.5480  0.1609  0.0779
  928MPD2    C413631   2.495   0.000   0.401 -0.7397 -0.8623 -0.1822
  928MPD2    C513632   2.402   4.704   0.488  0.6210 -0.0406  0.6991
  928MPD2     H13633   2.422   0.339   0.403 -0.9127 -0.9751 -1.8049
  928MPD2    H113634   2.576   4.678   0.366 -0.1605 -1.1562  1.6516
  928MPD2    H213635   2.243   0.025   0.617 -0.3100 -1.7532 -1.9148
  928MPD2    H313636   2.394   4.600   0.519 -4.7195  0.7147  1.9859
  928MPD2     N13637   2.622   0.183   0.305  0.5013  0.4483  0.2113
  928MPD2    H513638   2.685   0.108   0.279 -0.2830 -0.4172  0.8192
  928MPD2    N113639   2.236   0.278   0.576  0.3705  0.9509  0.2851
  928MPD2    H713640   2.197   0.252   0.667  1.6620  2.0310  1.1505
  929MPD2     C13641   2.654   0.680  10.264  0.6547  0.3683  0.1671
  929MPD2    C113642   2.569   0.593  10.329  0.1648  0.6998 -0.8002
  929MPD2    C213643   2.439   0.580  10.284 -0.2323 -1.1040 -0.6192
  929MPD2    C313644   2.388   0.659  10.183 -0.4626 -0.5298 -0.4100
  929MPD2    C413645   2.473   0.742  10.109 -0.2142  0.7930  0.2367
  929MPD2    C513646   2.607   0.748  10.153 -0.2936  0.0719 -0.0337
  929MPD2     H13647   2.360   0.535  10.344  0.4025  0.1000  1.1368
  929MPD2    H113648   2.449   0.807  10.025  1.0172  2.9067  1.5110
  929MPD2    H213649   2.758   0.680  10.296  1.1316  2.1408 -1.4204
  929MPD2    H313650   2.674   0.823  10.113 -0.7243  0.0836 -0.7240
  929MPD2     N13651   2.255   0.676  10.149 -0.8081  0.2771  0.5930
  929MPD2    H513652   2.236   0.764  10.103 -1.2848 -1.5121 -2.6204
  929MPD2    N113653   2.624   0.523  10.436  0.0071  0.3622  0.8184
  929MPD2    H713654   2.718   0.559  10.454 -0.4119  1.6340  0.4295
  930MPD2     C13655   3.572   2.860  14.195  0.3242  0.2954  0.9269
  930MPD2    C113656   3.695   2.802  14.196 -0.3077 -0.6048  0.1635
  930MPD2    C213657   3.719   2.696  14.114 -0.5060 -0.1178 -0.3718
  930MPD2    C313658   3.608   2.644  14.051 -1.0224  0.2882  0.2943
  930MPD2    C413659   3.476   2.690  14.067 -0.2792  1.0670 -0.5345
  930MPD2    C513660   3.459   2.798  14.146 -0.5169 -0.0943 -0.0162
  930MPD2     H13661   3.819   2.656  14.108 -0.9745 -1.0797 -1.6033
  930MPD2    H113662   3.394   2.646  14.012 -1.6826  1.6688  1.0552
  930MPD2    H213663   3.550   2.949  14.253  4.4278  1.0367  1.3054
  930MPD2    H313664   3.367   2.855  14.148  0.5946  1.6748  0.7461
  930MPD2     N13665   3.621   2.527  13.970  0.4908  0.2455  0.0216
  930MPD2    H513666   3.541   2.484  13.924  0.0282  1.7263 -0.5729
  930MPD2    N113667   3.806   2.885  14.239 -0.0348 -0.6001 -0.3175
  930MPD2    H713668   3.790   2.984  14.249 -1.6016 -0.7847 -0.9841
  931MPD2     C13669   4.351   1.069   0.007 -0.2303  0.8158 -0.7778
  931MPD2    C113670   4.325   1.192   0.061  0.0322 -0.4214 -0.1284
  931MPD2    C213671   4.302   1.204   0.191  0.1091 -0.3444 -0.0010
  931MPD2    C313672   4.298   1.089   0.271 -0.2518 -0.3792 -0.5754
  931MPD2    C413673   4.310   0.966   0.218 -1.2421  0.0615 -0.7663
  931MPD2    C513674   4.338   0.954   0.081  0.4002  0.0641  0.4567
  931MPD2     H13675   4.293   1.300   0.240  0.2037 -0.6291  0.5708
  931MPD2    H113676   4.308   0.875   0.276  1.4913  0.5132  0.0432
  931MPD2    H213677   4.388   1.051  17.667 -0.1707 -1.3360 -0.3786
  931MPD2    H313678   4.374   0.861   0.037  2.7500  1.7282 -1.0792
  931MPD2     N13679   4.294   1.098   0.412 -0.2230 -0.0798 -0.1570
  931MPD2    H513680   4.312   1.013   0.465  3.2530  1.2370  0.7961
  931MPD2    N113681   4.332   1.306  17.737 -0.7049 -0.1217 -0.2462
  931MPD2    H713682   4.367   1.289  17.643 -1.4753  1.7088 -0.8548
  932MPD2     C13683   1.192   1.468  11.347  0.1428 -1.1736  0.0054
  932MPD2    C113684   1.264   1.557  11.434  0.2126 -0.3795  0.4382
  932MPD2    C213685   1.333   1.502  11.537  0.1528 -0.6770  0.3411
  932MPD2    C313686   1.334   1.371  11.562 -0.6001  0.1589  0.1358
  932MPD2    C413687   1.263   1.282  11.480  0.3604 -0.0059  0.2498
  932MPD2    C513688   1.194   1.333  11.372 -0.4946 -0.5541  0.0583
  932MPD2     H13689   1.392   1.566  11.602  0.9995 -1.4565  0.3389
  932MPD2    H113690   1.262   1.174  11.491  0.4899  0.0165  0.4674
  932MPD2    H213691   1.141   1.504  11.258  4.0383  0.6286 -1.5394
  932MPD2    H313692   1.161   1.265  11.295  0.2964 -1.4767  0.5200
  932MPD2     N13693   1.415   1.335  11.670  0.3156  0.2667  0.7567
  932MPD2    H513694   1.465   1.406  11.723 -0.0023  0.1874  1.1639
  932MPD2    N113695   1.265   1.699  11.420 -0.0885  0.3344  0.2659
  932MPD2    H713696   1.320   1.746  11.491  2.8487 -0.4153 -1.5266
  933MPD2     C13697   1.710   0.783   0.277  0.0489  0.1820  0.1663
  933MPD2    C113698   1.741   0.801   0.411  0.6573 -0.0791  0.0796
  933MPD2    C213699   1.712   0.930   0.470  0.2699 -0.1372 -0.4747
  933MPD2    C313700   1.662   1.033   0.394  0.1881 -0.4579 -0.4394
  933MPD2    C413701   1.628   1.007   0.262 -0.0412 -0.7992 -0.4391
  933MPD2    C513702   1.659   0.887   0.207  0.2212  0.0878 -0.2571
  933MPD2     H13703   1.734   0.948   0.574 -1.6877  0.3141 -0.1297
  933MPD2    H113704   1.598   1.077   0.185 -0.7885  0.8317  1.3273
  933MPD2    H213705   1.719   0.684   0.235  0.9450  0.1145  0.5368
  933MPD2    H313706   1.643   0.876   0.100 -2.9985  0.3912  0.1937
  933MPD2     N13707   1.660   1.163   0.451  0.1480  0.2430 -0.0964
  933MPD2    H513708   1.698   1.171   0.544 -0.5219  1.6622  0.0563
  933MPD2    N113709   1.810   0.696   0.480 -0.2174  0.2479 -1.1722
  933MPD2    H713710   1.817   0.599   0.449  1.2656  0.4990 -1.6304
  934MPD2     C13711   3.539   3.313   0.580  0.1617 -0.3825  0.6569
  934MPD2    C113712   3.585   3.195   0.637  0.3309 -0.5918  0.1350
  934MPD2    C213713   3.501   3.085   0.641 -0.1550 -0.0318 -0.4020
  934MPD2    C313714   3.369   3.088   0.590 -0.2057  0.0262  0.7440
  934MPD2    C413715   3.323   3.203   0.535  0.0322 -0.1670 -0.1249
  934MPD2    C513716   3.412   3.311   0.529  0.2117 -0.0606  0.2797
  934MPD2     H13717   3.540   2.994   0.685  0.7082 -0.0976 -1.3188
  934MPD2    H113718   3.224   3.209   0.490  0.3763 -1.0815 -0.9931
  934MPD2    H213719   3.595   3.405   0.586  1.4295 -1.0143 -1.3622
  934MPD2    H313720   3.373   3.401   0.483  0.4315 -0.7159 -1.1764
  934MPD2     N13721   3.281   2.982   0.591  0.2563 -0.2985 -0.0729
  934MPD2    H513722   3.190   3.017   0.562  1.2899 -0.2154 -3.1914
  934MPD2    N113723   3.715   3.183   0.694  0.4092 -0.7220 -0.1539
  934MPD2    H713724   3.751   3.090   0.709 -0.7408 -1.0867  0.3209
  935MPD2     C13725   3.231   2.051   0.278  0.3312 -0.4696 -0.0011
  935MPD2    C113726   3.112   2.064   0.342 -0.9925  0.5172 -0.3074
  935MPD2    C213727   3.082   2.185   0.401 -0.0013  0.0201 -0.4773
  935MPD2    C313728   3.173   2.288   0.408 -0.2500 -0.3216 -0.6361
  935MPD2    C413729   3.291   2.277   0.340  0.2046 -0.6894 -0.8519
  935MPD2    C513730   3.311   2.159   0.272  0.0697  0.2279 -0.8328
  935MPD2     H13731   2.989   2.196   0.457 -0.0472  0.2145 -0.5940
  935MPD2    H113732   3.354   2.364   0.325 -0.1098 -0.7809 -2.7070
  935MPD2    H213733   3.253   1.956   0.231  0.8223 -1.5111  2.3300
  935MPD2    H313734   3.402   2.147   0.214 -1.4431  1.1122 -3.3767
  935MPD2     N13735   3.160   2.407   0.478  0.1578 -0.3214 -0.6024
  935MPD2    H513736   3.246   2.461   0.485 -0.3842  0.4704 -0.1164
  935MPD2    N113737   3.003   1.969   0.353  0.1547  0.7002 -0.5779
  935MPD2    H713738   2.913   1.998   0.390  0.1534 -0.9943  0.7242
  936MPD2     C13739   1.458   0.116  12.097  0.9302 -0.1183  0.5011
  936MPD2    C113740   1.512   0.120  12.224 -0.2664  0.0508  0.1440
  936MPD2    C213741   1.585   0.227  12.267  0.9246 -0.2508 -0.3715
  936MPD2    C313742   1.599   0.336  12.185  0.1200  0.7964  0.0517
  936MPD2    C413743   1.547   0.333  12.059 -0.4977 -0.7285  0.2389
  936MPD2    C513744   1.489   0.223  12.014 -0.3012  0.7954 -0.5870
  936MPD2     H13745   1.624   0.217  12.368 -2.1212  2.4249  1.0612
  936MPD2    H113746   1.545   0.417  11.990  1.8179 -1.2958 -0.4995
  936MPD2    H213747   1.402   0.033  12.057 -2.4725  1.9916  0.8660
  936MPD2    H313748   1.458   0.209  11.911 -0.6603 -0.9971 -0.2288
  936MPD2     N13749   1.658   0.450  12.246  0.0838  0.1450  0.2579
  936MPD2    H513750   1.675   0.449  12.346  0.5250  0.6013  0.1841
  936MPD2    N113751   1.503   0.013  12.313  0.3774  0.4757  0.1391
  936MPD2    H713752   1.550   0.029  12.402  2.4830 -1.4795 -0.5979
  937MPD2     C13753   4.264   1.006  11.505  0.3831  0.2355  0.4400
  937MPD2    C113754   4.321   1.129  11.494 -0.0010 -0.6170 -0.3679
  937MPD2    C213755   4.428   1.149  11.409 -0.6792  0.5196  0.8605
  937MPD2    C313756   4.493   1.040  11.348 -0.0720 -0.0849 -0.1854
  937MPD2    C413757   4.435   0.914  11.371  0.0107 -0.4664  0.0642
  937MPD2    C513758   4.320   0.898  11.444  0.0054 -0.5318 -0.1010
  937MPD2     H13759   4.443   1.254  11.388 -1.0014  0.6000  1.0405
  937MPD2    H113760   4.479   0.819  11.342  1.3714  0.2696 -0.2877
  937MPD2    H213761   4.173   0.997  11.564  1.2872 -2.0806  1.4793
  937MPD2    H313762   4.272   0.801  11.447 -0.7909 -0.1595 -0.8590
  937MPD2     N13763   4.611   1.070  11.275  0.4818 -0.5473  0.1861
  937MPD2    H513764   4.670   1.150  11.297 -0.2519  0.4678 -1.5189
  937MPD2    N113765   4.264   1.244  11.550  0.0325 -0.0358  0.5541
  937MPD2    H713766   4.307   1.334  11.532  0.4747 -0.2412  0.5804
  938MPD2     C13767   2.607   1.835   0.617 -0.4914 -0.3991  0.1892
  938MPD2    C113768   2.508   1.931   0.617  0.3695 -0.7950  0.3775
  938MPD2    C213769   2.385   1.910   0.686  0.1477  0.1605 -0.3832
  938MPD2    C313770   2.372   1.805   0.773  0.6368  0.2569  0.1613
  938MPD2    C413771   2.476   1.719   0.785  0.0604  0.6378 -0.0924
  938MPD2    C513772   2.583   1.729   0.698 -0.6249 -0.7544 -0.1175
  938MPD2     H13773   2.304   1.978   0.663 -0.2533 -0.4835 -0.8938
  938MPD2    H113774   2.460   1.633   0.850 -1.6315  0.8077 -0.2654
  938MPD2    H213775   2.696   1.827   0.555 -0.0060 -0.1761  0.8663
  938MPD2    H313776   2.653   1.646   0.703 -0.3232 -0.5444 -0.8428
  938MPD2     N13777   2.255   1.778   0.846  0.0067 -0.0792  0.1862
  938MPD2    H513778   2.266   1.693   0.900  2.4570  1.2874  1.8523
  938MPD2    N113779   2.506   2.049   0.533  0.2760 -0.4480  0.2455
  938MPD2    H713780   2.428   2.112   0.546  0.2129 -0.0835 -1.8809
  939MPD2     C13781   3.191   3.106  17.453 -0.0192 -0.1178 -0.4700
  939MPD2    C113782   3.310   3.181  17.456  0.4846 -1.0091  0.6798
  939MPD2    C213783   3.432   3.113  17.434  0.2187 -0.0233  0.5438
  939MPD2    C313784   3.434   2.978  17.398 -0.1336 -0.1014  0.2336
  939MPD2    C413785   3.317   2.909  17.388  0.1675  0.1729 -0.0377
  939MPD2    C513786   3.201   2.975  17.403 -0.0893 -0.4250  0.6579
  939MPD2     H13787   3.528   3.163  17.438 -2.1929  4.6885 -0.3647
  939MPD2    H113788   3.308   2.802  17.371  3.1396 -0.2573  1.0742
  939MPD2    H213789   3.094   3.153  17.463 -0.6569 -1.0797 -2.2135
  939MPD2    H313790   3.105   2.925  17.399  0.3561 -1.2623  0.5345
  939MPD2     N13791   3.557   2.910  17.396  0.0347  0.0571 -0.2147
  939MPD2    H513792   3.641   2.967  17.397 -0.5485  0.9577 -2.0378
  939MPD2    N113793   3.303   3.317  17.495 -0.4157  0.0543 -0.0775
  939MPD2    H713794   3.209   3.347  17.520 -0.3594 -0.3644  0.6141
  940MPD2     C13795   2.184   4.426  12.967 -0.4035 -0.4959  0.6173
  940MPD2    C113796   2.069   4.458  12.907  0.0330 -0.1037 -0.6958
  940MPD2    C213797   2.061   4.450  12.764 -0.6427  0.7035 -0.0554
  940MPD2    C313798   2.166   4.414  12.684  1.5298 -0.1281  0.2981
  940MPD2    C413799   2.286   4.398  12.752 -0.0862 -0.0086  0.1982
  940MPD2    C513800   2.291   4.396  12.891  0.0682  0.1030  0.1829
  940MPD2     H13801   1.960   4.469  12.729 -1.0573 -0.3137  0.6184
  940MPD2    H113802   2.386   4.375  12.715  0.5296  1.1093  1.1474
  940MPD2    H213803   2.206   4.439  13.072 -0.2032 -2.1574  0.7738
  940MPD2    H313804   2.388   4.371  12.934  0.1011  0.2984  0.2253
  940MPD2     N13805   2.153   4.407  12.539  0.9261  0.2971 -0.1211
  940MPD2    H513806   2.238   4.390  12.485  0.4103 -1.6025 -0.3662
  940MPD2    N113807   1.954   4.492  12.977  0.6271  0.3416 -0.0993
  940MPD2    H713808   1.872   4.520  12.924  1.2856  1.7525 -0.3727
  941MPD2     C13809   1.427   3.974  10.141  0.0899 -0.5679 -0.2843
  941MPD2    C113810   1.538   3.944  10.218  0.5161  0.8027  0.2528
  941MPD2    C213811   1.529   3.840  10.312 -0.2217  0.1700  0.3941
  941MPD2    C313812   1.409   3.766  10.315  0.5873  0.3529  0.2527
  941MPD2    C413813   1.296   3.797  10.238  0.1719  0.3231 -0.6252
  941MPD2    C513814   1.313   3.907  10.153 -0.2850  0.3526 -0.9010
  941MPD2     H13815   1.612   3.826  10.381 -0.6368 -0.5357  0.7610
  941MPD2    H113816   1.205   3.739  10.237 -1.3055  2.6314 -0.1099
  941MPD2    H213817   1.428   4.054  10.067  0.2315  0.2260  0.5746
  941MPD2    H313818   1.232   3.931  10.085 -0.7357 -0.2378 -0.5830
  941MPD2     N13819   1.402   3.663  10.411 -0.3388  0.0146 -0.5170
  941MPD2    H513820   1.309   3.634  10.436 -0.4623 -0.2166 -1.2284
  941MPD2    N113821   1.658   4.018  10.212  0.5250  0.1618  0.5644
  941MPD2    H713822   1.729   3.988  10.278  0.0314 -0.6059  0.7487
  942MPD2     C13823   1.449   0.253   9.358 -0.1126  0.3785  0.3748
  942MPD2    C113824   1.364   0.358   9.351 -0.6489 -0.8407  0.5337
  942MPD2    C213825   1.399   0.492   9.357  0.0275  1.1054 -0.3543
  942MPD2    C313826   1.534   0.523   9.378  0.6536  0.9925 -0.5537
  942MPD2    C413827   1.623   0.422   9.389  0.1527 -0.1858 -0.4620
  942MPD2    C513828   1.580   0.290   9.380  0.5095  0.5573  0.4502
  942MPD2     H13829   1.325   0.571   9.351 -0.6174  0.4417 -1.1821
  942MPD2    H113830   1.729   0.436   9.408 -0.2301  0.4853  1.2078
  942MPD2    H213831   1.420   0.149   9.348  0.8942  0.2383 -1.0312
  942MPD2    H313832   1.657   0.215   9.395  1.4880  1.0411 -2.0348
  942MPD2     N13833   1.578   0.651   9.405  0.2704  0.0006 -0.3308
  942MPD2    H513834   1.677   0.654   9.428  0.4324  1.1888 -1.1817
  942MPD2    N113835   1.236   0.332   9.305 -0.8443 -0.2764 -0.1323
  942MPD2    H713836   1.183   0.400   9.252  0.2474 -0.1707 -1.0918
  943MPD2     C13837   0.352   3.591   9.361 -0.0745 -0.2228 -0.1683
  943MPD2    C113838   0.298   3.501   9.451  0.1166 -0.0907  0.1787
  943MPD2    C213839   0.334   3.509   9.587 -0.9686  0.4389  0.1547
  943MPD2    C313840   0.424   3.613   9.628  0.2843  0.2171  0.2483
  943MPD2    C413841   0.469   3.703   9.536  0.3582  0.7076 -0.2376
  943MPD2    C513842   0.441   3.687   9.404  0.0945 -1.0199 -0.0579
  943MPD2     H13843   0.303   3.439   9.664 -2.4634  0.0188 -0.8419
  943MPD2    H113844   0.521   3.794   9.564  1.5822 -0.5853  1.6914
  943MPD2    H213845   0.335   3.577   9.255 -0.2541 -1.8376  0.0792
  943MPD2    H313846   0.475   3.756   9.327 -0.5626  0.8588  1.3412
  943MPD2     N13847   0.458   3.640   9.761  0.0633 -0.5032  0.4929
  943MPD2    H513848   0.510   3.724   9.784  1.2127 -1.1557  0.3199
  943MPD2    N113849   0.204   3.408   9.400  0.0467 -0.1146  0.5895
  943MPD2    H713850   0.194   3.416   9.299 -0.5761  2.9040  0.8952
  944MPD2     C13851   4.432   2.969  10.625 -0.5605  0.0882  0.4746
  944MPD2    C113852   4.493   2.933  10.742 -0.2947 -0.4030  0.3626
  944MPD2    C213853   4.463   3.006  10.857  0.0454 -0.1952 -0.0448
  944MPD2    C313854   4.368   3.109  10.853 -0.3063  0.6291 -0.3411
  944MPD2    C413855   4.309   3.141  10.731 -0.0908  0.0088  0.9528
  944MPD2    C513856   4.337   3.068  10.618 -0.3431  0.6326  0.0785
  944MPD2     H13857   4.520   2.984  10.947  0.4177  0.9230 -0.0055
  944MPD2    H113858   4.235   3.220  10.726  0.4246  0.3322 -1.2486
  944MPD2    H213859   4.451   2.920  10.530  0.4205 -0.8282  1.1367
  944MPD2    H313860   4.296   3.084  10.519  0.0614 -0.0186 -0.1921
  944MPD2     N13861   4.356   3.184  10.972  0.2860  0.6779  0.3628
  944MPD2    H513862   4.417   3.157  11.049  0.4752  2.4446  0.8372
  944MPD2    N113863   4.590   2.832  10.728 -0.0447  0.2880  0.6463
  944MPD2    H713864   4.612   2.805  10.633 -0.2894 -2.4682  1.3635
    1TMC1    C113865   2.972   3.160  14.219 -0.2764  0.2056 -0.1413
    1TMC1    C213866   2.845   3.149  14.169  0.1473  0.0323  0.3350
    1TMC1    C313867   2.806   3.024  14.133  0.4468  0.1114  0.1555
    1TMC1    C413868   3.058   3.051  14.234  0.1459 -0.4913  0.2258
    1TMC1    C513869   3.014   2.929  14.186  0.3165  0.1901 -0.1824
    1TMC1    C613870   2.891   2.919  14.133  0.5220 -0.3044 -0.9779
    1TMC1     C13871   3.015   3.288  14.264  0.1821 -0.1559  0.6886
    1TMC1     O13872   3.092   3.296  14.358 -0.2370  0.1721 -0.2040
    1TMC1     H13873   2.774   3.230  14.179  3.4223  3.2250 -2.7683
    1TMC1    H113874   3.160   3.067  14.268  0.9840  0.9941 -2.9730
    1TMC1    H213875   2.862   2.817  14.111 -0.0110 -0.5005  0.6736
    1TMC1    C713876   3.093   2.811  14.221 -0.1167  0.0453 -0.0281
    1TMC1    C813877   2.659   3.006  14.135 -0.7364 -0.4282 -0.2742
    1TMC1    O113878   3.166   2.804  14.314 -0.2487  0.2247 -0.5162
    1TMC1    O213879   2.601   2.906  14.170 -0.0495 -0.2099 -0.3574
    1TMC1    O313880   3.120   2.764  14.098  0.3187  0.1979  0.9524
    1TMC1    H313881   3.056   2.784  14.026  2.8889  0.7797 -1.1451
    1TMC1    O513882   2.598   3.121  14.111  0.5064  0.0529  0.0816
    1TMC1    H513883   2.657   3.175  14.055 -0.4236  0.1060 -0.8452
    2MPD2     C13884   2.910   3.789  14.292  0.0942  0.3580 -0.4667
    2MPD2    C113885   2.899   3.746  14.158  0.8597  0.2477 -0.4083
    2MPD2    C213886   2.919   3.614  14.127 -0.1222  0.2263 -0.4329
    2MPD2    C313887   2.951   3.520  14.230 -0.2413 -0.2064 -0.2947
    2MPD2    C413888   2.960   3.565  14.361  0.3220 -0.4404 -0.4302
    2MPD2    C513889   2.944   3.697  14.387  0.3880 -0.1349 -0.2379
    2MPD2     H13890   2.906   3.586  14.023  2.1013 -5.2677  0.7813
    2MPD2    H113891   2.977   3.495  14.442 -1.1437  0.5388  0.7190
    2MPD2    H213892   2.906   3.894  14.317  1.2489  0.3061 -0.0782
    2MPD2    H313893   2.939   3.720  14.493 -0.1659 -1.6701  0.0680
    2MPD2     N13894   2.957   3.387  14.195  0.3397 -1.0829 -0.2311
    2MPD2    H513895   2.925   3.364  14.101 -0.7418  1.8165 -0.5804
    2MPD2    N113896   2.875   3.847  14.064 -0.1855 -0.0217  1.0806
    2MPD2    H713897   2.877   3.942  14.100  1.9951 -0.1105  1.1521
    3TMC2    C113898   2.837   3.959  13.868  0.1353  0.8400  0.2324
    3TMC2    C213899   2.794   4.064  13.940 -0.1924 -0.3695 -0.0819
    3TMC2    C313900   2.781   4.179  13.865 -0.7827 -0.0082 -0.0923
    3TMC2    C413901   2.847   3.951  13.733  0.3447  0.0105 -0.9101
    3TMC2    C513902   2.822   4.062  13.660 -0.6079 -0.4763 -0.1273
    3TMC2    C613903   2.801   4.182  13.727  0.2991  0.3055  0.1771
    3TMC2     C13904   2.866   3.833  13.929  0.4468 -0.2192  0.1166
    3TMC2     O13905   2.866   3.731  13.860 -0.3804  0.3709 -0.1538
    3TMC2     H13906   2.789   4.074  14.048 -0.1620  0.1283 -0.1241
    3TMC2    H113907   2.871   3.859  13.680 -0.0230 -0.6304  0.0415
    3TMC2    H213908   2.821   4.273  13.672  1.1880  0.1882  0.3080
    3TMC2    C713909   2.818   4.047  13.515  0.0603  0.2346  0.1281
    3TMC2    C813910   2.726   4.293  13.935 -0.2278 -0.6395  0.0251
    3TMC2    O113911   2.871   3.947  13.470  0.0629  0.4445  0.2473
    3TMC2    O213912   2.701   4.295  14.059 -0.6701  0.3840  0.2027
    3TMC2    O513913   2.738   4.396  13.851  0.3756  0.0886 -0.2192
    3TMC2    H513914   2.731   4.368  13.757  1.8199 -1.9083  0.2519
    4TMC2    C113915   2.394   0.095  13.072  0.1054  0.6158  0.2465
    4TMC2    C213916   2.368   0.084  12.938 -0.5914 -0.1720 -0.3742
    4TMC2    C313917   2.429   4.723  12.873 -0.7426  0.6332  0.1502
    4TMC2    C413918   2.478   0.005  13.129  0.0739 -0.8361  0.6818
    4TMC2    C513919   2.515   4.636  13.055 -0.6485  0.3355 -0.6889
    4TMC2    C613920   2.509   4.631  12.925 -0.0258 -0.6484  0.2989
    4TMC2     C13921   2.293   0.145  13.161 -0.0037 -0.0299  0.2830
    4TMC2     O13922   2.254   0.078  13.256  0.4419  0.3510  0.3073
    4TMC2     H13923   2.303   0.152  12.884 -0.5247  1.0221  1.0543
    4TMC2    H113924   2.491   4.734  13.236 -0.0519 -0.3012  0.7592
    4TMC2    H213925   2.542   4.546  12.867  0.9676 -1.0137  1.3804
    4TMC2    C713926   2.565   4.521  13.143 -0.5814 -0.1365 -0.3999
    4TMC2    C813927   2.395   4.717  12.732  0.7915  0.4059  0.2450
    4TMC2    O113928   2.531   4.524  13.260  0.6859 -0.1425 -0.1291
    4TMC2    O213929   2.281   4.729  12.693 -0.4092 -0.4099 -0.2232
    4TMC2    O513930   2.507   4.710  12.659  0.2849 -0.3645  0.1755
    4TMC2    H513931   2.592   4.726  12.706  1.6202  0.5848 -2.5685
    5MPD2     C13932   1.965   0.486  13.330 -0.0225 -0.0350 -0.2262
    5MPD2    C113933   1.992   0.519  13.203 -0.5324  0.1947  0.6934
    5MPD2    C213934   2.093   0.452  13.135  0.6076 -0.4874 -0.4837
    5MPD2    C313935   2.148   0.341  13.199  0.1696  0.4394 -0.4380
    5MPD2    C413936   2.125   0.315  13.331  0.3050 -0.4256  0.6393
    5MPD2    C513937   2.028   0.384  13.392  0.0208 -0.2115  0.0726
    5MPD2     H13938   2.117   0.463  13.030 -1.6880  2.3091 -0.7123
    5MPD2    H113939   2.179   0.243  13.391  2.4758  1.1745  0.5800
    5MPD2    H213940   1.884   0.531  13.386 -1.0268 -0.1906 -1.5585
    5MPD2    H313941   2.007   0.366  13.497 -1.1754  2.7063  0.3401
    5MPD2     N13942   2.238   0.269  13.123  0.1334 -0.4006 -0.2869
    5MPD2    H513943   2.270   0.308  13.034  0.4909 -1.3972 -0.5948
    5MPD2    N113944   1.915   0.626  13.150  0.2945 -0.3571 -0.1250
    5MPD2    H713945   1.836   0.658  13.206 -0.2668  0.0849 -1.1688
    6MPD1     C13946   0.977   2.059  13.605 -0.2551 -0.0844 -0.2995
    6MPD1    C113947   1.007   2.096  13.477  0.0049  0.5596 -0.3062
    6MPD1    C213948   1.091   2.016  13.392  0.5623 -0.5498 -0.5420
    6MPD1    C313949   1.152   1.908  13.458 -0.1274  0.4314  1.0023
    6MPD1    C413950   1.110   1.868  13.585 -0.0305 -0.0332  0.5437
    6MPD1    C513951   1.025   1.942  13.657 -0.4569 -0.4054  0.3215
    6MPD1     H13952   1.119   2.043  13.291 -1.2686 -0.6314 -1.0651
    6MPD1    H113953   1.149   1.771  13.614  1.4841 -0.2787 -2.3066
    6MPD1    H213954   0.905   2.112  13.666  1.8457  0.0275  2.0803
    6MPD1    H313955   1.000   1.908  13.757 -2.4000 -3.2291 -1.1110
    6MPD1     N13956   1.257   1.832  13.396 -0.0278 -0.1252 -0.1196
    6MPD1    H513957   1.289   1.747  13.440  0.1332  0.9435  1.8245
    6MPD1    N113958   0.946   2.212  13.428  1.2634  0.6352 -0.2626
    6MPD1    H613959   0.855   2.229  13.471  0.9119 -4.2848  0.8564
    6MPD1    H713960   0.919   2.201  13.330 -1.7901  3.3365  0.2770
    7MPD2     C13961   1.667   1.258  13.554 -0.1819 -0.5748 -0.1922
    7MPD2    C113962   1.625   1.287  13.424 -0.2715  0.1815 -0.4659
    7MPD2    C213963   1.601   1.192  13.333 -0.0262 -0.0149 -0.2050
    7MPD2    C313964   1.619   1.056  13.365  0.0425 -0.1105 -0.2142
    7MPD2    C413965   1.669   1.027  13.486 -0.4522  0.4357 -0.1961
    7MPD2    C513966   1.682   1.123  13.579  0.2091  0.0636 -0.3709
    7MPD2     H13967   1.568   1.231  13.237  1.1510  0.4192 -0.4301
    7MPD2    H113968   1.686   0.925  13.518  0.0860  0.6559  0.2143
    7MPD2    H213969   1.690   1.335  13.626 -0.0588 -2.0576  1.3534
    7MPD2    H313970   1.716   1.091  13.677  0.0269 -0.9585 -0.6417
    7MPD2     N13971   1.618   0.953  13.271 -0.2161 -0.0334  0.3441
    7MPD2    H513972   1.654   0.865  13.306  0.7605 -0.5405 -2.0034
    7MPD2    N113973   1.601   1.415  13.365  0.3075 -0.1498 -0.2503
    7MPD2    H713974   1.575   1.415  13.267  0.2396 -1.5628 -0.2325
    8TMC3    C113975   1.619   0.861  13.064 -0.3266 -0.4985  0.4544
    8TMC3    C213976   1.745   0.806  13.097  0.5099  0.2845  0.2768
    8TMC3    C313977   1.819   0.763  12.989 -0.0278  0.6661  0.4337
    8TMC3    C413978   1.585   0.872  12.934  0.7706  0.5915 -0.9275
    8TMC3    C513979   1.671   0.844  12.833  0.0848  0.0858  0.4369
    8TMC3    C613980   1.791   0.773  12.854 -0.5249 -0.1571  0.9104
    8TMC3     C13981   1.579   0.974  13.145  0.4408  0.1689  0.1470
    8TMC3     O13982   1.539   1.071  13.079 -0.2689  0.5949  0.9341
    8TMC3     H13983   1.798   0.825  13.190  1.9247  2.9403 -1.0592
    8TMC3    H113984   1.489   0.917  12.912  0.5880  0.9395  0.5867
    8TMC3    H213985   1.866   0.756  12.778 -1.1233  2.3839 -0.2551
    8TMC3    C713986   1.692   0.970  12.754  0.6902 -0.7304 -0.0521
    8TMC3    C813987   1.921   0.667  13.022  0.3884 -0.9106 -0.0965
    8TMC3    O113988   1.769   0.954  12.659 -0.0265  0.3780 -0.3754
    8TMC3    O213989   1.989   0.625  12.926 -0.3980 -0.1540 -0.7535
    9TMC3    C113990   1.443   1.786  13.256 -0.1484 -0.1599  0.8064
    9TMC3    C213991   1.493   1.781  13.131 -0.4673  0.2327  1.0186
    9TMC3    C313992   1.601   1.701  13.106 -0.2926  0.0587  0.2137
    9TMC3    C413993   1.498   1.728  13.363 -0.3743 -0.0746  0.0069
    9TMC3    C513994   1.593   1.640  13.329  0.1476  0.0200 -0.5287
    9TMC3    C613995   1.642   1.613  13.201 -0.1924  0.2293 -0.0087
    9TMC3     C13996   1.316   1.857  13.273  0.7922  0.2752  0.2968
    9TMC3     O13997   1.280   1.937  13.190  0.3797  0.1680  0.1389
    9TMC3     H13998   1.442   1.838  13.054  0.9341  0.1118  0.0062
    9TMC3    H113999   1.457   1.724  13.464  0.2910 -1.0993  0.2403
    9TMC3    H214000   1.714   1.533  13.188 -1.3011 -0.5313 -1.3493
    9TMC3    C714001   1.621   1.539  13.422  0.4945 -0.2086  0.2721
    9TMC3    C814002   1.626   1.660  12.969 -0.3394 -0.3204 -0.2837
    9TMC3    O114003   1.625   1.568  13.543  0.8849  0.1089 -0.2555
    9TMC3    O214004   1.639   1.739  12.874 -0.2645  0.0813 -0.5419
   10MPD2     C14005   1.752   1.252  12.671 -0.3916 -0.0856  0.0805
   10MPD2    C114006   1.673   1.214  12.776 -0.3150 -0.2265 -0.2488
   10MPD2    C214007   1.630   1.305  12.870 -0.6124 -0.0987 -0.3496
   10MPD2    C314008   1.659   1.441  12.858  0.2403 -0.1414 -0.0015
   10MPD2    C414009   1.732   1.483  12.741 -1.0851  0.1015 -0.2571
   10MPD2    C514010   1.768   1.383  12.652 -0.0191 -0.0677 -0.1101
   10MPD2     H14011   1.575   1.268  12.956  2.2466 -0.9889  1.1296
   10MPD2    H114012   1.753   1.587  12.719 -0.5268  0.3512  1.5104
   10MPD2    H214013   1.799   1.181  12.604 -2.4331 -1.0728 -0.3248
   10MPD2    H314014   1.828   1.405  12.564 -1.4159 -1.4566 -1.4012
   10MPD2     N14015   1.619   1.524  12.967 -0.2684 -0.1745  0.0701
   10MPD2    H514016   1.573   1.475  13.043 -1.4809  0.9587  0.0664
   10MPD2    N114017   1.641   1.083  12.810 -0.5213 -0.0626 -0.1064
   10MPD2    H714018   1.589   1.078  12.898 -0.5986 -1.6947 -0.2468
   11MPD2     C14019   2.803   4.076  13.228  0.2222  0.2355  0.7955
   11MPD2    C114020   2.756   4.170  13.316  0.0592 -0.5215 -0.3347
   11MPD2    C214021   2.686   4.273  13.257  0.3041  0.4058  0.1951
   11MPD2    C314022   2.693   4.307  13.121  0.1346  0.3193  0.0331
   11MPD2    C414023   2.751   4.213  13.039  0.2744 -0.7548 -0.1126
   11MPD2    C514024   2.803   4.103  13.091 -0.1248 -0.1590 -0.7269
   11MPD2     H14025   2.632   4.333  13.329 -0.1654  1.5006 -1.0746
   11MPD2    H114026   2.763   4.233  12.933  0.3302  0.5954  0.1426
   11MPD2    H214027   2.863   3.990  13.254  0.8490  0.1308 -0.9785
   11MPD2    H314028   2.850   4.031  13.025  0.6571 -0.8784  0.6047
   11MPD2     N14029   2.634   4.424  13.071 -0.3090 -0.3318  0.3775
   11MPD2    H514030   2.651   4.444  12.973  0.6809  0.0288  0.6166
   11MPD2    N114031   2.763   4.158  13.452  0.7496  0.6377  0.3757
   11MPD2    H714032   2.727   4.235  13.507 -0.1107  1.2983 -1.0839
    1MPD1     C14033   1.645   1.083  17.518  0.5295 -0.5119 -0.5441
    1MPD1    C114034   1.642   1.109  17.384  0.6771 -0.7036  0.1075
    1MPD1    C214035   1.517   1.095  17.314 -0.8000 -0.0898 -0.5516
    1MPD1    C314036   1.400   1.074  17.385  0.5324  0.0426 -0.0696
    1MPD1    C414037   1.405   1.079  17.521  0.3256  0.2575  0.5705
    1MPD1    C514038   1.526   1.074  17.590  0.3297  0.2082 -0.0807
    1MPD1     H14039   1.515   1.099  17.206 -1.3862 -0.8160 -0.5729
    1MPD1    H114040   1.317   1.076  17.584 -0.7232  1.4064 -0.8450
    1MPD1    H214041   1.739   1.076  17.571  0.7467  1.7895 -0.6111
    1MPD1    H314042   1.516   1.058  17.697  0.0001  2.7448  0.2753
    1MPD1     N14043   1.275   1.061  17.315  0.6387  0.0371 -0.8867
    1MPD1    H514044   1.190   1.047  17.369  1.6481 -4.0503 -0.3996
    1MPD1    N114045   1.765   1.126  17.318 -0.4993 -0.6806 -0.6109
    1MPD1    H614046   1.759   1.187  17.237  0.5757  1.0957  0.6372
    1MPD1    H714047   1.845   1.155  17.374 -0.9601 -0.9375  0.1838
    2MPD1     C14048   0.869   1.431  16.484 -0.2324 -0.0109  0.1705
    2MPD1    C114049   0.985   1.435  16.548  0.3916 -0.2150 -0.2022
    2MPD1    C214050   1.014   1.341  16.641  0.2346 -0.3845 -0.2342
    2MPD1    C314051   0.926   1.245  16.681 -0.3538  0.1035 -0.2335
    2MPD1    C414052   0.802   1.247  16.624  0.4194 -0.4149 -0.3005
    2MPD1    C514053   0.782   1.334  16.522 -0.2128 -0.1847 -0.0054
    2MPD1     H14054   1.110   1.334  16.691 -0.1647  1.2744  0.7498
    2MPD1    H114055   0.724   1.184  16.664 -0.1920  0.1846 -0.5652
    2MPD1    H214056   0.844   1.487  16.394 -2.3928 -1.3793 -0.0809
    2MPD1    H314057   0.695   1.335  16.457 -2.0585  1.1934  2.5034
    2MPD1     N14058   0.965   1.167  16.797 -0.8312 -0.0259 -0.1297
    2MPD1    H514059   1.060   1.185  16.826 -1.5234 -1.1899  2.9030
    2MPD1    N114060   1.086   1.527  16.517  0.1433 -0.6446  0.0504
    2MPD1    H614061   1.170   1.494  16.564 -0.2831 -2.0048 -0.1507
    2MPD1    H714062   1.105   1.510  16.419  0.3661  0.6423 -0.1274
    3TMC3    C114063   0.945   1.016  16.986 -1.1989  0.5384  0.1949
    3TMC3    C214064   0.853   0.991  17.089 -0.1770  0.0358  0.3134
    3TMC3    C314065   0.907   0.966  17.214 -0.0136  1.1309 -0.7769
    3TMC3    C414066   1.079   1.018  17.011  0.4466 -0.0091  0.0428
    3TMC3    C514067   1.122   1.003  17.140 -0.1475 -0.5684  0.1060
    3TMC3    C614068   1.039   0.971  17.240 -0.1088  0.2844 -0.0527
    3TMC3     C14069   0.886   1.075  16.869  0.4331  0.7179  0.1906
    3TMC3     O14070   0.768   1.050  16.849 -0.3402  0.5767 -0.3303
    3TMC3     H14071   0.748   0.990  17.064  0.0204 -0.0033 -0.5093
    3TMC3    H114072   1.147   1.044  16.931  2.0620  0.2896  1.5112
    3TMC3    H214073   1.068   0.930  17.336 -0.2153 -1.9749 -0.9745
    3TMC3    C714074   1.257   1.053  17.175  0.3936 -0.3265 -0.6152
    3TMC3    C814075   0.817   0.953  17.324  0.0293  1.0681  0.1354
    3TMC3    O114076   1.325   1.090  17.082 -0.3177  1.0141 -0.6361
    3TMC3    O214077   0.856   0.980  17.437 -0.0645  0.4258 -0.0163
    4MPD1     C14078   0.352   0.865  17.506  0.3418 -0.2110 -0.2043
    4MPD1    C114079   0.361   0.804  17.382  0.0012  0.1925 -0.0712
    4MPD1    C214080   0.473   0.816  17.301 -0.4854  0.6000 -0.4100
    4MPD1    C314081   0.585   0.875  17.361  0.3971 -0.0728 -0.5392
    4MPD1    C414082   0.586   0.900  17.499 -0.0102  0.2905  0.2659
    4MPD1    C514083   0.467   0.906  17.566  0.5323 -0.2710 -0.2481
    4MPD1     H14084   0.478   0.790  17.196  0.4771  1.3247 -0.5424
    4MPD1    H114085   0.669   0.941  17.556 -0.1614 -0.6412  1.1657
    4MPD1    H214086   0.256   0.865  17.558 -0.2398  1.1564 -1.2725
    4MPD1    H314087   0.464   0.927  17.673 -3.2442 -1.2316 -0.1517
    4MPD1     N14088   0.703   0.900  17.285 -0.9647 -0.0966 -0.2918
    4MPD1    H514089   0.706   0.862  17.190  0.1354 -2.2117  0.5646
    4MPD1    N114090   0.247   0.755  17.320  0.4886 -0.3229 -0.4138
    4MPD1    H614091   0.170   0.744  17.386  1.5880 -0.6000  0.8320
    4MPD1    H714092   0.258   0.663  17.276 -0.8865 -0.6832 -0.0157
    1TCq1    O114093   1.676   1.377  11.474 -0.0380  1.1535  0.5611
    1TCq1    C114094   1.613   1.417  11.366  0.3245 -0.4310  0.0972
    1TCq1    O214095   1.578   1.529  11.345 -0.3152  0.3100 -0.0333
    1TCq1    C214096   1.613   1.311  11.266 -0.0676  0.5902 -0.5154
    1TCq1    C314097   1.612   1.177  11.301 -0.4925 -0.2243 -0.6568
    1TCq1    C414098   1.629   1.088  11.195  0.6279  0.1097 -0.1403
    1TCq1    C514099   1.704   1.134  11.088 -0.5003 -0.2362 -0.4813
    1TCq1    C614100   1.697   1.268  11.062  0.2243 -0.0276 -0.2367
    1TCq1    C714101   1.639   1.354  11.144 -0.3758 -0.6243  0.4198
    1TCq1    C814102   1.741   1.326  10.935 -0.1539 -0.3619 -0.8239
    1TCq1    O414103   1.700   1.439  10.906 -0.3381  0.0359  0.2063
    1TCq1    C914104   1.664   0.953  11.228  0.0284  0.5037  0.2265
    1TCq1    O514105   1.746   0.885  11.160  0.0386 -0.1242  0.0307
    1TCq1    O614106   1.655   0.916  11.347  0.2399  0.1922 -0.1111
    1TCq1    H114107   1.701   1.282  11.472  1.1779  1.4406  1.9389
    1TCq1    H214108   1.592   1.138  11.400 -1.4640 -0.3971 -0.9253
    1TCq1    H314109   1.743   1.064  11.014  1.1704  0.4639 -0.2618
    1TCq1    H414110   1.658   1.459  11.129 -0.9440 -0.5683  0.0721
    2MPD1     C14111   2.017   1.324  10.494 -0.4969  0.5821  0.8565
    2MPD1    C114112   2.053   1.217  10.573 -0.4858 -0.0341  0.8801
    2MPD1    C214113   1.979   1.191  10.690  0.5875  0.1916  0.4822
    2MPD1    C314114   1.885   1.280  10.736 -0.0912 -0.1981 -0.8098
    2MPD1    C414115   1.848   1.384  10.654 -0.1843  0.5003 -0.1039
    2MPD1    C514116   1.907   1.404  10.533 -0.7693 -1.1217  0.5434
    2MPD1     H14117   2.003   1.108  10.756  0.0565  0.7943  1.4305
    2MPD1    H114118   1.792   1.470  10.689 -0.0225 -0.0135  1.4147
    2MPD1    H214119   2.076   1.353  10.407 -0.6058 -0.1222  0.5417
    2MPD1    H314120   1.893   1.493  10.473  0.1050 -1.1310  0.3249
    2MPD1     N14121   1.832   1.246  10.866  0.0846  0.4068 -0.0298
    2MPD1    H514122   1.871   1.160  10.905 -0.8214  0.4937  1.0732
    2MPD1    N114123   2.143   1.127  10.525  0.0237 -0.0845 -0.4705
    2MPD1    H614124   2.181   1.058  10.590  0.5022  1.1383  0.5593
    2MPD1    H714125   2.227   1.168  10.484  0.8067 -0.8488  0.3668
    1TMC1    C114126   3.356   0.808   9.414  0.5368 -0.5081 -0.0673
    1TMC1    C214127   3.479   0.825   9.356  0.3764  0.2086 -0.9066
    1TMC1    C314128   3.517   0.964   9.342 -0.0263 -0.4441 -0.3439
    1TMC1    C414129   3.272   0.909   9.440 -0.1852  0.3007  0.1323
    1TMC1    C514130   3.317   1.035   9.428 -0.5188 -0.1619  0.3451
    1TMC1    C614131   3.440   1.062   9.384  0.1713  0.5246 -0.3656
    1TMC1     C14132   3.305   0.671   9.434  0.1602 -0.4002 -0.5041
    1TMC1     O14133   3.206   0.681   9.507 -0.2623 -0.6519  0.0463
    1TMC1     H14134   3.559   0.753   9.371 -0.3607 -0.2745  0.7352
    1TMC1    H114135   3.169   0.894   9.470 -0.5465  0.0242 -1.2579
    1TMC1    H214136   3.472   1.162   9.359 -1.0361  0.9034 -0.3671
    1TMC1    C714137   3.212   1.145   9.446 -0.2432 -0.5579  0.6777
    1TMC1    C814138   3.632   0.991   9.262 -0.6959 -0.3192 -0.3874
    1TMC1    O114139   3.100   1.132   9.493 -0.0933 -0.4333 -0.8175
    1TMC1    O214140   3.699   1.091   9.259  0.0423 -0.1611 -0.5683
    1TMC1    O314141   3.278   1.261   9.410 -0.5356  0.2584  0.2020
    1TMC1    H314142   3.212   1.333   9.410  0.7474  1.4351  0.3668
    1TMC1    O514143   3.657   0.880   9.192  0.2124 -0.7533  0.2908
    1TMC1    H514144   3.586   0.812   9.197  0.1654 -0.6183  1.3895
    2MPD1     C14145   3.280   0.156   9.386  0.7120 -0.5876  0.1824
    2MPD1    C114146   3.391   0.202   9.316 -0.4131  0.1504  0.3172
    2MPD1    C214147   3.410   0.343   9.307  0.0338  0.0367 -0.1683
    2MPD1    C314148   3.335   0.433   9.384  0.1561 -0.3822  0.0568
    2MPD1    C414149   3.229   0.382   9.463 -0.1172  0.2883 -0.0813
    2MPD1    C514150   3.207   0.245   9.462 -0.1153 -0.2810 -0.1330
    2MPD1     H14151   3.485   0.382   9.239 -0.1658  0.0384 -0.3855
    2MPD1    H114152   3.159   0.444   9.518 -0.5068  0.1639 -0.4365
    2MPD1    H214153   3.256   0.051   9.394  0.5131 -0.4940  0.8009
    2MPD1    H314154   3.124   0.218   9.527  0.5861 -2.3741 -0.0926
    2MPD1     N14155   3.377   0.568   9.377  0.2762 -0.1181 -0.2840
    2MPD1    H514156   3.454   0.585   9.314 -0.1616 -0.1293 -0.8164
    2MPD1    N114157   3.471   0.116   9.236  0.6653  0.0893  0.2398
    2MPD1    H614158   3.466   0.018   9.263 -0.7700  0.6512  1.9928
    2MPD1    H714159   3.566   0.153   9.238  0.7864 -0.1303 -1.6854
    1MPD1     C14160   3.408   0.511  11.059  0.3203 -0.1551 -0.6831
    1MPD1    C114161   3.526   0.494  11.126  0.4224  0.3339  0.3163
    1MPD1    C214162   3.582   0.591  11.208  0.3381  0.3618 -1.0076
    1MPD1    C314163   3.528   0.713  11.220 -0.4244  0.1775  0.5645
    1MPD1    C414164   3.409   0.732  11.150 -0.1477  0.2429  0.0506
    1MPD1    C514165   3.353   0.640  11.069  0.3241  0.5684 -0.1520
    1MPD1     H14166   3.669   0.570  11.270 -0.1448  0.9282 -0.1427
    1MPD1    H114167   3.369   0.831  11.130  2.3691  1.3651  0.5050
    1MPD1    H214168   3.360   0.434  10.999  1.0021 -0.8237 -0.3636
    1MPD1    H314169   3.263   0.658  11.010 -0.0378 -0.9878 -0.0830
    1MPD1     N14170   3.594   0.812  11.294 -0.4032  0.2650 -0.3056
    1MPD1    H514171   3.681   0.777  11.334 -0.6965  0.4591  0.5076
    1MPD1    N114172   3.579   0.365  11.128  0.4230  0.4779  0.1301
    1MPD1    H614173   3.663   0.360  11.185 -1.3665  0.9380  2.7732
    1MPD1    H714174   3.605   0.351  11.030  2.3857  1.5927  0.4859
    2MPD1     C14175   2.944   1.492  11.491  0.2301  0.5286 -0.5055
    2MPD1    C114176   2.946   1.377  11.424 -0.2244  0.2780  0.2467
    2MPD1    C214177   2.985   1.396  11.291  0.5351  0.0296  0.3032
    2MPD1    C314178   3.013   1.520  11.234  0.3870 -0.0146 -0.6062
    2MPD1    C414179   3.006   1.634  11.310  0.4664 -0.2922  0.5917
    2MPD1    C514180   2.959   1.617  11.440 -0.1144 -0.2696  0.2008
    2MPD1     H14181   3.004   1.307  11.232 -1.0827 -0.2990  0.2485
    2MPD1    H114182   3.019   1.734  11.269 -1.7596 -0.5017 -0.5979
    2MPD1    H214183   2.917   1.490  11.596 -1.9099  0.2823 -1.0577
    2MPD1    H314184   2.933   1.709  11.491  0.1417  0.2021 -0.5173
    2MPD1     N14185   3.053   1.531  11.095 -0.5500 -0.0802 -0.1247
    2MPD1    H514186   3.089   1.623  11.072 -0.9150  0.1782  0.3545
    2MPD1    N114187   2.963   1.250  11.477 -0.5052  0.3384 -0.2735
    2MPD1    H614188   2.902   1.236  11.557 -0.5917  0.4928 -0.3133
    2MPD1    H714189   2.941   1.176  11.410 -0.1495  1.2994 -1.4516
    3MPD1     C14190   2.791   1.065  10.270  0.0545 -0.7999  0.3807
    3MPD1    C114191   2.738   1.056  10.399 -0.4248 -0.0835 -1.4504
    3MPD1    C214192   2.821   1.100  10.498 -0.9649  0.6864 -0.1327
    3MPD1    C314193   2.950   1.146  10.476 -1.2166  0.8966  0.6820
    3MPD1    C414194   3.003   1.137  10.348 -0.2545 -0.2940  0.5731
    3MPD1    C514195   2.916   1.103  10.249  0.6001  0.3497 -0.4201
    3MPD1     H14196   2.788   1.105  10.601  1.9334 -1.7239  0.9278
    3MPD1    H114197   3.098   1.177  10.314 -0.1326 -0.2176  1.0055
    3MPD1    H214198   2.726   1.035  10.188 -0.5689  1.0752  0.1816
    3MPD1    H314199   2.948   1.128  10.149  1.5777 -1.6430 -0.6103
    3MPD1     N14200   3.018   1.218  10.578 -0.2733 -0.3443 -0.4649
    3MPD1    H514201   2.977   1.226  10.671  0.6700  1.9279 -0.2389
    3MPD1    N114202   2.610   1.005  10.424  0.1216  0.2035 -1.4502
    3MPD1    H614203   2.546   1.069  10.472  0.2054  0.1328 -1.2467
    3MPD1    H714204   2.565   1.001  10.332  0.7736 -1.1029 -1.7028
    4MPD2     C14205   3.656   1.633  11.618 -0.1422  0.5814 -0.2427
    4MPD2    C114206   3.744   1.553  11.553 -0.0388 -0.0079 -0.2869
    4MPD2    C214207   3.853   1.612  11.484 -0.8943  0.1880  0.0044
    4MPD2    C314208   3.882   1.748  11.485 -0.4212  0.5316 -0.2071
    4MPD2    C414209   3.791   1.823  11.558  0.0239  0.1054 -0.4519
    4MPD2    C514210   3.678   1.764  11.616  0.0291 -0.2595  0.3591
    4MPD2     H14211   3.917   1.553  11.419  0.2119  1.5429 -0.1215
    4MPD2    H114212   3.807   1.930  11.563  0.5432 -0.0671  1.3588
    4MPD2    H214213   3.573   1.600  11.680 -1.3115 -0.3002 -2.2770
    4MPD2    H314214   3.608   1.828  11.667 -0.0811 -0.2702  0.2210
    4MPD2     N14215   3.975   1.817  11.402 -0.1307 -0.0710  0.1220
    4MPD2    H514216   3.962   1.917  11.390 -0.1426 -0.4081 -2.8431
    4MPD2    N114217   3.731   1.415  11.539  0.5269 -0.2119 -0.4719
    4MPD2    H714218   3.806   1.364  11.494  3.3282  2.1303  1.5892
    5TMC3    C114219   3.667   1.203  11.549  0.2843  0.9023  0.5204
    5TMC3    C214220   3.584   1.124  11.475 -0.1131 -0.0993  0.4333
    5TMC3    C314221   3.632   1.034  11.387 -0.3391  0.0703  0.1627
    5TMC3    C414222   3.804   1.183  11.546  0.0540  0.5021 -0.0970
    5TMC3    C514223   3.852   1.094  11.449  0.1854  0.0916 -0.4626
    5TMC3    C614224   3.769   1.026  11.367  0.3700  0.1122 -0.1217
    5TMC3     C14225   3.631   1.338  11.580 -0.2911 -0.4866 -0.7574
    5TMC3     O14226   3.512   1.359  11.593  0.2889  0.4870  0.4006
    5TMC3     H14227   3.478   1.141  11.480 -0.2612 -0.7943 -0.3141
    5TMC3    H114228   3.873   1.227  11.618 -1.2561 -2.3586  2.8981
    5TMC3    H214229   3.821   0.956  11.303  3.3224 -0.0701  2.4584
    5TMC3    C714230   3.955   1.179  11.381 -0.3909 -0.7570  1.0882
    5TMC3    C814231   3.542   0.939  11.321 -0.1581  0.4346  0.3781
    5TMC3    O114232   3.955   1.301  11.407 -0.3598 -0.3902  0.3918
    5TMC3    O214233   3.428   0.981  11.305  0.4958  0.1706  0.5697
    6TMC3    C114234   3.117   1.451  10.888  0.6109  0.3372  0.4194
    6TMC3    C214235   3.079   1.387  10.777 -0.0835  0.2519  0.1155
    6TMC3    C314236   3.175   1.347  10.684 -0.2881 -0.1956  0.5860
    6TMC3    C414237   3.248   1.483  10.912  0.5196  0.9224 -0.3951
    6TMC3    C514238   3.340   1.427  10.831 -0.7925 -0.3231  0.2094
    6TMC3    C614239   3.304   1.362  10.716  0.0474  0.0400 -0.0751
    6TMC3     C14240   3.027   1.443  10.999 -0.2693  0.3113  0.0763
    6TMC3     O14241   2.928   1.376  10.981  0.4730 -1.1176  0.0962
    6TMC3     H14242   2.972   1.393  10.757  0.0525  2.2833 -0.0882
    6TMC3    H114243   3.290   1.527  11.002  1.2261 -0.1370 -0.2001
    6TMC3    H214244   3.368   1.324  10.637 -1.0962 -2.5688  0.2675
    6TMC3    C714245   3.477   1.473  10.851 -0.6463 -0.0113  0.7495
    6TMC3    C814246   3.138   1.285  10.556  0.2625  0.5184 -0.1505
    6TMC3    O114247   3.509   1.543  10.946  0.1137  0.1187 -0.0983
    6TMC3    O214248   3.217   1.283  10.461  0.0623  0.1155 -0.8662
    7MPD2     C14249   4.297   1.305  11.021 -0.0575  0.3322  0.5807
    7MPD2    C114250   4.214   1.380  11.098 -0.8408 -0.0324 -0.0892
    7MPD2    C214251   4.119   1.318  11.183 -0.1796  0.0967  0.7433
    7MPD2    C314252   4.114   1.181  11.197  0.1610 -0.4078  0.4175
    7MPD2    C414253   4.198   1.106  11.116  0.0886  0.0563 -0.5709
    7MPD2    C514254   4.288   1.168  11.032  0.1332  0.7951 -0.2843
    7MPD2     H14255   4.047   1.383  11.231 -2.0937 -1.9405  0.6311
    7MPD2    H114256   4.215   1.000  11.128 -0.9139 -0.2018 -1.3736
    7MPD2    H214257   4.381   1.342  10.963  1.5297  0.0728  2.6903
    7MPD2    H314258   4.343   1.098  10.969  1.6672  2.6041 -0.9392
    7MPD2     N14259   4.024   1.116  11.280 -0.7685 -0.3963  0.4681
    7MPD2    H514260   4.032   1.015  11.278 -0.6230 -0.4001  1.1974
    7MPD2    N114261   4.215   1.523  11.091 -0.3946  0.8275 -0.2277
    7MPD2    H714262   4.154   1.573  11.155 -1.1775 -2.2612  1.4161
    8TMC3    C114263   4.243   1.740  11.021  0.1835 -0.5141 -0.6011
    8TMC3    C214264   4.149   1.791  10.927  0.0955 -0.4680  0.4247
    8TMC3    C314265   4.027   1.827  10.978 -0.2097 -0.4883 -0.2867
    8TMC3    C414266   4.226   1.762  11.153  0.9696 -0.4472  0.4907
    8TMC3    C514267   4.108   1.819  11.204  0.4874 -0.2651 -0.0097
    8TMC3    C614268   4.006   1.852  11.113 -0.2019 -0.7173  0.1439
    8TMC3     C14269   4.271   1.601  10.994 -0.5766 -0.3048 -0.6086
    8TMC3     O14270   4.298   1.567  10.876 -0.1461  0.0214  0.4282
    8TMC3     H14271   4.164   1.777  10.820  0.9162 -1.3867  0.6549
    8TMC3    H114272   4.307   1.735  11.221  0.2837 -1.1135  1.0461
    8TMC3    H214273   3.914   1.898  11.146  0.8603  1.7786 -0.4117
    8TMC3    C714274   4.068   1.751  11.324 -0.6464  0.4035  0.3860
    8TMC3    C814275   3.915   1.768  10.910 -0.4973  0.2993  0.0062
    8TMC3    O114276   4.114   1.641  11.332  0.5192  0.5063 -0.5261
    8TMC3    O214277   3.804   1.787  10.962  0.4865 -0.0352  0.3502
    9MPD2     C14278   3.975   1.424  10.771  0.3930 -0.6528 -0.2705
    9MPD2    C114279   3.898   1.533  10.817  0.6553  0.5054 -0.3657
    9MPD2    C214280   3.760   1.526  10.824 -0.5751 -0.1826  0.5854
    9MPD2    C314281   3.701   1.407  10.779  0.3919 -0.2124 -0.2020
    9MPD2    C414282   3.787   1.297  10.737  0.2768  0.2231 -0.4592
    9MPD2    C514283   3.927   1.308  10.732  0.6370  0.5160 -0.1654
    9MPD2     H14284   3.709   1.612  10.864  2.5312  1.4719  0.9900
    9MPD2    H114285   3.750   1.196  10.727  0.3467 -0.0402  1.8467
    9MPD2    H214286   4.081   1.430  10.790  0.0203 -0.1135  1.6508
    9MPD2    H314287   3.988   1.220  10.712  0.0074 -0.3577  1.7582
    9MPD2     N14288   3.565   1.386  10.786 -0.1530 -0.2778  0.0157
    9MPD2    H514289   3.535   1.298  10.746  2.3631 -1.1745  0.1052
    9MPD2    N114290   3.970   1.648  10.859  0.2341 -0.1631  0.1505
    9MPD2    H714291   4.071   1.636  10.860 -0.2485 -4.3396 -1.5059
    1MPD1     C14292   3.734   4.644  17.003  0.7459  0.8627  0.6099
    1MPD1    C114293   3.692   0.023  16.967  0.0585 -0.1110  0.7883
    1MPD1    C214294   3.591   0.026  16.870  0.2009  0.2355  0.7411
    1MPD1    C314295   3.530   4.656  16.816  1.1749  0.4850  0.2023
    1MPD1    C414296   3.586   4.532  16.841 -0.2341 -0.2509 -0.0421
    1MPD1    C514297   3.686   4.531  16.938 -0.1695 -0.0970 -0.1336
    1MPD1     H14298   3.557   0.123  16.836 -1.0155 -0.7506 -0.8953
    1MPD1    H114299   3.564   4.450  16.774 -1.0184  1.4330 -1.8491
    1MPD1    H214300   3.824   4.644  17.062  1.4294  0.3002 -0.4186
    1MPD1    H314301   3.742   4.442  16.965 -1.4835 -0.8006  0.2529
    1MPD1     N14302   3.438   4.671  16.714  0.2520 -0.5492  0.1685
    1MPD1    H514303   3.427   4.588  16.657 -1.4799 -1.4267  1.7666
    1MPD1    N114304   3.748   0.143  17.002  0.0468  0.0016  0.6185
    1MPD1    H614305   3.683   0.221  17.010  0.3651  0.4599 -1.2397
    1MPD1    H714306   3.798   0.137  17.090 -0.7076  0.5735  1.0892
    2TMC2    C114307   3.192   0.151  16.391 -0.3336 -0.8732 -0.4254
    2TMC2    C214308   3.112   0.044  16.362 -0.6753 -0.0040  0.4116
    2TMC2    C314309   3.137   4.662  16.424  0.0996  0.4966 -0.5389
    2TMC2    C414310   3.267   0.151  16.502  0.7443  0.1945 -0.1174
    2TMC2    C514311   3.296   0.032  16.560  0.4745 -0.3208 -0.2071
    2TMC2    C614312   3.238   4.655  16.517  0.9310  1.2623 -0.1277
    2TMC2     C14313   3.205   0.257  16.299  0.3540  0.0744  0.1982
    2TMC2     O14314   3.117   0.261  16.212 -0.2136  0.3170 -0.4366
    2TMC2     H14315   3.059   0.035  16.268  0.9642  1.3378 -0.6366
    2TMC2    H114316   3.327   0.236  16.531  2.3717 -0.6368 -1.0512
    2TMC2    H214317   3.250   4.562  16.572 -0.7695  1.4522  0.5812
    2TMC2    C714318   3.362   0.042  16.688  0.0172 -0.6489 -0.2350
    2TMC2    C814319   3.067   4.534  16.386  0.6729  0.0592  0.1198
    2TMC2    O114320   3.335   0.146  16.752  0.4973 -0.2227  0.1531
    2TMC2    O214321   3.118   4.467  16.295 -0.4320  0.4354 -0.3851
    2TMC2    O514322   2.995   4.490  16.492  0.2369  0.1471 -0.3533
    2TMC2    H514323   2.996   4.562  16.559 -0.4545 -1.6007  1.5088
    3MPD1     C14324   3.466   0.640  16.099  0.6355 -0.3947  0.0714
    3MPD1    C114325   3.547   0.587  16.197  0.2364 -0.2320 -0.2546
    3MPD1    C214326   3.500   0.481  16.273 -0.2100 -0.3286  0.0567
    3MPD1    C314327   3.375   0.429  16.236  0.3208  0.6484  0.3262
    3MPD1    C414328   3.305   0.466  16.131  0.0744  0.2610  0.2243
    3MPD1    C514329   3.358   0.572  16.056 -0.3105 -0.7016 -0.5414
    3MPD1     H14330   3.560   0.435  16.351 -0.9637 -0.1554  0.7439
    3MPD1    H114331   3.207   0.428  16.104  0.9997 -2.3938  0.5709
    3MPD1    H214332   3.498   0.725  16.039  0.9760  0.2742  1.2060
    3MPD1    H314333   3.296   0.611  15.975 -0.5397  0.3165  0.1171
    3MPD1     N14334   3.326   0.324  16.316  0.3164 -0.3691  0.0362
    3MPD1    H514335   3.384   0.292  16.392  0.1206 -3.1309 -0.9972
    3MPD1    N114336   3.663   0.654  16.236 -0.4315 -0.0004  0.1318
    3MPD1    H614337   3.713   0.704  16.163  2.9734 -0.1794  2.3617
    3MPD1    H714338   3.741   0.602  16.276 -1.4075  0.9401  3.2757
    1TMC1    C114339   1.650   4.110  13.316  0.1444 -0.0666  0.4879
    1TMC1    C214340   1.525   4.097  13.384 -0.6118 -0.3930  0.4707
    1TMC1    C314341   1.413   4.102  13.307  0.2574  0.3594  0.2849
    1TMC1    C414342   1.660   4.127  13.183  0.6849  0.3906 -0.6409
    1TMC1    C514343   1.547   4.149  13.109  0.5936 -0.1405  0.1778
    1TMC1    C614344   1.425   4.145  13.178 -0.3239  0.3904 -0.3272
    1TMC1     C14345   1.775   4.107  13.392 -0.4386 -0.1186 -0.5683
    1TMC1     O14346   1.870   4.150  13.331 -0.4608 -0.0404  0.0669
    1TMC1     H14347   1.501   4.088  13.489 -0.0486 -0.7942  0.5652
    1TMC1    H114348   1.761   4.124  13.144  1.5475  0.1349  1.5963
    1TMC1    H214349   1.335   4.173  13.125 -1.0898 -1.3726  0.0371
    1TMC1    C714350   1.543   4.194  12.972 -0.0644 -0.1725  0.1778
    1TMC1    C814351   1.284   4.129  13.373 -0.2628  0.5499 -0.0577
    1TMC1    O114352   1.438   4.240  12.927 -0.2116 -0.2624  0.0918
    1TMC1    O214353   1.262   4.176  13.482 -0.4433 -0.4045 -0.3338
    1TMC1    O314354   1.667   4.237  12.930 -0.2671  0.0546 -0.1040
    1TMC1    H314355   1.734   4.170  12.955 -0.8063  0.0133  1.2284
    1TMC1    O514356   1.189   4.073  13.293 -0.2286  0.6514 -0.1980
    1TMC1    H514357   1.218   4.027  13.211 -2.0254 -0.2021 -0.3474
    2MPD2     C14358   1.955   4.182  13.595 -0.4750 -0.1183 -0.1455
    2MPD2    C114359   1.872   4.077  13.603  0.4357  0.3072  1.1136
    2MPD2    C214360   1.886   3.995  13.718 -0.5629  0.0019 -0.3360
    2MPD2    C314361   1.988   4.004  13.810  0.3070 -0.3865 -0.8132
    2MPD2    C414362   2.081   4.103  13.792 -0.1854 -0.4389  0.2119
    2MPD2    C514363   2.057   4.189  13.684  0.3756  0.6140 -0.1029
    2MPD2     H14364   1.812   3.920  13.743  1.0548 -2.1236 -1.8711
    2MPD2    H114365   2.164   4.123  13.860 -0.1555 -2.2333  0.6935
    2MPD2    H214366   1.934   4.259  13.522 -3.0409  0.8804  1.6337
    2MPD2    H314367   2.131   4.268  13.670  0.0959  0.9619  0.3556
    2MPD2     N14368   1.983   3.912  13.920  0.3437  0.7713 -0.1709
    2MPD2    H514369   1.909   3.842  13.917  0.9457  0.0025  2.4563
    2MPD2    N114370   1.768   4.055  13.516  0.4834 -0.0684 -0.2958
    2MPD2    H714371   1.690   3.995  13.543  2.4667 -2.5700 -0.2019
    3TCq1    O114372   2.022   3.623  14.531 -0.6679  0.0818  0.3771
    3TCq1    C114373   2.111   3.701  14.459 -0.2833 -0.1813 -0.5710
    3TCq1    O214374   2.232   3.704  14.478  0.1137  0.8286 -0.5208
    3TCq1    C214375   2.068   3.690  14.321 -0.5395 -0.0119  0.0568
    3TCq1    C314376   2.000   3.580  14.276 -0.3077 -0.2906  0.6142
    3TCq1    C414377   1.952   3.585  14.147 -0.0027  1.0365  0.6928
    3TCq1    C514378   1.967   3.688  14.063  0.7484 -0.5050 -0.0452
    3TCq1    C614379   2.045   3.790  14.116  1.1400  0.2235  0.4750
    3TCq1    C714380   2.102   3.791  14.241 -0.3013  0.5376 -0.1736
    3TCq1    C814381   2.067   3.909  14.034  0.2504  0.0390 -0.5819
    3TCq1    O414382   2.149   3.991  14.077 -0.2349 -0.0832  0.1695
    3TCq1    C914383   1.896   3.465  14.091 -0.7439 -0.3880  0.7716
    3TCq1    O514384   1.840   3.478  13.982  0.1253 -0.1353  0.5376
    3TCq1    O614385   1.919   3.356  14.146 -0.2251 -0.6303  0.0044
    3TCq1    H114386   1.931   3.614  14.495 -0.2255 -2.1330 -0.1539
    3TCq1    H214387   1.984   3.489  14.333  0.5127  0.8458  2.6358
    3TCq1    H314388   1.937   3.676  13.960 -0.3742  0.7091  0.1496
    3TCq1    H414389   2.151   3.881  14.276  0.0724  0.8915 -1.6007
    1MPD2     C14390   1.251   4.705  14.942  0.0495 -0.2084 -0.6479
    1MPD2    C114391   1.157   4.606  14.951  0.2160  0.2202 -0.2237
    1MPD2    C214392   1.206   4.471  14.961 -0.0920  0.5206  0.6013
    1MPD2    C314393   1.342   4.448  14.977 -0.0267  0.0150  0.2661
    1MPD2    C414394   1.436   4.545  14.975  0.1884 -0.7357  0.0934
    1MPD2    C514395   1.388   4.678  14.961 -0.1661  0.1159 -0.6078
    1MPD2     H14396   1.146   4.381  14.969 -1.1495  1.4353  3.1816
    1MPD2    H114397   1.543   4.530  14.990  0.4885  1.5758  0.3050
    1MPD2    H214398   1.213   0.066  14.932 -4.0231 -1.6432  0.1754
    1MPD2    H314399   1.453   0.024  14.964  0.7873 -0.6769  1.8934
    1MPD2     N14400   1.373   4.316  14.985 -0.5077  0.1305 -0.5360
    1MPD2    H514401   1.295   4.252  14.977  0.1666 -0.8076  0.2732
    1MPD2    N114402   1.019   4.644  14.922 -0.2076 -0.0247  0.4737
    1MPD2    H714403   0.995   0.001  14.913  0.4364  0.2952  2.0735
    2TMC3    C114404   0.787   4.598  14.908  0.1494 -0.0297  0.0386
    2TMC3    C214405   0.692   4.500  14.937 -0.4722  0.6069 -0.1934
    2TMC3    C314406   0.587   4.473  14.855  0.5130 -0.5928 -0.2486
    2TMC3    C414407   0.774   4.673  14.798  0.0768  0.5002  0.5668
    2TMC3    C514408   0.660   4.646  14.723  0.8354 -0.7561  0.3810
    2TMC3    C614409   0.567   4.551  14.746 -0.3540  0.1932  0.2783
    2TMC3     C14410   0.921   4.546  14.928 -0.7642 -1.3930 -0.5205
    2TMC3     O14411   0.919   4.427  14.957 -0.3728 -0.2261  0.0236
    2TMC3     H14412   0.696   4.446  15.030 -0.5222  5.4906  2.6464
    2TMC3    H114413   0.857   4.696  14.733 -0.0900 -1.6649 -0.4181
    2TMC3    H214414   0.489   4.532  14.674  1.2283  0.2062 -1.4489
    2TMC3    C714415   0.620   0.005  14.623  0.2641 -0.2381  0.4482
    2TMC3    C814416   0.583   4.337  14.828 -0.3060  0.1750  0.3143
    2TMC3    O114417   0.518   4.716  14.562 -0.3250 -0.2390  0.4088
    2TMC3    O214418   0.474   4.288  14.801 -0.4995 -0.3059  0.5755
    3TCq1    O114419   0.782   1.164  14.352 -0.0303  0.1472 -0.4206
    3TCq1    C114420   0.913   1.145  14.385 -0.0375  0.1556 -0.0209
    3TCq1    O214421   0.992   1.237  14.393  0.1673 -1.1606 -0.0046
    3TCq1    C214422   0.930   1.005  14.423  0.3399  0.3898  0.6948
    3TCq1    C314423   1.037   0.986  14.508  0.3338  0.0459  0.0037
    3TCq1    C414424   1.053   0.858  14.550  0.9829 -0.4125  0.3529
    3TCq1    C514425   0.980   0.754  14.504 -0.0091  0.0155 -0.1659
    3TCq1    C614426   0.870   0.783  14.423  0.0608  1.0496  0.3170
    3TCq1    C714427   0.845   0.908  14.383 -0.4803  0.2813  0.1172
    3TCq1    C814428   0.777   0.680  14.373 -0.2448 -0.3006 -0.8765
    3TCq1    O414429   0.712   0.698  14.272  0.6187 -0.1319  0.0222
    3TCq1    C914430   1.169   0.844  14.636 -0.2681  1.0293 -0.4853
    3TCq1    O514431   1.252   0.942  14.655  0.2209 -0.7059 -0.4247
    3TCq1    O614432   1.186   0.730  14.687  0.2451  0.1775  0.1938
    3TCq1    H114433   0.718   1.100  14.388 -1.9779  1.5497 -1.4203
    3TCq1    H214434   1.104   1.066  14.539  0.9939 -0.3368 -0.4228
    3TCq1    H314435   1.005   0.651  14.527  0.5173  0.4668  1.2704
    3TCq1    H414436   0.775   0.929  14.303  0.2024 -1.8568 -1.0327
    4MPD2     C14437   0.637   0.418  14.320  0.1371  0.3460 -0.8437
    4MPD2    C114438   0.717   0.448  14.435  0.4112  0.0661  0.1683
    4MPD2    C214439   0.750   0.338  14.525 -0.3867 -0.1495 -0.0351
    4MPD2    C314440   0.682   0.218  14.513  0.5225  0.0582  0.1355
    4MPD2    C414441   0.591   0.201  14.414 -0.1139  0.1792 -0.4127
    4MPD2    C514442   0.579   0.296  14.311  0.1456 -0.2746  0.1861
    4MPD2     H14443   0.832   0.342  14.595  0.9130 -0.1819 -1.5596
    4MPD2    H114444   0.545   0.106  14.390 -0.2069  0.1947 -0.2947
    4MPD2    H214445   0.623   0.491  14.241 -2.5837  0.4603 -0.2729
    4MPD2    H314446   0.518   0.269  14.225  0.9335  0.3515 -0.5727
    4MPD2     N14447   0.702   0.118  14.611 -0.1074 -0.5926 -0.0914
    4MPD2    H514448   0.774   0.133  14.680  0.0013 -0.6231 -0.1978
    4MPD2    N114449   0.786   0.569  14.455 -0.1793 -0.8449  0.8393
    4MPD2    H714450   0.836   0.577  14.543  1.6600  0.4607 -0.3246
    5TMC2    C114451   1.289   4.002  14.836  0.3552  0.5879  1.1356
    5TMC2    C214452   1.309   4.012  14.704  0.0286  0.3797 -0.1043
    5TMC2    C314453   1.406   4.096  14.662  0.1406  0.4295  0.0566
    5TMC2    C414454   1.371   4.070  14.924  0.0576  0.3977 -0.5450
    5TMC2    C514455   1.475   4.148  14.880  0.5873 -0.1483  0.1815
    5TMC2    C614456   1.495   4.159  14.747  0.2733  0.0363  0.4344
    5TMC2     C14457   1.153   4.027  14.877 -0.5228 -0.3180 -0.8187
    5TMC2     O14458   1.141   4.124  14.947  0.2795 -0.2108 -0.3771
    5TMC2     H14459   1.247   3.974  14.624 -1.7841  0.5272  1.2247
    5TMC2    H114460   1.354   4.060  15.031 -1.1081 -0.4945 -0.8082
    5TMC2    H214461   1.588   4.203  14.710  0.4758 -0.9710 -0.2616
    5TMC2    C714462   1.492   4.262  14.956  0.2527 -0.6752 -0.1654
    5TMC2    C814463   1.430   4.109  14.523 -0.4595 -0.4633  0.5875
    5TMC2    O114464   1.606   4.304  14.964 -0.3812  0.1509  0.2649
    5TMC2    O214465   1.386   4.034  14.434  0.2468  0.0350  0.0588
    5TMC2    O514466   1.439   4.242  14.504 -1.4587  0.4065 -0.4829
    5TMC2    H514467   1.453   4.286  14.591  0.0450  0.4424 -0.7512
    6MPD2     C14468   0.656   4.047  14.770  0.6257  0.2450  0.3071
    6MPD2    C114469   0.743   4.144  14.820  0.3580 -0.0026 -0.6140
    6MPD2    C214470   0.868   4.108  14.850  0.0570 -0.1424  0.6210
    6MPD2    C314471   0.922   3.987  14.812  0.2963 -0.3280  0.1310
    6MPD2    C414472   0.834   3.895  14.755  0.0258 -0.9590  0.6012
    6MPD2    C514473   0.704   3.921  14.745 -0.2814 -0.1379  0.0839
    6MPD2     H14474   0.933   4.186  14.888  0.2132  0.5165 -1.0225
    6MPD2    H114475   0.866   3.798  14.720 -0.5598 -0.7404 -0.5698
    6MPD2    H214476   0.551   4.065  14.749  0.6085 -0.9983 -0.6770
    6MPD2    H314477   0.637   3.841  14.717  0.9707 -0.8971 -0.7233
    6MPD2     N14478   1.063   3.959  14.805 -0.1597  0.3214 -0.4144
    6MPD2    H514479   1.095   3.881  14.748  1.0914  1.5051 -1.3317
    6MPD2    N114480   0.705   4.277  14.842 -0.3145  0.2297 -0.3318
    6MPD2    H714481   0.782   4.328  14.883  0.7491 -0.3122 -1.6600
  945NH3     N114482   3.193   2.484  10.142 -0.5856  0.4532  0.8856
  945NH3     H214483   3.207   2.585  10.141 -3.2649  0.7870 -1.7227
  945NH3     H314484   3.252   2.459  10.064 -0.2652  0.9688  0.9575
  945NH3     H414485   3.096   2.483  10.114 -0.4763  1.5923  0.4726
  946SOD     NA14486   2.047   0.632  16.586 -0.3353  0.4581 -0.0826
  947SOD     NA14487   4.690   4.097  14.221 -0.2799 -0.0836 -0.6254
  948SOD     NA14488   3.085   2.852  16.227  0.3639  0.3524 -0.2766
  949SOD     NA14489   3.099   3.589   2.950  0.4973 -0.2560  0.1779
  950SOD     NA14490   1.773   0.722  11.296 -0.3148  0.7459 -0.0495
  951SOD     NA14491   1.784   3.983   8.357  0.0681  0.0353  0.5209
  952SOD     NA14492   0.805   4.046  15.216 -0.0186 -0.2054 -0.0742
  953SOD     NA14493   3.314   1.376  11.676 -0.2920  0.4038  0.2097
  954SOL     OW14494   2.254   3.773   8.673  0.0825  0.1318 -0.2921
  954SOL    HW114495   2.280   3.830   8.601  0.3449 -1.0942 -1.1826
  954SOL    HW214496   2.217   3.702   8.619  1.5417  1.0383 -2.5010
  955SOL     OW14497   3.194   1.400   1.761 -0.2743  0.5944  0.3020
  955SOL    HW114498   3.162   1.479   1.804  1.1419  2.1459 -1.4993
  955SOL    HW214499   3.181   1.332   1.827  1.4338  0.3931  0.4216
  956SOL     OW14500   4.444   2.661   4.915  0.4366  0.6054  0.0558
  956SOL    HW114501   4.538   2.673   4.907  0.3046  0.8300 -1.1605
  956SOL    HW214502   4.417   2.659   4.823 -0.5930  2.1892  0.3115
  957SOL     OW14503   3.054   2.678  12.660 -0.3191 -0.4526  0.1694
  957SOL    HW114504   3.102   2.618  12.603  0.1977  0.0273  0.0889
  957SOL    HW214505   3.104   2.756  12.635 -0.8008 -0.0626  0.4335
  958SOL     OW14506   4.584   0.779   6.680  0.4082  0.3855 -0.2751
  958SOL    HW114507   4.498   0.758   6.716  1.2189  0.0332  1.4565
  958SOL    HW214508   4.566   0.866   6.642  0.0257  0.2550 -0.3974
  959SOL     OW14509   3.029   3.272   0.185 -0.6054 -1.1022 -0.3045
  959SOL    HW114510   2.988   3.200   0.138  2.7604 -3.3727  0.2527
  959SOL    HW214511   3.106   3.281   0.129 -0.0763  1.0438  0.7682
  960SOL     OW14512   1.769   2.495   8.251  0.1779  0.2901  0.4856
  960SOL    HW114513   1.698   2.553   8.224 -0.9649 -2.0066 -1.4529
  960SOL    HW214514   1.847   2.551   8.252 -0.2817  0.9728 -1.6870
  961SOL     OW14515   1.734   2.989   8.726 -0.2468 -0.9959 -0.6228
  961SOL    HW114516   1.827   2.993   8.750 -0.1782 -0.6589 -0.9555
  961SOL    HW214517   1.728   3.045   8.649  1.4611 -0.5846 -0.4575
  962SOL     OW14518   0.730   1.355   0.885 -0.4230  0.4735  0.2556
  962SOL    HW114519   0.772   1.280   0.842 -1.1930  1.2033 -1.7526
  962SOL    HW214520   0.790   1.424   0.859 -1.1227  0.6029 -1.0055
  963SOL     OW14521   1.144   2.248   5.336  0.3285 -0.2047 -0.0400
  963SOL    HW114522   1.219   2.230   5.280  0.0108  2.2276 -1.2672
  963SOL    HW214523   1.075   2.265   5.271 -0.3456 -0.7620  0.5343
  964SOL     OW14524   3.115   0.533   7.786 -0.4495  0.2445  1.1176
  964SOL    HW114525   3.183   0.481   7.744 -0.3487  1.5124 -0.2527
  964SOL    HW214526   3.041   0.485   7.749  0.0442  0.0223  0.4195
  965SOL     OW14527   3.302   4.366   1.263  0.4812 -0.1815  0.0552
  965SOL    HW114528   3.280   4.332   1.176 -0.0851 -0.6232  0.3711
  965SOL    HW214529   3.357   4.441   1.241  1.3026 -0.6266  0.6095
  966SOL     OW14530   0.160   0.264   5.610 -0.2102  0.3679  0.4285
  966SOL    HW114531   0.070   0.291   5.592 -0.0502  1.0026  0.5610
  966SOL    HW214532   0.143   0.215   5.690 -2.4261 -1.5384 -1.2111
  967SOL     OW14533   4.517   4.625   7.130  0.4759 -0.0166 -0.0254
  967SOL    HW114534   4.604   4.625   7.169  0.8866 -0.4568 -0.9453
  967SOL    HW214535   4.489   4.539   7.160 -0.2895  0.2947  0.1625
  968SOL     OW14536   3.265   4.389  11.044  0.4290 -0.3808 -0.0854
  968SOL    HW114537   3.258   4.479  11.075 -0.6170  0.3334 -2.3823
  968SOL    HW214538   3.347   4.384  10.996  2.0185  2.0569  2.3833
  969SOL     OW14539   4.054   1.162   4.309 -0.0997 -0.3526 -0.0766
  969SOL    HW114540   4.143   1.196   4.304 -0.9074  1.6674 -0.5550
  969SOL    HW214541   4.000   1.239   4.326 -1.7747 -1.3726 -0.7304
  970SOL     OW14542   2.165   4.324   7.976  0.2464 -0.0834 -0.2130
  970SOL    HW114543   2.090   4.378   7.951  0.0580 -0.7339 -1.0471
  970SOL    HW214544   2.225   4.396   7.991  0.7358 -0.5212 -0.0658
  971SOL     OW14545   0.993   1.531   7.014 -0.5933 -0.4015  0.5901
  971SOL    HW114546   1.053   1.604   6.997  0.2191 -1.5685 -1.6177
  971SOL    HW214547   0.947   1.532   6.930 -0.9359 -3.3478  0.7441
  972SOL     OW14548   3.774   4.410  13.738  0.6052 -0.3394 -0.1271
  972SOL    HW114549   3.713   4.345  13.704  0.0968  0.6762 -1.1207
  972SOL    HW214550   3.834   4.405  13.664 -0.7153  0.9511 -1.2761
  973SOL     OW14551   0.033   0.879   3.180 -0.0895  0.4568  0.7673
  973SOL    HW114552   0.067   0.911   3.263 -0.7953 -0.1188  1.2801
  973SOL    HW214553   0.014   0.787   3.193  0.1107  0.1731 -0.9004
  974SOL     OW14554   0.090   0.238   8.675 -0.0516 -0.1220  0.4127
  974SOL    HW114555   0.075   0.323   8.717  1.8304 -0.0841  1.0159
  974SOL    HW214556   0.059   0.256   8.586  1.0163 -0.5700 -0.0470
  975SOL     OW14557   3.226   3.240   3.160 -0.8719 -0.2557 -0.4561
  975SOL    HW114558   3.209   3.208   3.071  0.4405  1.5664 -1.3552
  975SOL    HW214559   3.219   3.335   3.148 -0.4405  0.1385  2.4612
  976SOL     OW14560   1.004   1.767   1.410 -0.1867 -0.3382  0.6791
  976SOL    HW114561   1.056   1.800   1.337 -0.6203  1.1946  1.0657
  976SOL    HW214562   1.033   1.676   1.421  2.5721  0.4791  0.1675
  977SOL     OW14563   3.135   4.522   4.354 -0.1450  0.6285 -0.1092
  977SOL    HW114564   3.158   4.607   4.391  2.8438  0.3911 -1.4453
  977SOL    HW214565   3.104   4.536   4.265 -0.9217 -0.0869  0.0399
  978SOL     OW14566   4.066   3.666   1.431 -0.2734 -0.0828 -0.1009
  978SOL    HW114567   4.084   3.711   1.348 -1.5048 -2.7493 -1.8187
  978SOL    HW214568   4.129   3.712   1.486  0.4329  1.0490 -1.8387
  979SOL     OW14569   4.106   3.806   0.770 -0.1648 -0.2961  0.2891
  979SOL    HW114570   4.177   3.831   0.829 -0.5687  1.8419 -0.1138
  979SOL    HW214571   4.052   3.750   0.825  0.0020 -0.9611 -0.2212
  980SOL     OW14572   3.627   4.504   1.631 -0.3916  0.1291  0.6339
  980SOL    HW114573   3.668   4.418   1.642  3.7828  2.1326  0.8488
  980SOL    HW214574   3.562   4.471   1.570 -0.4016 -1.3898  1.4700
  981SOL     OW14575   1.511   2.789  17.741  0.2425  0.1443 -0.9080
  981SOL    HW114576   1.547   2.860  17.688 -1.0878  2.1496  0.8298
  981SOL    HW214577   1.483   2.729  17.672 -3.5077  1.9210 -0.9454
  982SOL     OW14578   1.314   0.257   2.152 -0.0769  0.1229 -0.0302
  982SOL    HW114579   1.374   0.186   2.130 -1.5730 -1.6931  1.7667
  982SOL    HW214580   1.330   0.262   2.247  0.4449 -0.5786 -0.0752
  983SOL     OW14581   1.577   1.113   4.804  0.3137  0.0709 -1.2100
  983SOL    HW114582   1.616   1.124   4.717  1.7648 -0.6957 -0.6451
  983SOL    HW214583   1.583   1.206   4.824  2.5944 -0.1046 -1.1031
  984SOL     OW14584   4.369   1.229   3.674 -0.2387  0.5179  0.2625
  984SOL    HW114585   4.365   1.140   3.639  0.1456  1.0793 -1.1870
  984SOL    HW214586   4.425   1.270   3.609 -0.9632 -1.1110 -1.3948
  985SOL     OW14587   0.944   1.725   4.160 -0.7926  0.1505 -0.0040
  985SOL    HW114588   1.022   1.686   4.120 -0.1906  2.2055 -0.8083
  985SOL    HW214589   0.884   1.651   4.148  1.5371 -1.8052  0.1841
  986SOL     OW14590   0.167   0.337   1.354 -0.4677  0.2512 -0.5265
  986SOL    HW114591   0.118   0.257   1.370 -0.0407  0.3507  1.1916
  986SOL    HW214592   0.168   0.327   1.258 -1.3248 -3.4701 -0.1469
  987SOL     OW14593   1.901   0.610   9.390 -0.2951  0.1778  0.3526
  987SOL    HW114594   1.955   0.656   9.326 -1.6792 -1.3955 -1.9410
  987SOL    HW214595   1.958   0.543   9.429  2.9553  1.7482 -1.7037
  988SOL     OW14596   0.294   3.624   5.931 -0.2057 -0.1240  0.0458
  988SOL    HW114597   0.365   3.611   5.869  0.1668  0.3134  0.3766
  988SOL    HW214598   0.335   3.682   5.995 -1.4688 -0.1133  0.8601
  989SOL     OW14599   1.524   0.800   4.532  0.0318  0.2894 -0.3793
  989SOL    HW114600   1.448   0.744   4.518  1.6930 -1.8183 -0.9876
  989SOL    HW214601   1.491   0.888   4.510 -0.6600 -0.1896 -1.2764
  990SOL     OW14602   3.105   1.032   9.944 -0.0502 -0.2560  0.0342
  990SOL    HW114603   3.190   1.020   9.987  0.4469  1.6453 -0.4189
  990SOL    HW214604   3.055   0.952   9.961 -0.8468  0.8047  2.6651
  991SOL     OW14605   3.103   4.429   7.024 -0.4619 -0.3566  0.3174
  991SOL    HW114606   3.112   4.438   7.118 -0.4294 -1.3214  0.4015
  991SOL    HW214607   3.168   4.360   7.009 -1.8527 -1.9946  1.9587
  992SOL     OW14608   1.577   1.880  11.094  0.0573 -0.2649  0.5154
  992SOL    HW114609   1.639   1.953  11.104  0.4380 -0.5894  0.5043
  992SOL    HW214610   1.615   1.829  11.023  1.7384  2.1790 -0.3540
  993SOL     OW14611   4.585   3.583   2.177 -0.4245 -0.4484  0.3507
  993SOL    HW114612   4.616   3.496   2.152  0.0091 -0.0600 -0.4705
  993SOL    HW214613   4.574   3.622   2.091 -0.7733 -3.2570 -0.8471
  994SOL     OW14614   2.684   0.105   5.558  0.2960  0.1822 -0.0759
  994SOL    HW114615   2.714   0.192   5.532 -0.3421  0.0877 -1.1247
  994SOL    HW214616   2.655   0.071   5.473  0.9756  1.4408 -0.8101
  995SOL     OW14617   1.968   3.660   7.583 -0.2594 -0.4054 -0.4486
  995SOL    HW114618   1.929   3.733   7.535 -0.8219 -0.6758 -0.4115
  995SOL    HW214619   1.889   3.611   7.608 -1.2869  0.7826 -1.3692
  996SOL     OW14620   3.492   4.066   4.920  0.0210 -0.2988  0.5117
  996SOL    HW114621   3.427   4.067   4.850 -0.3154  0.2835  0.8356
  996SOL    HW214622   3.565   4.100   4.868  0.8414  0.6422  2.2756
  997SOL     OW14623   2.611   1.772  13.880 -0.6651  0.1588  0.2427
  997SOL    HW114624   2.636   1.688  13.841  0.9598  0.1255  1.3653
  997SOL    HW214625   2.599   1.761  13.975  0.1015 -3.0582 -0.0447
  998SOL     OW14626   3.262   0.956   8.049 -0.5547 -0.6828  0.6097
  998SOL    HW114627   3.257   1.048   8.025 -0.6935 -0.9781 -0.4913
  998SOL    HW214628   3.245   0.918   7.963 -0.5578 -1.9480  1.1542
  999SOL     OW14629   0.341   4.623   7.668 -0.4358  0.5400 -0.2447
  999SOL    HW114630   0.380   4.616   7.580 -0.0489 -3.0748  0.1982
  999SOL    HW214631   0.385   4.547   7.707  1.0867  0.9172 -1.2253
 1000SOL     OW14632   2.907   1.275   6.817  0.0919 -0.1858 -0.7172
 1000SOL    HW114633   2.857   1.326   6.881 -0.2727 -0.3807 -0.8441
 1000SOL    HW214634   2.902   1.350   6.757  1.6839  1.1907  0.8670
 1001SOL     OW14635   0.259   1.317  16.840  0.9365  0.5852  0.4753
 1001SOL    HW114636   0.336   1.263  16.860  0.1240 -0.6715  0.1997
 1001SOL    HW214637   0.233   1.333  16.931 -0.0050  1.9206 -0.0280
 1002SOL     OW14638   0.228   2.453   0.540 -0.3775 -0.6292 -0.1574
 1002SOL    HW114639   0.213   2.475   0.448  2.3656  3.3599  0.2944
 1002SOL    HW214640   0.138   2.458   0.573  0.0618 -2.2507  1.2435
 1003SOL     OW14641   3.546   0.351   5.258 -0.3764 -0.0084  0.2507
 1003SOL    HW114642   3.581   0.270   5.220 -0.7294  0.4893 -1.1237
 1003SOL    HW214643   3.463   0.318   5.292  1.4967 -3.7948  1.1586
 1004SOL     OW14644   3.005   3.271   9.581 -0.1190 -0.1172  0.3941
 1004SOL    HW114645   3.096   3.279   9.609  1.0927 -1.2335 -3.2643
 1004SOL    HW214646   2.963   3.218   9.649  0.0355 -0.6258  0.0915
 1005SOL     OW14647   3.510   2.496   8.722 -0.4808  0.0887  0.4279
 1005SOL    HW114648   3.530   2.585   8.753 -0.2621  0.1266  0.1832
 1005SOL    HW214649   3.542   2.445   8.796  0.2088  1.8512  1.3410
 1006SOL     OW14650   4.004   1.811   8.955  0.9487  0.2882  0.4523
 1006SOL    HW114651   4.061   1.737   8.976 -0.4043 -0.3249  1.8921
 1006SOL    HW214652   3.998   1.861   9.037 -2.2110  0.4322  0.0998
 1007SOL     OW14653   2.550   0.050   2.005  0.2893  0.4770 -0.5225
 1007SOL    HW114654   2.483   4.722   2.010  2.4218 -1.4821  1.7413
 1007SOL    HW214655   2.497   0.128   1.993 -0.4122  0.1921  0.7017
 1008SOL     OW14656   3.812   1.746   6.551  0.4067 -0.1922 -0.0284
 1008SOL    HW114657   3.736   1.714   6.601 -0.9846  1.1414 -1.2995
 1008SOL    HW214658   3.881   1.682   6.568  2.4912  1.8441 -0.8181
 1009SOL     OW14659   0.661   3.301  16.255 -0.4608  0.5209  0.1435
 1009SOL    HW114660   0.666   3.257  16.340 -0.0948 -0.3011 -0.3065
 1009SOL    HW214661   0.602   3.376  16.264  0.0919  0.8135  1.2560
 1010SOL     OW14662   4.364   2.134   0.859 -0.0591  0.1190 -0.2032
 1010SOL    HW114663   4.284   2.100   0.819  1.2257 -4.0900  0.8735
 1010SOL    HW214664   4.425   2.063   0.875  1.8246  1.3483 -1.7979
 1011SOL     OW14665   4.476   2.389   7.716 -0.0786  0.1490  0.8120
 1011SOL    HW114666   4.430   2.473   7.719 -0.8973 -0.1995 -1.7802
 1011SOL    HW214667   4.485   2.364   7.808 -1.0799 -1.7025  0.4144
 1012SOL     OW14668   1.070   4.225   6.706  0.1558  0.2878  0.1363
 1012SOL    HW114669   1.044   4.214   6.615  1.5382  1.9395 -0.4508
 1012SOL    HW214670   1.105   4.141   6.735  0.0553  0.1031 -0.2848
 1013SOL     OW14671   4.724   3.234  13.663 -0.0704 -0.6082 -0.6026
 1013SOL    HW114672   0.079   3.225  13.667 -0.3628 -2.9581  1.4400
 1013SOL    HW214673   4.706   3.140  13.668 -2.0827 -0.3010 -2.5085
 1014SOL     OW14674   3.267   3.209   0.050  0.0063  0.3147 -0.5861
 1014SOL    HW114675   3.346   3.160   0.028  1.1157  0.5329  2.9548
 1014SOL    HW214676   3.300   3.296   0.069 -0.4922  0.7749 -1.7823
 1015SOL     OW14677   3.790   0.446  11.554  0.0923 -0.1156 -0.1287
 1015SOL    HW114678   3.854   0.430  11.624  0.4673  0.3141 -0.3741
 1015SOL    HW214679   3.803   0.371  11.495 -2.6959 -1.2336  0.6659
 1016SOL     OW14680   0.335   0.930   3.209  0.0312  0.1006  0.5436
 1016SOL    HW114681   0.339   0.927   3.305  1.2693  0.2813  0.4997
 1016SOL    HW214682   0.298   0.843   3.196  1.9516 -0.7750  0.8376
 1017SOL     OW14683   2.284   1.590   1.073  0.6286  0.1955  0.1049
 1017SOL    HW114684   2.240   1.579   1.157 -1.1239 -0.3556 -0.9083
 1017SOL    HW214685   2.376   1.596   1.100  0.7011  0.9353 -0.3140
 1018SOL     OW14686   2.421   3.385   4.768 -0.0123  0.5643  0.0406
 1018SOL    HW114687   2.514   3.384   4.743  0.6359  2.1623  2.3766
 1018SOL    HW214688   2.421   3.325   4.842  0.2578 -2.1037 -2.1141
 1019SOL     OW14689   0.150   3.758   8.961  0.1084 -0.0759  0.2580
 1019SOL    HW114690   0.096   3.806   8.899  0.7416  1.3330  0.8054
 1019SOL    HW214691   0.131   3.808   9.041  2.3625 -0.1790  0.8518
 1020SOL     OW14692   2.240   3.201   5.625  0.2218 -0.1608 -0.4460
 1020SOL    HW114693   2.161   3.237   5.584 -1.1138 -1.8260  0.6692
 1020SOL    HW214694   2.210   3.111   5.635 -0.1969 -0.2155 -2.0954
 1021SOL     OW14695   0.897   1.353  16.188 -0.3351  0.2790 -0.1428
 1021SOL    HW114696   0.891   1.259  16.173 -0.8542  0.1958  0.5441
 1021SOL    HW214697   0.806   1.382  16.178 -0.0826  0.4143 -2.0382
 1022SOL     OW14698   1.452   0.791  10.328 -0.5665 -0.2785  0.5518
 1022SOL    HW114699   1.523   0.854  10.343  1.3188 -1.8504 -1.8281
 1022SOL    HW214700   1.492   0.719  10.280 -1.9810 -0.4766 -0.3250
 1023SOL     OW14701   0.896   3.308   1.631 -0.4950 -0.3155 -0.2648
 1023SOL    HW114702   0.955   3.283   1.703 -0.1938  1.2017  0.0226
 1023SOL    HW214703   0.814   3.267   1.656 -0.1358 -1.5094 -1.0713
 1024SOL     OW14704   2.145   3.665  17.309  0.2566  0.1805  0.5451
 1024SOL    HW114705   2.095   3.745  17.325  0.8584  0.0074  3.2961
 1024SOL    HW214706   2.069   3.607  17.304  1.8105 -1.9238  1.5815
 1025SOL     OW14707   3.278   4.090  11.244 -0.0172 -0.3811 -0.1893
 1025SOL    HW114708   3.297   4.155  11.176 -1.1048  0.0847 -0.0509
 1025SOL    HW214709   3.338   4.116  11.314 -0.4437 -2.2107  0.8597
 1026SOL     OW14710   0.778   0.831   7.392  0.1051  0.2166  0.5508
 1026SOL    HW114711   0.805   0.879   7.470  1.3961  3.5352 -1.9773
 1026SOL    HW214712   0.847   0.765   7.387  1.6816  1.9601 -0.7226
 1027SOL     OW14713   2.187   1.250   6.413  0.5640 -0.0186  0.1568
 1027SOL    HW114714   2.187   1.340   6.445 -0.1658  0.2411 -0.5641
 1027SOL    HW214715   2.098   1.227   6.439  0.8852 -0.8027  0.5616
 1028SOL     OW14716   1.655   0.104   0.219  0.5314 -0.0845  0.2242
 1028SOL    HW114717   1.694   0.131   0.136  1.2016 -1.0506  0.2167
 1028SOL    HW214718   1.699   0.023   0.244  1.7136 -0.1954 -2.2539
 1029SOL     OW14719   3.592   0.829  17.297 -0.3836  0.9803 -0.1150
 1029SOL    HW114720   3.502   0.859  17.304 -0.4944  0.8052 -0.8179
 1029SOL    HW214721   3.635   0.879  17.228  0.8047  0.3802  0.1775
 1030SOL     OW14722   4.095   3.998   5.101  0.5005 -0.0703 -0.3066
 1030SOL    HW114723   4.045   3.997   5.183  4.1151 -3.0871  1.9027
 1030SOL    HW214724   4.185   3.983   5.129  1.2262  1.1274 -1.9971
 1031SOL     OW14725   1.073   1.044   2.646 -0.9139  0.0132 -0.1289
 1031SOL    HW114726   1.161   1.031   2.610 -0.9806  1.6201 -0.8672
 1031SOL    HW214727   1.028   1.067   2.565  0.5391  3.0791 -0.0735
 1032SOL     OW14728   2.182   1.953  15.695 -0.4888  0.3822 -0.1158
 1032SOL    HW114729   2.095   1.949  15.656 -1.2664  0.3700  1.6022
 1032SOL    HW214730   2.241   1.968  15.621  0.1928  2.9441  0.9390
 1033SOL     OW14731   1.671   2.080  12.984  0.5150 -0.3101 -0.2019
 1033SOL    HW114732   1.692   2.168  13.014  1.2069 -0.3513 -0.5507
 1033SOL    HW214733   1.597   2.084  12.923  0.6056  0.0952 -0.2816
 1034SOL     OW14734   0.528   3.803   6.817  0.4223  0.4150 -0.6585
 1034SOL    HW114735   0.524   3.770   6.907  2.4773  1.2320 -0.2629
 1034SOL    HW214736   0.616   3.842   6.812  0.2522  0.7572 -0.9661
 1035SOL     OW14737   2.137   0.860   2.254 -0.6957  0.2872 -0.1090
 1035SOL    HW114738   2.199   0.916   2.301  1.9737 -2.6340 -0.1140
 1035SOL    HW214739   2.192   0.787   2.223 -0.8387  0.3661 -0.5573
 1036SOL     OW14740   2.969   3.535   8.604 -0.3732 -0.0441 -0.5601
 1036SOL    HW114741   2.965   3.614   8.658  0.9158 -1.4655  1.6294
 1036SOL    HW214742   2.882   3.536   8.564 -1.0286  1.7393  0.9245
 1037SOL     OW14743   0.693   0.490   9.849 -0.0353  0.1519 -1.2049
 1037SOL    HW114744   0.630   0.465   9.916 -1.0057 -1.9139 -2.8721
 1037SOL    HW214745   0.691   0.586   9.851  3.9783  0.2166  0.1819
 1038SOL     OW14746   3.951   3.000   1.978 -0.0572 -0.2354  0.2348
 1038SOL    HW114747   3.987   2.920   1.939 -1.3594  0.1715 -1.8248
 1038SOL    HW214748   3.870   3.020   1.930  0.5000 -1.8832 -1.4165
 1039SOL     OW14749   0.048   4.668   5.424 -0.1139  0.2301  0.6162
 1039SOL    HW114750   0.002   0.004   5.458  0.0090  0.6228 -0.0931
 1039SOL    HW214751   4.734   4.653   5.347  0.0752  0.9432  0.3448
 1040SOL     OW14752   2.411   3.761   9.754 -0.2455 -0.5237  0.3226
 1040SOL    HW114753   2.406   3.851   9.723  0.7709 -0.1633  1.2399
 1040SOL    HW214754   2.470   3.772   9.828  0.9480 -0.0140 -0.7087
 1041SOL     OW14755   0.519   0.408  11.146 -0.2176  0.1707  0.1962
 1041SOL    HW114756   0.431   0.427  11.113  0.0105  0.2173 -0.3930
 1041SOL    HW214757   0.557   0.358  11.074  0.3835 -0.3755  0.8979
 1042SOL     OW14758   1.276   2.887   3.851 -0.1193  0.2428 -0.3940
 1042SOL    HW114759   1.358   2.886   3.800  1.3685  1.2991  1.9762
 1042SOL    HW214760   1.227   2.815   3.810 -2.6869  1.0209  1.3393
 1043SOL     OW14761   2.103   1.552   4.042 -0.7811 -0.1202 -0.1584
 1043SOL    HW114762   2.100   1.564   3.947 -0.5140  0.0054 -0.1525
 1043SOL    HW214763   2.174   1.490   4.055  1.0079  2.0313  0.3671
 1044SOL     OW14764   2.500   3.862   6.221  0.4526  0.4903 -0.2827
 1044SOL    HW114765   2.581   3.845   6.173  1.6097  1.9851  1.1606
 1044SOL    HW214766   2.448   3.826   6.149  1.3321 -1.2352 -0.0501
 1045SOL     OW14767   3.648   4.528   3.338  1.0092 -0.5085 -0.1702
 1045SOL    HW114768   3.605   4.525   3.423  1.3896  0.7224  0.0680
 1045SOL    HW214769   3.681   4.439   3.327 -1.0051 -0.9836 -2.3551
 1046SOL     OW14770   2.213   0.383   6.350 -0.7184  0.1429 -0.2312
 1046SOL    HW114771   2.177   0.443   6.285  0.8234  0.9546 -0.3234
 1046SOL    HW214772   2.207   0.447   6.421 -0.4347 -0.2483  0.1489
 1047SOL     OW14773   3.443   1.781   4.282 -0.0955  0.0832  0.3350
 1047SOL    HW114774   3.508   1.850   4.280 -0.3358  0.2389 -1.7730
 1047SOL    HW214775   3.367   1.837   4.268 -1.5847 -1.8304  0.6477
 1048SOL     OW14776   3.394   3.900   9.091  0.1101  0.4991 -0.3106
 1048SOL    HW114777   3.404   3.819   9.041 -2.3372  0.4372 -0.7276
 1048SOL    HW214778   3.456   3.962   9.054  1.2987 -0.8426 -0.5767
 1049SOL     OW14779   2.262   0.675   5.327  0.0658 -0.0435  0.1966
 1049SOL    HW114780   2.237   0.583   5.333  0.0617 -0.0912 -0.5693
 1049SOL    HW214781   2.337   0.671   5.268  0.0802  0.2200  0.1954
 1050SOL     OW14782   1.887   2.274   7.023  0.2169 -0.3277 -0.2101
 1050SOL    HW114783   1.929   2.347   6.977  2.1414 -1.7166 -0.6740
 1050SOL    HW214784   1.818   2.242   6.965  1.1328  0.3673 -1.6930
 1051SOL     OW14785   3.518   0.711  11.796  0.5221 -0.3526  0.6989
 1051SOL    HW114786   3.592   0.741  11.744  1.2587 -3.3148  0.0671
 1051SOL    HW214787   3.505   0.619  11.774  0.5233  0.1487 -1.3440
 1052SOL     OW14788   1.868   2.491   3.947 -0.7753 -0.2604  0.4157
 1052SOL    HW114789   1.910   2.407   3.930  0.8459  0.8292 -0.9485
 1052SOL    HW214790   1.921   2.520   4.022  0.1583 -0.1858 -0.2757
 1053SOL     OW14791   1.542   0.005   8.659  0.2166  0.4838 -0.1299
 1053SOL    HW114792   1.453   4.735   8.627 -0.2079 -0.5882  1.4249
 1053SOL    HW214793   1.555   0.071   8.727  4.9055 -0.0588 -0.4553
 1054SOL     OW14794   3.145   4.572  10.731  0.3121  0.8084 -0.2179
 1054SOL    HW114795   3.103   4.493  10.766 -0.9613  1.9565  0.8647
 1054SOL    HW214796   3.152   4.618  10.815 -0.3718  1.6170 -0.6021
 1055SOL     OW14797   3.372   4.052   5.597  0.1524 -0.0877 -0.1232
 1055SOL    HW114798   3.355   4.030   5.505  0.1053 -0.5910  0.0069
 1055SOL    HW214799   3.326   3.975   5.631 -0.1364 -1.5296 -3.7032
 1056SOL     OW14800   3.365   3.023   1.878  0.0016 -0.4543  0.4609
 1056SOL    HW114801   3.283   3.039   1.925 -0.2268  3.2592 -1.1559
 1056SOL    HW214802   3.421   2.987   1.947  0.4517 -1.0242 -0.2052
 1057SOL     OW14803   2.280   3.439   5.776 -0.2805  0.3320  0.4129
 1057SOL    HW114804   2.216   3.430   5.847 -0.8427  1.3352  0.0461
 1057SOL    HW214805   2.251   3.385   5.703  1.6043  1.9010 -1.5006
 1058SOL     OW14806   2.414   2.762   0.232  0.3209 -1.0247 -0.5057
 1058SOL    HW114807   2.490   2.706   0.246 -1.2297 -2.2538  3.2778
 1058SOL    HW214808   2.346   2.741   0.296  0.3263 -0.8933 -0.4574
 1059SOL     OW14809   3.465   0.301   6.769 -0.0217  0.5993 -0.2658
 1059SOL    HW114810   3.402   0.229   6.771  0.4414  0.1679 -1.2244
 1059SOL    HW214811   3.416   0.367   6.819 -1.8352 -1.5531  0.8218
 1060SOL     OW14812   0.941   4.169  16.213 -0.4013  0.2890  0.3619
 1060SOL    HW114813   0.963   4.126  16.131  1.1599 -1.7162  1.8311
 1060SOL    HW214814   0.995   4.247  16.198 -1.1476  1.0627  1.6212
 1061SOL     OW14815   2.244   2.303   5.983  0.3024  0.0754  0.1681
 1061SOL    HW114816   2.243   2.296   5.887  1.6651  1.9083  0.0313
 1061SOL    HW214817   2.153   2.285   6.006 -0.0049 -0.8028 -1.6411
 1062SOL     OW14818   1.737   2.102   5.716  0.0740  0.1777 -0.3867
 1062SOL    HW114819   1.778   2.066   5.638 -0.0723 -1.5645  0.3442
 1062SOL    HW214820   1.653   2.057   5.708  0.8218 -1.8387  3.2117
 1063SOL     OW14821   2.280   2.159   1.573  0.1879  0.2644 -0.2058
 1063SOL    HW114822   2.222   2.083   1.565  0.8000 -0.4458  2.1950
 1063SOL    HW214823   2.288   2.191   1.483  0.2218 -1.8559 -0.9701
 1064SOL     OW14824   2.327   1.067   0.272  0.1073 -0.4524 -0.1159
 1064SOL    HW114825   2.311   0.973   0.275  2.0820 -0.7900 -0.2750
 1064SOL    HW214826   2.241   1.101   0.299 -0.1107 -0.2513 -1.0617
 1065SOL     OW14827   3.604   3.781   3.303 -0.2145  0.0012  0.2293
 1065SOL    HW114828   3.691   3.786   3.343 -0.8369 -0.5747  1.6474
 1065SOL    HW214829   3.614   3.718   3.232 -0.3329 -0.3784  0.5517
 1066SOL     OW14830   0.233   3.554   4.362  0.0830 -0.2700  0.0911
 1066SOL    HW114831   0.308   3.494   4.369  0.5973  0.3367 -0.2581
 1066SOL    HW214832   0.277   3.619   4.308  2.1998 -0.9129  1.0234
 1067SOL     OW14833   3.070   3.092   2.879 -0.0071 -0.3723 -0.0846
 1067SOL    HW114834   3.034   3.048   2.956 -0.3788 -1.6641 -0.9920
 1067SOL    HW214835   3.017   3.040   2.818  1.4022 -1.4285 -0.4153
 1068SOL     OW14836   0.655   2.231   5.125  0.1929  0.0663 -0.0358
 1068SOL    HW114837   0.640   2.276   5.043  0.1197 -1.4789 -0.8763
 1068SOL    HW214838   0.674   2.141   5.096  0.1622  0.1785 -0.3931
 1069SOL     OW14839   3.556   4.407  12.100  0.2852  0.2672 -0.3262
 1069SOL    HW114840   3.514   4.390  12.184  1.7024 -1.6233 -0.0160
 1069SOL    HW214841   3.487   4.395  12.035  0.7115  0.2332 -0.7779
 1070SOL     OW14842   2.373   1.462  16.984  0.2185  0.5160  0.0484
 1070SOL    HW114843   2.423   1.526  16.932 -0.7977  0.7168 -0.6782
 1070SOL    HW214844   2.356   1.510  17.065 -1.8656 -0.4998  0.1934
 1071SOL     OW14845   2.531   1.476   8.477  0.3480  0.0756  0.4686
 1071SOL    HW114846   2.565   1.544   8.419  0.7500  0.5521  1.2779
 1071SOL    HW214847   2.493   1.525   8.549  0.4618 -0.3977  0.8466
 1072SOL     OW14848   3.229   3.623   2.147 -0.2792  0.0310  0.3240
 1072SOL    HW114849   3.173   3.670   2.208 -2.2743 -1.9234  0.0093
 1072SOL    HW214850   3.175   3.633   2.068 -0.7711  0.2435  0.6877
 1073SOL     OW14851   1.076   0.616  17.172 -0.3293 -0.5794 -0.5689
 1073SOL    HW114852   0.999   0.599  17.227 -0.4986  0.3381 -0.5286
 1073SOL    HW214853   1.138   0.646  17.239 -1.7179  0.5650  0.2155
 1074SOL     OW14854   4.124   3.578   6.940 -0.0180  0.3395 -0.0961
 1074SOL    HW114855   4.087   3.666   6.934 -2.2213 -0.4987  1.0930
 1074SOL    HW214856   4.124   3.548   6.849 -3.6740  0.0623 -0.0052
 1075SOL     OW14857   2.886   2.500  10.071  0.2121  0.5169 -0.1639
 1075SOL    HW114858   2.885   2.575  10.130  0.6658  1.6333 -1.5914
 1075SOL    HW214859   2.882   2.547   9.988  1.3165  1.2498  0.1972
 1076SOL     OW14860   1.227   0.951   2.100  0.7645  0.3897 -0.2301
 1076SOL    HW114861   1.264   1.025   2.149  2.3073 -0.0259 -0.7676
 1076SOL    HW214862   1.268   0.874   2.141  0.4916  0.3319 -0.0657
 1077SOL     OW14863   3.365   1.279   6.400  0.0610  0.2183  0.3075
 1077SOL    HW114864   3.346   1.287   6.494 -1.4309 -1.2631  0.1451
 1077SOL    HW214865   3.446   1.228   6.408 -0.3848 -0.8973 -2.2647
 1078SOL     OW14866   3.044   3.261   7.513  0.2208  0.0624  0.4285
 1078SOL    HW114867   3.099   3.196   7.556  0.9622  0.0888 -0.4849
 1078SOL    HW214868   2.975   3.202   7.482  1.7765 -1.1094 -0.7599
 1079SOL     OW14869   1.544   0.232   5.081 -0.4804 -0.8154  0.0567
 1079SOL    HW114870   1.466   0.179   5.065 -0.8577 -0.5776  1.0904
 1079SOL    HW214871   1.608   0.168   5.111  1.8656  0.8177 -1.3889
 1080SOL     OW14872   4.386   3.675   4.133  0.0829  0.4125  0.0718
 1080SOL    HW114873   4.374   3.595   4.184 -1.0788  0.7602  0.3287
 1080SOL    HW214874   4.359   3.740   4.198  0.3776 -2.2759  2.8958
 1081SOL     OW14875   4.600   0.333  14.731  0.5742 -0.3541  0.7249
 1081SOL    HW114876   4.586   0.392  14.657 -1.7968 -2.2349 -0.3032
 1081SOL    HW214877   4.509   0.327  14.759  1.0541 -0.8365  2.2102
 1082SOL     OW14878   4.246   1.214   4.791 -0.3509  0.0576 -0.5584
 1082SOL    HW114879   4.299   1.275   4.843  1.5834 -1.5585 -0.5888
 1082SOL    HW214880   4.162   1.258   4.781  0.2094  0.9277 -1.3463
 1083SOL     OW14881   1.038   0.770   6.880 -0.1743 -0.1648  0.3528
 1083SOL    HW114882   0.979   0.845   6.875 -0.6996 -0.5395  0.9208
 1083SOL    HW214883   1.092   0.792   6.956  0.4388 -0.2070 -0.0698
 1084SOL     OW14884   1.023   4.709  11.673  0.5514 -0.2781  0.3762
 1084SOL    HW114885   1.100   4.709  11.729 -1.5875  0.6855  3.3597
 1084SOL    HW214886   1.059   0.006  11.593  0.5255  2.2176  1.5380
 1085SOL     OW14887   4.175   1.615   5.400 -0.4830  0.2089  0.6492
 1085SOL    HW114888   4.163   1.543   5.462  0.4258 -1.5346 -1.1849
 1085SOL    HW214889   4.259   1.657   5.420  1.7539 -2.9237 -2.0206
 1086SOL     OW14890   3.768   3.114   8.361  0.4856  0.2528 -0.5182
 1086SOL    HW114891   3.706   3.069   8.304 -0.7026  1.4182 -0.1497
 1086SOL    HW214892   3.845   3.114   8.304  1.2389  2.8838  0.4905
 1087SOL     OW14893   1.883   1.021  16.559 -0.2216  0.2902 -0.7495
 1087SOL    HW114894   1.850   1.110  16.572 -1.8989 -0.7317  2.0047
 1087SOL    HW214895   1.922   0.994  16.643  0.3499 -2.5587 -1.9377
 1088SOL     OW14896   3.937   1.172   6.290  0.2676 -0.8431 -0.1584
 1088SOL    HW114897   4.003   1.107   6.315  1.5224  0.4783 -0.0315
 1088SOL    HW214898   3.969   1.245   6.343 -0.9009 -0.0014 -0.6205
 1089SOL     OW14899   2.399   3.589  17.389  0.0447  0.0514 -0.2528
 1089SOL    HW114900   2.306   3.609  17.378 -0.3883 -2.4522 -1.3577
 1089SOL    HW214901   2.429   3.672  17.354 -2.6637  1.3327  0.4395
 1090SOL     OW14902   3.076   3.600   1.908 -0.6046  0.1234 -0.1721
 1090SOL    HW114903   3.075   3.540   1.833  2.6958 -1.1360  0.7935
 1090SOL    HW214904   3.027   3.670   1.864  0.3413  1.5206  0.9964
 1091SOL     OW14905   1.638   2.930   1.852  0.1479  0.5223 -0.2476
 1091SOL    HW114906   1.620   2.999   1.789  0.4799  0.8238 -0.0091
 1091SOL    HW214907   1.551   2.908   1.886  1.1398 -2.6116  0.3143
 1092SOL     OW14908   1.277   1.146  13.152  0.3101 -0.5038  0.4506
 1092SOL    HW114909   1.233   1.106  13.078 -0.2771 -0.4436  0.7712
 1092SOL    HW214910   1.363   1.158  13.111  0.6464 -1.8599  0.7537
 1093SOL     OW14911   2.054   0.306   3.205  0.1152 -0.0067 -0.2325
 1093SOL    HW114912   1.961   0.286   3.192  0.7805 -1.0649 -3.4177
 1093SOL    HW214913   2.064   0.287   3.299 -0.7776 -1.2190 -0.3801
 1094SOL     OW14914   3.572   4.074   2.588  0.5556 -0.2054  0.9212
 1094SOL    HW114915   3.638   4.113   2.531  0.7743 -2.7520 -0.6081
 1094SOL    HW214916   3.536   4.161   2.606 -0.0551 -0.7846  2.5207
 1095SOL     OW14917   0.869   0.953   3.535  0.8848 -0.5092 -1.0482
 1095SOL    HW114918   0.776   0.971   3.525  0.9480  2.1977  2.9277
 1095SOL    HW214919   0.895   0.977   3.624  1.4348 -1.8383 -0.8446
 1096SOL     OW14920   0.830   1.290   9.638  0.2481  0.5806  0.4978
 1096SOL    HW114921   0.776   1.296   9.717 -0.0300 -0.9940  0.4328
 1096SOL    HW214922   0.887   1.220   9.670 -1.9967 -1.1395  0.7106
 1097SOL     OW14923   4.137   4.203   1.721 -0.2259  0.2299  0.3673
 1097SOL    HW114924   4.142   4.293   1.689 -0.6806 -0.0870 -0.6013
 1097SOL    HW214925   4.049   4.178   1.693  0.0570  0.0431 -0.3369
 1098SOL     OW14926   0.401   3.480   5.132  0.2890  0.4039  0.3109
 1098SOL    HW114927   0.383   3.560   5.182 -0.2168  2.2052 -2.7435
 1098SOL    HW214928   0.491   3.463   5.158  0.6735  0.3785 -1.0447
 1099SOL     OW14929   1.361   3.734   4.670 -0.4175  0.3710 -0.3700
 1099SOL    HW114930   1.388   3.825   4.659  0.4722  0.1026 -0.4370
 1099SOL    HW214931   1.424   3.714   4.740 -1.3259  1.1930  0.6859
 1100SOL     OW14932   2.676   1.823   6.238 -0.2643  0.1655  0.5022
 1100SOL    HW114933   2.616   1.897   6.227 -2.2583 -1.5808 -0.4688
 1100SOL    HW214934   2.668   1.772   6.157 -0.2181  1.4169 -0.2822
 1101SOL     OW14935   3.684   2.701   0.650  0.4834  0.3069 -0.2653
 1101SOL    HW114936   3.697   2.760   0.724  1.6553 -0.9744  0.5576
 1101SOL    HW214937   3.592   2.713   0.627  0.7208  2.0038 -0.3588
 1102SOL     OW14938   0.788   4.434  10.349 -0.4774 -0.2555  0.1734
 1102SOL    HW114939   0.760   4.476  10.430 -1.4393 -0.9065  0.1789
 1102SOL    HW214940   0.761   4.499  10.285  0.6874 -0.1183 -0.1875
 1103SOL     OW14941   4.479   3.413   5.825 -0.2248  0.3730  0.2815
 1103SOL    HW114942   4.541   3.342   5.844  0.3614  1.4119  2.2666
 1103SOL    HW214943   4.531   3.470   5.770 -0.2680  1.4220  1.3259
 1104SOL     OW14944   3.853   0.743   3.551 -0.0029 -0.0393 -0.0696
 1104SOL    HW114945   3.865   0.815   3.613 -1.8858  2.2974 -2.4430
 1104SOL    HW214946   3.800   0.787   3.485 -1.7234 -1.0942  0.6143
 1105SOL     OW14947   0.688   4.375   5.010 -0.4309 -0.3372 -0.5451
 1105SOL    HW114948   0.764   4.392   4.954 -0.8721  1.4760 -0.5978
 1105SOL    HW214949   0.677   4.448   5.072  0.5246 -0.8941  0.2770
 1106SOL     OW14950   2.584   1.620  13.151 -0.4387  0.0027  0.0248
 1106SOL    HW114951   2.492   1.594  13.161 -0.6919  0.6287 -0.6098
 1106SOL    HW214952   2.610   1.616  13.243 -0.8123 -0.1697  0.1223
 1107SOL     OW14953   2.275   4.412   0.685 -0.1236 -0.4559 -0.0038
 1107SOL    HW114954   2.281   4.455   0.770  1.0605 -0.6787  0.0170
 1107SOL    HW214955   2.367   4.386   0.686  0.3574  1.1323 -1.3015
 1108SOL     OW14956   2.775   0.445   1.688  0.1610 -0.1475 -0.2016
 1108SOL    HW114957   2.820   0.424   1.606 -1.0019  2.3119 -1.4897
 1108SOL    HW214958   2.691   0.476   1.652  0.0309  0.3617  0.5319
 1109SOL     OW14959   3.836   0.212   3.496 -0.2397  0.1170  0.2094
 1109SOL    HW114960   3.818   0.263   3.576 -1.2887 -1.6013  1.0683
 1109SOL    HW214961   3.890   0.273   3.446 -0.6544 -1.2772 -1.9090
 1110SOL     OW14962   1.886   0.533   1.972  0.1591  0.4529 -0.0322
 1110SOL    HW114963   1.907   0.606   2.030  2.5227  1.7869 -2.5517
 1110SOL    HW214964   1.945   0.560   1.902 -0.3985  2.1207  0.1472
 1111SOL     OW14965   0.119   4.293  15.030 -0.1790  0.0065  0.4914
 1111SOL    HW114966   0.069   4.330  14.958 -1.1187 -2.6939 -0.2451
 1111SOL    HW214967   0.126   4.199  15.012 -0.1246  0.1005  0.0128
 1112SOL     OW14968   2.889   0.357   5.684  0.5303  0.1937 -0.0137
 1112SOL    HW114969   2.943   0.281   5.666  0.3135  0.1407 -0.4273
 1112SOL    HW214970   2.845   0.376   5.601  2.8410  0.7693 -1.0901
 1113SOL     OW14971   4.017   1.502   4.050  0.6925 -0.2685  0.2607
 1113SOL    HW114972   3.946   1.486   3.988  0.9925 -1.9931  0.3637
 1113SOL    HW214973   4.080   1.544   3.990 -1.6652 -0.1792 -2.1410
 1114SOL     OW14974   0.155   1.906  14.051 -0.2910 -0.2950 -0.4484
 1114SOL    HW114975   0.084   1.887  13.990 -0.3534  1.9802 -1.0894
 1114SOL    HW214976   0.120   1.867  14.131  2.0164  0.8705  1.1223
 1115SOL     OW14977   3.349   4.080   9.276 -0.3741  0.0852  0.0634
 1115SOL    HW114978   3.349   4.013   9.208  2.8066 -0.8176  0.9883
 1115SOL    HW214979   3.343   4.166   9.233  1.5094  0.1908  0.0218
 1116SOL     OW14980   2.341   2.485   5.290  0.6927  0.0108  0.0543
 1116SOL    HW114981   2.283   2.561   5.290  1.5264  0.6469  1.6152
 1116SOL    HW214982   2.292   2.434   5.355 -1.3881  1.0577 -0.6833
 1117SOL     OW14983   0.674   0.077   7.561  0.0484  0.0505  0.3238
 1117SOL    HW114984   0.730   0.049   7.633  0.5300 -2.9555 -1.2137
 1117SOL    HW214985   0.649   4.738   7.514 -0.2697  0.7383 -0.6748
 1118SOL     OW14986   4.427   2.710   6.971 -0.2076 -0.3431  0.1556
 1118SOL    HW114987   4.399   2.773   6.905 -0.6687 -0.9775 -0.2540
 1118SOL    HW214988   4.516   2.697   6.938 -0.9913 -1.3649 -1.5548
 1119SOL     OW14989   3.988   4.456   5.486  0.2465  0.0716 -0.1212
 1119SOL    HW114990   3.988   4.551   5.496 -1.5745 -0.0739  1.4774
 1119SOL    HW214991   4.032   4.450   5.402  1.8421  0.7223  0.6602
 1120SOL     OW14992   4.260   0.472   0.926 -0.1556  0.2805  0.1647
 1120SOL    HW114993   4.185   0.520   0.960 -1.1525 -0.9621 -0.2974
 1120SOL    HW214994   4.284   0.433   1.010 -1.7080 -1.5051 -0.2181
 1121SOL     OW14995   1.398   2.562  10.316  0.4473  0.2759  0.6027
 1121SOL    HW114996   1.442   2.562  10.402  0.9617  1.9355  0.3306
 1121SOL    HW214997   1.307   2.573  10.344  0.5813 -0.3924  1.3297
 1122SOL     OW14998   1.246   1.086   4.441 -0.1978 -0.3038  0.0615
 1122SOL    HW114999   1.159   1.111   4.409 -0.4599 -1.3257 -0.0243
 1122SOL    HW215000   1.290   1.080   4.357  0.3956 -2.4357  0.5087
 1123SOL     OW15001   0.215   1.077   5.104 -0.8926 -0.2382 -0.0539
 1123SOL    HW115002   0.151   1.016   5.139 -1.3886 -1.0119 -2.2791
 1123SOL    HW215003   0.180   1.080   5.015  0.7228 -0.2089 -0.6907
 1124SOL     OW15004   2.337   4.561  14.561 -0.1573  0.3653  0.1685
 1124SOL    HW115005   2.353   4.596  14.648  1.3181  1.8821 -0.7112
 1124SOL    HW215006   2.302   4.480  14.599 -0.5913 -0.3991 -1.8397
 1125SOL     OW15007   2.625   3.756   6.649 -0.1708  0.2121  0.4426
 1125SOL    HW115008   2.545   3.788   6.606  0.5079  1.0813 -0.1506
 1125SOL    HW215009   2.681   3.823   6.611 -0.7550  1.0009  0.9812
 1126SOL     OW15010   1.846   3.898   2.239 -0.0390 -0.0463 -0.0097
 1126SOL    HW115011   1.933   3.862   2.220  0.8733  1.7710  0.7337
 1126SOL    HW215012   1.811   3.824   2.289  1.8387 -0.2015  1.0638
 1127SOL     OW15013   0.694   4.544   7.598  0.1301 -0.0034  0.0360
 1127SOL    HW115014   0.718   4.463   7.644 -2.4983 -0.8926 -0.1036
 1127SOL    HW215015   0.754   4.598   7.648 -4.2076  4.4865  0.4252
 1128SOL     OW15016   4.052   1.376   8.101  0.2738  0.6034 -0.0242
 1128SOL    HW115017   4.028   1.379   8.008  1.3194  2.3325 -0.2432
 1128SOL    HW215018   3.997   1.448   8.134  0.1229  0.3764  0.2220
 1129SOL     OW15019   1.139   3.556   3.678  0.1234  0.2553  0.0461
 1129SOL    HW115020   1.188   3.626   3.722 -2.5124  1.7204  0.6191
 1129SOL    HW215021   1.173   3.484   3.730  0.1109  0.4221  0.2853
 1130SOL     OW15022   3.888   2.286   6.227 -0.5688 -0.1048  0.0145
 1130SOL    HW115023   3.843   2.340   6.292 -2.1862 -2.1560  0.6384
 1130SOL    HW215024   3.893   2.200   6.269 -1.7927  0.3023  0.9907
 1131SOL     OW15025   2.475   2.128   9.391 -0.3801 -0.5332  0.5387
 1131SOL    HW115026   2.466   2.159   9.301 -2.4960  1.8903  1.5780
 1131SOL    HW215027   2.540   2.058   9.393 -1.4181 -1.5746 -3.2329
 1132SOL     OW15028   1.707   3.581   8.813  0.1894 -0.6495  0.4149
 1132SOL    HW115029   1.801   3.562   8.809  0.9145  3.4823 -2.3936
 1132SOL    HW215030   1.682   3.503   8.861  0.4957 -0.4054  0.9720
 1133SOL     OW15031   2.753   0.378  14.938 -0.0194 -0.2521 -0.3087
 1133SOL    HW115032   2.759   0.435  15.014  3.2297 -1.9367  0.6828
 1133SOL    HW215033   2.836   0.399  14.896 -0.2987  2.2351  0.3795
 1134SOL     OW15034   1.886   4.424   2.946 -0.1054  0.6978  0.0630
 1134SOL    HW115035   1.971   4.420   2.903 -0.1204 -0.7287  0.1874
 1134SOL    HW215036   1.882   4.518   2.966  0.6835  0.5162  1.0567
 1135SOL     OW15037   1.190   0.093   2.439 -0.7461  0.9283 -0.4500
 1135SOL    HW115038   1.157   0.077   2.528 -1.0894 -0.1831 -0.7749
 1135SOL    HW215039   1.109   0.111   2.392 -0.6959  0.8481 -0.5672
 1136SOL     OW15040   0.194   4.737   4.035 -0.1843  0.3707  0.9456
 1136SOL    HW115041   0.215   0.043   4.115 -1.2152  1.2319  0.7147
 1136SOL    HW215042   0.146   0.063   3.987  1.0457 -0.6732 -1.7648
 1137SOL     OW15043   2.142   2.249   8.461 -0.2175 -0.2995  0.2690
 1137SOL    HW115044   2.050   2.262   8.485  0.4191  1.2433  1.8692
 1137SOL    HW215045   2.125   2.273   8.370 -2.0867  0.3132  0.7737
 1138SOL     OW15046   4.329   3.119   3.406  0.0999 -0.0701 -0.2424
 1138SOL    HW115047   4.365   3.151   3.489  2.7983  1.1343 -1.9191
 1138SOL    HW215048   4.346   3.025   3.410  1.0737  0.0198 -2.3780
 1139SOL     OW15049   2.995   3.741   1.542  0.3532  0.4823  0.3206
 1139SOL    HW115050   3.016   3.781   1.457  0.2777 -1.8469 -0.8004
 1139SOL    HW215051   2.910   3.703   1.523  0.1487  1.3857 -0.5772
 1140SOL     OW15052   0.576   4.640   7.960 -0.0226 -0.1709 -0.1319
 1140SOL    HW115053   0.582   4.735   7.967  1.5215 -0.3090  0.4261
 1140SOL    HW215054   0.591   4.598   8.044 -1.3016  1.9200  1.1261
 1141SOL     OW15055   0.499   3.512  16.307  0.1386 -0.5039 -0.0591
 1141SOL    HW115056   0.509   3.475  16.394 -1.2681 -1.0649 -0.1252
 1141SOL    HW215057   0.532   3.601  16.323  0.3637 -0.1611 -2.3530
 1142SOL     OW15058   2.409   1.124  17.736  0.1076  0.5128  0.0990
 1142SOL    HW115059   2.336   1.096  17.681 -1.2219 -0.6457  2.4432
 1142SOL    HW215060   2.386   1.086   0.060  0.1799  2.0055  0.7869
 1143SOL     OW15061   3.241   0.563   5.690  0.4662  0.0221  0.0347
 1143SOL    HW115062   3.280   0.615   5.760  0.2305 -0.8468  0.8218
 1143SOL    HW215063   3.285   0.478   5.682 -2.5081 -1.5181  0.0111
 1144SOL     OW15064   3.611   3.673   7.288  0.0599  0.0911  0.3278
 1144SOL    HW115065   3.587   3.758   7.323 -2.3677  1.0221 -3.5629
 1144SOL    HW215066   3.534   3.644   7.239  0.2546 -1.0423  0.6938
 1145SOL     OW15067   3.256   1.668   3.297 -0.1720  0.2070 -0.2237
 1145SOL    HW115068   3.295   1.745   3.254 -1.0366 -1.1092 -3.3550
 1145SOL    HW215069   3.192   1.643   3.230 -0.9782 -0.3869  0.7714
 1146SOL     OW15070   0.218   0.631   1.920 -0.5714  0.6725  0.3181
 1146SOL    HW115071   0.231   0.711   1.869  0.5211 -0.7313 -1.6126
 1146SOL    HW215072   0.246   0.556   1.867  1.0532  1.4179  0.1312
 1147SOL     OW15073   2.027   0.821  16.479 -0.2323 -1.1294  0.0571
 1147SOL    HW115074   1.951   0.872  16.509  0.0625 -1.1863  0.9097
 1147SOL    HW215075   2.067   0.870  16.407 -1.7597  0.3511  0.1961
 1148SOL     OW15076   0.199   1.834   4.665 -0.3207  0.4682 -0.4428
 1148SOL    HW115077   0.205   1.880   4.582 -0.3146  0.1673 -0.6082
 1148SOL    HW215078   0.106   1.853   4.671  0.1140  2.5798 -0.4055
 1149SOL     OW15079   2.719   2.054  15.994  0.0256 -0.2051 -0.0138
 1149SOL    HW115080   2.664   2.126  16.027 -1.0851 -0.0484 -2.2099
 1149SOL    HW215081   2.650   2.005  15.949 -0.0694  0.3416 -0.4774
 1150SOL     OW15082   3.024   2.508   8.046 -0.2930 -0.1000 -0.1672
 1150SOL    HW115083   3.037   2.541   7.957 -2.8612  1.1313 -0.0756
 1150SOL    HW215084   2.960   2.438   8.036  0.6071 -1.2169  1.9175
 1151SOL     OW15085   1.071   4.000  12.598  0.6714 -0.2017  0.7081
 1151SOL    HW115086   1.114   3.984  12.514  2.5422 -1.8702  2.0001
 1151SOL    HW215087   1.138   4.049  12.645  0.0281  2.0181 -0.6923
 1152SOL     OW15088   3.828   2.861   7.978  0.6851  0.0475  0.5483
 1152SOL    HW115089   3.781   2.907   7.908 -0.9933  0.0163  1.6573
 1152SOL    HW215090   3.892   2.810   7.929 -0.6425 -0.2023 -0.8977
 1153SOL     OW15091   3.294   1.450   7.866 -0.7211  0.3215 -0.6483
 1153SOL    HW115092   3.375   1.485   7.905 -0.0343 -1.7655 -0.1914
 1153SOL    HW215093   3.264   1.383   7.928 -1.0547  0.5323 -0.5802
 1154SOL     OW15094   2.305   1.292   9.169  0.2845 -0.0514  0.1202
 1154SOL    HW115095   2.346   1.205   9.174  0.1650 -0.1415 -0.4484
 1154SOL    HW215096   2.220   1.266   9.135  0.4777 -2.8724  1.7535
 1155SOL     OW15097   3.939   0.606   5.503 -0.4236  0.0710 -0.2289
 1155SOL    HW115098   3.880   0.568   5.438  1.0899  1.2607 -2.3145
 1155SOL    HW215099   3.871   0.664   5.539  0.2640  1.0103 -0.4366
 1156SOL     OW15100   4.137   0.917   5.288 -0.2821 -0.4989 -0.5884
 1156SOL    HW115101   4.041   0.908   5.281 -0.4540  1.0283 -0.1551
 1156SOL    HW215102   4.131   1.001   5.333  2.1901 -1.9050  2.4255
 1157SOL     OW15103   1.628   1.304   7.013 -0.4220 -0.1923 -0.3847
 1157SOL    HW115104   1.627   1.389   6.969 -2.1238  0.1513  0.2914
 1157SOL    HW215105   1.717   1.307   7.047 -0.9901  1.7375  0.9065
 1158SOL     OW15106   3.948   4.221   8.785  0.1111  1.0025 -0.3335
 1158SOL    HW115107   3.982   4.310   8.799  0.9549  0.2812  2.2985
 1158SOL    HW215108   4.032   4.178   8.769 -0.3695 -0.2676  0.6207
 1159SOL     OW15109   0.110   0.485   8.778  0.1596 -0.6402  0.1236
 1159SOL    HW115110   0.179   0.469   8.713 -0.2111 -2.9199  0.3038
 1159SOL    HW215111   0.165   0.492   8.856  2.2637  2.0167 -1.6014
 1160SOL     OW15112   0.625   2.343   7.994 -0.7641  0.6759 -0.5717
 1160SOL    HW115113   0.555   2.385   7.943 -0.6864  1.1827 -0.2506
 1160SOL    HW215114   0.687   2.413   8.012 -0.0261 -0.1429  0.0412
 1161SOL     OW15115   1.370   4.400   2.007  0.4994 -0.1696  0.1894
 1161SOL    HW115116   1.412   4.439   2.084 -0.2378 -2.8140  1.9278
 1161SOL    HW215117   1.287   4.445   1.992  0.1593 -0.8116  0.1768
 1162SOL     OW15118   2.630   2.589  11.348 -0.7314 -0.1159 -0.1179
 1162SOL    HW115119   2.676   2.649  11.407 -1.7581  0.0664  0.5011
 1162SOL    HW215120   2.666   2.616  11.263 -0.3905  0.7949  0.3101
 1163SOL     OW15121   0.459   2.645   0.657  0.3833 -0.5638 -0.3150
 1163SOL    HW115122   0.386   2.702   0.680  0.5857 -0.1144 -0.7749
 1163SOL    HW215123   0.413   2.593   0.591  2.0315 -0.5141 -1.4983
 1164SOL     OW15124   0.546   0.949   6.078 -0.3051 -0.4390  0.6724
 1164SOL    HW115125   0.598   0.938   5.998 -1.8955  0.6990 -0.5300
 1164SOL    HW215126   0.541   1.045   6.084 -0.1339 -0.5054  1.8612
 1165SOL     OW15127   0.102   4.672   6.992  0.2188  0.3314  0.4882
 1165SOL    HW115128   0.194   4.694   6.980  0.3365  0.5823  1.8488
 1165SOL    HW215129   0.091   4.638   7.081  0.1945 -2.1901 -0.4807
 1166SOL     OW15130   1.306   4.412   3.701  0.2676 -0.5111 -0.4070
 1166SOL    HW115131   1.263   4.377   3.623  0.7470  1.5833 -1.6162
 1166SOL    HW215132   1.237   4.403   3.766  0.6510  0.2644  0.1143
 1167SOL     OW15133   0.991   2.137  16.062 -0.3025 -0.2311  0.2503
 1167SOL    HW115134   0.925   2.170  16.001 -0.8369 -1.6844  0.0509
 1167SOL    HW215135   1.034   2.215  16.098  0.7355 -0.1820 -1.1311
 1168SOL     OW15136   1.099   1.241  11.859  0.1461  0.2687  0.5107
 1168SOL    HW115137   1.049   1.258  11.778 -0.4980  0.8434  1.0225
 1168SOL    HW215138   1.060   1.302  11.921  0.2980  2.2673 -1.3465
 1169SOL     OW15139   4.139   4.029   6.145 -0.0897 -0.1661  0.1084
 1169SOL    HW115140   4.173   4.012   6.057 -0.0426 -0.9591  0.2793
 1169SOL    HW215141   4.195   4.098   6.180  0.1877 -0.4466  0.2135
 1170SOL     OW15142   0.250   2.021   0.474 -0.7877 -0.2935  0.8981
 1170SOL    HW115143   0.176   2.056   0.424  0.2951  0.7049 -0.0089
 1170SOL    HW215144   0.225   1.930   0.491 -0.8288 -0.3251  0.6762
 1171SOL     OW15145   3.228   1.560  11.595 -0.3308 -0.0533 -0.5836
 1171SOL    HW115146   3.214   1.646  11.553  2.5938  1.7070  1.9942
 1171SOL    HW215147   3.145   1.517  11.575 -0.8495  0.0354  1.3804
 1172SOL     OW15148   3.679   1.366   7.859  0.2224 -0.0268  0.6028
 1172SOL    HW115149   3.621   1.312   7.805 -1.5802  0.2830  2.2199
 1172SOL    HW215150   3.661   1.336   7.948  1.2621 -0.4892  0.6641
 1173SOL     OW15151   0.987   2.913   3.490 -0.4086 -0.0384  0.6510
 1173SOL    HW115152   0.929   2.867   3.429  1.8618 -2.9164  0.6901
 1173SOL    HW215153   1.074   2.890   3.459 -0.5951 -1.3155  1.0350
 1174SOL     OW15154   0.568   1.954  11.036 -0.2675 -0.2823  0.2346
 1174SOL    HW115155   0.630   2.023  11.060 -0.6762 -0.6306  2.3055
 1174SOL    HW215156   0.494   1.975  11.093  0.4638  0.0606  1.0562
 1175SOL     OW15157   3.323   1.705   6.892  0.1952 -0.2443 -0.1727
 1175SOL    HW115158   3.336   1.713   6.987  0.7881 -1.4105 -0.1611
 1175SOL    HW215159   3.326   1.612   6.873  2.0300  0.1341 -1.6866
 1176SOL     OW15160   1.007   4.130   3.779  0.0397  0.2985  0.2789
 1176SOL    HW115161   0.918   4.110   3.810  0.1358 -0.2874  0.1745
 1176SOL    HW215162   1.007   4.072   3.703 -0.9327 -1.9493  1.9997
 1177SOL     OW15163   2.190   2.055   9.364  0.4897  0.6617 -0.1414
 1177SOL    HW115164   2.149   2.037   9.448  1.9359 -0.2888  0.3481
 1177SOL    HW215165   2.282   2.067   9.388  0.0146  0.7931  1.5748
 1178SOL     OW15166   1.299   3.726   1.922  0.4500  0.1219 -0.1799
 1178SOL    HW115167   1.330   3.681   1.843  3.0772 -0.6943  1.3051
 1178SOL    HW215168   1.376   3.771   1.956  1.3982 -1.4879 -0.2276
 1179SOL     OW15169   0.549   4.647   0.477 -0.0459 -0.0293  0.1206
 1179SOL    HW115170   0.617   4.584   0.498  0.1666  0.0432 -0.3702
 1179SOL    HW215171   0.548   4.699   0.558  0.9384  0.1917 -0.0107
 1180SOL     OW15172   3.693   2.472   8.969  0.0340 -0.4294 -0.7142
 1180SOL    HW115173   3.725   2.494   9.057 -0.6497  0.5523 -0.7087
 1180SOL    HW215174   3.751   2.526   8.915 -1.1302  0.3416 -1.1898
 1181SOL     OW15175   3.388   2.660   5.249  0.5056 -0.3440 -0.2275
 1181SOL    HW115176   3.438   2.579   5.240  0.6699 -0.1674 -0.9250
 1181SOL    HW215177   3.327   2.652   5.176  1.2713 -1.4969 -0.7362
 1182SOL     OW15178   0.164   4.628  11.154 -0.2103  0.5412  0.4285
 1182SOL    HW115179   0.201   4.636  11.066  0.1530  0.1142  0.5412
 1182SOL    HW215180   0.131   4.716  11.171 -0.4498  0.4246  0.5619
 1183SOL     OW15181   2.577   4.297   1.998  0.1309 -0.3706  0.0884
 1183SOL    HW115182   2.492   4.258   2.019  0.0311  0.5207  1.3347
 1183SOL    HW215183   2.635   4.253   2.061  2.0627  2.6781  0.4122
 1184SOL     OW15184   3.246   3.314  10.170 -0.6163  0.2027 -0.0673
 1184SOL    HW115185   3.244   3.219  10.162 -0.4189  0.0778  1.4091
 1184SOL    HW215186   3.340   3.324  10.157 -0.3208 -0.4906  1.5035
 1185SOL     OW15187   4.030   2.364  11.329 -0.7508 -0.4599 -0.3632
 1185SOL    HW115188   4.043   2.454  11.299  0.2290  0.3979  2.6444
 1185SOL    HW215189   4.002   2.371  11.421  0.9325 -0.1535  0.1174
 1186SOL     OW15190   0.025   4.527   3.546 -0.6364  0.8983  0.2278
 1186SOL    HW115191   4.726   4.581   3.614  0.0798  0.3815  1.0453
 1186SOL    HW215192   4.692   4.527   3.485 -1.5105 -0.6037  1.2731
 1187SOL     OW15193   1.951   4.128   6.676  0.1918  0.0686 -0.3826
 1187SOL    HW115194   1.897   4.140   6.597 -0.1449 -0.2108 -0.1958
 1187SOL    HW215195   1.893   4.086   6.740  0.3164 -0.0607 -0.3544
 1188SOL     OW15196   0.625   0.813   0.821 -0.2515  0.5917 -0.1851
 1188SOL    HW115197   0.629   0.898   0.865  0.9922  0.2098  0.4292
 1188SOL    HW215198   0.612   0.761   0.900 -1.0136 -0.0484 -0.7355
 1189SOL     OW15199   0.147   3.048   7.540  0.4715  0.2084  0.2953
 1189SOL    HW115200   0.060   3.042   7.579 -0.1584  0.3854 -1.0842
 1189SOL    HW215201   0.207   3.012   7.606 -0.2515 -1.1077  0.2188
 1190SOL     OW15202   1.556   0.653   2.691 -0.4555  0.5329  0.4342
 1190SOL    HW115203   1.646   0.682   2.704  0.3455 -1.3979 -0.9242
 1190SOL    HW215204   1.566   0.559   2.705  2.1742  1.1450  2.6831
 1191SOL     OW15205   4.310   0.436   2.290  0.2681  0.3660 -0.2369
 1191SOL    HW115206   4.254   0.513   2.287  1.8389  1.6234  2.8500
 1191SOL    HW215207   4.248   0.374   2.328  2.3867 -1.9036 -0.4925
 1192SOL     OW15208   1.124   0.364   8.592  0.2476  0.1424  0.2574
 1192SOL    HW115209   1.119   0.376   8.687  2.2067  1.8476  0.1309
 1192SOL    HW215210   1.112   0.455   8.564 -0.4132  0.2712  0.9644
 1193SOL     OW15211   0.041   2.948   5.190 -0.3029 -0.2309 -0.0191
 1193SOL    HW115212   4.709   2.923   5.133 -0.7877 -0.2610  0.6160
 1193SOL    HW215213   0.102   2.987   5.127 -1.4959  2.4598  0.5166
 1194SOL     OW15214   2.875   3.842   5.620 -0.0703 -0.1813 -0.1394
 1194SOL    HW115215   2.813   3.858   5.549  0.1370  1.1625 -0.0185
 1194SOL    HW215216   2.828   3.848   5.703 -0.2636 -0.6068 -0.2229
 1195SOL     OW15217   4.051   1.629   0.554  0.2020 -0.2856 -0.3575
 1195SOL    HW115218   4.122   1.655   0.495  3.8903 -4.2235  2.3491
 1195SOL    HW215219   4.003   1.575   0.491  0.7654 -0.4173 -0.6700
 1196SOL     OW15220   3.040   1.892  17.561 -0.8188  0.1736  0.2828
 1196SOL    HW115221   3.087   1.964  17.603 -0.9775 -0.0183  0.7878
 1196SOL    HW215222   3.112   1.829  17.569 -0.8354  0.3284  1.6945
 1197SOL     OW15223   2.591   3.552   3.655 -0.0757  0.0832 -0.1928
 1197SOL    HW115224   2.606   3.646   3.665 -2.6962  0.3750  0.9934
 1197SOL    HW215225   2.496   3.542   3.651  0.0020 -0.4076 -0.9478
 1198SOL     OW15226   3.605   4.022   8.261  0.2941 -0.0171  0.2797
 1198SOL    HW115227   3.695   4.030   8.294  0.8928 -1.3151 -1.0611
 1198SOL    HW215228   3.612   3.931   8.235 -1.0554  0.6537 -2.3979
 1199SOL     OW15229   4.453   1.969   3.813 -0.3949 -0.2699  0.2659
 1199SOL    HW115230   4.406   1.912   3.874  0.4383  0.6798  1.7951
 1199SOL    HW215231   4.383   2.005   3.760 -0.1745 -0.5428 -0.2097
 1200SOL     OW15232   3.596   2.795   7.104 -0.0588 -1.0703 -0.1702
 1200SOL    HW115233   3.637   2.812   7.189  0.7431 -1.1578 -0.5426
 1200SOL    HW215234   3.609   2.881   7.063  3.2751 -1.0859  0.8595
 1201SOL     OW15235   0.891   2.609   4.749  0.3381  0.3340  0.0397
 1201SOL    HW115236   0.900   2.564   4.665 -0.2607  0.7658 -0.2589
 1201SOL    HW215237   0.984   2.615   4.771  0.3952 -0.5784  0.0370
 1202SOL     OW15238   2.390   0.922  15.006  0.3565 -1.0464  0.6585
 1202SOL    HW115239   2.295   0.919  15.016  0.1531  0.4376 -0.8323
 1202SOL    HW215240   2.406   0.971  15.086 -2.3820  1.5179 -0.4031
 1203SOL     OW15241   2.233   3.653   5.020  0.0695  0.1022  0.3297
 1203SOL    HW115242   2.165   3.651   4.952  1.3036  1.4493 -0.9367
 1203SOL    HW215243   2.239   3.744   5.048 -1.5932  0.3388 -0.0597
 1204SOL     OW15244   0.393   3.482   7.219  0.4433  0.3325  0.0585
 1204SOL    HW115245   0.341   3.435   7.284  0.5423  0.3258  0.1318
 1204SOL    HW215246   0.481   3.475   7.255  0.3122 -0.0171  0.3137
 1205SOL     OW15247   0.683   1.195  14.078 -0.5984  0.2639 -0.2253
 1205SOL    HW115248   0.725   1.117  14.042  0.8209  1.4168 -1.0666
 1205SOL    HW215249   0.685   1.189  14.174 -1.1162  0.4862 -0.2058
 1206SOL     OW15250   3.207   4.523  12.953  0.6954  0.0887 -0.0457
 1206SOL    HW115251   3.129   4.566  12.987  1.4962  2.6413 -1.4458
 1206SOL    HW215252   3.239   4.580  12.883  1.7765 -0.8153 -0.2814
 1207SOL     OW15253   0.291   2.737   1.501  0.0921  0.1367  0.4121
 1207SOL    HW115254   0.231   2.761   1.572 -0.6685  0.8114 -0.4484
 1207SOL    HW215255   0.325   2.654   1.532 -0.1374 -0.1882 -0.2071
 1208SOL     OW15256   2.386   4.430   5.051  0.1361 -0.1895 -0.0066
 1208SOL    HW115257   2.429   4.348   5.029  1.0794  0.3789 -0.3101
 1208SOL    HW215258   2.315   4.399   5.106  0.9423 -0.4234  0.8869
 1209SOL     OW15259   2.187   3.741   5.558 -0.2205 -0.1093 -0.9985
 1209SOL    HW115260   2.214   3.654   5.528  0.2882 -0.3349  0.1229
 1209SOL    HW215261   2.094   3.736   5.535 -0.2311 -1.4061 -0.7096
 1210SOL     OW15262   0.684   0.248   7.321  0.2646 -0.2992 -0.1837
 1210SOL    HW115263   0.644   0.204   7.397 -0.1098 -1.4103 -1.0242
 1210SOL    HW215264   0.772   0.210   7.324  0.0674 -0.8285 -1.0708
 1211SOL     OW15265   2.169   3.233   7.286 -0.7459  0.7276  0.4784
 1211SOL    HW115266   2.178   3.187   7.202 -1.7755  0.3383  0.5893
 1211SOL    HW215267   2.099   3.183   7.326 -1.4021  0.1820 -1.3462
 1212SOL     OW15268   2.377   0.789  13.537 -0.2169 -0.0463  0.2657
 1212SOL    HW115269   2.350   0.698  13.524  0.9867 -0.5286  1.1213
 1212SOL    HW215270   2.460   0.792  13.490  1.9463 -1.5587  3.9593
 1213SOL     OW15271   3.063   0.482   6.997  0.6646 -0.1104  0.7969
 1213SOL    HW115272   3.102   0.557   7.041  0.9817  0.4191 -0.4053
 1213SOL    HW215273   3.083   0.484   6.904 -0.5172  0.4888  0.5630
 1214SOL     OW15274   4.062   1.024   8.348 -0.6524 -0.0451 -0.2434
 1214SOL    HW115275   4.085   1.075   8.425  0.8697 -0.2783 -0.5377
 1214SOL    HW215276   4.142   0.995   8.303  1.5171  1.6228  2.5278
 1215SOL     OW15277   3.547   0.394   6.510 -0.2059  0.1528 -0.2840
 1215SOL    HW115278   3.511   0.325   6.455  0.4780  0.5854 -1.2791
 1215SOL    HW215279   3.522   0.365   6.597 -1.0760 -0.1059 -0.6217
 1216SOL     OW15280   1.021   2.919   2.216 -0.1822  0.1374 -0.0995
 1216SOL    HW115281   0.948   2.885   2.267  1.0315  1.3761  2.4553
 1216SOL    HW215282   1.091   2.924   2.282  0.0334  1.0645 -0.4039
 1217SOL     OW15283   0.226   4.231  17.161 -0.4143  0.0974 -0.1890
 1217SOL    HW115284   0.149   4.199  17.114  0.2380 -1.2772 -0.3526
 1217SOL    HW215285   0.286   4.244  17.087 -0.2753  0.3058 -0.0409
 1218SOL     OW15286   1.049   1.114   9.656 -0.4806  0.4828  0.0524
 1218SOL    HW115287   1.141   1.095   9.643 -0.3834  1.0949 -0.1488
 1218SOL    HW215288   1.005   1.050   9.601 -0.5741  0.2686  0.3747
 1219SOL     OW15289   3.639   1.771   5.115  0.5071  0.0902  0.1281
 1219SOL    HW115290   3.576   1.707   5.147  0.6719 -0.2438 -0.2209
 1219SOL    HW215291   3.621   1.849   5.168 -1.7067 -0.7385  0.6021
 1220SOL     OW15292   4.323   0.622   8.323 -0.1103 -0.5748  0.1370
 1220SOL    HW115293   4.335   0.529   8.303  1.2953  0.0837 -2.0742
 1220SOL    HW215294   4.389   0.650   8.260 -2.0403  2.1519 -0.6340
 1221SOL     OW15295   0.162   3.066   4.292  0.1176 -0.0358  0.4277
 1221SOL    HW115296   0.186   3.105   4.208 -0.0332  0.4249  0.5979
 1221SOL    HW215297   0.247   3.081   4.333  0.9114 -0.8004 -0.9151
 1222SOL     OW15298   0.357   2.564   2.277 -0.7004  0.2264 -0.2184
 1222SOL    HW115299   0.338   2.626   2.347 -1.3986 -1.3831  1.0101
 1222SOL    HW215300   0.299   2.491   2.301  2.6060 -2.6625 -0.9841
 1223SOL     OW15301   0.068   1.873   7.896 -0.2344  0.5164  0.2859
 1223SOL    HW115302   0.034   1.800   7.948  1.0261  1.0405  1.8325
 1223SOL    HW215303   4.729   1.923   7.880 -2.7263 -3.1970  1.1921
 1224SOL     OW15304   4.505   2.059   0.122  0.2233  0.2505  0.2141
 1224SOL    HW115305   4.555   2.084   0.044  0.9615  0.0960  0.6385
 1224SOL    HW215306   4.537   2.137   0.169 -1.0305  1.3040 -0.6940
 1225SOL     OW15307   1.252   3.444   6.970 -0.4463 -0.2222  0.3332
 1225SOL    HW115308   1.289   3.369   7.016 -2.3824 -0.5493  1.3209
 1225SOL    HW215309   1.298   3.523   7.000 -0.8723 -0.4887  1.6617
 1226SOL     OW15310   0.811   3.549  14.555 -0.8094 -0.1711 -0.1284
 1226SOL    HW115311   0.795   3.456  14.536 -1.8087 -0.3639  1.6269
 1226SOL    HW215312   0.813   3.576  14.463  4.9878 -0.1339 -0.0122
 1227SOL     OW15313   0.344   3.264   9.123  0.1657 -0.3713 -0.5543
 1227SOL    HW115314   0.370   3.266   9.215 -0.6187  0.3466 -0.3470
 1227SOL    HW215315   0.430   3.281   9.085  0.1262  2.6319  0.6634
 1228SOL     OW15316   4.264   4.029  15.351  0.3133  0.1679 -0.2272
 1228SOL    HW115317   4.185   4.032  15.296  2.6769  1.7846 -3.4883
 1228SOL    HW215318   4.305   3.947  15.326 -1.9915 -0.4665 -2.0287
 1229SOL     OW15319   0.911   2.414   3.685  0.4590 -0.0616  0.2927
 1229SOL    HW115320   0.988   2.445   3.732 -0.5173  1.7757  0.6389
 1229SOL    HW215321   0.841   2.423   3.749  1.7808  2.6753  1.3323
 1230SOL     OW15322   0.172   1.862   6.287 -0.1771  0.1474 -0.1197
 1230SOL    HW115323   0.109   1.792   6.302  0.5052 -0.2118  1.0807
 1230SOL    HW215324   0.243   1.837   6.346 -0.0448 -0.8490 -0.7122
 1231SOL     OW15325   3.490   1.173   7.742  0.4900 -0.0857  0.3948
 1231SOL    HW115326   3.511   1.100   7.685  1.7784  3.1876 -3.2757
 1231SOL    HW215327   3.395   1.164   7.746  0.6628 -2.2814 -0.9702
 1232SOL     OW15328   0.412   4.516   2.321  0.4550  0.0131 -0.2163
 1232SOL    HW115329   0.487   4.573   2.302  1.1466 -0.6784  0.3874
 1232SOL    HW215330   0.428   4.485   2.411 -1.4354 -1.0250 -0.2338
 1233SOL     OW15331   1.763   0.871   4.691  0.0203 -0.1036 -0.5229
 1233SOL    HW115332   1.705   0.846   4.763  2.0787 -1.6337  0.6072
 1233SOL    HW215333   1.714   0.844   4.613 -2.1742 -1.7174  1.4066
 1234SOL     OW15334   1.316   4.114   2.098 -0.4032 -0.2490 -0.8314
 1234SOL    HW115335   1.326   4.203   2.064  0.1927 -0.7592 -1.9812
 1234SOL    HW215336   1.224   4.100   2.078 -1.3505  3.3361  0.9809
 1235SOL     OW15337   1.821   1.403   4.742  0.4571 -0.1649  0.0992
 1235SOL    HW115338   1.817   1.433   4.652 -2.3356 -1.5188 -0.2531
 1235SOL    HW215339   1.825   1.308   4.730 -1.6784 -0.1931 -0.4125
 1236SOL     OW15340   1.377   0.198  16.601 -0.0940 -0.1462 -0.1004
 1236SOL    HW115341   1.366   0.270  16.539  1.1228 -0.6446 -0.8826
 1236SOL    HW215342   1.304   0.145  16.568  0.8874 -1.1615 -0.6302
 1237SOL     OW15343   0.283   4.151  10.633  0.1995  0.0103 -0.5201
 1237SOL    HW115344   0.314   4.090  10.566 -0.2427 -0.6366 -0.1364
 1237SOL    HW215345   0.347   4.147  10.703  0.4851 -0.9515 -0.8387
 1238SOL     OW15346   2.948   2.940   4.338  0.0144  0.0207 -0.2592
 1238SOL    HW115347   2.862   2.949   4.296  0.4571  0.8507 -1.0139
 1238SOL    HW215348   2.939   2.876   4.408  3.1903  2.5210  2.3901
 1239SOL     OW15349   2.980   3.373   0.772 -0.1360  0.0503 -0.5314
 1239SOL    HW115350   3.028   3.455   0.761  2.3556 -1.1069  1.6564
 1239SOL    HW215351   3.052   3.316   0.800 -0.7350 -0.1067  0.6894
 1240SOL     OW15352   1.956   3.023   8.166  0.1934 -0.0879  0.2092
 1240SOL    HW115353   1.940   2.933   8.136 -1.8532  0.6692 -0.9039
 1240SOL    HW215354   1.987   3.002   8.254 -2.7770 -0.9970  1.0131
 1241SOL     OW15355   1.061   3.486   6.473  0.3285  0.1033 -0.5002
 1241SOL    HW115356   1.079   3.420   6.405  0.3294 -1.0309  0.6131
 1241SOL    HW215357   1.135   3.480   6.534  0.3036  2.6724 -0.1953
 1242SOL     OW15358   1.402   2.089   9.827 -0.1182 -0.1416 -0.3811
 1242SOL    HW115359   1.481   2.036   9.842  0.8410  0.9247 -1.5889
 1242SOL    HW215360   1.426   2.122   9.741  0.4656  2.7814  0.9042
 1243SOL     OW15361   3.898   2.197  15.539  0.2210 -0.4238  0.0112
 1243SOL    HW115362   3.981   2.192  15.587 -1.5470 -0.0916  3.0668
 1243SOL    HW215363   3.858   2.115  15.567 -0.3025 -0.3036 -0.3952
 1244SOL     OW15364   2.656   4.211   8.556 -0.4773  0.0503  0.0269
 1244SOL    HW115365   2.653   4.237   8.648 -0.2541 -0.0725  0.0688
 1244SOL    HW215366   2.607   4.283   8.516 -2.5912 -0.5391  1.5495
 1245SOL     OW15367   1.886   0.252  10.520  0.4119 -0.3208  0.0684
 1245SOL    HW115368   1.959   0.248  10.581  0.2275  1.1758  0.3872
 1245SOL    HW215369   1.815   0.225  10.579 -0.1659  0.1069 -0.4239
 1246SOL     OW15370   3.971   2.724   1.872  0.5780 -0.0526 -0.2143
 1246SOL    HW115371   4.030   2.665   1.919  0.2094  0.4285  0.8624
 1246SOL    HW215372   3.981   2.685   1.785 -3.5062 -2.0386  0.2338
 1247SOL     OW15373   0.784   1.688   8.782  0.6087 -0.4784  0.9286
 1247SOL    HW115374   0.767   1.775   8.746  0.6550 -0.9372 -0.2038
 1247SOL    HW215375   0.802   1.709   8.874  1.3625 -0.3218  0.7422
 1248SOL     OW15376   0.652   2.026   7.906 -0.1841 -0.4144 -0.2808
 1248SOL    HW115377   0.630   2.077   7.828 -0.9600 -1.6181 -0.8554
 1248SOL    HW215378   0.581   1.962   7.902  0.5253 -1.3044  1.7887
 1249SOL     OW15379   1.566   0.548  16.310  0.2697 -1.0237  0.0800
 1249SOL    HW115380   1.525   0.635  16.315 -0.3933 -1.2478 -1.5153
 1249SOL    HW215381   1.536   0.511  16.393  0.1752 -0.5829  0.2423
 1250SOL     OW15382   2.325   1.636   7.998  0.2258 -0.8773 -0.3573
 1250SOL    HW115383   2.233   1.608   8.001  0.1521 -0.5813  0.2750
 1250SOL    HW215384   2.346   1.598   7.913  2.4785 -2.8427  1.1016
 1251SOL     OW15385   2.598   3.224   5.163  0.2866  0.0010  0.5050
 1251SOL    HW115386   2.634   3.199   5.248 -0.9444 -2.5007  0.2704
 1251SOL    HW215387   2.617   3.318   5.170  0.1320 -0.0050  1.0270
 1252SOL     OW15388   2.477   3.816  14.489  0.4178 -0.2808  0.1217
 1252SOL    HW115389   2.391   3.775  14.478  0.4460  0.2540 -2.1650
 1252SOL    HW215390   2.502   3.819  14.396 -0.1043 -0.9640 -0.0439
 1253SOL     OW15391   3.464   0.960  11.851 -0.2612  0.2140 -0.0960
 1253SOL    HW115392   3.532   0.964  11.918  0.8298  1.5512 -1.2746
 1253SOL    HW215393   3.485   0.871  11.822  1.9437  0.7516 -0.1411
 1254SOL     OW15394   2.295   4.114   0.786 -0.9692 -0.0116  0.1859
 1254SOL    HW115395   2.282   4.202   0.752  1.0479  0.6989  1.2149
 1254SOL    HW215396   2.355   4.085   0.718 -0.8388 -1.6505  1.0064
 1255SOL     OW15397   0.483   0.686   6.266  0.2703 -0.1421 -0.4150
 1255SOL    HW115398   0.500   0.777   6.288  0.3437 -0.1177 -0.5753
 1255SOL    HW215399   0.398   0.669   6.307 -1.1647  1.2935 -2.7819
 1256SOL     OW15400   0.730   0.552   6.637 -0.0721  0.1679 -0.6643
 1256SOL    HW115401   0.707   0.459   6.632 -0.2799  0.0561  2.5483
 1256SOL    HW215402   0.646   0.590   6.661 -0.3999 -0.5740 -0.6398
 1257SOL     OW15403   1.980   2.778   2.405 -0.3451 -0.1078  0.2905
 1257SOL    HW115404   2.074   2.761   2.408 -0.6616 -1.6816  0.9709
 1257SOL    HW215405   1.981   2.873   2.421  1.7513  0.1967 -1.5855
 1258SOL     OW15406   3.329   2.185   5.813  0.2365  0.0411 -0.1509
 1258SOL    HW115407   3.363   2.231   5.890  1.3876  0.2711 -0.7857
 1258SOL    HW215408   3.372   2.100   5.824  0.1304 -0.0170 -0.1857
 1259SOL     OW15409   3.963   2.790   2.751 -0.2330 -0.8680 -0.2780
 1259SOL    HW115410   3.946   2.722   2.686 -0.9692  0.3485 -1.3595
 1259SOL    HW215411   4.058   2.801   2.746 -0.2689 -0.0542  0.7869
 1260SOL     OW15412   0.718   2.078  15.724 -0.7696 -0.5887  0.1051
 1260SOL    HW115413   0.778   2.139  15.768 -1.1032 -0.0630 -0.1765
 1260SOL    HW215414   0.781   2.026  15.674  2.1077  1.6809  1.3547
 1261SOL     OW15415   2.491   3.195   7.707  0.4715 -0.2228 -0.3706
 1261SOL    HW115416   2.509   3.111   7.749 -1.2100 -0.3129  0.1654
 1261SOL    HW215417   2.413   3.224   7.755 -0.0135 -0.2429 -1.1547
 1262SOL     OW15418   0.190   4.437   4.947 -0.7521 -0.0305 -0.4580
 1262SOL    HW115419   0.223   4.478   5.026 -0.4622 -1.1376 -0.0091
 1262SOL    HW215420   0.096   4.425   4.963 -0.4183  2.2351  3.0090
 1263SOL     OW15421   3.666   0.550   1.604  0.4655 -0.4758  0.6935
 1263SOL    HW115422   3.694   0.460   1.619  0.1087 -0.2926  2.4709
 1263SOL    HW215423   3.586   0.555   1.655  0.0759  0.4810 -0.0103
 1264SOL     OW15424   0.236   1.834   1.422  0.1088  0.0829 -0.3522
 1264SOL    HW115425   0.251   1.793   1.337 -1.1149 -1.5514  0.2389
 1264SOL    HW215426   0.202   1.759   1.470 -1.4275  1.0015 -0.0015
 1265SOL     OW15427   2.546   4.195  11.129 -0.2868 -0.1844 -0.1854
 1265SOL    HW115428   2.597   4.114  11.133 -1.4413 -0.8765  0.3074
 1265SOL    HW215429   2.623   4.251  11.114  0.2449 -0.2694  2.1632
 1266SOL     OW15430   1.775   0.924   0.929 -0.0539  0.0589  0.1082
 1266SOL    HW115431   1.819   0.865   0.867  0.9600  1.9902 -1.0215
 1266SOL    HW215432   1.780   0.862   1.002  0.4825 -0.2632 -0.1987
 1267SOL     OW15433   1.309   0.113  12.814 -0.6189  0.1240  0.1870
 1267SOL    HW115434   1.227   0.063  12.819  0.9699 -2.6739 -1.1766
 1267SOL    HW215435   1.352   0.078  12.892 -0.8910  0.8583  0.6564
 1268SOL     OW15436   3.413   1.477  11.857  0.3227  0.3862 -0.6035
 1268SOL    HW115437   3.435   1.562  11.894  1.4512 -0.3300  0.3962
 1268SOL    HW215438   3.417   1.428  11.940  4.6403 -0.9269 -1.5636
 1269SOL     OW15439   2.376   3.931  11.501 -0.2086 -0.0245  0.2019
 1269SOL    HW115440   2.317   3.882  11.558 -0.4209  0.0996  0.0907
 1269SOL    HW215441   2.389   3.875  11.425 -1.4759 -0.2236  0.1342
 1270SOL     OW15442   3.153   2.889   9.097 -0.0221 -0.3695  0.1270
 1270SOL    HW115443   3.071   2.869   9.143 -0.2878 -3.2192 -1.6353
 1270SOL    HW215444   3.161   2.812   9.041 -2.4792 -2.3366  2.4534
 1271SOL     OW15445   2.054   0.242   3.485  0.1410  0.4437 -0.2450
 1271SOL    HW115446   2.130   0.284   3.526  0.6745 -0.0146 -0.7613
 1271SOL    HW215447   2.012   0.200   3.560 -0.1681  0.7946 -0.2186
 1272SOL     OW15448   1.954   1.218   5.956 -0.1776  0.0892  0.0257
 1272SOL    HW115449   1.938   1.191   6.046  0.7120  0.8280  0.4064
 1272SOL    HW215450   2.029   1.164   5.929  1.2344  0.9043  2.3748
 1273SOL     OW15451   0.021   2.022   8.868  0.0082 -0.1667 -0.0722
 1273SOL    HW115452   0.020   1.940   8.820 -1.7848 -0.2479  0.1169
 1273SOL    HW215453   0.021   1.992   8.959  1.2765  0.7076  0.2097
 1274SOL     OW15454   1.726   4.125   1.254 -0.1479  0.3701  0.0605
 1274SOL    HW115455   1.718   4.209   1.209  0.8274  0.0967 -0.6093
 1274SOL    HW215456   1.765   4.069   1.187  2.1124  0.1781  1.5539
 1275SOL     OW15457   0.724   3.026  13.386 -0.5770 -0.0301  0.0641
 1275SOL    HW115458   0.791   2.959  13.379 -0.7123 -0.1298 -0.3150
 1275SOL    HW215459   0.645   2.972  13.392 -1.8391  1.6905 -0.6367
 1276SOL     OW15460   0.665   0.348   6.942 -0.1969 -0.1581  0.2389
 1276SOL    HW115461   0.642   0.343   6.849  1.2022  2.3318 -0.2318
 1276SOL    HW215462   0.753   0.311   6.939  1.3957  3.7510 -1.0025
 1277SOL     OW15463   2.145   4.034   5.858 -0.2374  0.3616 -0.1314
 1277SOL    HW115464   2.226   4.079   5.880 -0.2553  1.4164 -2.2094
 1277SOL    HW215465   2.105   4.035   5.945  1.7869 -1.1166  0.8243
 1278SOL     OW15466   1.883   1.632   2.596  0.5984 -0.4973  0.0515
 1278SOL    HW115467   1.881   1.557   2.656  0.6004 -1.2982 -0.9643
 1278SOL    HW215468   1.899   1.705   2.657  1.8911 -0.2783 -0.5523
 1279SOL     OW15469   1.620   4.429   5.537  0.9767  0.3288 -0.1934
 1279SOL    HW115470   1.561   4.504   5.521 -1.6776 -1.6954  0.0646
 1279SOL    HW215471   1.692   4.466   5.588  1.2244 -0.3054 -0.0940
 1280SOL     OW15472   3.861   2.910   0.547 -0.2930  0.1450 -0.4974
 1280SOL    HW115473   3.780   2.866   0.572 -0.3390  0.9316  0.7466
 1280SOL    HW215474   3.901   2.835   0.503 -1.3947 -0.5694 -0.2808
 1281SOL     OW15475   3.874   4.490   3.035  0.0903 -0.2782 -0.2433
 1281SOL    HW115476   3.959   4.501   2.992  0.6481  0.6023  1.0585
 1281SOL    HW215477   3.885   4.544   3.113  2.0432  2.3356 -2.3369
 1282SOL     OW15478   2.935   0.342   7.645 -0.0019  0.0171 -0.3302
 1282SOL    HW115479   2.918   0.358   7.552 -1.3979 -0.5921 -0.1782
 1282SOL    HW215480   2.891   0.258   7.654 -1.5217  0.7727 -0.8093
 1283SOL     OW15481   1.736   4.434  17.225  0.4350 -0.3800  0.1108
 1283SOL    HW115482   1.766   4.448  17.135 -0.7985  0.8695 -0.0960
 1283SOL    HW215483   1.654   4.483  17.221  0.5529 -0.2095 -0.2206
 1284SOL     OW15484   3.582   4.532   2.501 -0.4111 -0.1508  0.5136
 1284SOL    HW115485   3.538   4.513   2.418 -0.9053  1.4025  0.4256
 1284SOL    HW215486   3.516   4.590   2.538 -1.3322 -1.2779  0.6407
 1285SOL     OW15487   0.568   0.172   8.988  0.3661  0.1264  0.0528
 1285SOL    HW115488   0.528   0.198   9.071  0.7525 -0.7216  0.5065
 1285SOL    HW215489   0.496   0.152   8.929  1.9913 -1.2914 -1.4345
 1286SOL     OW15490   2.785   2.176  17.009 -0.5146  0.2667 -0.0510
 1286SOL    HW115491   2.758   2.206  17.096  0.5636  1.0964  0.0097
 1286SOL    HW215492   2.838   2.101  17.036  1.3935  1.5582 -0.1646
 1287SOL     OW15493   3.013   0.642   2.191  0.7722  0.4445 -0.2703
 1287SOL    HW115494   3.077   0.701   2.230 -0.2900  1.5447 -0.1904
 1287SOL    HW215495   2.942   0.702   2.168  0.2589 -0.6060 -1.4227
 1288SOL     OW15496   3.635   4.008  15.183  0.1772  0.6162  0.8115
 1288SOL    HW115497   3.584   3.927  15.177 -0.1351  0.8231  0.6580
 1288SOL    HW215498   3.648   4.041  15.094 -1.9472 -0.0192  0.2539
 1289SOL     OW15499   1.022   0.125   3.568  0.2626 -0.6324 -0.0801
 1289SOL    HW115500   1.013   0.038   3.607 -0.5715  0.2848  1.7404
 1289SOL    HW215501   1.055   0.177   3.641 -0.4481 -0.4758  0.1301
 1290SOL     OW15502   3.614   1.150   2.355  0.2252 -0.3924  0.5810
 1290SOL    HW115503   3.671   1.154   2.433  1.0614 -1.4090  0.0333
 1290SOL    HW215504   3.624   1.057   2.333  0.3591 -0.9260  2.8567
 1291SOL     OW15505   4.104   4.009   5.380 -0.1016 -0.2869  1.1083
 1291SOL    HW115506   4.049   4.018   5.458  0.0390 -0.5682  1.2404
 1291SOL    HW215507   4.182   3.979   5.426 -1.4866 -1.1249  2.9320
 1292SOL     OW15508   4.097   3.730  16.484 -0.5320  0.1746  0.3985
 1292SOL    HW115509   4.091   3.749  16.391 -0.1665 -3.2567 -0.3468
 1292SOL    HW215510   4.190   3.709  16.493 -0.1299  1.2536 -1.3861
 1293SOL     OW15511   3.303   1.321   3.840  0.1406  0.4792 -0.2872
 1293SOL    HW115512   3.233   1.345   3.780  0.5238 -0.6420 -1.1862
 1293SOL    HW215513   3.302   1.227   3.824 -2.1693  1.0529 -3.4594
 1294SOL     OW15514   3.960   4.448   2.485  0.5150  0.1045  0.3562
 1294SOL    HW115515   3.954   4.425   2.392  1.0794  0.4933  0.2197
 1294SOL    HW215516   4.039   4.502   2.481  3.3151 -4.1604 -1.9882
 1295SOL     OW15517   1.974   1.910   8.573 -0.7045  0.5321  0.3440
 1295SOL    HW115518   1.989   1.836   8.632  2.4951  0.7867 -0.1172
 1295SOL    HW215519   1.905   1.878   8.515 -1.2632  1.6902  0.3849
 1296SOL     OW15520   3.939   1.726   2.001 -0.0847 -0.8613 -0.3400
 1296SOL    HW115521   3.906   1.800   1.949 -2.4683 -0.8381  1.1635
 1296SOL    HW215522   3.881   1.656   1.971 -1.5203  0.6472 -1.1631
 1297SOL     OW15523   4.062   0.785   3.096 -0.5491 -0.1712 -0.1532
 1297SOL    HW115524   4.058   0.714   3.159 -0.3951  0.9845  1.1570
 1297SOL    HW215525   4.118   0.847   3.142 -1.2422  0.7416 -0.5294
 1298SOL     OW15526   0.918   4.001   3.325  0.5016  0.5405 -0.1103
 1298SOL    HW115527   0.903   4.093   3.304  0.6541  0.3117 -1.1910
 1298SOL    HW215528   0.872   3.957   3.253  0.4219  0.0432  0.2463
 1299SOL     OW15529   0.678   4.036   9.716 -0.4865  0.0750  0.2438
 1299SOL    HW115530   0.645   4.082   9.793  1.1723  1.7715 -0.0552
 1299SOL    HW215531   0.696   3.949   9.754  1.5549 -0.7385 -2.5509
 1300SOL     OW15532   2.824   4.031   3.865  0.2262 -0.6881 -0.0433
 1300SOL    HW115533   2.822   3.938   3.843  2.4615 -0.6947 -0.2040
 1300SOL    HW215534   2.915   4.031   3.896  0.3930  0.4431 -0.5499
 1301SOL     OW15535   4.711   2.483   9.178 -0.1629  0.4946  0.0569
 1301SOL    HW115536   4.619   2.501   9.198  0.2293  2.9425 -0.3477
 1301SOL    HW215537   0.011   2.472   9.264 -0.7200 -2.5849 -0.0763
 1302SOL     OW15538   2.398   3.613   1.308 -0.0030 -0.0217 -0.9392
 1302SOL    HW115539   2.318   3.635   1.261 -0.2563  1.0533 -0.0046
 1302SOL    HW215540   2.385   3.525   1.342  1.5493 -0.0907 -0.4890
 1303SOL     OW15541   2.381   2.509  12.900  0.0214 -0.2735  0.2828
 1303SOL    HW115542   2.290   2.518  12.869  0.5258  2.6279 -0.3310
 1303SOL    HW215543   2.424   2.583  12.858  0.2635 -0.0690  0.8980
 1304SOL     OW15544   4.443   3.680  12.472  0.2557  0.6830  0.0547
 1304SOL    HW115545   4.534   3.691  12.499  0.2990 -2.0107  0.9462
 1304SOL    HW215546   4.406   3.675  12.560  1.9986 -0.5627  0.7156
 1305SOL     OW15547   4.143   1.174  17.248  0.7220  0.7002 -0.3555
 1305SOL    HW115548   4.145   1.213  17.161  2.5688  0.9438 -0.2031
 1305SOL    HW215549   4.076   1.106  17.235  0.0177  1.4011 -0.3845
 1306SOL     OW15550   4.498   3.664   0.451 -0.1039 -0.0712 -0.5200
 1306SOL    HW115551   4.421   3.675   0.507  0.0907  1.1856 -0.5087
 1306SOL    HW215552   4.478   3.748   0.409 -1.7252  0.5068  1.3954
 1307SOL     OW15553   3.505   1.186  11.025  0.2962 -0.0861 -0.7022
 1307SOL    HW115554   3.576   1.226  11.074 -0.8714 -1.3333  1.9940
 1307SOL    HW215555   3.430   1.240  11.050  0.2773 -1.0168  1.2453
 1308SOL     OW15556   2.264   2.380   6.885  0.1506  0.0019  0.1512
 1308SOL    HW115557   2.297   2.401   6.972 -2.3235  1.9656  0.6483
 1308SOL    HW215558   2.205   2.452   6.861  2.5903  1.8932 -0.1762
 1309SOL     OW15559   0.326   2.884   5.862  0.4008 -0.7129  0.7645
 1309SOL    HW115560   0.398   2.824   5.847 -0.0238 -0.3704 -2.5768
 1309SOL    HW215561   0.291   2.846   5.943  0.6067 -1.4758  0.4929
 1310SOL     OW15562   0.222   2.405   3.102  0.1629 -0.2855  0.3588
 1310SOL    HW115563   0.173   2.436   3.178  0.6431 -1.5138  1.1550
 1310SOL    HW215564   0.171   2.327   3.085 -2.6471  1.1901  2.0054
 1311SOL     OW15565   3.323   4.106   4.728  0.2042  0.1063  0.0352
 1311SOL    HW115566   3.233   4.129   4.752  0.0258 -0.0618 -0.4824
 1311SOL    HW215567   3.313   4.055   4.648 -1.3412  0.6783 -0.1499
 1312SOL     OW15568   1.187   0.044   4.125  0.1858  0.3845  0.2866
 1312SOL    HW115569   1.238   4.719   4.078 -1.8672  0.5149 -2.1136
 1312SOL    HW215570   1.115   0.062   4.065 -1.6458 -0.0133  2.3281
 1313SOL     OW15571   2.160   1.949   5.603  0.0696  0.7777 -0.2668
 1313SOL    HW115572   2.076   1.958   5.559  0.5872 -1.2656 -1.6620
 1313SOL    HW215573   2.129   1.884   5.666 -0.4898 -0.4016 -1.7652
 1314SOL     OW15574   2.991   0.233   4.487  0.7809  0.1962 -0.5812
 1314SOL    HW115575   2.969   0.304   4.425  3.4905 -0.5210 -2.3528
 1314SOL    HW215576   3.029   0.287   4.556 -1.9072  2.2005 -0.6465
 1315SOL     OW15577   1.868   3.827   8.745 -0.2241 -0.0276 -0.6804
 1315SOL    HW115578   1.963   3.836   8.737 -0.1677  1.4886  1.9557
 1315SOL    HW215579   1.857   3.734   8.724  2.4909 -0.4743 -0.0293
 1316SOL     OW15580   3.645   2.429  13.277  0.7373 -0.0481 -0.3811
 1316SOL    HW115581   3.740   2.440  13.264  0.3361  0.5621 -2.6646
 1316SOL    HW215582   3.647   2.382  13.360  0.4933 -1.8894 -1.4294
 1317SOL     OW15583   2.162   0.712  16.146  0.4399  0.1788 -0.2571
 1317SOL    HW115584   2.174   0.625  16.184  1.7773  1.0477  1.3242
 1317SOL    HW215585   2.085   0.699  16.091  1.1401  0.7839 -1.3878
 1318SOL     OW15586   3.852   1.185   8.162 -0.2024 -0.5308  0.2495
 1318SOL    HW115587   3.869   1.221   8.249 -1.0090 -0.8983  0.5577
 1318SOL    HW215588   3.932   1.210   8.117 -0.7742 -0.2652 -0.6185
 1319SOL     OW15589   1.002   4.627   2.603  0.0531 -0.1274  0.4127
 1319SOL    HW115590   0.931   4.611   2.665  1.7537 -0.6114  2.2774
 1319SOL    HW215591   0.965   4.638   2.516 -1.4697 -0.6301  0.9957
 1320SOL     OW15592   2.436   1.882   9.116 -0.6915 -0.1497  0.6242
 1320SOL    HW115593   2.489   1.853   9.191 -2.3970 -3.0863  0.7208
 1320SOL    HW215594   2.471   1.970   9.106  1.4088 -1.4209 -3.5255
 1321SOL     OW15595   4.068   3.424   9.183  0.4477 -0.2568  0.5000
 1321SOL    HW115596   3.983   3.467   9.178  0.9128  0.2049 -3.0634
 1321SOL    HW215597   4.075   3.399   9.276 -0.8411 -1.5065  0.2676
 1322SOL     OW15598   0.826   0.541   4.636  0.2822  0.0688  0.2507
 1322SOL    HW115599   0.794   0.583   4.715 -4.2388 -0.8657 -1.0722
 1322SOL    HW215600   0.767   0.583   4.573 -0.0945  0.3928  0.8172
 1323SOL     OW15601   2.121   0.074  12.493 -0.2218  0.1162 -0.5131
 1323SOL    HW115602   2.115   0.168  12.511 -1.9568  0.1182 -1.1735
 1323SOL    HW215603   2.129   0.041  12.583 -0.8018  2.4050  0.3764
 1324SOL     OW15604   4.513   3.306  14.198 -0.2175 -0.2341  0.2414
 1324SOL    HW115605   4.430   3.354  14.187  1.0501  1.6938 -0.9016
 1324SOL    HW215606   4.508   3.269  14.110 -1.2171  1.1860 -0.3017
 1325SOL     OW15607   4.480   4.391   8.921 -0.0819 -0.0083  0.0092
 1325SOL    HW115608   4.521   4.410   9.006 -0.4958  1.3975 -0.1003
 1325SOL    HW215609   4.428   4.315   8.945 -2.4935  1.2574 -1.2329
 1326SOL     OW15610   1.545   3.258   9.361  0.0162  0.4149  0.1193
 1326SOL    HW115611   1.473   3.226   9.415  2.5236 -2.3353  1.8294
 1326SOL    HW215612   1.565   3.185   9.303 -0.8259 -0.1236  0.5155
 1327SOL     OW15613   1.534   3.708   7.784 -0.4493  0.0357  0.4628
 1327SOL    HW115614   1.617   3.667   7.760 -0.7024 -0.0653 -0.2343
 1327SOL    HW215615   1.490   3.624   7.770 -2.5850  1.0998  0.7664
 1328SOL     OW15616   1.095   1.869   7.165  0.4185 -0.6577  0.0063
 1328SOL    HW115617   1.075   1.952   7.122  0.9353 -1.5683 -2.0066
 1328SOL    HW215618   1.105   1.827   7.080 -0.3555 -0.6027 -0.1137
 1329SOL     OW15619   2.813   0.896   5.494  0.2751 -0.1751 -0.2607
 1329SOL    HW115620   2.889   0.952   5.476 -0.4826  0.1820 -2.3991
 1329SOL    HW215621   2.844   0.838   5.563 -2.0223 -1.6065 -0.4460
 1330SOL     OW15622   0.901   0.312   5.332  0.5154  0.4244  0.2445
 1330SOL    HW115623   0.817   0.274   5.357  0.4510 -0.4059 -1.2690
 1330SOL    HW215624   0.884   0.342   5.243 -0.5979  0.7868  0.5786
 1331SOL     OW15625   2.562   4.633   3.475  1.1108 -0.0101  0.0155
 1331SOL    HW115626   2.611   4.586   3.543  1.1421 -0.8300 -0.5787
 1331SOL    HW215627   2.572   4.575   3.400  0.1961 -3.2663  2.4185
 1332SOL     OW15628   2.918   4.577   6.439  0.7002 -0.0240  0.1694
 1332SOL    HW115629   2.846   4.637   6.458  1.0183 -0.2873  2.2260
 1332SOL    HW215630   2.923   4.530   6.523 -3.5231 -1.8670 -0.6075
 1333SOL     OW15631   2.788   0.975  12.686 -0.1684  0.2456 -0.0521
 1333SOL    HW115632   2.826   0.922  12.616 -2.0915 -2.4048  0.9620
 1333SOL    HW215633   2.857   1.001  12.747 -0.8036  0.1878  0.6850
 1334SOL     OW15634   4.004   0.141   7.670 -0.4796 -0.3569  0.4787
 1334SOL    HW115635   3.918   0.098   7.670 -0.3107 -0.6842  2.5577
 1334SOL    HW215636   3.992   0.221   7.722  1.1328  0.1482  0.0685
 1335SOL     OW15637   4.414   0.169   6.550  0.0681 -0.7246 -0.0039
 1335SOL    HW115638   4.372   0.084   6.538 -0.3410 -0.6452  0.8200
 1335SOL    HW215639   4.363   0.210   6.620 -1.4100 -1.4997 -0.6046
 1336SOL     OW15640   4.384   0.519   2.671 -0.7929 -0.3482 -0.3427
 1336SOL    HW115641   4.349   0.583   2.733 -1.9411 -1.5667  0.2800
 1336SOL    HW215642   4.479   0.526   2.662 -1.0064  2.8627 -0.1533
 1337SOL     OW15643   3.313   4.630   3.761 -0.2498 -0.0155  0.3777
 1337SOL    HW115644   3.227   4.648   3.799 -1.9727 -0.8172 -3.1395
 1337SOL    HW215645   3.334   4.566   3.829  0.9925  1.2650  1.2158
 1338SOL     OW15646   0.334   0.708   1.492  0.0468  0.3638  0.0300
 1338SOL    HW115647   0.278   0.692   1.568 -0.1775  0.2616 -0.1561
 1338SOL    HW215648   0.344   0.803   1.494 -0.2893  0.3496  2.1065
 1339SOL     OW15649   1.451   0.553   6.674 -0.0448 -0.0643  0.0003
 1339SOL    HW115650   1.371   0.528   6.629 -0.6957 -0.3001  1.2824
 1339SOL    HW215651   1.408   0.573   6.757  0.3991  1.3665 -0.1107
 1340SOL     OW15652   2.046   3.245   8.880  0.4378  0.1204 -0.0487
 1340SOL    HW115653   2.126   3.268   8.928  0.6119 -0.4440 -0.0706
 1340SOL    HW215654   2.010   3.178   8.937 -1.0805  1.1748  0.2291
 1341SOL     OW15655   3.616   3.462   8.247 -0.2067  0.0076 -0.3764
 1341SOL    HW115656   3.545   3.410   8.284 -0.7688  0.8645 -0.2441
 1341SOL    HW215657   3.573   3.534   8.199 -0.8113  1.4004  2.2747
 1342SOL     OW15658   4.171   1.490   2.233 -0.4842 -0.0240  0.2897
 1342SOL    HW115659   4.259   1.453   2.234 -0.2453  0.5300 -0.2731
 1342SOL    HW215660   4.174   1.555   2.304  0.2844 -0.5841  0.7662
 1343SOL     OW15661   2.198   2.946  15.723  0.1509  0.2316  0.3829
 1343SOL    HW115662   2.243   2.905  15.650 -0.1853  0.6835 -0.0743
 1343SOL    HW215663   2.109   2.921  15.697  0.3917 -0.5826  0.3592
 1344SOL     OW15664   0.769   1.499   1.524  0.0815 -0.2741  0.6301
 1344SOL    HW115665   0.737   1.582   1.560  2.0219  1.0679 -0.7418
 1344SOL    HW215666   0.693   1.468   1.475  0.9864 -0.8467 -0.4266
 1345SOL     OW15667   1.434   3.025   6.782  0.3446  0.0285  0.7187
 1345SOL    HW115668   1.441   3.057   6.871 -0.9496  2.2459  0.0385
 1345SOL    HW215669   1.440   3.112   6.743  0.8310 -0.4863 -0.3601
 1346SOL     OW15670   3.821   4.001   9.859  0.2540  0.5475 -0.2768
 1346SOL    HW115671   3.729   3.984   9.877 -0.0433  1.7913 -0.5563
 1346SOL    HW215672   3.810   4.090   9.824  0.0611  0.7885  0.4085
 1347SOL     OW15673   4.291   1.040   7.397  0.5822 -0.1950 -0.1543
 1347SOL    HW115674   4.323   0.976   7.333 -0.0924  0.3445 -1.0441
 1347SOL    HW215675   4.338   1.003   7.471  0.8879  0.0943 -0.2036
 1348SOL     OW15676   3.792   4.430  16.584  0.2250 -0.2663  0.5001
 1348SOL    HW115677   3.700   4.457  16.585  0.0969 -0.7749  1.4923
 1348SOL    HW215678   3.775   4.336  16.594  0.4437 -0.4673 -0.9234
 1349SOL     OW15679   2.731   3.870   6.054 -0.2933  0.1625  0.9489
 1349SOL    HW115680   2.808   3.907   6.099  0.0740 -1.3990  1.6024
 1349SOL    HW215681   2.739   3.907   5.967  0.3879  2.7598  2.1152
 1350SOL     OW15682   1.009   1.031   4.671 -0.0327 -0.2506  0.9456
 1350SOL    HW115683   1.052   0.952   4.637  1.3385  0.8443  0.1196
 1350SOL    HW215684   0.921   1.006   4.697  0.4667 -0.8910  2.0236
 1351SOL     OW15685   0.510   0.767   7.336  0.5606  0.3908 -0.1367
 1351SOL    HW115686   0.604   0.767   7.353  0.1771  2.0010  2.0360
 1351SOL    HW215687   0.481   0.715   7.411  2.4780 -0.0273  0.3256
 1352SOL     OW15688   1.103   2.175   6.122 -0.1724 -0.8316 -1.0862
 1352SOL    HW115689   1.129   2.188   6.214  2.2148  0.9069 -2.0268
 1352SOL    HW215690   1.009   2.194   6.129 -0.5729 -2.7564 -1.2933
 1353SOL     OW15691   1.155   1.154  14.794  0.2429  0.1547  0.2566
 1353SOL    HW115692   1.188   1.241  14.771  0.7118 -0.0562  0.1443
 1353SOL    HW215693   1.191   1.101  14.723 -0.6535 -0.7064  0.4526
 1354SOL     OW15694   0.049   4.613   4.705 -0.4139 -0.5919 -0.3144
 1354SOL    HW115695   4.730   4.659   4.764 -1.4082 -0.0633 -1.7136
 1354SOL    HW215696   0.009   4.531   4.677  0.4608 -0.7779 -1.0075
 1355SOL     OW15697   2.180   0.573   6.560 -0.4542  0.2542  0.5108
 1355SOL    HW115698   2.086   0.584   6.551 -0.2201  1.7356  0.0077
 1355SOL    HW215699   2.215   0.661   6.547 -0.8517  0.4334  0.6616
 1356SOL     OW15700   2.697   4.028   7.684 -0.0320  0.5519 -0.2363
 1356SOL    HW115701   2.614   4.071   7.667 -0.3497 -0.4894 -1.3210
 1356SOL    HW215702   2.701   4.047   7.777 -0.3899  1.9141 -0.5029
 1357SOL     OW15703   2.024   0.854  17.511 -0.1385 -0.0165  0.3367
 1357SOL    HW115704   2.037   0.894  17.425 -0.4760  1.4201  0.9522
 1357SOL    HW215705   2.091   0.897  17.564 -0.7628 -2.0612  2.7842
 1358SOL     OW15706   1.337   4.573   5.833 -0.7119 -0.6490  0.1235
 1358SOL    HW115707   1.371   4.660   5.811 -0.8148 -0.4606  0.7075
 1358SOL    HW215708   1.308   4.588   5.922  0.4881  0.0197  0.4041
 1359SOL     OW15709   0.086   0.721  10.717  0.4566 -0.1752 -0.4491
 1359SOL    HW115710   0.177   0.716  10.746  0.2175 -0.4854  0.2571
 1359SOL    HW215711   0.081   0.681  10.630 -1.4161  2.6939 -1.6413
 1360SOL     OW15712   2.033   1.478   5.887  0.2233 -0.1325 -0.3156
 1360SOL    HW115713   2.125   1.453   5.890 -0.2479 -1.9619 -0.9591
 1360SOL    HW215714   1.992   1.392   5.880 -0.7564  0.3258 -0.2239
 1361SOL     OW15715   2.804   3.222   7.894  0.8760  0.0170  0.4497
 1361SOL    HW115716   2.887   3.176   7.884  1.4433  0.9284  0.9574
 1361SOL    HW215717   2.803   3.269   7.810  1.1055  2.1809  1.6679
 1362SOL     OW15718   3.443   0.467   7.068 -0.3534  0.8794  0.2847
 1362SOL    HW115719   3.355   0.473   7.106 -1.6508 -0.1558 -2.4732
 1362SOL    HW215720   3.476   0.556   7.060 -0.7406  1.1883  2.0984
 1363SOL     OW15721   0.850   2.345   2.331  0.3811 -0.6399  0.1346
 1363SOL    HW115722   0.930   2.387   2.361 -0.8007  0.6075  1.5485
 1363SOL    HW215723   0.779   2.391   2.376  0.0614  0.2646 -1.2782
 1364SOL     OW15724   2.991   0.819  17.309 -0.0627 -0.6286 -0.0918
 1364SOL    HW115725   3.059   0.753  17.297  3.1230  2.5436  0.3069
 1364SOL    HW215726   3.004   0.838  17.401 -0.8198 -1.1781  0.1303
 1365SOL     OW15727   2.163   0.513   1.927  0.1287  0.6034  0.0572
 1365SOL    HW115728   2.181   0.606   1.919  0.2472  0.3737 -2.4905
 1365SOL    HW215729   2.210   0.499   2.010 -2.0687  1.6935  1.4784
 1366SOL     OW15730   2.703   1.734   4.758  0.0901 -0.0407  0.3847
 1366SOL    HW115731   2.761   1.706   4.687  0.1757  0.9324  0.0765
 1366SOL    HW215732   2.694   1.828   4.740 -0.3557 -0.3829 -1.1914
 1367SOL     OW15733   2.122   1.021   4.743  0.2272 -0.3192 -0.3076
 1367SOL    HW115734   2.066   1.023   4.665 -0.8045 -0.6543  0.4175
 1367SOL    HW215735   2.170   1.103   4.730 -0.3647  0.0374 -0.2846
 1368SOL     OW15736   1.832   3.127   3.699 -0.1241  0.4217  0.1697
 1368SOL    HW115737   1.816   3.218   3.724 -1.2527  0.5050 -0.8399
 1368SOL    HW215738   1.820   3.073   3.777 -0.6091  0.6042  0.2209
 1369SOL     OW15739   4.213   4.278   3.305 -0.2542  0.0650  0.0026
 1369SOL    HW115740   4.173   4.360   3.275  1.0988  0.0088 -1.9176
 1369SOL    HW215741   4.305   4.292   3.286 -0.0883 -0.9843  0.0700
 1370SOL     OW15742   0.015   0.180   8.377  0.0731 -0.7548 -0.2518
 1370SOL    HW115743   4.717   0.125   8.309 -1.6679  1.1376 -0.7962
 1370SOL    HW215744   0.066   0.116   8.427 -0.9785  0.1841  2.0380
 1371SOL     OW15745   3.911   3.089   3.241  0.0438 -0.3621 -0.0614
 1371SOL    HW115746   3.941   3.026   3.306 -2.9745 -0.1336  1.5324
 1371SOL    HW215747   3.927   3.176   3.278  0.8639 -0.4835 -0.1310
 1372SOL     OW15748   4.365   4.146   8.951 -0.2399  0.3963 -0.4381
 1372SOL    HW115749   4.454   4.115   8.970 -0.8189 -1.5429 -0.9421
 1372SOL    HW215750   4.315   4.120   9.028 -0.8581 -1.5008 -1.4908
 1373SOL     OW15751   4.487   4.321   3.275  0.0758  0.1007  0.2292
 1373SOL    HW115752   4.536   4.339   3.195 -1.9786 -0.3430 -1.1518
 1373SOL    HW215753   4.516   4.232   3.297 -1.7509 -0.0241  2.1869
 1374SOL     OW15754   0.111   1.833   2.424 -0.6307  0.0844 -0.1226
 1374SOL    HW115755   0.078   1.787   2.347  0.8989 -0.6272 -0.3433
 1374SOL    HW215756   0.200   1.857   2.398  0.6078 -1.7024  2.5089
 1375SOL     OW15757   3.993   3.325  15.903  0.5146 -0.0163  0.0340
 1375SOL    HW115758   4.081   3.358  15.921  0.7434 -0.3206 -0.5500
 1375SOL    HW215759   4.010   3.249  15.959  0.2773 -0.4372 -0.4636
 1376SOL     OW15760   2.474   0.695   8.216  0.2824  0.3559  0.6956
 1376SOL    HW115761   2.545   0.732   8.270 -0.8316  1.5827  1.3410
 1376SOL    HW215762   2.496   0.603   8.229  2.0767  0.7860  0.7648
 1377SOL     OW15763   0.442   3.255   2.589  0.1161  0.0349 -0.1445
 1377SOL    HW115764   0.428   3.350   2.583  1.7882  0.2776 -0.2076
 1377SOL    HW215765   0.356   3.222   2.616  0.8136 -2.0917 -0.5834
 1378SOL     OW15766   3.960   3.193  16.258  0.1959 -0.7791 -0.7510
 1378SOL    HW115767   3.972   3.284  16.232 -0.8873 -0.0370  1.2865
 1378SOL    HW215768   3.956   3.195  16.354 -0.8666  0.4353 -0.8076
 1379SOL     OW15769   2.433   1.856   5.380  0.2379  0.8564  0.0401
 1379SOL    HW115770   2.450   1.938   5.427  2.9433 -0.3383  1.1664
 1379SOL    HW215771   2.382   1.879   5.303 -0.9026 -0.3632  0.4447
 1380SOL     OW15772   1.366   1.229   0.100  0.2573  0.3161  0.5004
 1380SOL    HW115773   1.348   1.135   0.109 -1.8411  0.6530 -0.2133
 1380SOL    HW215774   1.439   1.245   0.160  3.4612  0.9593 -3.5210
 1381SOL     OW15775   2.632   2.516   5.157 -0.0323  0.2748  0.2533
 1381SOL    HW115776   2.572   2.534   5.228  1.4720  0.3352  1.5069
 1381SOL    HW215777   2.630   2.422   5.176  1.0436 -0.4839 -3.2493
 1382SOL     OW15778   4.225   3.783   1.621  0.3561 -0.2713 -0.0157
 1382SOL    HW115779   4.242   3.864   1.668  0.9563 -0.2543 -0.2647
 1382SOL    HW215780   4.170   3.734   1.683 -0.0661  0.5903  0.2840
 1383SOL     OW15781   3.069   4.151  16.780  0.2519  0.6671  0.1130
 1383SOL    HW115782   3.113   4.191  16.705 -1.6174 -1.3390 -2.0636
 1383SOL    HW215783   3.137   4.177  16.842  0.9816 -0.9042 -0.0487
 1384SOL     OW15784   0.181   2.454  11.548  0.1716  0.2334 -0.3168
 1384SOL    HW115785   0.238   2.506  11.491 -0.7288  1.0152 -0.5169
 1384SOL    HW215786   0.131   2.400  11.487  1.6638 -1.0060 -0.4354
 1385SOL     OW15787   3.930   2.049   7.593  0.2530  0.4931 -0.0214
 1385SOL    HW115788   3.857   1.987   7.598  0.7632  0.0170  1.3581
 1385SOL    HW215789   4.014   2.005   7.603  0.8451  1.9567  1.4767
 1386SOL     OW15790   1.354   0.299   5.602  0.0482  0.4313 -0.3021
 1386SOL    HW115791   1.317   0.303   5.514 -0.3064  6.1926  0.1144
 1386SOL    HW215792   1.361   0.392   5.627 -1.1987  0.4164  0.0610
 1387SOL     OW15793   3.426   4.429   5.904 -0.0401  0.1377  0.0584
 1387SOL    HW115794   3.505   4.380   5.877  1.3429  2.3956  0.0318
 1387SOL    HW215795   3.456   4.518   5.918 -0.1296  0.3478 -1.0717
 1388SOL     OW15796   2.013   0.253   1.940  0.4905 -0.0414  0.2043
 1388SOL    HW115797   2.039   0.345   1.947  0.2582  0.1765 -1.7460
 1388SOL    HW215798   2.017   0.231   2.033  1.6532  1.6831  0.5614
 1389SOL     OW15799   3.062   2.551   7.761  0.3360 -0.8378 -0.2799
 1389SOL    HW115800   3.152   2.547   7.791 -0.7019 -3.5417  2.4763
 1389SOL    HW215801   3.070   2.514   7.673 -0.2922 -0.0614 -0.6657
 1390SOL     OW15802   1.677   0.549  17.704  0.2012  0.1428  0.0829
 1390SOL    HW115803   1.686   0.636  17.666  0.6062 -0.3762 -1.0166
 1390SOL    HW215804   1.733   0.500  17.643 -0.1893 -2.9525  2.2214
 1391SOL     OW15805   1.147   2.235   8.863 -0.0388  0.7501  0.5654
 1391SOL    HW115806   1.102   2.153   8.882  0.9965 -0.0573 -0.4588
 1391SOL    HW215807   1.236   2.200   8.853 -0.5114  0.0838 -1.2597
 1392SOL     OW15808   0.819   2.942   0.019  0.4343  0.1174  0.4347
 1392SOL    HW115809   0.837   2.978   0.107 -2.9258 -3.4429  2.5592
 1392SOL    HW215810   0.905   2.903   0.004  0.5822  0.4696  0.3527
 1393SOL     OW15811   0.205   1.045   0.596 -0.0527 -0.0302 -0.2276
 1393SOL    HW115812   0.158   0.962   0.599  0.0689 -0.0600  0.6712
 1393SOL    HW215813   0.286   1.027   0.549 -0.5969  0.0119 -1.1884
 1394SOL     OW15814   0.239   0.239   5.265  0.0713 -0.3718  0.5525
 1394SOL    HW115815   0.199   0.178   5.327 -1.3055  0.5581  0.6061
 1394SOL    HW215816   0.244   0.326   5.305  2.0129 -0.4977  0.5841
 1395SOL     OW15817   1.742   1.085   2.792  0.0563  0.2820  0.1383
 1395SOL    HW115818   1.747   1.121   2.881  1.0550 -1.1687  0.6722
 1395SOL    HW215819   1.661   1.126   2.763  1.3838  2.3168 -0.6416
 1396SOL     OW15820   2.054   1.870   9.234 -0.4020 -0.6085 -0.0522
 1396SOL    HW115821   2.112   1.940   9.265  1.6700 -1.1955 -2.5901
 1396SOL    HW215822   2.036   1.906   9.148 -0.1409  0.8695  0.5126
 1397SOL     OW15823   3.465   4.563   1.169 -0.6466  0.3816 -0.6462
 1397SOL    HW115824   3.553   4.537   1.195 -0.2234  1.3336 -1.1124
 1397SOL    HW215825   3.454   4.639   1.225 -1.9945 -0.4208  0.1826
 1398SOL     OW15826   2.264   4.230   3.948 -0.0002  0.2967 -0.2180
 1398SOL    HW115827   2.333   4.257   4.009 -1.0931  3.7089 -0.4868
 1398SOL    HW215828   2.193   4.211   4.010  0.9459  0.5905  0.9645
 1399SOL     OW15829   4.200   2.028   3.742 -0.0027  0.5746 -0.5460
 1399SOL    HW115830   4.118   2.039   3.789  0.5108 -0.1137  0.5167
 1399SOL    HW215831   4.175   2.017   3.650  2.0769 -0.1646 -1.0340
 1400SOL     OW15832   1.000   0.537   6.742  0.3167 -0.0668 -0.5777
 1400SOL    HW115833   0.921   0.559   6.692  1.0851  1.0273 -1.2965
 1400SOL    HW215834   1.021   0.613   6.797 -1.5935  0.5059 -0.6376
 1401SOL     OW15835   1.751   3.560   7.737  0.2584 -0.3760  0.0314
 1401SOL    HW115836   1.718   3.474   7.709  0.8469 -0.3795 -0.6498
 1401SOL    HW215837   1.823   3.533   7.793  1.8863  1.2738 -1.2802
 1402SOL     OW15838   0.035   0.345   7.074  0.5483  0.0661  0.4992
 1402SOL    HW115839   4.724   0.265   7.084 -2.1460  1.9533  1.8262
 1402SOL    HW215840   0.028   0.373   7.165 -0.2709  0.5124  0.3008
 1403SOL     OW15841   4.647   4.635   1.427  0.2241  0.6462  0.0646
 1403SOL    HW115842   4.551   4.641   1.424  0.1497  0.2981  1.6206
 1403SOL    HW215843   4.652   4.541   1.441 -1.1939  0.5680  0.1103
 1404SOL     OW15844   1.977   0.611   3.735  0.7943  0.7295 -0.2750
 1404SOL    HW115845   2.022   0.546   3.681 -0.7302 -0.0634 -0.5990
 1404SOL    HW215846   1.919   0.549   3.778 -0.3659  1.5388 -0.6610
 1405SOL     OW15847   1.657   2.524   5.088 -0.1469  0.8664 -0.2701
 1405SOL    HW115848   1.723   2.477   5.138 -2.5490 -0.6147  1.4960
 1405SOL    HW215849   1.674   2.611   5.126 -1.6455  0.4583  1.3349
 1406SOL     OW15850   3.455   2.770  16.591  0.0234 -0.7219  0.4071
 1406SOL    HW115851   3.464   2.852  16.639 -0.4687 -1.0268  1.0168
 1406SOL    HW215852   3.365   2.743  16.611 -0.6468  1.1978  0.0258
 1407SOL     OW15853   3.167   2.337   7.524 -0.2348  0.3144 -0.3681
 1407SOL    HW115854   3.178   2.270   7.458  0.4267  0.2629 -0.2147
 1407SOL    HW215855   3.252   2.334   7.569 -0.2905 -0.9813 -0.3724
 1408SOL     OW15856   0.981   3.518   6.809 -0.1720 -0.3899 -0.6802
 1408SOL    HW115857   1.040   3.506   6.735 -0.4294  0.1519 -0.9679
 1408SOL    HW215858   0.987   3.437   6.860 -0.9238 -0.0609 -0.0553
 1409SOL     OW15859   3.204   3.097   7.740 -0.7248  0.3661  0.0172
 1409SOL    HW115860   3.174   3.164   7.803  0.4535  1.6711 -0.8077
 1409SOL    HW215861   3.297   3.087   7.761 -0.3169  1.8646 -1.0654
 1410SOL     OW15862   2.093   3.556   6.550 -0.1678 -0.3635  0.1410
 1410SOL    HW115863   2.012   3.535   6.503 -0.0677  0.3448 -0.3413
 1410SOL    HW215864   2.095   3.652   6.549 -0.9827 -0.3679 -2.1656
 1411SOL     OW15865   2.034   2.292   3.853 -0.0502 -0.2713  0.3862
 1411SOL    HW115866   2.125   2.316   3.840  0.3712 -0.4731  3.0086
 1411SOL    HW215867   2.008   2.328   3.768  0.6747  0.5387  0.5152
 1412SOL     OW15868   1.811   0.565   3.205 -0.4397  0.3870  0.1241
 1412SOL    HW115869   1.853   0.565   3.118  1.5383  0.4014  1.0709
 1412SOL    HW215870   1.828   0.658   3.224 -0.1199  0.7817 -2.0424
 1413SOL     OW15871   2.641   2.915   6.944 -0.1082 -0.0778  0.3408
 1413SOL    HW115872   2.604   2.858   7.012  0.5819 -1.4165 -0.4140
 1413SOL    HW215873   2.619   2.866   6.865  1.4943  1.2069 -0.8951
 1414SOL     OW15874   1.259   2.208   3.831  0.3036  0.2492  0.5220
 1414SOL    HW115875   1.349   2.222   3.859  0.4960 -1.4033  0.7310
 1414SOL    HW215876   1.267   2.202   3.736  0.6237  1.9587  0.4464
 1415SOL     OW15877   2.797   3.941  10.293 -0.1203 -0.2230  0.1299
 1415SOL    HW115878   2.712   3.924  10.332 -0.4199  0.7136 -0.1120
 1415SOL    HW215879   2.775   3.982  10.209  1.4134  2.0380  0.8190
 1416SOL     OW15880   1.125   4.686  13.531 -0.0921 -0.2136  0.0378
 1416SOL    HW115881   1.178   4.731  13.597 -1.8269  3.6319 -1.1830
 1416SOL    HW215882   1.160   4.599  13.545 -1.2807 -0.7723 -0.5046
 1417SOL     OW15883   1.788   0.978   3.836 -0.0931 -0.1006 -0.1337
 1417SOL    HW115884   1.813   1.070   3.830 -0.3108  0.0323  1.0784
 1417SOL    HW215885   1.871   0.936   3.858  0.1671  1.3527  1.6134
 1418SOL     OW15886   0.306   2.917   9.618 -0.0464 -0.1537 -0.0822
 1418SOL    HW115887   0.329   2.954   9.532  2.2323 -1.6411 -0.0991
 1418SOL    HW215888   0.383   2.867   9.642 -0.1492  1.0583  2.7744
 1419SOL     OW15889   4.436   0.589   3.683  0.2841 -1.1408 -0.3814
 1419SOL    HW115890   4.350   0.605   3.720  1.0587  1.2613  0.4066
 1419SOL    HW215891   4.413   0.542   3.603 -2.5744  0.4873 -0.5108
 1420SOL     OW15892   0.048   4.717   8.015  0.3003  0.0938 -0.1658
 1420SOL    HW115893   0.027   4.629   8.047  1.3563 -0.2675 -0.4869
 1420SOL    HW215894   0.044   4.701   7.921 -0.9350 -1.3136  0.1190
 1421SOL     OW15895   3.298   2.416   1.946 -0.4938 -0.3028  0.0883
 1421SOL    HW115896   3.282   2.503   1.911 -1.4575  0.2835  1.9581
 1421SOL    HW215897   3.357   2.443   2.016 -0.2507  0.6080 -0.4729
 1422SOL     OW15898   2.177   4.435  13.381  0.4118 -0.1861  0.3298
 1422SOL    HW115899   2.223   4.352  13.368  0.7152  0.4089 -2.3520
 1422SOL    HW215900   2.123   4.427  13.302  0.5378 -0.7780  0.3043
 1423SOL     OW15901   3.954   0.960   1.559 -0.0705  0.0755  0.0219
 1423SOL    HW115902   3.871   0.913   1.555 -0.2827  0.3805  0.8527
 1423SOL    HW215903   3.936   1.051   1.533  0.4662  0.4110  0.8222
 1424SOL     OW15904   3.844   4.036  13.547  0.0921 -0.1514  0.2084
 1424SOL    HW115905   3.869   4.122  13.514  2.5168 -1.2416 -0.8745
 1424SOL    HW215906   3.845   3.983  13.467  2.1203  0.9361 -0.5055
 1425SOL     OW15907   3.505   3.881   1.016 -0.5181  0.3545 -0.6361
 1425SOL    HW115908   3.526   3.802   0.965 -1.7839 -1.3932  1.5263
 1425SOL    HW215909   3.561   3.945   0.972  0.6253 -0.4682 -0.4082
 1426SOL     OW15910   1.027   0.183   6.474 -0.1757 -0.0006 -0.0650
 1426SOL    HW115911   0.961   0.114   6.466 -3.2716  2.5749  3.1785
 1426SOL    HW215912   0.970   0.250   6.435  1.8779  1.8281  0.1178
 1427SOL     OW15913   3.732   2.266   3.515 -0.9770 -0.0222  0.2640
 1427SOL    HW115914   3.802   2.295   3.456  1.1678  0.2005  2.9539
 1427SOL    HW215915   3.746   2.172   3.516  0.4426  0.1968  0.6633
 1428SOL     OW15916   1.337   1.659   5.135  0.4650 -0.2980  0.1862
 1428SOL    HW115917   1.334   1.746   5.096  1.9672 -0.3943 -0.1205
 1428SOL    HW215918   1.428   1.638   5.118  0.8641  2.8654 -1.6476
 1429SOL     OW15919   4.654   2.450   7.527 -0.1643 -0.5095 -0.0921
 1429SOL    HW115920   4.576   2.439   7.582  1.1637 -0.4725  1.7873
 1429SOL    HW215921   4.694   2.366   7.551 -0.5036 -0.4423  0.6946
 1430SOL     OW15922   4.317   0.077  10.132 -0.3683  0.5104  0.5579
 1430SOL    HW115923   4.344   0.108  10.219 -0.0725  0.7956  0.3604
 1430SOL    HW215924   4.309   4.724  10.149 -1.3983  0.4578 -0.2271
 1431SOL     OW15925   1.486   2.704   9.602 -0.1374 -0.7760  0.3252
 1431SOL    HW115926   1.422   2.643   9.639 -0.5862 -1.2870 -1.2870
 1431SOL    HW215927   1.562   2.672   9.650 -0.2648 -1.6148 -0.0311
 1432SOL     OW15928   3.018   3.129  15.767  0.2454 -0.2092  0.3874
 1432SOL    HW115929   3.039   3.039  15.744 -2.5132 -0.1419 -2.3600
 1432SOL    HW215930   2.927   3.119  15.795  0.1968  0.7655  0.5998
 1433SOL     OW15931   2.293   3.895   5.097 -0.2600  0.1080  0.1839
 1433SOL    HW115932   2.357   3.909   5.028 -0.9069  0.2409 -0.3911
 1433SOL    HW215933   2.314   3.964   5.160  1.3380  1.7801 -2.2061
 1434SOL     OW15934   0.440   1.428  16.476 -0.4446 -0.2656  0.0938
 1434SOL    HW115935   0.457   1.445  16.384  0.1340 -2.4801 -0.2018
 1434SOL    HW215936   0.351   1.461  16.490 -0.6877 -1.8711  2.3715
 1435SOL     OW15937   4.455   1.740   0.525  0.2311 -0.6597  0.2557
 1435SOL    HW115938   4.413   1.751   0.610 -1.0812 -0.6737 -0.3956
 1435SOL    HW215939   4.422   1.656   0.491 -0.7810  0.3947 -1.3988
 1436SOL     OW15940   2.438   1.617   2.668  0.0118 -0.4690 -0.0494
 1436SOL    HW115941   2.410   1.704   2.642  0.2389 -0.8397 -1.5646
 1436SOL    HW215942   2.489   1.593   2.590 -0.1518  0.1437 -0.3397
 1437SOL     OW15943   2.943   3.736  15.321  0.1435 -0.6736 -0.0815
 1437SOL    HW115944   2.884   3.804  15.289  0.9169  0.4549  0.9131
 1437SOL    HW215945   2.887   3.658  15.326  1.7420 -1.8650 -1.0832
 1438SOL     OW15946   1.931   3.666   5.447 -0.6116 -0.2132  0.1572
 1438SOL    HW115947   1.845   3.708   5.444 -0.9681 -0.9629 -0.0754
 1438SOL    HW215948   1.924   3.636   5.357  4.0661 -0.6185 -0.0652
 1439SOL     OW15949   0.089   4.258   2.132 -0.3759 -0.2737  0.2995
 1439SOL    HW115950   0.182   4.236   2.135 -0.5735 -1.1347  0.0700
 1439SOL    HW215951   0.072   4.223   2.219  1.6694  4.4451  2.5592
 1440SOL     OW15952   3.861   1.788   2.276 -0.3877 -0.1162 -0.1812
 1440SOL    HW115953   3.835   1.703   2.312  1.8136 -0.4884  0.5368
 1440SOL    HW215954   3.854   1.771   2.182  1.3730  1.4594 -0.5964
 1441SOL     OW15955   2.772   2.013  10.208  0.2335  0.1754 -0.5558
 1441SOL    HW115956   2.739   2.102  10.200 -2.1523 -0.5667  0.7387
 1441SOL    HW215957   2.856   2.016  10.254  0.4729 -0.8021 -0.9237
 1442SOL     OW15958   1.392   4.616   4.306 -0.7273 -0.2542 -0.5586
 1442SOL    HW115959   1.401   4.544   4.243 -0.0036 -0.6892  0.0476
 1442SOL    HW215960   1.331   4.673   4.259 -0.6323  0.5558  0.3048
 1443SOL     OW15961   1.515   2.390   4.859 -0.1888  0.0838  0.3237
 1443SOL    HW115962   1.563   2.431   4.931  0.6904 -0.1646 -0.1245
 1443SOL    HW215963   1.479   2.468   4.817  1.8575  1.2990  0.7987
 1444SOL     OW15964   2.984   2.901   2.454  0.1610 -0.2590  0.0687
 1444SOL    HW115965   3.018   2.812   2.458  1.7101  0.3245  0.0906
 1444SOL    HW215966   2.959   2.906   2.547 -2.1170  0.2729 -0.5926
 1445SOL     OW15967   1.407   0.554  12.787  0.2094  0.4493 -0.3896
 1445SOL    HW115968   1.433   0.479  12.840 -0.4174  1.2445  1.0181
 1445SOL    HW215969   1.445   0.533  12.701  3.0260  4.2699 -0.0563
 1446SOL     OW15970   0.184   4.715   8.541 -0.6504 -0.4283  0.4039
 1446SOL    HW115971   0.135   0.001   8.618  0.2404  0.5350  0.6475
 1446SOL    HW215972   0.270   4.739   8.575 -0.7144  1.3670 -0.6766
 1447SOL     OW15973   0.243   1.799   0.214 -0.2278 -0.5175 -0.8357
 1447SOL    HW115974   0.331   1.828   0.190 -1.3331  1.6271 -2.2022
 1447SOL    HW215975   0.199   1.882   0.234  0.6749 -0.5806  1.4441
 1448SOL     OW15976   1.252   2.924   6.539 -0.5410 -0.0940 -0.4895
 1448SOL    HW115977   1.240   2.990   6.607 -0.8711  0.1281 -0.7635
 1448SOL    HW215978   1.196   2.962   6.472 -3.4247 -1.0089  1.3919
 1449SOL     OW15979   1.462   2.773   6.468  0.0969 -0.3276  0.4522
 1449SOL    HW115980   1.414   2.691   6.476 -0.0439 -0.4351 -1.4004
 1449SOL    HW215981   1.402   2.836   6.507 -0.7436 -1.4315  0.9504
 1450SOL     OW15982   1.430   3.281   6.668 -0.3975  0.1679 -0.2353
 1450SOL    HW115983   1.516   3.323   6.671  0.6345 -2.0098  1.0148
 1450SOL    HW215984   1.416   3.243   6.582 -0.6686  1.6293 -0.8267
 1451SOL     OW15985   3.706   0.449   8.976  0.1530  0.3006 -0.0590
 1451SOL    HW115986   3.638   0.413   8.921 -2.0327  1.7615  1.6798
 1451SOL    HW215987   3.785   0.402   8.950 -0.2553 -0.7255  0.5317
 1452SOL     OW15988   4.074   2.602   6.894 -0.3601  0.4191 -0.5058
 1452SOL    HW115989   3.990   2.601   6.940  1.3875  2.1055  2.6768
 1452SOL    HW215990   4.124   2.529   6.932  0.7612  1.4917  0.0934
 1453SOL     OW15991   1.736   3.576   9.298 -0.3729 -0.1531  0.0097
 1453SOL    HW115992   1.737   3.511   9.228  1.7603  0.3574 -0.4132
 1453SOL    HW215993   1.708   3.655   9.253 -0.3203  0.0216  0.2851
 1454SOL     OW15994   1.590   4.245   1.822 -0.7867 -0.5226  0.3352
 1454SOL    HW115995   1.531   4.295   1.878  0.6163  0.3600  1.0293
 1454SOL    HW215996   1.638   4.197   1.890  0.6073 -1.6147 -1.4302
 1455SOL     OW15997   0.890   2.221   9.974 -0.4052  0.4415 -0.2000
 1455SOL    HW115998   0.981   2.232   9.944  0.3249 -0.3415  1.6979
 1455SOL    HW215999   0.879   2.127   9.986 -1.2887  0.5596 -0.1406
 1456SOL     OW16000   2.464   1.558   1.389 -0.2626 -0.1597 -0.5663
 1456SOL    HW116001   2.480   1.562   1.295 -0.5332 -1.1756 -0.6576
 1456SOL    HW216002   2.512   1.479   1.413  1.3537  1.4501  1.5417
 1457SOL     OW16003   3.709   3.725   0.316 -1.0043 -0.1173  0.3281
 1457SOL    HW116004   3.783   3.726   0.255 -1.8495 -1.1666 -0.7334
 1457SOL    HW216005   3.718   3.809   0.361 -0.9811  1.1585 -2.0628
 1458SOL     OW16006   0.881   2.584   9.862 -0.1028 -0.0239  0.1290
 1458SOL    HW116007   0.960   2.557   9.813  1.5941  2.6388  1.4158
 1458SOL    HW216008   0.829   2.508   9.835  0.8210 -0.3972 -0.6320
 1459SOL     OW16009   4.468   0.504   5.307 -0.2369 -0.3944  0.9239
 1459SOL    HW116010   4.413   0.435   5.344 -2.4919  0.0358 -1.6661
 1459SOL    HW216011   4.400   0.570   5.295 -1.5267 -1.7334  0.9565
 1460SOL     OW16012   1.242   4.596   3.356  0.1813  0.2078 -0.1952
 1460SOL    HW116013   1.219   4.516   3.402  1.3073 -0.6159 -1.0629
 1460SOL    HW216014   1.310   4.639   3.408  0.7217 -1.7463  0.6928
 1461SOL     OW16015   1.057   1.902   3.457  0.1721  0.6268  0.0935
 1461SOL    HW116016   1.121   1.972   3.447 -1.6452  2.0915 -1.1589
 1461SOL    HW216017   1.005   1.903   3.377  1.9210  0.2128 -1.0402
 1462SOL     OW16018   1.189   2.066  16.419  0.0253  0.3916 -0.0171
 1462SOL    HW116019   1.155   1.977  16.403 -0.0037  0.1980  1.1313
 1462SOL    HW216020   1.252   2.070  16.347 -0.2983 -2.5845 -0.4761
 1463SOL     OW16021   1.939   4.537   5.239  0.7258 -0.3483 -0.0894
 1463SOL    HW116022   1.976   4.606   5.293 -1.7126 -0.3162  1.5094
 1463SOL    HW216023   1.968   4.460   5.289 -0.1331 -0.2228  0.6085
 1464SOL     OW16024   2.597   3.826   3.657 -0.5440 -0.3597 -0.2630
 1464SOL    HW116025   2.667   3.796   3.715 -1.5856  0.6266  1.5134
 1464SOL    HW216026   2.538   3.882   3.709 -1.1991 -3.7561  2.7044
 1465SOL     OW16027   0.044   0.131   1.470  0.5723  0.4459 -0.7028
 1465SOL    HW116028   4.730   0.066   1.428 -0.2215  0.0999  0.8791
 1465SOL    HW216029   0.085   0.078   1.537  0.3430  3.0808  1.5345
 1466SOL     OW16030   4.293   3.207   2.778  0.2433  0.2281 -0.4637
 1466SOL    HW116031   4.230   3.155   2.728  0.7800 -0.0779 -0.8324
 1466SOL    HW216032   4.299   3.161   2.862  2.3113  0.6188 -0.3876
 1467SOL     OW16033   2.012   1.201   1.456  0.1300 -0.3423  0.3745
 1467SOL    HW116034   1.917   1.201   1.455  0.1266  0.8014  2.1677
 1467SOL    HW216035   2.029   1.237   1.543 -1.8669 -1.3135  1.1468
 1468SOL     OW16036   3.456   1.588   3.822  0.4583  0.0662 -0.1685
 1468SOL    HW116037   3.389   1.520   3.827 -0.4449  1.0440  0.8007
 1468SOL    HW216038   3.433   1.640   3.745 -0.5096 -1.0978 -0.6629
 1469SOL     OW16039   3.086   3.980  14.983 -0.4020  0.0754 -0.0185
 1469SOL    HW116040   3.011   4.038  14.976  0.1945  0.7890 -0.4900
 1469SOL    HW216041   3.102   3.989  15.077  2.3224  1.2828 -0.5844
 1470SOL     OW16042   3.292   3.611  11.606  0.2333  0.2185  0.1289
 1470SOL    HW116043   3.264   3.592  11.516  3.0936 -2.1516 -0.2701
 1470SOL    HW216044   3.233   3.554  11.656  1.0333 -0.5463  0.2038
 1471SOL     OW16045   2.166   3.233  16.660  0.8070 -0.6445 -0.3313
 1471SOL    HW116046   2.147   3.311  16.608 -0.1213 -1.3022 -0.9786
 1471SOL    HW216047   2.084   3.201  16.698  1.3629  1.0515  2.2734
 1472SOL     OW16048   1.218   0.752  12.805 -0.4302  0.0192  0.1859
 1472SOL    HW116049   1.132   0.710  12.806 -0.9466  1.0608 -0.3172
 1472SOL    HW216050   1.279   0.679  12.795  1.0167  1.5369 -2.0604
 1473SOL     OW16051   2.752   0.479   2.932 -0.1917  0.1524 -0.3755
 1473SOL    HW116052   2.721   0.403   2.882 -0.8934  0.0242  0.2433
 1473SOL    HW216053   2.666   0.520   2.936  0.0034  0.5046  0.1565
 1474SOL     OW16054   3.051   0.238   5.015  0.3492  0.0258  0.0416
 1474SOL    HW116055   3.126   0.234   4.956  0.1840 -1.1754 -0.0930
 1474SOL    HW216056   3.035   0.144   5.029 -2.0731  0.6469  1.4127
 1475SOL     OW16057   2.399   3.549   7.702 -0.6813  0.7520  0.1883
 1475SOL    HW116058   2.349   3.610   7.648 -1.1699  0.9163  0.8221
 1475SOL    HW216059   2.371   3.465   7.666  0.7558  0.0259  0.7597
 1476SOL     OW16060   4.035   3.920  16.158  0.3766  0.3230 -0.1138
 1476SOL    HW116061   3.962   3.960  16.110  0.2735  1.2769  0.8327
 1476SOL    HW216062   4.071   3.853  16.101  0.6070  0.5220 -0.2031
 1477SOL     OW16063   3.418   4.229  16.551 -0.2322  0.2748 -0.5463
 1477SOL    HW116064   3.323   4.230  16.538 -0.2509  2.0737 -0.2122
 1477SOL    HW216065   3.438   4.316  16.584 -1.1817  0.3050 -0.0373
 1478SOL     OW16066   3.385   4.026   0.067  0.4163 -0.5127  0.4506
 1478SOL    HW116067   3.312   4.056   0.122 -0.9562 -0.8915 -1.1613
 1478SOL    HW216068   3.427   4.110   0.047 -1.6732  0.0333 -1.7601
 1479SOL     OW16069   4.221   2.624  14.976  0.3895  0.0780 -0.4427
 1479SOL    HW116070   4.177   2.628  14.891 -1.1160 -0.8189  0.2940
 1479SOL    HW216071   4.287   2.554  14.978  0.2081 -0.0363  1.3115
 1480SOL     OW16072   3.533   3.790   5.305  0.4563  0.2221 -0.0339
 1480SOL    HW116073   3.617   3.822   5.338  0.6253 -1.3646  1.0868
 1480SOL    HW216074   3.512   3.864   5.248  0.7236 -0.6143 -1.2116
 1481SOL     OW16075   3.054   2.868   7.705  0.7555  0.3835  0.2306
 1481SOL    HW116076   3.097   2.792   7.745 -1.1255 -1.2539 -0.8604
 1481SOL    HW216077   3.117   2.939   7.717  1.8154 -0.6187  0.5910
 1482SOL     OW16078   3.259   1.502   2.718 -0.6315 -0.7930 -0.0712
 1482SOL    HW116079   3.349   1.531   2.703 -0.2219 -0.7685  2.5545
 1482SOL    HW216080   3.267   1.407   2.721  1.5108 -0.6606 -1.4195
 1483SOL     OW16081   0.195   4.540  14.826 -0.8453 -0.2029 -0.2129
 1483SOL    HW116082   0.161   4.620  14.868 -1.7297 -1.6082  1.7758
 1483SOL    HW216083   0.257   4.506  14.890  0.8007  1.6431 -0.8484
 1484SOL     OW16084   0.438   0.133   1.651  0.2493  0.3273  0.0673
 1484SOL    HW116085   0.482   0.075   1.714  0.5940  1.3792  0.8011
 1484SOL    HW216086   0.377   0.163   1.719 -1.5010 -0.3951 -1.1850
 1485SOL     OW16087   1.123   2.110   2.137  0.1086  0.4728  0.4077
 1485SOL    HW116088   1.153   2.177   2.076  0.9146 -0.0506  0.2301
 1485SOL    HW216089   1.163   2.027   2.109 -1.3937 -0.6183  1.5479
 1486SOL     OW16090   1.419   2.662   2.114  0.0978  0.5963 -0.3837
 1486SOL    HW116091   1.375   2.734   2.067  1.2488  0.8816 -1.0229
 1486SOL    HW216092   1.468   2.626   2.040 -0.2913 -0.4398 -0.1253
 1487SOL     OW16093   3.561   0.761   1.181 -0.3269 -0.3217 -0.0140
 1487SOL    HW116094   3.474   0.794   1.201 -0.8192 -1.0372 -0.9829
 1487SOL    HW216095   3.606   0.838   1.147  1.2782 -0.2555  2.2566
 1488SOL     OW16096   0.004   2.592   4.290  0.2418 -0.1489 -0.3864
 1488SOL    HW116097   0.073   2.572   4.354  0.6528  2.1510 -0.1275
 1488SOL    HW216098   0.038   2.621   4.205  2.1369 -1.8454 -0.2211
 1489SOL     OW16099   4.629   4.015  15.943 -0.5165 -0.3424  0.4143
 1489SOL    HW116100   4.651   4.102  15.975 -2.1037 -0.0594  0.7424
 1489SOL    HW216101   4.536   4.016  15.964 -0.7664 -1.1720 -0.6486
 1490SOL     OW16102   4.429   2.496   9.161  0.1136 -0.2268 -0.6449
 1490SOL    HW116103   4.447   2.515   9.253 -2.6611 -0.9210  0.0360
 1490SOL    HW216104   4.355   2.555   9.155 -0.5753 -0.8385  1.9125
 1491SOL     OW16105   4.680   1.748  17.182 -0.0201  0.4721 -0.0289
 1491SOL    HW116106   4.683   1.822  17.243  0.5828 -0.6070  1.2570
 1491SOL    HW216107   0.026   1.708  17.176 -0.0820  0.1315  1.3171
 1492SOL     OW16108   0.875   1.405   2.408 -0.1863 -0.1431  0.0184
 1492SOL    HW116109   0.867   1.463   2.333 -1.3610 -1.6164 -0.9731
 1492SOL    HW216110   0.885   1.324   2.359 -0.9286  0.9615 -1.9637
 1493SOL     OW16111   3.394   1.044   5.590  0.1751  0.7070  0.0563
 1493SOL    HW116112   3.483   1.023   5.561  0.0427 -0.9975  0.8529
 1493SOL    HW216113   3.404   1.134   5.621 -3.3208  0.7773  1.0204
 1494SOL     OW16114   4.566   2.935   5.010  0.3166 -0.5749 -0.4660
 1494SOL    HW116115   4.503   2.881   4.961 -1.8969 -0.6140  2.3951
 1494SOL    HW216116   4.625   2.960   4.939  0.0676  0.4091 -0.3249
 1495SOL     OW16117   3.947   1.922   5.069  0.0477 -0.2704 -0.5884
 1495SOL    HW116118   3.936   1.856   5.000 -1.9782 -0.0911 -0.4338
 1495SOL    HW216119   3.857   1.950   5.085  0.5044  1.0009 -0.2624
 1496SOL     OW16120   4.395   2.587   4.659  0.1047  0.4017 -0.4876
 1496SOL    HW116121   4.312   2.556   4.625  0.4296 -2.3198  1.2033
 1496SOL    HW216122   4.463   2.533   4.618 -1.1789  0.0142 -2.0478
 1497SOL     OW16123   3.950   3.810   5.867  0.3040 -0.3649 -0.8656
 1497SOL    HW116124   4.026   3.869   5.871 -0.7430  0.8269  0.8693
 1497SOL    HW216125   3.972   3.779   5.779 -0.6369 -2.2321 -0.4432
 1498SOL     OW16126   1.041   3.504  13.024 -0.1980 -0.1048 -0.7919
 1498SOL    HW116127   1.076   3.422  12.988  0.2408 -1.0107  1.6829
 1498SOL    HW216128   0.977   3.465  13.084  1.3140 -1.4965 -0.0721
 1499SOL     OW16129   3.020   0.198   3.665  0.4217 -0.3880  0.7116
 1499SOL    HW116130   3.039   0.292   3.661 -0.2136 -0.2008  2.2799
 1499SOL    HW216131   2.959   0.189   3.592  0.8453  0.4425  0.2437
 1500SOL     OW16132   0.703   1.559   4.087 -0.1772  0.1629 -0.6146
 1500SOL    HW116133   0.682   1.641   4.042 -0.1234  0.7091  0.3591
 1500SOL    HW216134   0.650   1.502   4.031 -2.2163  1.6472 -0.1845
 1501SOL     OW16135   3.119   0.745   8.656  0.3544  0.2351  0.0360
 1501SOL    HW116136   3.191   0.801   8.627  1.0402  0.1088  1.5306
 1501SOL    HW216137   3.094   0.782   8.741  1.8251  1.6192 -0.1283
 1502SOL     OW16138   0.541   1.664   4.943 -0.4350 -0.2961  0.5910
 1502SOL    HW116139   0.477   1.710   4.997 -0.1189 -2.3955  2.7661
 1502SOL    HW216140   0.501   1.655   4.857  0.7767 -0.1181  0.0029
 1503SOL     OW16141   3.000   2.089   8.405  0.2124 -0.8437  0.1013
 1503SOL    HW116142   2.979   2.084   8.499  0.1968  0.4559  0.1572
 1503SOL    HW216143   3.062   2.016   8.391  1.5717  0.8305 -2.5475
 1504SOL     OW16144   2.267   2.673   9.262  0.2314 -0.0928  0.8286
 1504SOL    HW116145   2.287   2.701   9.173  0.1227  1.9077  1.4477
 1504SOL    HW216146   2.227   2.586   9.253 -0.6722  0.6748 -2.4680
 1505SOL     OW16147   0.344   4.052   7.278  0.2441 -0.0505  0.2664
 1505SOL    HW116148   0.437   4.044   7.260 -0.3746 -2.7018 -1.7087
 1505SOL    HW216149   0.325   4.126   7.222  0.2379  2.2583  3.2968
 1506SOL     OW16150   4.323   1.910   1.109 -0.8334  0.5816  0.1332
 1506SOL    HW116151   4.249   1.877   1.057 -2.0180  2.8518  0.3600
 1506SOL    HW216152   4.303   2.001   1.132  1.1580  1.0853 -0.1772
 1507SOL     OW16153   4.619   3.170   7.925  0.2187 -0.6607 -0.2323
 1507SOL    HW116154   4.537   3.219   7.931  0.6345  0.2774 -2.1813
 1507SOL    HW216155   4.641   3.162   8.018 -0.9581  0.9022  0.1937
 1508SOL     OW16156   1.810   3.385  14.646  0.5282 -0.4038  0.3112
 1508SOL    HW116157   1.802   3.308  14.590 -3.8272  0.2381  0.0356
 1508SOL    HW216158   1.784   3.464  14.598 -3.5458 -2.0056 -0.1011
 1509SOL     OW16159   2.358   1.385   2.967  0.3726 -0.1109 -0.7589
 1509SOL    HW116160   2.412   1.464   2.971  0.6525 -0.3755  0.7346
 1509SOL    HW216161   2.287   1.424   2.915 -3.1773 -2.4041  2.3688
 1510SOL     OW16162   3.771   4.052  14.506  0.1896 -0.0458 -0.4445
 1510SOL    HW116163   3.687   4.045  14.550  0.3990  0.4886  0.0333
 1510SOL    HW216164   3.825   4.082  14.579 -0.2427  0.0422 -0.1614
 1511SOL     OW16165   2.111   1.333  12.838  0.6985 -0.0280  0.1728
 1511SOL    HW116166   2.120   1.424  12.867 -1.6253  0.5015 -0.7072
 1511SOL    HW216167   2.202   1.320  12.813  0.5501  0.9292 -0.8637
 1512SOL     OW16168   0.616   2.857  16.551 -0.2925  0.2968  0.1759
 1512SOL    HW116169   0.583   2.933  16.504  0.6761  0.3313 -0.4487
 1512SOL    HW216170   0.586   2.882  16.638  2.5784 -0.1449  1.2919
 1513SOL     OW16171   3.786   0.860   5.830  0.2695  0.2676  0.0169
 1513SOL    HW116172   3.692   0.869   5.840  0.2648  1.3572 -1.0393
 1513SOL    HW216173   3.811   0.912   5.906 -0.8863 -2.7105  2.4146
 1514SOL     OW16174   1.119   1.262   8.798  0.2703 -0.2210 -0.2548
 1514SOL    HW116175   1.049   1.319   8.831  1.0023  0.7201 -0.3209
 1514SOL    HW216176   1.087   1.177   8.826 -0.1732 -0.6466 -2.0143
 1515SOL     OW16177   2.713   2.292  15.123 -0.8795  0.2040 -0.4918
 1515SOL    HW116178   2.698   2.377  15.164 -0.3122  0.4302 -0.7529
 1515SOL    HW216179   2.633   2.286  15.072 -0.3936  0.3406 -1.2724
 1516SOL     OW16180   3.418   2.359  13.102 -0.0800 -0.0488 -0.0969
 1516SOL    HW116181   3.495   2.399  13.143  1.2366 -1.0923 -1.5170
 1516SOL    HW216182   3.363   2.368  13.180 -0.2813  2.5382 -0.5616
 1517SOL     OW16183   1.708   1.998   2.019 -0.4508  0.1460  0.8539
 1517SOL    HW116184   1.717   2.091   2.039 -1.2772  0.6120 -1.0124
 1517SOL    HW216185   1.728   1.999   1.926 -0.3460  0.3143  0.8775
 1518SOL     OW16186   3.069   4.734  13.965  0.2503 -0.2889 -0.1049
 1518SOL    HW116187   3.051   0.023  14.055 -0.2749  2.6397 -1.1655
 1518SOL    HW216188   3.092   4.645  13.990 -0.3229  0.2831  2.5166
 1519SOL     OW16189   3.836   1.851   3.770 -0.3921  0.1618 -0.4831
 1519SOL    HW116190   3.823   1.769   3.722  0.4565  0.7380 -1.6944
 1519SOL    HW216191   3.834   1.825   3.862  0.0176 -0.9635 -0.7865
 1520SOL     OW16192   2.117   0.362   4.257  0.5368  0.0682  0.2325
 1520SOL    HW116193   2.075   0.433   4.210  0.1296 -1.6959 -2.0362
 1520SOL    HW216194   2.052   0.292   4.260  0.6822 -0.0437  0.8105
 1521SOL     OW16195   2.641   3.181   9.156 -0.2801  0.3740  0.1230
 1521SOL    HW116196   2.589   3.168   9.236  0.5439 -0.5484  0.5043
 1521SOL    HW216197   2.580   3.186   9.083 -1.4070 -0.0621  1.0427
 1522SOL     OW16198   3.583   3.676   0.848  0.0073  0.1826  0.4090
 1522SOL    HW116199   3.547   3.590   0.869  0.3447  0.2295  1.1604
 1522SOL    HW216200   3.634   3.647   0.773  0.2172 -2.4012  1.5490
 1523SOL     OW16201   0.347   1.071   5.654 -0.2082 -0.3222 -0.6116
 1523SOL    HW116202   0.439   1.082   5.631  0.3684 -0.5583  1.5543
 1523SOL    HW216203   0.343   1.140   5.720 -0.2810 -2.5440  1.7442
 1524SOL     OW16204   3.808   0.120  14.416  0.4983  0.2995 -0.4476
 1524SOL    HW116205   3.894   0.117  14.458 -0.3361  1.2505  1.3245
 1524SOL    HW216206   3.827   0.119  14.322 -0.5637 -0.0232 -0.6630
 1525SOL     OW16207   1.659   2.211  16.994  0.1801 -0.7693 -0.1508
 1525SOL    HW116208   1.652   2.165  17.078 -0.6942 -0.4598 -0.0560
 1525SOL    HW216209   1.745   2.181  16.966  0.2126 -0.7247 -0.0978
 1526SOL     OW16210   1.114   2.529   8.534 -0.2208  0.3152 -0.1277
 1526SOL    HW116211   1.203   2.502   8.513  0.2411  0.0388  2.1636
 1526SOL    HW216212   1.098   2.471   8.608 -1.0975  0.9563  0.1955
 1527SOL     OW16213   3.629   2.305  15.686 -0.2301 -0.1683 -0.5492
 1527SOL    HW116214   3.667   2.381  15.730  0.7555 -0.0252 -1.6375
 1527SOL    HW216215   3.649   2.325  15.594 -1.5164 -2.4691 -1.3160
 1528SOL     OW16216   2.385   2.221  12.143 -0.0167 -0.0697 -0.7050
 1528SOL    HW116217   2.338   2.145  12.108  0.6200 -1.9092  2.4827
 1528SOL    HW216218   2.339   2.234  12.226 -1.0407 -1.2095 -1.0877
 1529SOL     OW16219   0.132   0.731   6.002  0.3358 -0.2025 -0.1696
 1529SOL    HW116220   0.175   0.797   6.057  0.9158  0.0838 -0.9742
 1529SOL    HW216221   0.206   0.671   6.010  0.9917  0.8527  1.6117
 1530SOL     OW16222   3.318   4.371   4.517  0.6582 -0.2199  0.4523
 1530SOL    HW116223   3.290   4.295   4.465  1.5868  1.8234 -3.0138
 1530SOL    HW216224   3.256   4.438   4.488  1.1451 -0.5227 -1.2877
 1531SOL     OW16225   1.756   3.638  13.797  0.0236 -0.8567 -0.6379
 1531SOL    HW116226   1.764   3.587  13.878  0.6317 -0.0799 -0.2080
 1531SOL    HW216227   1.677   3.690  13.812 -0.4035 -2.3089  2.1896
 1532SOL     OW16228   0.302   2.603   8.074 -0.2835  0.0973  0.1596
 1532SOL    HW116229   0.379   2.642   8.114 -0.4456  1.3249 -0.7424
 1532SOL    HW216230   0.266   2.561   8.152  3.2807 -2.0542  0.6042
 1533SOL     OW16231   0.153   3.248   3.690  0.3393 -0.2133 -0.2772
 1533SOL    HW116232   0.059   3.244   3.704  0.1443 -0.6715 -1.7590
 1533SOL    HW216233   0.175   3.335   3.722 -1.1135  0.4295 -1.0463
 1534SOL     OW16234   3.996   4.686   3.795 -0.1404 -0.4199  0.3583
 1534SOL    HW116235   3.940   4.717   3.724  1.5930  3.7027  0.8111
 1534SOL    HW216236   3.972   4.594   3.806  0.5453 -0.6089  0.2729
 1535SOL     OW16237   0.166   2.792  12.001 -0.4604 -0.1431  0.0778
 1535SOL    HW116238   0.234   2.750  12.053 -0.6714 -0.9871 -0.3353
 1535SOL    HW216239   0.178   2.728  11.931  0.3988  0.0161  0.0810
 1536SOL     OW16240   0.968   3.275   2.867  0.0287  0.6176  0.0437
 1536SOL    HW116241   0.924   3.278   2.782 -0.6221  0.3205  0.3705
 1536SOL    HW216242   0.904   3.244   2.932 -0.8807 -0.8634 -1.5731
 1537SOL     OW16243   3.921   4.060   3.235  0.5252 -0.5642  0.8741
 1537SOL    HW116244   3.964   4.079   3.318  2.1044  1.8607 -0.5061
 1537SOL    HW216245   3.997   4.049   3.179 -0.1611 -1.0273  0.0413
 1538SOL     OW16246   3.246   1.895  12.888  0.0284  0.8517 -0.2723
 1538SOL    HW116247   3.275   1.935  12.806  0.6618  0.8403 -0.0557
 1538SOL    HW216248   3.153   1.890  12.867 -0.2690  0.6102  1.1141
 1539SOL     OW16249   2.510   1.212   6.190  0.0516 -0.2669 -0.3683
 1539SOL    HW116250   2.449   1.161   6.136 -1.8504  1.4558  0.1521
 1539SOL    HW216251   2.585   1.153   6.197 -0.7816 -1.1626  1.0342
 1540SOL     OW16252   3.477   2.456  10.829 -0.3956 -0.2835  0.6944
 1540SOL    HW116253   3.562   2.500  10.834 -0.1557 -0.6243 -0.4384
 1540SOL    HW216254   3.457   2.440  10.921 -2.8029 -0.4607  0.1273
 1541SOL     OW16255   1.811   1.397   2.735 -0.4508 -0.3313 -0.4198
 1541SOL    HW116256   1.784   1.363   2.821  0.3208 -3.0361 -1.2368
 1541SOL    HW216257   1.733   1.364   2.691 -1.7052  1.3087  0.5718
 1542SOL     OW16258   2.525   2.720   8.090  0.1185 -0.2162 -0.0708
 1542SOL    HW116259   2.495   2.811   8.098  0.3456  0.1252 -3.4516
 1542SOL    HW216260   2.616   2.726   8.064  0.4634 -1.9570  0.7249
 1543SOL     OW16261   2.304   0.099  14.431  0.3889  0.0354 -0.0016
 1543SOL    HW116262   2.304   0.142  14.517  0.2800  1.1776 -0.5663
 1543SOL    HW216263   2.347   0.017  14.455 -0.9497 -1.1474 -1.6429
 1544SOL     OW16264   0.716   4.682   5.841 -0.3497 -0.1368  0.2379
 1544SOL    HW116265   0.761   4.709   5.761 -1.6074 -0.4220 -0.5601
 1544SOL    HW216266   0.729   0.013   5.903 -1.0002 -2.2629  2.8568
 1545SOL     OW16267   4.720   3.791   8.551  0.2311 -0.1551 -0.4860
 1545SOL    HW116268   4.639   3.798   8.600  1.7092  1.6626  1.6955
 1545SOL    HW216269   4.695   3.829   8.468  1.4386 -1.0175 -1.2513
 1546SOL     OW16270   0.811   2.372   5.298  0.4183  0.4587 -0.3206
 1546SOL    HW116271   0.889   2.367   5.242 -0.0837 -1.2429 -0.8793
 1546SOL    HW216272   0.746   2.336   5.238 -1.1051  2.3431  0.2195
 1547SOL     OW16273   0.934   0.704   7.167 -0.2851 -0.2098  0.0135
 1547SOL    HW116274   0.863   0.642   7.184 -0.1857 -0.5487 -0.7969
 1547SOL    HW216275   0.885   0.727   7.088  0.0108  0.0357 -0.0980
 1548SOL     OW16276   1.698   1.313  12.274 -0.1238  0.0404  0.1536
 1548SOL    HW116277   1.725   1.235  12.323  0.7038 -1.1803 -2.2805
 1548SOL    HW216278   1.786   1.315  12.236  0.3903 -4.0439  1.1108
 1549SOL     OW16279   4.656   2.194   7.305  0.0003 -0.5413 -0.4589
 1549SOL    HW116280   4.700   2.264   7.256  0.2596  0.5262  1.3344
 1549SOL    HW216281   4.672   2.129   7.236 -0.6764  0.9673 -2.0338
 1550SOL     OW16282   2.367   2.132   4.965 -0.1895 -0.0114 -0.2562
 1550SOL    HW116283   2.286   2.083   4.953 -0.3861  0.3347 -0.3559
 1550SOL    HW216284   2.407   2.062   5.017  0.4427  0.6655  0.1721
 1551SOL     OW16285   2.187   4.545  17.712  0.4999  0.0674 -0.1409
 1551SOL    HW116286   2.172   4.451  17.700 -3.0696  0.5230  0.8370
 1551SOL    HW216287   2.221   4.561  17.624  1.0975 -2.4344 -0.3649
 1552SOL     OW16288   2.528   4.710   8.041  0.3286  0.0333 -0.1231
 1552SOL    HW116289   2.583   4.687   7.967 -0.4803  0.0355 -0.7295
 1552SOL    HW216290   2.589   0.025   8.090  2.1964 -0.7525 -1.5990
 1553SOL     OW16291   0.181   0.951   6.742 -0.2106  0.4896 -0.1778
 1553SOL    HW116292   0.132   0.919   6.666 -1.1273 -1.9728  1.4167
 1553SOL    HW216293   0.187   0.869   6.791  0.4767  0.5878 -0.1035
 1554SOL     OW16294   1.359   0.484  10.101  0.1921  0.0478 -0.2591
 1554SOL    HW116295   1.404   0.541  10.163 -1.6759  0.6322  0.5433
 1554SOL    HW216296   1.296   0.540  10.056 -0.7797 -0.9147 -0.1063
 1555SOL     OW16297   4.673   1.746   3.991  0.5395 -0.3218 -0.1409
 1555SOL    HW116298   4.591   1.725   4.035  0.8289 -0.2552  0.4367
 1555SOL    HW216299   4.667   1.686   3.917  0.6483  0.0156 -0.4278
 1556SOL     OW16300   2.821   4.450   9.365  0.7360  0.1741  1.2754
 1556SOL    HW116301   2.845   4.506   9.438  0.5543  0.6990  0.9308
 1556SOL    HW216302   2.864   4.370   9.397 -0.7559 -1.5613 -1.0545
 1557SOL     OW16303   4.250   1.686   5.771 -0.0033  0.0106  0.0938
 1557SOL    HW116304   4.254   1.767   5.720 -0.4601 -0.1791 -0.2425
 1557SOL    HW216305   4.245   1.714   5.862  0.6895  2.8932 -0.7523
 1558SOL     OW16306   4.655   2.477   3.994  0.2044  0.1964 -0.0646
 1558SOL    HW116307   4.740   2.520   3.987  0.0598  0.5290  0.2332
 1558SOL    HW216308   4.673   2.393   3.951 -1.0914 -0.2421  0.2718
 1559SOL     OW16309   0.798   2.729   9.439 -0.0059 -0.3140  0.3965
 1559SOL    HW116310   0.775   2.651   9.389  0.0861  1.3223 -2.2191
 1559SOL    HW216311   0.854   2.781   9.381 -0.8225  0.5918  0.4194
 1560SOL     OW16312   4.056   4.728   5.535 -0.1438  0.3137  0.4417
 1560SOL    HW116313   4.019   0.027   5.613 -0.6253 -0.4853  0.6221
 1560SOL    HW216314   4.149   4.734   5.554 -0.0590  0.4106  0.0106
 1561SOL     OW16315   0.526   0.454   0.884 -0.0201 -0.0685 -0.0172
 1561SOL    HW116316   0.617   0.461   0.858  0.1385 -2.2911 -0.0527
 1561SOL    HW216317   0.509   0.530   0.939  1.2597 -1.2650  2.0319
 1562SOL     OW16318   4.352   3.747   2.261 -0.4751  0.5100 -0.1250
 1562SOL    HW116319   4.438   3.705   2.257  0.6483  2.7698  0.4323
 1562SOL    HW216320   4.367   3.840   2.246  1.3571  0.6148  2.4731
 1563SOL     OW16321   4.060   3.213   6.740 -0.0111 -0.1990  0.0045
 1563SOL    HW116322   4.139   3.180   6.784  0.2595  0.3944 -0.0410
 1563SOL    HW216323   4.029   3.134   6.695 -0.3126 -1.7687  2.9534
 1564SOL     OW16324   2.065   1.242   9.045 -0.3913  0.3105  0.2375
 1564SOL    HW116325   2.053   1.147   9.033 -2.8504  0.5234  1.0730
 1564SOL    HW216326   2.013   1.280   8.975 -2.3105  0.3055  1.6729
 1565SOL     OW16327   1.702   2.391   3.363 -0.2954 -0.2852 -0.5658
 1565SOL    HW116328   1.710   2.480   3.327 -1.2198  0.2614  0.5746
 1565SOL    HW216329   1.792   2.361   3.379  0.5392  2.1349 -0.7104
 1566SOL     OW16330   2.958   4.638   1.915 -0.0882  0.1588 -0.8841
 1566SOL    HW116331   2.899   4.565   1.930 -2.4766  2.5960  1.4635
 1566SOL    HW216332   2.925   4.663   1.828 -0.9719 -1.3758 -0.9861
 1567SOL     OW16333   2.065   1.339   7.894  0.3013  0.5548 -0.0660
 1567SOL    HW116334   2.048   1.339   7.799 -1.2457 -1.2873  0.2055
 1567SOL    HW216335   2.126   1.266   7.901 -0.8508 -0.2972  1.0810
 1568SOL     OW16336   0.662   0.743   5.469  0.0698  0.1942  0.2758
 1568SOL    HW116337   0.747   0.744   5.512  0.4927  0.2898 -0.5501
 1568SOL    HW216338   0.605   0.712   5.539  1.4589 -1.0819  0.8457
 1569SOL     OW16339   1.718   3.919  16.345 -0.2648 -0.2884  0.3259
 1569SOL    HW116340   1.810   3.910  16.368  0.3147  0.0907 -1.8372
 1569SOL    HW216341   1.679   3.838  16.378  0.8491 -0.6032  0.8689
 1570SOL     OW16342   3.221   3.590   5.642 -0.3496  0.5517 -0.6797
 1570SOL    HW116343   3.218   3.542   5.560 -1.1128 -1.8717  0.7456
 1570SOL    HW216344   3.308   3.560   5.667 -0.7033  0.2969  0.2641
 1571SOL     OW16345   4.067   2.108   2.062  0.7105  0.3740 -0.0884
 1571SOL    HW116346   3.989   2.165   2.059 -0.5669 -1.3852 -0.0984
 1571SOL    HW216347   4.090   2.111   2.155 -0.2767 -0.2685  0.1831
 1572SOL     OW16348   4.378   4.481   8.517 -0.4996  0.0712 -0.5178
 1572SOL    HW116349   4.429   4.400   8.529 -0.5563 -0.2028 -2.1339
 1572SOL    HW216350   4.420   4.530   8.588  0.7480 -2.3972  0.4713
 1573SOL     OW16351   4.588   0.144  15.942  0.0103  0.4018  0.2767
 1573SOL    HW116352   4.492   0.149  15.947 -0.0197  1.2032 -1.0253
 1573SOL    HW216353   4.601   0.056  15.976  0.1081  0.8626  1.4461
 1574SOL     OW16354   0.057   2.033   4.532  0.1610  0.2654  0.2339
 1574SOL    HW116355   0.042   2.077   4.448 -1.7917  1.0265  0.9676
 1574SOL    HW216356   0.058   2.108   4.592  0.8245 -0.8603  1.6118
 1575SOL     OW16357   2.652   2.625   2.247 -0.1560  0.3434 -0.0207
 1575SOL    HW116358   2.632   2.718   2.251 -2.5150 -0.1631  0.1654
 1575SOL    HW216359   2.575   2.596   2.199  0.1352 -0.7808  0.1746
 1576SOL     OW16360   0.066   2.940   7.314  0.4662 -0.1546 -0.2708
 1576SOL    HW116361   0.068   3.029   7.279 -4.5020 -0.6281 -1.7963
 1576SOL    HW216362   0.072   2.956   7.408  0.6813 -0.9971 -0.1452
 1577SOL     OW16363   3.937   4.588  13.343 -0.3802 -0.0683 -0.1145
 1577SOL    HW116364   4.004   4.640  13.389  0.9824 -0.3767 -1.7797
 1577SOL    HW216365   3.884   4.663  13.316 -1.9076 -0.8033  0.8517
 1578SOL     OW16366   0.097   1.521  10.169  0.7614  0.1247 -0.1404
 1578SOL    HW116367   0.110   1.475  10.086  1.5657  1.1728 -0.5991
 1578SOL    HW216368   0.077   1.607  10.131  0.1530  0.4189  0.8495
 1579SOL     OW16369   3.840   3.901   0.673 -0.2085 -0.2454 -0.1683
 1579SOL    HW116370   3.838   3.810   0.645  1.1795 -0.1287 -0.6368
 1579SOL    HW216371   3.891   3.940   0.602 -0.7383  1.3617  0.3430
 1580SOL     OW16372   4.164   1.778   1.362 -0.5870 -0.0352  0.1571
 1580SOL    HW116373   4.219   1.807   1.289 -0.0262 -0.1536  0.5330
 1580SOL    HW216374   4.218   1.702   1.385 -1.7168 -1.3703 -1.5933
 1581SOL     OW16375   2.235   2.092   8.663  0.5126 -0.2714  0.4494
 1581SOL    HW116376   2.263   2.156   8.598  0.9294 -2.8544 -1.9186
 1581SOL    HW216377   2.148   2.068   8.629  0.0614  2.6301 -0.4319
 1582SOL     OW16378   3.241   4.386   2.225 -0.0051 -0.5886  0.3474
 1582SOL    HW116379   3.224   4.324   2.154  0.8965 -1.5453  0.9713
 1582SOL    HW216380   3.171   4.451   2.213  0.4611 -0.1813 -0.1955
 1583SOL     OW16381   0.970   2.315   1.814 -0.1742 -0.4245  0.1742
 1583SOL    HW116382   0.897   2.320   1.876  0.6205  0.6332  1.0501
 1583SOL    HW216383   1.039   2.324   1.881  1.9917 -1.0136 -1.9913
 1584SOL     OW16384   0.185   0.516   8.072 -0.0031 -0.2028  0.1407
 1584SOL    HW116385   0.138   0.459   8.011 -0.9782  1.3397 -0.5533
 1584SOL    HW216386   0.145   0.484   8.154  0.7513 -0.2175  0.4971
 1585SOL     OW16387   2.358   2.089   5.505  0.4937 -0.2044  0.0358
 1585SOL    HW116388   2.290   2.046   5.557  0.8202 -0.7105  0.0430
 1585SOL    HW216389   2.307   2.161   5.469  1.0317  0.1903  0.0567
 1586SOL     OW16390   3.913   0.985   2.767  0.2471 -0.3026 -0.3971
 1586SOL    HW116391   3.839   0.938   2.728 -0.9876  1.8798 -0.6797
 1586SOL    HW216392   3.988   0.944   2.725  0.4338 -1.8693  1.4718
 1587SOL     OW16393   0.851   2.365   3.424 -0.5418  0.7023  0.3008
 1587SOL    HW116394   0.883   2.387   3.512  1.2884 -2.3439  0.3805
 1587SOL    HW216395   0.756   2.374   3.434 -0.6241 -0.4862  0.6073
 1588SOL     OW16396   0.506   3.185   4.716  0.7440  0.7095  0.2428
 1588SOL    HW116397   0.549   3.136   4.786  0.5904 -1.5692 -1.2468
 1588SOL    HW216398   0.463   3.254   4.767  1.4995 -0.5544  2.5769
 1589SOL     OW16399   1.716   4.432   1.404  0.3441  0.3085 -0.4899
 1589SOL    HW116400   1.662   4.396   1.333  1.8513  0.4847 -1.7378
 1589SOL    HW216401   1.657   4.499   1.438  1.0059  0.0507  1.1559
 1590SOL     OW16402   0.454   3.897   8.833  0.1332 -0.1279  0.1042
 1590SOL    HW116403   0.455   3.931   8.923  2.1247 -1.1115  0.4392
 1590SOL    HW216404   0.467   3.969   8.771 -2.1679  0.6948  0.5542
 1591SOL     OW16405   3.581   4.237   5.737 -0.4877 -0.3243 -0.3837
 1591SOL    HW116406   3.537   4.277   5.661 -0.7116  0.6649  0.2549
 1591SOL    HW216407   3.517   4.168   5.754 -0.2040 -0.8769 -1.5657
 1592SOL     OW16408   4.609   0.497   7.576 -0.0801  0.4059 -0.1060
 1592SOL    HW116409   4.604   0.544   7.493  2.8567  0.1642 -0.4095
 1592SOL    HW216410   4.552   0.421   7.565 -0.9044  1.0641 -0.3914
 1593SOL     OW16411   4.058   1.560   6.624 -0.1688 -0.2574  0.0675
 1593SOL    HW116412   4.097   1.647   6.636  1.7954 -1.0332 -0.7188
 1593SOL    HW216413   4.122   1.494   6.650  0.7576  0.6192  0.0160
 1594SOL     OW16414   2.109   0.839  12.695 -0.7375  0.0426 -0.1819
 1594SOL    HW116415   2.151   0.834  12.780  1.1582  0.2214 -1.1144
 1594SOL    HW216416   2.125   0.929  12.665  2.1890 -0.3762  0.1082
 1595SOL     OW16417   1.997   4.486   6.685 -0.4282  0.7682  0.0704
 1595SOL    HW116418   2.091   4.477   6.670 -0.3317 -1.4324  1.9637
 1595SOL    HW216419   1.976   4.438   6.765  1.8319  0.0475  0.2171
 1596SOL     OW16420   1.783   0.583   4.895 -0.5828 -0.3558 -0.1996
 1596SOL    HW116421   1.698   0.597   4.937  0.0904 -0.1973  1.1061
 1596SOL    HW216422   1.766   0.575   4.801  0.8032 -1.6359 -0.3388
 1597SOL     OW16423   0.883   4.285   5.752 -0.2115 -0.1055  0.0395
 1597SOL    HW116424   0.827   4.341   5.805  1.2142  0.7980  0.6041
 1597SOL    HW216425   0.876   4.332   5.669 -0.7457  3.2532  1.9943
 1598SOL     OW16426   3.443   1.422   6.190 -0.3331 -0.3221  0.0215
 1598SOL    HW116427   3.533   1.392   6.196 -0.0187  0.4125 -1.0854
 1598SOL    HW216428   3.405   1.350   6.240 -3.2125  0.3960 -1.1178
 1599SOL     OW16429   4.461   3.706   6.757  0.3100  0.1971 -0.0758
 1599SOL    HW116430   4.499   3.618   6.758  0.3328  0.2103  0.3455
 1599SOL    HW216431   4.433   3.720   6.667  0.5095 -0.5106 -0.2485
 1600SOL     OW16432   0.293   1.534  11.339 -0.3326  0.1769 -0.2600
 1600SOL    HW116433   0.286   1.625  11.312  1.2849  0.1644 -0.7518
 1600SOL    HW216434   0.330   1.497  11.258 -1.6905 -0.0068 -0.7927
 1601SOL     OW16435   0.725   0.819   6.939 -0.1260  0.5844 -0.1259
 1601SOL    HW116436   0.671   0.772   7.004  2.6334 -1.8802  0.3734
 1601SOL    HW216437   0.732   0.750   6.873 -0.8267  0.4129 -0.0193
 1602SOL     OW16438   0.139   2.565   8.952 -0.3065  0.1841 -1.0819
 1602SOL    HW116439   0.198   2.501   8.991 -1.4786 -0.4985 -0.4465
 1602SOL    HW216440   0.063   2.545   9.006  0.1704  0.5390 -0.2758
 1603SOL     OW16441   2.227   0.110   4.796  0.1706  0.2236 -0.2718
 1603SOL    HW116442   2.320   0.093   4.811  0.0376 -0.8618 -0.6750
 1603SOL    HW216443   2.184   0.052   4.859  0.0764 -1.0483 -1.5085
 1604SOL     OW16444   4.637   3.287   2.461  0.1245 -0.1238  0.5464
 1604SOL    HW116445   4.566   3.346   2.485  0.6890  0.5413  0.5929
 1604SOL    HW216446   4.716   3.339   2.480 -0.6364  0.2543  2.6734
 1605SOL     OW16447   1.396   0.939   4.025  0.3479  0.1873  0.2978
 1605SOL    HW116448   1.468   0.892   3.983  0.3128  1.2900 -0.9832
 1605SOL    HW216449   1.357   0.978   3.947 -3.7324 -1.1510  1.6407
 1606SOL     OW16450   0.544   0.447   5.317 -0.3676 -0.2246  0.1918
 1606SOL    HW116451   0.513   0.391   5.246 -1.1277  0.9286 -0.3726
 1606SOL    HW216452   0.481   0.518   5.310  0.2920  0.0234 -3.0424
 1607SOL     OW16453   4.450   3.770  16.375 -0.0748  0.1906 -0.1629
 1607SOL    HW116454   4.514   3.827  16.332  0.6887 -0.1116  0.5512
 1607SOL    HW216455   4.434   3.819  16.456 -3.0884 -0.6365 -0.2646
 1608SOL     OW16456   0.125   4.686   4.443 -0.1616  0.1606  0.2390
 1608SOL    HW116457   0.106   0.039   4.434 -0.8101 -0.0636 -0.6911
 1608SOL    HW216458   0.076   4.669   4.524  1.0207 -1.1809  0.6579
 1609SOL     OW16459   0.967   3.280   6.945 -0.2111 -0.2637  0.0462
 1609SOL    HW116460   1.001   3.280   7.035 -1.9388 -3.3990  0.7153
 1609SOL    HW216461   0.950   3.186   6.945 -0.7579 -0.1645  1.3540
 1610SOL     OW16462   1.305   0.204  14.634  0.1254 -0.6362  0.2436
 1610SOL    HW116463   1.365   0.265  14.676  0.5977 -2.6174  2.4546
 1610SOL    HW216464   1.347   0.193  14.548  1.5202 -2.4159  1.1457
 1611SOL     OW16465   1.403   1.683   7.437  0.1792  0.5481  0.0748
 1611SOL    HW116466   1.336   1.626   7.400  1.4140  0.3816 -1.8851
 1611SOL    HW216467   1.441   1.717   7.356  0.9489  3.0956  1.5113
 1612SOL     OW16468   2.782   0.407   4.429  0.4385 -0.1357  0.0054
 1612SOL    HW116469   2.777   0.353   4.508 -1.2695  0.5584  0.3701
 1612SOL    HW216470   2.709   0.379   4.373 -0.0165 -0.0698  0.5575
 1613SOL     OW16471   2.741   4.047   4.957 -0.1408  0.0427  0.6580
 1613SOL    HW116472   2.824   4.089   4.982 -0.6285  0.8838  0.8945
 1613SOL    HW216473   2.741   3.969   5.012  1.8645  0.2399  0.9383
 1614SOL     OW16474   1.971   4.704  11.788 -0.5689 -0.3097 -0.1861
 1614SOL    HW116475   1.989   0.055  11.768 -1.5739  0.2163  1.3645
 1614SOL    HW216476   1.885   4.702  11.831 -0.6995 -0.9283 -0.4728
 1615SOL     OW16477   2.613   4.435   3.304  0.9342  0.0988  0.0196
 1615SOL    HW116478   2.690   4.383   3.280  0.3254  0.2360 -2.2087
 1615SOL    HW216479   2.545   4.368   3.313  0.8200  0.1006 -0.8968
 1616SOL     OW16480   1.181   4.461   1.547 -0.0575 -0.1803 -0.1736
 1616SOL    HW116481   1.169   4.501   1.461  1.0288  1.8292  0.6174
 1616SOL    HW216482   1.201   4.537   1.601 -1.6351  0.4977 -0.5616
 1617SOL     OW16483   4.288   1.583   7.737  0.4463 -0.1498 -0.0548
 1617SOL    HW116484   4.217   1.572   7.673  0.7745  0.4284 -0.5191
 1617SOL    HW216485   4.308   1.493   7.762 -0.1966 -0.9129 -2.3122
 1618SOL     OW16486   2.040   0.385   9.509 -0.5013  0.1856  0.4670
 1618SOL    HW116487   2.062   0.297   9.478 -2.3644  0.2475 -1.0158
 1618SOL    HW216488   2.007   0.371   9.598  0.6287 -0.2576  0.8155
 1619SOL     OW16489   0.643   4.594   5.135 -0.0177 -0.1451  0.1427
 1619SOL    HW116490   0.615   4.616   5.224 -0.1332  1.5179 -0.3057
 1619SOL    HW216491   0.571   4.633   5.085  0.8146  3.0722  1.4882
 1620SOL     OW16492   3.313   2.242  10.097 -0.2353 -0.4105  0.1101
 1620SOL    HW116493   3.273   2.300  10.162 -2.5900 -2.2197  0.3087
 1620SOL    HW216494   3.252   2.169  10.110 -3.2310  2.4033  1.9236
 1621SOL     OW16495   1.636   0.119   4.256  0.1986  0.6345  0.4862
 1621SOL    HW116496   1.652   0.040   4.205  1.8255  1.3984 -0.1844
 1621SOL    HW216497   1.585   0.079   4.327  0.1784 -0.6229 -0.2339
 1622SOL     OW16498   4.176   0.128  16.387  0.0706 -0.3982  0.2266
 1622SOL    HW116499   4.203   0.044  16.424 -1.3979 -0.0166  2.1703
 1622SOL    HW216500   4.188   0.113  16.293 -1.2366  0.3178 -0.0575
 1623SOL     OW16501   3.601   2.095  13.958  0.0030  0.2646 -0.7374
 1623SOL    HW116502   3.597   2.027  14.025 -1.6785  1.9627  0.9182
 1623SOL    HW216503   3.688   2.127  13.983  0.4690 -0.7262 -1.1297
 1624SOL     OW16504   2.791   4.675   2.836  0.0696 -0.0487  0.5404
 1624SOL    HW116505   2.876   4.717   2.829  0.9933 -2.0768 -0.3104
 1624SOL    HW216506   2.806   4.587   2.804  0.8174  0.5508 -0.7593
 1625SOL     OW16507   2.038   4.597   5.618  0.1027 -0.0103 -0.3532
 1625SOL    HW116508   2.023   4.690   5.606 -1.3627 -0.5161 -2.4878
 1625SOL    HW216509   2.084   4.566   5.540  2.4090  1.1693  0.5598
 1626SOL     OW16510   0.937   4.511   6.073  0.0895 -0.0875 -0.4148
 1626SOL    HW116511   0.933   4.559   5.990  1.0163 -1.8836 -1.5056
 1626SOL    HW216512   0.942   4.580   6.139 -1.2861  0.8829 -1.3130
 1627SOL     OW16513   1.128   3.333   6.233 -0.1925  0.5313  0.3241
 1627SOL    HW116514   1.164   3.378   6.157 -1.1706 -0.6571 -0.8414
 1627SOL    HW216515   1.039   3.316   6.203  0.2674 -2.0293  0.4307
 1628SOL     OW16516   3.156   3.362   2.584 -0.1402  0.5259  0.5867
 1628SOL    HW116517   3.230   3.378   2.526  1.6723  1.5420  3.1883
 1628SOL    HW216518   3.083   3.403   2.537 -0.5046  0.1637  0.8349
 1629SOL     OW16519   4.086   1.635   5.152  0.2339  0.4743 -0.4024
 1629SOL    HW116520   4.141   1.704   5.114 -0.7170  0.9508 -0.8932
 1629SOL    HW216521   4.131   1.629   5.237  0.2335  0.6005 -0.3932
 1630SOL     OW16522   3.057   3.487   6.165  0.3678 -0.1056  0.0745
 1630SOL    HW116523   3.082   3.398   6.192 -2.9717 -1.3892 -1.0287
 1630SOL    HW216524   3.086   3.541   6.239 -0.0181  0.2758 -0.0541
 1631SOL     OW16525   3.930   4.296   6.129 -0.2754 -0.0596  0.0667
 1631SOL    HW116526   3.941   4.324   6.220 -0.5797  1.9373 -0.4966
 1631SOL    HW216527   3.950   4.203   6.139  1.8753  0.3616 -0.4175
 1632SOL     OW16528   2.631   2.950   7.930  0.1099 -0.2031 -0.2237
 1632SOL    HW116529   2.707   2.898   7.957  0.2866  0.0671 -0.1989
 1632SOL    HW216530   2.670   3.037   7.930  0.5162 -0.3802 -0.3121
 1633SOL     OW16531   0.614   3.097  14.921  0.1880 -0.3072  0.2132
 1633SOL    HW116532   0.691   3.057  14.880  0.4537  0.7631 -0.3294
 1633SOL    HW216533   0.595   3.029  14.986 -2.2111 -1.6425 -1.9303
 1634SOL     OW16534   3.643   3.284   1.828 -0.0675  0.1078  0.1524
 1634SOL    HW116535   3.657   3.300   1.921  1.5965  3.1002 -0.6079
 1634SOL    HW216536   3.690   3.201   1.817 -1.7741 -0.6648 -1.3198
 1635SOL     OW16537   2.085   0.308  15.535  0.3494 -0.0648 -0.2116
 1635SOL    HW116538   2.167   0.354  15.552  0.1672  0.1666  0.0543
 1635SOL    HW216539   2.080   0.262  15.620 -0.6418 -2.2693 -1.4457
 1636SOL     OW16540   1.240   3.159   5.607  0.0276  0.0233 -0.1769
 1636SOL    HW116541   1.211   3.072   5.581 -0.4559 -0.2616  1.3333
 1636SOL    HW216542   1.301   3.181   5.537 -2.4725  3.5954 -1.2165
 1637SOL     OW16543   3.483   3.080   2.206  0.0487 -0.0360  0.1117
 1637SOL    HW116544   3.535   3.133   2.146 -2.1915  3.9075  1.6839
 1637SOL    HW216545   3.549   3.012   2.219 -1.2011 -1.4122 -0.6778
 1638SOL     OW16546   3.122   1.886   5.338 -0.1786 -0.2951 -0.5254
 1638SOL    HW116547   3.150   1.931   5.418 -0.9427 -1.9556  0.6741
 1638SOL    HW216548   3.060   1.821   5.371  0.1883 -0.5337 -0.3060
 1639SOL     OW16549   3.324   4.064   6.672 -0.4210  0.2591  0.5299
 1639SOL    HW116550   3.308   4.035   6.761  1.7440 -1.7594  0.2570
 1639SOL    HW216551   3.242   4.097   6.636 -0.2448  0.3265  0.1830
 1640SOL     OW16552   4.191   4.096   8.757 -0.3614 -0.0105 -0.1158
 1640SOL    HW116553   4.264   4.119   8.814 -0.8162  0.1125  0.4158
 1640SOL    HW216554   4.226   4.013   8.723  0.3811  0.2858 -0.0707
 1641SOL     OW16555   1.731   0.945   7.009 -0.0723 -0.4270 -0.3855
 1641SOL    HW116556   1.821   0.974   7.023  0.2225 -1.9044  0.8487
 1641SOL    HW216557   1.710   0.969   6.919  0.5030  1.5963  0.0454
 1642SOL     OW16558   2.913   3.742   3.500 -0.8016  0.5416 -0.0715
 1642SOL    HW116559   2.957   3.797   3.436 -0.8591 -0.1455 -0.7039
 1642SOL    HW216560   2.965   3.765   3.577  1.0496 -1.8893 -0.6064
 1643SOL     OW16561   3.932   3.021   5.854  0.1854 -0.2730  0.4659
 1643SOL    HW116562   3.991   3.026   5.929  0.6995 -0.8638  0.1073
 1643SOL    HW216563   3.853   3.059   5.892  0.4256 -1.3536  2.0510
 1644SOL     OW16564   2.743   0.729   2.192  0.2533  0.1969  0.4820
 1644SOL    HW116565   2.703   0.815   2.180  1.0634  0.4589 -0.3658
 1644SOL    HW216566   2.678   0.670   2.153  0.6481 -0.0585  0.2046
 1645SOL     OW16567   1.309   1.929   2.047  0.5168  0.1956 -0.3353
 1645SOL    HW116568   1.273   1.840   2.052  1.1178  0.1298  2.3986
 1645SOL    HW216569   1.398   1.907   2.076  1.5669  2.4406 -1.8175
 1646SOL     OW16570   4.427   1.586   1.167 -0.3063  0.2506  0.0256
 1646SOL    HW116571   4.374   1.508   1.148  0.4492  0.1485 -1.6295
 1646SOL    HW216572   4.380   1.657   1.124  1.7017  1.2713 -0.4658
 1647SOL     OW16573   3.758   2.582   2.045  0.1856  0.7393  0.1306
 1647SOL    HW116574   3.802   2.645   1.988  1.3024  0.6816  0.9044
 1647SOL    HW216575   3.808   2.508   2.012 -2.2019 -0.7787  0.0147
 1648SOL     OW16576   1.529   3.926   6.899 -0.2254  0.0657 -0.2201
 1648SOL    HW116577   1.622   3.933   6.917 -0.3411 -0.6710  0.6933
 1648SOL    HW216578   1.500   4.009   6.938  0.8444 -0.0481  0.8018
 1649SOL     OW16579   1.068   3.448  11.667  0.0289 -0.8255 -1.0845
 1649SOL    HW116580   1.095   3.435  11.576  3.8131  1.5019 -0.3114
 1649SOL    HW216581   1.103   3.537  11.667 -0.5407 -0.6010  0.6615
 1650SOL     OW16582   0.856   3.324   9.445 -0.3448  0.1663  0.1866
 1650SOL    HW116583   0.822   3.412   9.430  1.6152  0.5990 -1.8256
 1650SOL    HW216584   0.862   3.314   9.540  0.9876  0.1248  0.0991
 1651SOL     OW16585   3.052   4.066   8.826 -0.1061  0.7042 -0.5404
 1651SOL    HW116586   3.041   4.151   8.785  0.0899  0.8397 -0.3127
 1651SOL    HW216587   3.137   4.039   8.790  0.2394 -0.6782  1.3243
 1652SOL     OW16588   0.366   4.452   8.790  0.5601  0.1935 -0.1091
 1652SOL    HW116589   0.413   4.373   8.817  1.2650  0.4935 -0.4573
 1652SOL    HW216590   0.440   4.513   8.782  1.6598 -0.9414  1.4051
 1653SOL     OW16591   3.183   1.288   8.296 -0.3616  0.2568 -0.1051
 1653SOL    HW116592   3.089   1.304   8.286 -0.5105  2.1165  4.5183
 1653SOL    HW216593   3.202   1.331   8.379  0.4904 -0.3686  0.0164
 1654SOL     OW16594   0.669   3.008   6.454 -0.0586 -0.3633 -0.0377
 1654SOL    HW116595   0.598   3.009   6.519 -2.2076 -1.2722 -2.3368
 1654SOL    HW216596   0.709   2.922   6.467 -0.8664 -0.4391  1.9278
 1655SOL     OW16597   3.046   3.445   8.203  0.0007  0.5556  0.5278
 1655SOL    HW116598   3.020   3.354   8.221  1.1918  0.0521 -0.2854
 1655SOL    HW216599   3.122   3.459   8.259  0.5653  0.2721 -0.1659
 1656SOL     OW16600   1.017   0.307   7.110  0.4424 -0.7058  0.0191
 1656SOL    HW116601   1.008   0.285   7.202  1.2764 -2.9845 -0.4485
 1656SOL    HW216602   1.064   0.228   7.083  1.9922 -0.2301  1.3311
 1657SOL     OW16603   3.098   4.614   0.236  0.0107  0.5715 -0.7382
 1657SOL    HW116604   3.039   4.543   0.261  0.1236  1.1829  1.2647
 1657SOL    HW216605   3.179   4.564   0.227 -0.2321  0.1091 -0.3509
 1658SOL     OW16606   4.582   4.089   9.983 -0.3839  0.0276  0.1693
 1658SOL    HW116607   4.536   4.027   9.925 -1.0656  1.8032 -1.1874
 1658SOL    HW216608   4.553   4.062  10.070 -0.1905 -0.4968  0.0728
 1659SOL     OW16609   2.874   2.552   4.718 -0.0728  0.1841 -0.1654
 1659SOL    HW116610   2.849   2.557   4.810  0.9398  3.2626 -0.0662
 1659SOL    HW216611   2.954   2.502   4.736 -1.3990 -1.2853  1.5902
 1660SOL     OW16612   0.311   3.309   7.985  0.0131  0.0849 -0.1724
 1660SOL    HW116613   0.290   3.312   8.078  3.6040 -1.6704  0.6979
 1660SOL    HW216614   0.226   3.312   7.941 -0.8086 -0.1994  1.4269
 1661SOL     OW16615   2.454   3.814  12.312  0.4055  0.4898 -0.4406
 1661SOL    HW116616   2.486   3.857  12.234  2.0382  1.6540  0.8802
 1661SOL    HW216617   2.485   3.878  12.376  0.0809  1.3738 -1.1817
 1662SOL     OW16618   3.745   2.577   1.576  0.3054 -0.1818  0.2456
 1662SOL    HW116619   3.692   2.570   1.655 -0.4743  0.1521 -0.2516
 1662SOL    HW216620   3.726   2.488   1.547  1.1309 -0.5535  0.8484
 1663SOL     OW16621   4.458   1.760   6.849  0.1464 -1.1204  0.1276
 1663SOL    HW116622   4.516   1.715   6.910 -2.0570 -3.3271  0.5896
 1663SOL    HW216623   4.413   1.812   6.915  1.5582 -0.3211  0.4470
 1664SOL     OW16624   1.449   0.994   6.629 -0.1664 -0.5817 -0.4715
 1664SOL    HW116625   1.499   1.059   6.679 -0.9672  0.1764 -0.6583
 1664SOL    HW216626   1.414   0.948   6.706  0.3356 -0.1476  0.0190
 1665SOL     OW16627   1.660   2.880   8.955 -0.2556 -0.0515  0.0088
 1665SOL    HW116628   1.676   2.915   8.867 -0.0173  0.1500  0.1345
 1665SOL    HW216629   1.650   2.964   9.000 -0.1131 -0.5363  0.9339
 1666SOL     OW16630   3.982   1.897   6.051 -0.0497 -0.3176  0.2433
 1666SOL    HW116631   4.034   1.819   6.069  0.7816  0.2216  0.1864
 1666SOL    HW216632   3.978   1.899   5.955 -1.1728 -0.6200  0.2742
 1667SOL     OW16633   4.064   0.919   4.486 -0.8579  0.7268  0.7168
 1667SOL    HW116634   4.063   0.993   4.425 -1.8436 -0.9131 -1.2400
 1667SOL    HW216635   4.135   0.871   4.443  0.2284 -0.4607  3.8249
 1668SOL     OW16636   3.891   0.840   6.824  0.3676  0.3590  0.0691
 1668SOL    HW116637   3.843   0.763   6.854  0.4384  0.5426  0.6481
 1668SOL    HW216638   3.962   0.853   6.887 -0.2316 -0.9164  0.9994
 1669SOL     OW16639   1.859   2.833   7.188  0.4096 -0.1317  0.5988
 1669SOL    HW116640   1.907   2.769   7.241  0.7985 -1.1942 -1.0607
 1669SOL    HW216641   1.774   2.788   7.184  0.8683 -0.7842 -1.5763
 1670SOL     OW16642   0.589   4.166  15.614 -0.2635 -0.0859 -0.1849
 1670SOL    HW116643   0.558   4.194  15.700 -0.9219 -2.6570  0.4068
 1670SOL    HW216644   0.657   4.232  15.596 -1.1608  0.6106 -1.0215
 1671SOL     OW16645   3.754   3.483  13.117  0.0830 -0.1127 -0.0321
 1671SOL    HW116646   3.694   3.553  13.143  1.3114  0.3369  1.6135
 1671SOL    HW216647   3.825   3.527  13.071  1.1075 -0.4648  1.1929
 1672SOL     OW16648   1.464   1.495   3.245 -0.2335 -0.2662 -0.8818
 1672SOL    HW116649   1.503   1.582   3.238  0.4397 -0.2385  3.2278
 1672SOL    HW216650   1.524   1.437   3.198  1.4482 -0.4076  1.4277
 1673SOL     OW16651   3.781   3.510   2.660  0.5489  0.0483  0.2379
 1673SOL    HW116652   3.837   3.434   2.680  0.6165 -0.3736 -1.5402
 1673SOL    HW216653   3.845   3.581   2.657  0.0434  0.3342 -3.6472
 1674SOL     OW16654   3.451   0.673   7.858  0.1950  0.0085 -0.8022
 1674SOL    HW116655   3.395   0.621   7.916  1.1874  1.4750  1.4894
 1674SOL    HW216656   3.498   0.742   7.905 -0.3739 -0.8843  1.0678
 1675SOL     OW16657   1.585   1.367   4.442 -0.1963 -0.5258 -0.0072
 1675SOL    HW116658   1.583   1.439   4.380 -3.4201 -1.2710 -0.7756
 1675SOL    HW216659   1.673   1.386   4.472  0.4507  1.0481 -2.9159
 1676SOL     OW16660   0.836   3.276   3.945 -0.2787 -0.3334  0.4702
 1676SOL    HW116661   0.913   3.275   4.001  1.6807 -0.6290 -2.2222
 1676SOL    HW216662   0.784   3.346   3.984 -0.0348 -0.1978  0.5498
 1677SOL     OW16663   4.350   1.233   8.025  0.1069  0.2842  0.0041
 1677SOL    HW116664   4.321   1.192   7.943  1.1731  0.5308 -0.4966
 1677SOL    HW216665   4.273   1.253   8.078 -0.0158  1.6775 -0.6998
 1678SOL     OW16666   1.624   3.686   2.568  0.3107  0.0583  0.0898
 1678SOL    HW116667   1.687   3.652   2.631 -0.5076  0.9133  1.3752
 1678SOL    HW216668   1.612   3.613   2.508 -0.9692  2.1284 -2.1688
 1679SOL     OW16669   4.163   1.831   2.107 -0.0293  0.0152 -0.5901
 1679SOL    HW116670   4.087   1.782   2.074 -1.3643  2.3954 -1.0445
 1679SOL    HW216671   4.146   1.919   2.075 -1.2085 -0.2823 -0.8165
 1680SOL     OW16672   3.303   1.681  16.990  0.4182 -0.2621  0.0758
 1680SOL    HW116673   3.341   1.595  16.972  1.3548 -0.3120  2.2897
 1680SOL    HW216674   3.262   1.702  16.906 -0.9243 -0.5934  0.6446
 1681SOL     OW16675   0.447   4.306   7.001  0.1443  0.2340 -0.0375
 1681SOL    HW116676   0.486   4.383   6.959  0.8398  0.7988  1.6614
 1681SOL    HW216677   0.512   4.300   7.070 -0.2936 -0.2923  0.3285
 1682SOL     OW16678   3.328   2.953   8.812 -0.6411  0.3292  0.3930
 1682SOL    HW116679   3.280   3.019   8.861  0.8197  1.5072  0.2334
 1682SOL    HW216680   3.349   2.997   8.730 -1.8277  2.4279  1.2394
 1683SOL     OW16681   4.309   4.056   5.558  0.0214  0.2739  0.2163
 1683SOL    HW116682   4.390   4.085   5.601  0.3542 -1.0795  0.5200
 1683SOL    HW216683   4.255   4.119   5.604 -1.4708 -0.7020 -0.2022
 1684SOL     OW16684   2.563   4.093  14.874 -0.2388  0.1096 -0.4018
 1684SOL    HW116685   2.529   4.004  14.870  0.7464 -0.2746 -0.1761
 1684SOL    HW216686   2.531   4.116  14.787 -0.8573  1.5674  0.2035
 1685SOL     OW16687   2.656   0.081   3.935 -0.4544  0.2729 -0.2417
 1685SOL    HW116688   2.568   0.044   3.939  0.7086 -2.5239 -0.2925
 1685SOL    HW216689   2.674   0.106   3.845  0.1081  1.6981  0.2595
 1686SOL     OW16690   1.953   1.810   7.489 -0.5973 -0.1600  0.4221
 1686SOL    HW116691   1.987   1.899   7.482  1.0761 -0.9933 -2.3097
 1686SOL    HW216692   1.862   1.838   7.491 -0.4510  0.1272  3.0967
 1687SOL     OW16693   1.043   3.197   1.844  0.4456 -0.0283  0.0624
 1687SOL    HW116694   0.988   3.169   1.917 -1.1924  2.8741 -0.0698
 1687SOL    HW216695   1.071   3.114   1.804 -1.0036 -0.3901 -0.1780
 1688SOL     OW16696   4.496   0.480   2.028 -0.0176 -0.2647 -0.1350
 1688SOL    HW116697   4.435   0.489   1.955 -0.8381 -1.4772  0.4158
 1688SOL    HW216698   4.460   0.553   2.078 -1.2818 -0.0304 -1.3984
 1689SOL     OW16699   1.396   4.638   2.899  0.4572 -0.4812 -0.0520
 1689SOL    HW116700   1.437   4.689   2.969  1.2392  0.2295 -1.0306
 1689SOL    HW216701   1.353   4.570   2.950  2.5132  0.1087  2.4857
 1690SOL     OW16702   4.581   1.878   1.188  0.2561  0.2198 -0.7026
 1690SOL    HW116703   4.612   1.969   1.185 -3.0054  1.3232 -0.4349
 1690SOL    HW216704   4.487   1.887   1.178  0.1306  1.4404  1.4274
 1691SOL     OW16705   1.391   2.326  10.030  0.1185 -0.0781 -0.1231
 1691SOL    HW116706   1.386   2.250   9.972  0.0526 -1.0494  1.1741
 1691SOL    HW216707   1.339   2.290  10.102  0.8122 -0.0148  0.4080
 1692SOL     OW16708   0.217   4.493   6.531 -0.0273  0.7779 -0.0901
 1692SOL    HW116709   0.178   4.529   6.611 -1.5940 -0.3805 -0.3269
 1692SOL    HW216710   0.174   4.408   6.525  1.7409 -0.1886  1.3104
 1693SOL     OW16711   0.490   3.229   9.649 -0.4035  0.4644  0.2424
 1693SOL    HW116712   0.496   3.308   9.703  2.0350  0.0349  0.6118
 1693SOL    HW216713   0.560   3.171   9.680  0.6711  0.9688 -1.2505
 1694SOL     OW16714   3.155   2.003   2.654  0.0141 -0.2578  0.3239
 1694SOL    HW116715   3.167   2.075   2.716 -0.3135  0.6267 -0.6349
 1694SOL    HW216716   3.182   1.926   2.703  0.3207 -1.2461 -1.3903
 1695SOL     OW16717   1.393   1.618  15.312  0.3627 -0.1826 -0.5434
 1695SOL    HW116718   1.399   1.690  15.250 -3.2301 -0.1605 -0.8533
 1695SOL    HW216719   1.449   1.547  15.280  1.6659  0.6230 -0.0251
 1696SOL     OW16720   0.286   4.535  16.130 -0.1402 -0.6529 -0.3265
 1696SOL    HW116721   0.241   4.571  16.053 -1.9319  1.0280  1.5124
 1696SOL    HW216722   0.358   4.598  16.125 -0.5846 -0.0253  1.2952
 1697SOL     OW16723   3.651   0.046  14.736 -0.2496 -0.3722  0.1556
 1697SOL    HW116724   3.668   0.111  14.804 -0.1810 -0.5368  0.2959
 1697SOL    HW216725   3.561   0.069  14.710  0.0768  1.4225  0.6059
 1698SOL     OW16726   2.068   3.945  13.389 -0.5449 -0.7959 -0.5805
 1698SOL    HW116727   2.152   3.991  13.379 -1.2257  0.4830 -0.3016
 1698SOL    HW216728   2.012   4.021  13.397 -0.9297 -1.0135 -1.1892
 1699SOL     OW16729   3.344   4.694   7.079  0.3664  0.3159 -0.6352
 1699SOL    HW116730   3.408   0.005   7.128  1.4146 -0.1454 -1.5220
 1699SOL    HW216731   3.389   4.611   7.089  1.7176  1.1555  0.1787
 1700SOL     OW16732   3.226   0.173  12.961  0.0200  0.3171 -0.4621
 1700SOL    HW116733   3.291   0.104  12.971  1.2545  1.1530 -2.5690
 1700SOL    HW216734   3.184   0.150  12.878 -2.9832  0.8705  0.8974
 1701SOL     OW16735   0.108   1.222   2.669 -0.2753 -0.1163 -0.1382
 1701SOL    HW116736   0.181   1.267   2.627 -2.8454  0.3510 -4.0372
 1701SOL    HW216737   0.148   1.140   2.700 -0.3914 -0.3753 -0.6700
 1702SOL     OW16738   4.411   1.744   5.411  0.2245  0.6975  0.0394
 1702SOL    HW116739   4.400   1.795   5.331  0.7961 -1.6724 -1.5712
 1702SOL    HW216740   4.399   1.818   5.470 -1.7609 -0.8617  1.5939
 1703SOL     OW16741   3.910   2.350   3.027  0.2146  0.2314 -0.1292
 1703SOL    HW116742   3.921   2.443   3.007  0.8205  0.4353  1.1621
 1703SOL    HW216743   3.847   2.316   2.964  0.3516 -0.0124 -0.1318
 1704SOL     OW16744   1.708   3.907  11.047 -0.1360  0.0594  0.0346
 1704SOL    HW116745   1.620   3.869  11.050  0.2710 -0.9087 -0.4066
 1704SOL    HW216746   1.752   3.852  11.112  1.4466  0.2054 -0.9027
 1705SOL     OW16747   3.629   3.403   9.346 -0.0692 -0.0690 -0.1306
 1705SOL    HW116748   3.535   3.416   9.341 -0.1091 -0.6061 -0.7783
 1705SOL    HW216749   3.629   3.349   9.424 -0.8905  0.7966  0.4683
 1706SOL     OW16750   3.647   4.056   0.772 -0.1179  0.2969 -0.2971
 1706SOL    HW116751   3.699   3.980   0.748 -0.1716 -0.2380  1.3078
 1706SOL    HW216752   3.704   4.095   0.838 -0.0745  2.6199 -1.6692
 1707SOL     OW16753   3.522   2.118  12.940 -0.2724  0.3195 -0.2691
 1707SOL    HW116754   3.457   2.166  12.992  1.0605 -0.9780  2.5801
 1707SOL    HW216755   3.468   2.081  12.870 -2.6489  2.2963  0.5187
 1708SOL     OW16756   4.385   1.815  12.098  0.3655  0.7239 -0.0573
 1708SOL    HW116757   4.347   1.861  12.023  0.6665 -0.0543 -0.6912
 1708SOL    HW216758   4.461   1.773  12.058 -1.1904 -1.7551 -0.4376
 1709SOL     OW16759   4.416   0.363   8.284 -0.0550  0.0316 -0.2916
 1709SOL    HW116760   4.396   0.271   8.300  0.0120 -0.0031 -0.4050
 1709SOL    HW216761   4.457   0.382   8.368 -1.6285  1.4199  0.1611
 1710SOL     OW16762   3.534   2.221  12.259 -0.4836  0.4379  0.4433
 1710SOL    HW116763   3.545   2.189  12.349  3.5814  0.1459 -0.1779
 1710SOL    HW216764   3.566   2.310  12.272  1.2655 -0.1940  0.5073
 1711SOL     OW16765   2.069   1.907   3.722  0.0307  0.1604  0.0871
 1711SOL    HW116766   2.014   1.977   3.687 -0.5988 -0.9587 -1.1352
 1711SOL    HW216767   2.136   1.950   3.775 -0.4762  1.9292 -0.7057
 1712SOL     OW16768   1.338   1.028   2.538  0.2502  0.1773 -0.7494
 1712SOL    HW116769   1.423   1.045   2.497  0.2599  1.0310 -0.3733
 1712SOL    HW216770   1.356   0.978   2.618 -3.5447  3.9129  2.3939
 1713SOL     OW16771   0.722   3.933  17.596  0.0190  0.5245 -0.2436
 1713SOL    HW116772   0.810   3.969  17.583  0.0931 -0.3955 -2.2159
 1713SOL    HW216773   0.678   4.003  17.644  1.9341  0.3027  1.8483
 1714SOL     OW16774   1.927   0.173   3.720  0.5444 -0.4873  0.2609
 1714SOL    HW116775   2.006   0.138   3.762  0.2800 -1.8379 -0.3701
 1714SOL    HW216776   1.865   0.108   3.752  0.2911 -1.0468 -1.3632
 1715SOL     OW16777   2.545   4.426   6.149  0.2958  0.4014  1.1128
 1715SOL    HW116778   2.486   4.454   6.079 -2.0328  0.3742  3.0515
 1715SOL    HW216779   2.484   4.423   6.222 -0.4262  1.4839  0.5702
 1716SOL     OW16780   3.549   0.423   3.924  0.1479  0.2482 -0.2588
 1716SOL    HW116781   3.500   0.502   3.903  0.4019  0.2670 -0.7769
 1716SOL    HW216782   3.608   0.460   3.990 -1.1335 -0.7675  1.4450
 1717SOL     OW16783   2.603   2.598   9.539 -0.6865 -0.2691  0.5453
 1717SOL    HW116784   2.645   2.537   9.600  0.1425 -0.1981  0.0419
 1717SOL    HW216785   2.522   2.551   9.518 -0.4333 -1.0087  1.2211
 1718SOL     OW16786   3.282   3.418   0.780 -0.1891  0.2774 -0.8053
 1718SOL    HW116787   3.280   3.343   0.721 -0.4117 -0.1551 -0.2462
 1718SOL    HW216788   3.358   3.409   0.837 -0.5422 -1.7321 -0.6738
 1719SOL     OW16789   3.593   3.386  12.772 -0.2305  0.6254 -0.2587
 1719SOL    HW116790   3.618   3.322  12.706  0.8374  0.7545  0.0320
 1719SOL    HW216791   3.575   3.465  12.722  1.4996  1.6971  0.8545
 1720SOL     OW16792   3.350   4.206   8.229  0.2898 -0.2717  0.1014
 1720SOL    HW116793   3.413   4.134   8.223 -0.6890 -1.1207  0.1319
 1720SOL    HW216794   3.355   4.239   8.140 -0.5255 -0.7826 -0.1316
 1721SOL     OW16795   0.465   4.124   3.203  0.4622  0.3867 -0.1691
 1721SOL    HW116796   0.390   4.065   3.210  1.6585 -0.6610  3.9139
 1721SOL    HW216797   0.501   4.110   3.291  0.9041  0.3705 -0.3505
 1722SOL     OW16798   2.022   3.780   1.594 -0.5717  0.2705  0.5697
 1722SOL    HW116799   2.004   3.873   1.606 -0.3542  0.3025  0.6559
 1722SOL    HW216800   2.116   3.778   1.612 -0.6087  2.2646  0.9500
 1723SOL     OW16801   0.448   0.563   8.131 -0.0649  0.2119  0.9614
 1723SOL    HW116802   0.427   0.649   8.168 -1.1147  0.7555 -0.9068
 1723SOL    HW216803   0.356   0.543   8.114  0.0470  0.4143  0.0990
 1724SOL     OW16804   2.611   2.136  12.048  0.1146 -0.0584  0.0687
 1724SOL    HW116805   2.619   2.199  11.976  1.6119  1.3394  1.4503
 1724SOL    HW216806   2.540   2.183  12.093 -0.1647 -0.0292 -0.4073
 1725SOL     OW16807   3.028   0.827   3.265  0.0749  1.0693 -0.0314
 1725SOL    HW116808   2.963   0.851   3.331  0.5046 -2.2742  1.5813
 1725SOL    HW216809   2.974   0.830   3.186 -0.4485 -1.0106  0.2635
 1726SOL     OW16810   1.550   2.736   4.118  0.1685  0.6079 -0.2374
 1726SOL    HW116811   1.527   2.670   4.053  1.8794 -0.4272  0.1902
 1726SOL    HW216812   1.645   2.721   4.125 -0.0231 -0.4499  0.0556
 1727SOL     OW16813   2.866   4.403   2.727  0.2153 -0.2837  0.2756
 1727SOL    HW116814   2.838   4.313   2.746  3.1704 -0.9895  1.3134
 1727SOL    HW216815   2.822   4.413   2.642  3.6310 -1.2478 -1.5975
 1728SOL     OW16816   3.104   1.436   9.336  0.0334  0.2113  0.4534
 1728SOL    HW116817   3.144   1.491   9.269 -3.7868  1.0612 -1.1225
 1728SOL    HW216818   3.012   1.448   9.312 -0.5404 -0.3832  2.2823
 1729SOL     OW16819   0.760   0.215   4.468  0.0559 -0.4353 -0.6095
 1729SOL    HW116820   0.825   0.286   4.471 -0.7841  0.2962  0.4165
 1729SOL    HW216821   0.782   0.166   4.547 -2.6975  0.8595  0.9691
 1730SOL     OW16822   3.092   3.098   3.639  0.2595  0.0752 -0.7231
 1730SOL    HW116823   3.053   3.184   3.655  0.3013  0.1388 -0.9552
 1730SOL    HW216824   3.175   3.110   3.685 -0.5756  2.5566  0.0992
 1731SOL     OW16825   1.897   2.111  14.482 -0.4218 -0.7866 -0.3233
 1731SOL    HW116826   1.894   2.026  14.439 -0.7393 -1.6285  1.3340
 1731SOL    HW216827   1.908   2.173  14.410  0.0757 -3.1910 -2.2931
 1732SOL     OW16828   2.032   1.320   8.613  0.2972  0.2695 -0.7032
 1732SOL    HW116829   1.982   1.342   8.693 -2.1137 -0.6584 -1.9517
 1732SOL    HW216830   2.110   1.370   8.637  0.3372 -1.0963  2.0334
 1733SOL     OW16831   0.627   3.835   5.426 -0.0328 -0.6101 -0.0884
 1733SOL    HW116832   0.635   3.875   5.513  0.7005 -2.7239  0.8248
 1733SOL    HW216833   0.558   3.895   5.397  2.1498  1.1897 -1.6380
 1734SOL     OW16834   3.683   3.503   1.067  0.3403  0.0022 -0.5051
 1734SOL    HW116835   3.774   3.473   1.067  0.5114  0.5206 -0.9250
 1734SOL    HW216836   3.678   3.571   1.134 -1.2153  0.1733 -0.8065
 1735SOL     OW16837   2.500   3.294  13.091 -0.6801  0.5618  0.1965
 1735SOL    HW116838   2.527   3.209  13.058  0.0579  0.2562  1.5778
 1735SOL    HW216839   2.442   3.264  13.161  0.9603 -0.4199  1.1214
 1736SOL     OW16840   2.199   3.123   3.140 -0.2433  0.3703  0.1148
 1736SOL    HW116841   2.199   3.128   3.235  1.7904  0.5707  0.0891
 1736SOL    HW216842   2.291   3.135   3.117 -0.6355  1.8352 -0.7793
 1737SOL     OW16843   2.277   1.862   7.397 -0.3424  0.3887 -0.0006
 1737SOL    HW116844   2.313   1.946   7.370 -1.0254  0.3691 -0.9694
 1737SOL    HW216845   2.222   1.845   7.320  0.6059 -0.4171 -0.5002
 1738SOL     OW16846   0.348   0.162   8.825 -0.5724  0.2802  0.6025
 1738SOL    HW116847   0.375   0.165   8.733 -1.8593  1.9719  0.2744
 1738SOL    HW216848   0.262   0.202   8.813 -1.0540 -0.6696  0.9422
 1739SOL     OW16849   3.693   3.507   2.409  0.4238  0.3718  0.4344
 1739SOL    HW116850   3.771   3.501   2.354 -0.1864  1.8445 -0.5647
 1739SOL    HW216851   3.728   3.502   2.498  2.0152  3.0711 -0.0381
 1740SOL     OW16852   0.830   1.113   9.299 -0.3340 -0.3091 -0.2285
 1740SOL    HW116853   0.837   1.196   9.346  1.1664  0.0065 -0.9789
 1740SOL    HW216854   0.736   1.094   9.302 -0.7202  1.2741 -1.6448
 1741SOL     OW16855   3.537   0.420   3.048  0.0874 -0.5368 -0.0758
 1741SOL    HW116856   3.589   0.414   3.128 -0.0113  0.1889  0.0406
 1741SOL    HW216857   3.484   0.498   3.063 -2.3698 -2.3185  0.4262
 1742SOL     OW16858   0.136   3.020  10.026 -0.2469  0.1397 -0.0939
 1742SOL    HW116859   0.068   3.024   9.958 -0.3153  2.2428  0.0864
 1742SOL    HW216860   0.195   3.084   9.984  0.2661 -0.2141  0.0890
 1743SOL     OW16861   2.250   0.548  15.668  0.2831  0.0886  0.0304
 1743SOL    HW116862   2.197   0.626  15.686  0.4116 -0.1836  1.5983
 1743SOL    HW216863   2.311   0.587  15.605  1.4541 -1.4402  0.2334
 1744SOL     OW16864   0.681   4.411   3.333 -0.0355 -0.6166  0.9877
 1744SOL    HW116865   0.600   4.389   3.379 -1.1481 -1.4251 -1.3887
 1744SOL    HW216866   0.676   4.505   3.318  1.2159 -0.6183  0.4811
 1745SOL     OW16867   1.922   3.161   9.983  0.4220  0.1395 -0.2512
 1745SOL    HW116868   1.946   3.253   9.972  0.7527 -0.0850 -1.3623
 1745SOL    HW216869   1.913   3.155  10.078  0.7998  1.9082 -0.1106
 1746SOL     OW16870   1.508   2.985  17.553 -0.1267  0.2076  0.3626
 1746SOL    HW116871   1.518   3.080  17.554  1.5575  0.0608 -1.6496
 1746SOL    HW216872   1.455   2.977  17.474  0.7447  0.0728 -0.2123
 1747SOL     OW16873   4.155   1.592   9.049  0.1041 -0.1002 -0.2366
 1747SOL    HW116874   4.122   1.559   9.132  2.0305  0.8073  0.8833
 1747SOL    HW216875   4.233   1.536   9.043  1.5284  1.7415  1.0226
 1748SOL     OW16876   3.695   3.271   3.336  0.2230  0.2290  0.9064
 1748SOL    HW116877   3.685   3.191   3.284 -0.3648  0.5771  0.4843
 1748SOL    HW216878   3.608   3.299   3.364 -0.2512 -0.3051 -0.0388
 1749SOL     OW16879   0.614   3.586   4.577  0.3101 -0.6226  0.3149
 1749SOL    HW116880   0.630   3.496   4.548  2.4618 -0.2055  0.1942
 1749SOL    HW216881   0.650   3.592   4.665 -1.3794 -1.6337  1.0819
 1750SOL     OW16882   1.381   1.335   5.111 -0.5793 -0.2530 -0.8118
 1750SOL    HW116883   1.472   1.340   5.083 -0.2955 -1.6116 -0.1202
 1750SOL    HW216884   1.338   1.386   5.042 -0.8453  1.1889  0.4284
 1751SOL     OW16885   1.960   3.649   4.915  0.1964 -0.3398 -0.4206
 1751SOL    HW116886   1.969   3.717   4.849  1.8056 -0.1990 -0.0450
 1751SOL    HW216887   1.938   3.577   4.856  0.7599 -0.0751 -0.9521
 1752SOL     OW16888   0.847   2.377   8.782 -0.3172  0.2271  0.1680
 1752SOL    HW116889   0.822   2.338   8.699  2.1976 -0.5932 -0.1989
 1752SOL    HW216890   0.892   2.310   8.833 -0.8953  0.9527  1.6474
 1753SOL     OW16891   0.920   2.847  12.235  0.5660 -0.5782 -0.7366
 1753SOL    HW116892   0.900   2.754  12.232  1.0803 -0.6330 -2.6706
 1753SOL    HW216893   1.015   2.842  12.250  0.2513 -0.8508  1.1177
 1754SOL     OW16894   2.841   0.258  17.139  0.2289 -0.5363  0.1868
 1754SOL    HW116895   2.772   0.200  17.107 -0.1771 -2.0308  3.7143
 1754SOL    HW216896   2.791   0.305  17.206 -0.7115 -1.7473  0.3207
 1755SOL     OW16897   1.676   3.762   5.468 -0.3519 -0.6503 -0.3161
 1755SOL    HW116898   1.669   3.704   5.544  0.4216 -0.9615 -0.4854
 1755SOL    HW216899   1.597   3.816   5.480  0.5969  0.7984 -0.5463
 1756SOL     OW16900   3.956   1.361   7.838  0.3270  0.3561 -0.5423
 1756SOL    HW116901   3.992   1.329   7.755  0.4025  0.5886 -0.5986
 1756SOL    HW216902   3.863   1.380   7.827 -0.1334 -1.4348  0.2553
 1757SOL     OW16903   1.530   4.625  17.116  0.3655  0.3650  0.5422
 1757SOL    HW116904   1.533   4.606  17.022  2.9603  0.7608  0.5476
 1757SOL    HW216905   1.465   4.695  17.121  0.9901  1.1146 -1.9416
 1758SOL     OW16906   2.353   2.399   5.023  0.4892 -0.4765  0.0828
 1758SOL    HW116907   2.353   2.306   5.002  1.5865 -0.2436 -0.9631
 1758SOL    HW216908   2.350   2.408   5.118  2.5703  1.8979 -0.0810
 1759SOL     OW16909   0.540   3.031   1.471  0.2767 -0.1576  0.4086
 1759SOL    HW116910   0.488   2.996   1.399  0.5278  0.5876 -0.1289
 1759SOL    HW216911   0.491   3.111   1.489 -1.1123 -0.1863 -3.3638
 1760SOL     OW16912   0.536   3.318   6.419 -0.1596  0.2510 -0.1359
 1760SOL    HW116913   0.485   3.364   6.352  0.2422 -0.1960 -0.7552
 1760SOL    HW216914   0.580   3.392   6.460 -2.6930  0.7031  1.7204
 1761SOL     OW16915   1.274   3.395   5.745 -0.1056  0.1328 -0.0386
 1761SOL    HW116916   1.312   3.460   5.687  1.7355  0.9085  2.0316
 1761SOL    HW216917   1.290   3.310   5.705 -3.1120 -0.0303 -0.8784
 1762SOL     OW16918   2.570   3.941   3.203 -0.2884  0.0880 -0.0445
 1762SOL    HW116919   2.655   3.981   3.186 -0.7994  1.2662  0.2124
 1762SOL    HW216920   2.578   3.889   3.283  0.4385  1.0846  0.5179
 1763SOL     OW16921   2.460   1.521   9.205  0.6073 -0.5625 -0.3035
 1763SOL    HW116922   2.399   1.593   9.217  1.7851  0.6533 -1.7067
 1763SOL    HW216923   2.400   1.446   9.204 -0.9828  0.7068 -0.0314
 1764SOL     OW16924   1.507   4.307   2.424 -0.5313  0.0030 -0.0171
 1764SOL    HW116925   1.499   4.212   2.428  0.3933 -0.0131  1.3369
 1764SOL    HW216926   1.420   4.330   2.389 -0.9624 -0.7332  0.5661
 1765SOL     OW16927   3.522   3.385   5.001 -0.0104 -0.7731 -0.5285
 1765SOL    HW116928   3.487   3.450   5.062  0.8347  0.3770 -1.2671
 1765SOL    HW216929   3.561   3.319   5.059 -0.4477 -0.5328  0.0436
 1766SOL     OW16930   2.218   2.233   9.801  0.0305 -0.5519  0.1194
 1766SOL    HW116931   2.262   2.200   9.880  0.3086 -0.8688 -0.1657
 1766SOL    HW216932   2.159   2.298   9.840  1.0125  0.6489 -0.4069
 1767SOL     OW16933   3.146   3.855   9.578  0.3960 -0.2434  0.9689
 1767SOL    HW116934   3.171   3.783   9.636  1.3898 -0.0033  0.8369
 1767SOL    HW216935   3.055   3.836   9.555  0.6092  0.0620 -0.1507
 1768SOL     OW16936   0.405   4.004  14.505 -0.0932  0.4793  0.4399
 1768SOL    HW116937   0.386   3.999  14.411  0.2388 -1.5465  0.4765
 1768SOL    HW216938   0.433   3.916  14.530 -0.9193 -0.2301 -1.1086
 1769SOL     OW16939   2.752   1.063   6.718 -0.0978 -0.4610  0.0875
 1769SOL    HW116940   2.830   1.118   6.723 -1.4627  1.4011  0.9317
 1769SOL    HW216941   2.782   0.978   6.752  1.8994  0.3969  0.4722
 1770SOL     OW16942   2.807   3.985   2.644  0.1848  0.0295 -0.1357
 1770SOL    HW116943   2.792   4.052   2.710 -1.4068  0.0118 -0.4740
 1770SOL    HW216944   2.898   3.962   2.660  0.4391  1.7159  0.8529
 1771SOL     OW16945   2.637   1.572   2.864 -0.2839 -0.1066  0.0447
 1771SOL    HW116946   2.569   1.573   2.797 -0.0017  0.7385 -0.2297
 1771SOL    HW216947   2.692   1.504   2.825  0.3882  1.4197 -1.6722
 1772SOL     OW16948   0.063   4.002   4.927  0.0684  0.1083 -0.1191
 1772SOL    HW116949   0.036   3.918   4.890 -0.7044  0.0924  0.4801
 1772SOL    HW216950   0.132   4.028   4.865  0.5368 -0.4001  0.1920
 1773SOL     OW16951   2.138   2.764   8.855 -0.0459 -0.8798  0.7377
 1773SOL    HW116952   2.210   2.815   8.819  0.4985 -0.9211  1.7621
 1773SOL    HW216953   2.172   2.753   8.944 -0.0117 -1.8729  0.6016
 1774SOL     OW16954   1.828   0.937   5.211  0.4420  0.2525  0.4052
 1774SOL    HW116955   1.879   0.859   5.231 -2.1978 -1.5458  0.0777
 1774SOL    HW216956   1.881   0.976   5.140  0.9680 -0.4676  0.4049
 1775SOL     OW16957   3.606   0.292   2.260  0.2964 -0.0700 -0.4366
 1775SOL    HW116958   3.623   0.198   2.265 -1.8327 -0.4217  0.3861
 1775SOL    HW216959   3.572   0.304   2.172  1.3604 -0.8141 -0.9448
 1776SOL     OW16960   2.838   1.011   3.803 -0.1715  0.2085  0.6324
 1776SOL    HW116961   2.843   0.925   3.844 -1.4334 -0.0682  0.1915
 1776SOL    HW216962   2.867   1.058   3.881  0.0945  0.7894  0.1854
 1777SOL     OW16963   4.333   1.862   5.170 -0.0613 -0.1000  0.2538
 1777SOL    HW116964   4.412   1.902   5.134  0.6206  0.9381  2.8610
 1777SOL    HW216965   4.318   1.785   5.116 -0.8450 -0.9946  1.7369
 1778SOL     OW16966   2.027   1.735   6.189  0.2508 -0.0932  0.4147
 1778SOL    HW116967   2.029   1.804   6.255 -1.5320 -1.1181  1.5398
 1778SOL    HW216968   2.094   1.765   6.128 -0.2976  0.3367  0.0232
 1779SOL     OW16969   2.303   1.609   1.857  0.1454 -0.1313  0.2626
 1779SOL    HW116970   2.311   1.618   1.762 -0.6516 -0.1761  0.1956
 1779SOL    HW216971   2.244   1.679   1.883 -1.0275 -1.0704  0.1083
 1780SOL     OW16972   4.325   4.135  13.965  0.0864  0.0891 -0.2717
 1780SOL    HW116973   4.271   4.191  13.909  2.3655  1.3935 -1.1759
 1780SOL    HW216974   4.338   4.198  14.035  0.0507 -0.5732  0.3299
 1781SOL     OW16975   0.557   2.786   9.568  0.1046 -0.4674  0.8240
 1781SOL    HW116976   0.649   2.761   9.583  0.0775 -1.7861 -1.1938
 1781SOL    HW216977   0.540   2.753   9.480  0.1845 -0.0922  0.6696
 1782SOL     OW16978   0.278   2.748   1.799  0.2506  0.0934  0.2243
 1782SOL    HW116979   0.276   2.734   1.894  2.1984 -0.0373  0.2471
 1782SOL    HW216980   0.315   2.667   1.765  0.8324  0.0516  0.9494
 1783SOL     OW16981   1.041   2.099   6.807  0.3390  0.7062  0.6852
 1783SOL    HW116982   0.988   2.052   6.743 -0.5989  0.9516  1.2900
 1783SOL    HW216983   0.976   2.098   6.877  1.6450  0.5768  1.9057
 1784SOL     OW16984   3.087   2.308  15.058  0.4093 -0.3897  0.0733
 1784SOL    HW116985   2.995   2.333  15.060  0.1189 -1.5690  1.7090
 1784SOL    HW216986   3.135   2.384  15.027 -1.2857  0.5663 -0.1908
 1785SOL     OW16987   0.292   4.528   5.201  0.5505 -0.0841  0.9648
 1785SOL    HW116988   0.339   4.600   5.159  0.2770 -0.3679  0.1771
 1785SOL    HW216989   0.331   4.546   5.286 -0.0448  2.4433  0.7079
 1786SOL     OW16990   3.947   3.098   9.118 -0.0652 -0.6756  0.9126
 1786SOL    HW116991   3.851   3.102   9.114  0.0734 -0.4754 -2.0375
 1786SOL    HW216992   3.962   3.155   9.193 -1.3762  0.6972  0.1223
 1787SOL     OW16993   0.441   1.361   2.714  0.4892 -0.4958 -0.6691
 1787SOL    HW116994   0.423   1.310   2.635 -1.9532 -0.0860 -0.3822
 1787SOL    HW216995   0.533   1.372   2.691  0.9152 -1.4936  0.5628
 1788SOL     OW16996   2.794   3.812   7.535 -0.1136  0.4863  0.0084
 1788SOL    HW116997   2.752   3.887   7.577  2.7983  2.9389 -1.4372
 1788SOL    HW216998   2.750   3.735   7.572 -1.0112  0.9596 -0.0697
 1789SOL     OW16999   4.255   1.429  16.177 -0.1434  0.2002 -0.0963
 1789SOL    HW117000   4.225   1.507  16.225 -1.4388 -0.1973 -0.2567
 1789SOL    HW217001   4.274   1.369  16.250 -2.7311 -0.0647  0.3578
 1790SOL     OW17002   1.237   4.657   1.710 -0.5760  0.3304 -0.3295
 1790SOL    HW117003   1.193   4.613   1.782  0.6389 -1.3246 -0.5751
 1790SOL    HW217004   1.308   4.700   1.757  0.2408 -2.2307  0.7984
 1791SOL     OW17005   3.336   1.927   8.709 -0.1162 -0.0400 -0.1914
 1791SOL    HW117006   3.242   1.938   8.724 -0.0634  0.2043 -0.0377
 1791SOL    HW217007   3.360   2.018   8.690  1.1818 -0.3931 -0.2022
 1792SOL     OW17008   4.397   1.227   4.188 -0.0104 -0.1042  0.1380
 1792SOL    HW117009   4.364   1.317   4.190  2.9897  0.9979 -0.0866
 1792SOL    HW217010   4.416   1.210   4.096 -1.3456 -1.1061  0.0464
 1793SOL     OW17011   0.366   2.590   2.578 -0.0386 -0.0025 -0.0814
 1793SOL    HW117012   0.271   2.579   2.584 -0.1811  1.4241  0.4370
 1793SOL    HW217013   0.392   2.503   2.549  0.5514 -0.0405  0.5584
 1794SOL     OW17014   2.592   4.708  17.403 -0.0387 -0.1467 -0.0010
 1794SOL    HW117015   2.527   4.704  17.333 -1.4329  1.0367  1.2238
 1794SOL    HW217016   2.547   0.019  17.470  2.0992  2.1885 -0.3911
 1795SOL     OW17017   0.524   4.730  15.438  0.0563 -0.1930 -0.9863
 1795SOL    HW117018   0.473   4.729  15.519  0.7641  2.1216 -0.5313
 1795SOL    HW217019   0.470   4.666  15.390 -2.2342 -0.4745  1.9687
 1796SOL     OW17020   4.520   2.426   8.486  0.4241 -0.0389 -0.3818
 1796SOL    HW117021   4.609   2.392   8.479  0.3623 -0.4134  0.6272
 1796SOL    HW217022   4.489   2.440   8.397 -2.9931 -2.9838  0.3376
 1797SOL     OW17023   2.686   0.557   6.032  0.2296  0.0999 -0.0483
 1797SOL    HW117024   2.759   0.499   6.011 -0.4007 -1.1152  1.0904
 1797SOL    HW217025   2.729   0.642   6.040 -0.9156  0.3694  3.2470
 1798SOL     OW17026   0.890   3.003   7.960 -0.0492 -0.4393  0.5052
 1798SOL    HW117027   0.904   2.989   8.054 -2.7260 -0.8788  0.8388
 1798SOL    HW217028   0.797   3.023   7.977  0.3076  1.9968 -0.3926
 1799SOL     OW17029   2.172   1.516   7.128 -0.2550  0.0138  0.6040
 1799SOL    HW117030   2.168   1.612   7.119 -0.4173 -0.2537 -2.1255
 1799SOL    HW217031   2.119   1.510   7.208 -1.2916 -0.7915 -0.1388
 1800SOL     OW17032   2.310   4.448   2.338 -0.5794 -0.3123 -0.6039
 1800SOL    HW117033   2.306   4.508   2.411  1.1608  2.0326 -2.4306
 1800SOL    HW217034   2.230   4.455   2.285 -0.6188 -1.6866 -0.7455
 1801SOL     OW17035   0.093   2.235   7.609 -0.0233  0.4509 -0.3248
 1801SOL    HW117036   0.119   2.233   7.517 -0.0596 -2.2220 -0.2553
 1801SOL    HW217037   0.117   2.148   7.639 -2.0167 -0.1022 -0.3111
 1802SOL     OW17038   1.798   0.405   3.739  0.0198  0.3249 -0.1767
 1802SOL    HW117039   1.847   0.323   3.736 -1.1206 -0.3824  0.4390
 1802SOL    HW217040   1.804   0.414   3.644 -1.0221  1.4436 -0.1387
 1803SOL     OW17041   2.863   4.065   5.381  0.4064  0.8923  0.5418
 1803SOL    HW117042   2.933   4.100   5.436  1.0243  0.1721  0.2095
 1803SOL    HW217043   2.901   3.983   5.349  1.9687  2.3764 -1.4332
 1804SOL     OW17044   2.194   1.497  11.453  0.0130  0.2301 -0.4168
 1804SOL    HW117045   2.200   1.588  11.483  0.7611  0.7539 -2.1844
 1804SOL    HW217046   2.120   1.461  11.501  2.0248  0.0874  2.5982
 1805SOL     OW17047   4.130   3.074   6.028  0.1592 -0.6726  0.4293
 1805SOL    HW117048   4.217   3.088   6.064 -0.5474  3.2348  0.5791
 1805SOL    HW217049   4.103   3.165   6.034  0.0351 -0.8627  2.8109
 1806SOL     OW17050   0.325   1.056   9.090  0.3337 -0.3499 -0.1177
 1806SOL    HW117051   0.412   1.094   9.092 -0.0363  0.4583  0.5697
 1806SOL    HW217052   0.323   1.028   8.999  0.6099  0.8217 -0.4857
 1807SOL     OW17053   3.643   0.144   5.103  0.2788 -0.1680  1.0359
 1807SOL    HW117054   3.717   0.154   5.043 -0.5887 -0.3333 -0.0642
 1807SOL    HW217055   3.634   0.049   5.109  0.9875 -0.5628 -3.9567
 1808SOL     OW17056   3.956   1.240  15.295 -0.3724 -0.8394 -0.6154
 1808SOL    HW117057   3.874   1.280  15.323  0.6867 -1.0139  2.7978
 1808SOL    HW217058   3.920   1.170  15.240  0.8001 -1.7118 -0.2808
 1809SOL     OW17059   0.757   3.659   3.875 -0.7971  0.3542 -0.0831
 1809SOL    HW117060   0.774   3.683   3.966  1.7557 -2.1773  0.0887
 1809SOL    HW217061   0.766   3.746   3.836  1.1852  0.2909  0.2383
 1810SOL     OW17062   4.333   2.252   7.926  0.2455  0.3676  0.3309
 1810SOL    HW117063   4.309   2.321   7.988 -0.3814  1.1998 -0.8456
 1810SOL    HW217064   4.257   2.206   7.892 -0.8685  1.5459  1.2145
 1811SOL     OW17065   2.384   3.174   6.729  0.0319 -0.2414 -0.1384
 1811SOL    HW117066   2.347   3.086   6.737  0.2585 -0.1189  2.1892
 1811SOL    HW217067   2.456   3.178   6.791 -1.0922  0.4505  1.1139
 1812SOL     OW17068   3.374   2.280   7.113  0.2545  0.5973 -0.3012
 1812SOL    HW117069   3.350   2.308   7.025  1.9448 -1.7778 -1.5071
 1812SOL    HW217070   3.411   2.363   7.141  2.7633 -0.8660  0.7653
 1813SOL     OW17071   2.138   0.396  15.849  0.2390 -0.0919  0.0988
 1813SOL    HW117072   2.169   0.448  15.775 -0.7386  1.6113  0.8915
 1813SOL    HW217073   2.138   0.308  15.810  0.0639  0.6406 -1.5609
 1814SOL     OW17074   2.168   0.206   0.887  0.4017  0.1348  0.6201
 1814SOL    HW117075   2.089   0.170   0.927 -0.1783 -1.0563 -1.5994
 1814SOL    HW217076   2.231   0.134   0.895 -1.2306 -1.4669 -0.8531
 1815SOL     OW17077   3.510   4.041   3.356 -0.0271  0.3794 -0.3107
 1815SOL    HW117078   3.538   3.958   3.318 -2.5405  0.3381 -2.0756
 1815SOL    HW217079   3.559   4.053   3.437 -2.2565 -3.0441  1.5697
 1816SOL     OW17080   1.623   4.428  11.429 -0.2707  0.0364  0.4920
 1816SOL    HW117081   1.694   4.436  11.365  1.7125  0.1346  2.7006
 1816SOL    HW217082   1.630   4.516  11.466  1.4990  1.1914 -2.5304
 1817SOL     OW17083   1.529   4.434   6.028 -0.4260 -0.3954  0.3830
 1817SOL    HW117084   1.549   4.490   5.954 -0.1932 -0.9610  0.0130
 1817SOL    HW217085   1.499   4.498   6.092 -0.6024  0.7392 -0.8397
 1818SOL     OW17086   2.798   0.462   3.315 -0.2209  0.0945 -0.3320
 1818SOL    HW117087   2.713   0.475   3.272 -0.5241  0.0333  0.2313
 1818SOL    HW217088   2.851   0.436   3.240 -0.4860  0.1750 -0.5468
 1819SOL     OW17089   4.413   2.224  10.515 -0.8423 -0.3793 -0.2832
 1819SOL    HW117090   4.377   2.269  10.592 -0.2805 -0.9640  0.3276
 1819SOL    HW217091   4.494   2.274  10.515 -1.5282  0.7272  1.4275
 1820SOL     OW17092   4.527   1.856   2.493 -0.3801 -0.0760  0.0586
 1820SOL    HW117093   4.589   1.899   2.552  0.4552 -1.7893  0.4138
 1820SOL    HW217094   4.521   1.770   2.534  2.5064 -1.2269 -1.9743
 1821SOL     OW17095   3.928   3.254   2.706  0.1035  0.3821  0.4651
 1821SOL    HW117096   3.856   3.200   2.673  0.9392 -1.1879  1.1934
 1821SOL    HW217097   4.005   3.202   2.684  0.5071  1.3342 -0.3871
 1822SOL     OW17098   1.775   0.196   3.230 -0.0750 -0.1853  0.8071
 1822SOL    HW117099   1.729   0.246   3.298  0.9885  0.9094  0.7249
 1822SOL    HW217100   1.815   0.122   3.277  2.2683  0.8520  0.4589
 1823SOL     OW17101   1.610   2.397   8.442  0.1658 -0.1538 -0.3342
 1823SOL    HW117102   1.567   2.339   8.380 -2.1001  1.4800 -0.2847
 1823SOL    HW217103   1.671   2.445   8.385  1.1755 -0.6335  0.3314
 1824SOL     OW17104   2.078   1.219  15.353  0.4456 -0.2270  0.0707
 1824SOL    HW117105   2.070   1.125  15.365 -0.3838  0.0922  2.0593
 1824SOL    HW217106   1.997   1.236  15.304  0.3289 -0.3227  0.2338
 1825SOL     OW17107   1.855   0.006   5.881  0.4033 -0.6757 -0.8228
 1825SOL    HW117108   1.917   0.075   5.858 -0.7710  0.1715 -1.5102
 1825SOL    HW217109   1.770   0.050   5.871  1.0611  1.1573  1.8227
 1826SOL     OW17110   4.366   2.156   6.886 -0.8480  0.6400 -0.2694
 1826SOL    HW117111   4.422   2.187   6.815 -1.3468 -1.2414 -1.4867
 1826SOL    HW217112   4.332   2.241   6.916 -1.1780  0.1972  0.6049
 1827SOL     OW17113   1.299   2.517   6.968  0.2939  0.4561  0.0098
 1827SOL    HW117114   1.244   2.468   6.907  2.3284  0.3346 -1.7190
 1827SOL    HW217115   1.363   2.457   7.005 -1.0400 -0.6285  0.5398
 1828SOL     OW17116   0.017   1.787   1.000  0.3574 -0.4997  0.0471
 1828SOL    HW117117   0.038   1.880   1.009  0.8817 -0.6675  0.5516
 1828SOL    HW217118   4.681   1.780   1.056  0.2785  1.8408  0.2352
 1829SOL     OW17119   0.395   1.234   6.629 -0.0451 -0.2856 -0.0384
 1829SOL    HW117120   0.404   1.172   6.702  0.1629 -0.8531 -0.5502
 1829SOL    HW217121   0.478   1.224   6.584 -0.2585 -0.1678 -0.4593
 1830SOL     OW17122   4.558   0.424   2.465 -0.6300 -0.1158  0.5330
 1830SOL    HW117123   4.569   0.479   2.387 -2.6051  0.2459  0.5151
 1830SOL    HW217124   4.463   0.425   2.474 -0.5913 -1.1632  1.0475
 1831SOL     OW17125   2.757   3.130   8.287 -0.2212  0.1212  0.0523
 1831SOL    HW117126   2.708   3.198   8.240  2.7661  2.5186  0.4035
 1831SOL    HW217127   2.848   3.152   8.269  0.0873 -0.5633  0.8025
 1832SOL     OW17128   3.204   0.982   7.785  0.4143  0.5145  0.7381
 1832SOL    HW117129   3.203   0.894   7.745  1.4358 -0.4830  2.9404
 1832SOL    HW217130   3.210   1.040   7.709 -1.7832  0.8172  0.7734
 1833SOL     OW17131   2.533   3.028  13.041  0.4360 -0.4362  0.1089
 1833SOL    HW117132   2.603   2.970  13.072  0.5575  0.0120  0.6875
 1833SOL    HW217133   2.545   3.023  12.946  1.7890 -0.6747  0.2918
 1834SOL     OW17134   3.422   2.912   8.300  0.3023  0.5583  0.4886
 1834SOL    HW117135   3.512   2.880   8.290 -0.1624 -1.0397  1.4125
 1834SOL    HW217136   3.361   2.841   8.320 -0.8071  1.0266 -1.2982
 1835SOL     OW17137   3.563   4.338   1.938  0.0336  0.3983  0.6066
 1835SOL    HW117138   3.633   4.278   1.911  0.2272  0.2319  1.4906
 1835SOL    HW217139   3.507   4.343   1.860 -1.9460 -0.7663  1.9749
 1836SOL     OW17140   4.547   4.661   5.248 -0.0722  0.3439 -0.1244
 1836SOL    HW117141   4.480   4.645   5.181 -0.4203  1.2052  0.0299
 1836SOL    HW217142   4.532   4.597   5.318  0.1173  0.7237  0.2596
 1837SOL     OW17143   0.781   1.367   9.395 -0.2870  0.2292 -0.3263
 1837SOL    HW117144   0.810   1.335   9.481  1.0244  0.1066 -0.8126
 1837SOL    HW217145   0.688   1.370   9.416 -0.2007  1.7105 -0.2097
 1838SOL     OW17146   1.845   0.024   1.509  0.4180 -0.0747  0.0954
 1838SOL    HW117147   1.876   4.678   1.535  0.0414 -0.0391  0.6569
 1838SOL    HW217148   1.872   0.066   1.590 -1.5285  0.1446  0.6376
 1839SOL     OW17149   0.361   3.055  13.665  0.8610  0.1898 -0.1669
 1839SOL    HW117150   0.320   3.130  13.622 -0.0651  1.1809  2.4577
 1839SOL    HW217151   0.453   3.083  13.661  1.0809 -0.8605 -2.8179
 1840SOL     OW17152   4.708   2.636   5.548  0.2973 -0.0884 -0.0113
 1840SOL    HW117153   4.632   2.677   5.508  1.2311 -0.0704 -1.7668
 1840SOL    HW217154   0.022   2.657   5.473  0.3137 -0.5488 -0.1280
 1841SOL     OW17155   2.643   1.667   7.114 -0.5529 -0.3276  0.0198
 1841SOL    HW117156   2.700   1.600   7.151  1.3336  1.0357 -0.4051
 1841SOL    HW217157   2.562   1.620   7.096 -1.0081  0.4110  0.1177
 1842SOL     OW17158   1.566   0.690   8.564  1.1265  0.3011  0.2337
 1842SOL    HW117159   1.508   0.747   8.615 -2.9560 -0.2623 -3.8129
 1842SOL    HW217160   1.518   0.609   8.584  0.9848  0.4113  0.3405
 1843SOL     OW17161   4.116   2.791   6.269  0.5823  0.4643  0.1701
 1843SOL    HW117162   4.148   2.746   6.347  0.0242  1.0520  0.7381
 1843SOL    HW217163   4.084   2.720   6.213  3.3548  0.1931 -1.1021
 1844SOL     OW17164   3.385   0.957   1.637  0.3969 -0.2854  0.3299
 1844SOL    HW117165   3.299   0.992   1.612  0.7458 -0.1123 -0.6273
 1844SOL    HW217166   3.386   0.975   1.731 -0.1252  1.4942 -0.0078
 1845SOL     OW17167   4.498   0.868   4.519 -0.5447 -0.6138 -0.0360
 1845SOL    HW117168   4.424   0.838   4.467 -0.1320  1.2343 -1.6849
 1845SOL    HW217169   4.447   0.922   4.579 -0.1242  1.4660 -1.5698
 1846SOL     OW17170   4.272   4.153   4.017  0.1287  0.5806 -0.6110
 1846SOL    HW117171   4.351   4.200   3.991 -0.5314  1.1508 -1.6132
 1846SOL    HW217172   4.255   4.177   4.108  0.0758 -2.1811  0.0894
 1847SOL     OW17173   2.781   1.376   8.491  0.1138  0.6775 -0.2391
 1847SOL    HW117174   2.695   1.417   8.496 -0.2597  0.1234 -2.1338
 1847SOL    HW217175   2.756   1.284   8.483  0.8216  0.5533 -1.1897
 1848SOL     OW17176   3.405   1.714   7.453  0.0654  0.0688  0.1144
 1848SOL    HW117177   3.365   1.648   7.510 -1.0360  1.5845  1.0962
 1848SOL    HW217178   3.495   1.713   7.487 -0.3140  2.2890  1.2070
 1849SOL     OW17179   4.159   0.373   3.604  0.1578  0.6691  0.6277
 1849SOL    HW117180   4.192   0.424   3.678  0.2202 -2.0290  2.4187
 1849SOL    HW217181   4.074   0.415   3.590  0.6916  1.8139  0.7502
 1850SOL     OW17182   2.452   2.104   6.470  0.1044 -0.0788 -0.1625
 1850SOL    HW117183   2.399   2.130   6.546 -2.0345  1.7831 -2.2978
 1850SOL    HW217184   2.539   2.093   6.508  0.0019 -2.7340 -0.7398
 1851SOL     OW17185   1.217   4.565  17.471  0.0311 -0.2613 -0.7319
 1851SOL    HW117186   1.204   4.585  17.564 -2.0583 -0.0811 -1.0708
 1851SOL    HW217187   1.129   4.579  17.438  0.4180 -1.1860 -2.1511
 1852SOL     OW17188   1.286   2.620   5.419 -0.7759 -0.4909  0.2382
 1852SOL    HW117189   1.338   2.554   5.372 -0.4492  1.0841 -1.6033
 1852SOL    HW217190   1.233   2.568   5.479 -1.0554 -1.4129 -0.8157
 1853SOL     OW17191   1.732   3.258   1.192 -0.4875 -0.1984  0.2403
 1853SOL    HW117192   1.714   3.224   1.105  1.6940 -0.8549  0.0405
 1853SOL    HW217193   1.749   3.348   1.165 -0.6903  0.7833  3.3086
 1854SOL     OW17194   0.922   3.547   8.005  0.2877 -0.1583  0.2749
 1854SOL    HW117195   0.888   3.514   7.922  1.8845  1.5096 -1.0575
 1854SOL    HW217196   0.860   3.519   8.071  1.4034  0.2386  1.4926
 1855SOL     OW17197   0.022   4.159   5.978 -0.2972  0.5188  0.2692
 1855SOL    HW117198   0.056   4.157   5.888 -0.0442 -1.7953  0.4306
 1855SOL    HW217199   0.000   4.252   5.990 -0.6790  0.3564  0.8085
 1856SOL     OW17200   3.972   3.018   6.580 -0.2685  0.1061 -0.5571
 1856SOL    HW117201   4.025   2.940   6.565 -0.1404 -0.1275  1.1136
 1856SOL    HW217202   3.962   3.055   6.493 -1.9344  0.1007 -0.3573
 1857SOL     OW17203   3.937   2.807   9.248 -0.1594  0.4451 -0.0760
 1857SOL    HW117204   3.941   2.892   9.205  1.5302  1.1621  1.5074
 1857SOL    HW217205   3.894   2.839   9.328 -2.5554 -0.1672 -1.1131
 1858SOL     OW17206   0.313   1.391   4.512  0.0537  0.1041  0.3846
 1858SOL    HW117207   0.374   1.464   4.513  0.9155 -0.6133  1.0646
 1858SOL    HW217208   0.289   1.394   4.420  0.7948  2.7162  0.2768
 1859SOL     OW17209   0.830   1.211   7.329 -0.1419  0.1650  0.4245
 1859SOL    HW117210   0.745   1.219   7.372 -0.1078  0.5989  0.4124
 1859SOL    HW217211   0.844   1.302   7.300  0.0310  0.2392  0.7350
 1860SOL     OW17212   1.665   3.201   5.078 -0.0657 -0.3123  0.8273
 1860SOL    HW117213   1.623   3.140   5.139  1.1940 -1.1952  0.8159
 1860SOL    HW217214   1.586   3.229   5.033  0.3453  1.7411  1.4028
 1861SOL     OW17215   4.443   0.263   7.629  0.2471 -0.7062  0.3493
 1861SOL    HW117216   4.381   0.246   7.700 -0.5287 -1.0801 -0.4198
 1861SOL    HW217217   4.518   0.225   7.675  0.4902 -0.5570  0.0766
 1862SOL     OW17218   3.292   3.248  11.667  0.1381  0.3411 -0.1836
 1862SOL    HW117219   3.350   3.181  11.704  1.4245  3.0262  2.6843
 1862SOL    HW217220   3.270   3.313  11.734 -1.6834 -0.7706  0.2721
 1863SOL     OW17221   1.951   1.347  12.167  0.0008  0.1502  0.3170
 1863SOL    HW117222   1.971   1.415  12.232 -0.0833  0.8802 -0.4136
 1863SOL    HW217223   2.029   1.293  12.182  1.3699  1.5269 -1.8132
 1864SOL     OW17224   2.240   4.358  11.384  0.4131  0.5340  0.2582
 1864SOL    HW117225   2.247   4.444  11.342  1.7400  0.5459  0.5031
 1864SOL    HW217226   2.197   4.376  11.467 -1.3938 -0.3280 -0.4906
 1865SOL     OW17227   2.968   0.576   6.736 -0.0197  1.0438 -0.4658
 1865SOL    HW117228   2.928   0.562   6.650 -0.3738  3.0787 -0.6246
 1865SOL    HW217229   3.058   0.595   6.709 -0.6125 -1.0798 -3.9142
 1866SOL     OW17230   0.033   2.019   0.284 -0.2698 -0.2587  0.6483
 1866SOL    HW117231   4.687   2.004   0.322 -0.2151 -0.3988  0.7181
 1866SOL    HW217232   0.024   2.113   0.268  0.9922 -0.5034 -1.4757
 1867SOL     OW17233   4.429   2.109   2.885  0.3209  0.2594 -0.2947
 1867SOL    HW117234   4.396   2.194   2.913  1.2641  0.2308  0.9160
 1867SOL    HW217235   4.403   2.062   2.964  1.3737  0.1671 -0.0072
 1868SOL     OW17236   1.899   4.151  17.450 -0.6911 -0.5106 -0.6868
 1868SOL    HW117237   1.945   4.229  17.482 -2.2242  0.4759 -0.8718
 1868SOL    HW217238   1.883   4.094  17.525  1.3864  0.0409  0.1875
 1869SOL     OW17239   0.943   0.395   9.824 -0.2611 -0.1126  0.1355
 1869SOL    HW117240   0.976   0.397   9.914 -1.7621  1.5515  0.6391
 1869SOL    HW217241   0.856   0.432   9.839  0.3817  1.7313 -0.7695
 1870SOL     OW17242   1.669   0.167  13.951 -0.1731 -0.2083  0.1924
 1870SOL    HW117243   1.726   0.103  13.909  0.0831  0.6070 -0.7229
 1870SOL    HW217244   1.658   0.135  14.040 -1.8456 -2.0284 -0.6671
 1871SOL     OW17245   3.938   3.775   8.514  0.5037  0.0191 -0.0619
 1871SOL    HW117246   3.935   3.769   8.609 -1.5005  2.0389 -0.0068
 1871SOL    HW217247   3.930   3.682   8.490 -2.2829  0.8509 -2.3311
 1872SOL     OW17248   2.455   1.538   7.769 -0.7754 -0.0217  0.2447
 1872SOL    HW117249   2.546   1.513   7.786 -0.4148  2.1229  1.4651
 1872SOL    HW217250   2.437   1.500   7.683  0.6704 -1.3197  0.5162
 1873SOL     OW17251   4.041   3.085  16.511  0.0618  0.4466  0.1096
 1873SOL    HW117252   4.037   3.150  16.581 -0.3625  3.5119 -2.7642
 1873SOL    HW217253   4.133   3.106  16.492  0.6838 -3.3622 -1.0403
 1874SOL     OW17254   3.088   4.042   0.219 -0.2559  0.8409  0.0514
 1874SOL    HW117255   2.994   4.041   0.197 -0.0044 -2.4780 -0.8965
 1874SOL    HW217256   3.116   3.957   0.185 -1.8282  0.9178 -1.4967
 1875SOL     OW17257   0.601   1.074   3.588  0.1366  0.4104 -0.6904
 1875SOL    HW117258   0.509   1.063   3.614  0.2183 -0.4063 -0.7226
 1875SOL    HW217259   0.595   1.038   3.499 -0.1006 -2.0932  0.3334
 1876SOL     OW17260   3.058   2.318   3.437  0.0121  0.1006 -0.2563
 1876SOL    HW117261   3.020   2.402   3.410 -0.5802 -0.1467 -0.2105
 1876SOL    HW217262   3.115   2.332   3.511 -2.9358  3.0219  1.4791
 1877SOL     OW17263   4.095   3.681   0.387  0.5285 -0.1950 -0.0848
 1877SOL    HW117264   4.052   3.596   0.399 -0.2233 -0.0475 -1.8578
 1877SOL    HW217265   4.137   3.680   0.302  0.7118  1.8565 -0.0084
 1878SOL     OW17266   1.075   4.426   2.301  0.1390  0.3991 -0.1733
 1878SOL    HW117267   0.988   4.410   2.265  0.4527 -0.5647 -0.5032
 1878SOL    HW217268   1.089   4.516   2.271  0.8978 -0.2265 -1.6543
 1879SOL     OW17269   0.068   1.938   4.965 -0.1231  0.5642  0.0011
 1879SOL    HW117270   0.035   1.897   4.885  0.6291  2.0235 -1.0412
 1879SOL    HW217271   0.152   1.894   4.978 -1.5301 -1.5296  1.9775
 1880SOL     OW17272   1.892   3.259   7.521  0.2949  0.0323 -0.0050
 1880SOL    HW117273   1.814   3.296   7.560  1.2605  1.5270  0.5021
 1880SOL    HW217274   1.863   3.249   7.431 -0.7743 -1.8743  0.5494
 1881SOL     OW17275   2.831   4.235  11.262  0.1824  0.1650 -0.1762
 1881SOL    HW117276   2.813   4.237  11.168  0.3566 -0.0141 -0.2150
 1881SOL    HW217277   2.916   4.191  11.268  1.2463  1.4683 -5.1268
 1882SOL     OW17278   1.181   1.959   8.642 -0.2399 -0.2009 -0.2419
 1882SOL    HW117279   1.135   1.928   8.564  1.4359  2.4515 -2.2673
 1882SOL    HW217280   1.238   1.886   8.667 -0.9163 -0.7334 -0.2584
 1883SOL     OW17281   1.607   1.035  10.349 -0.1763  0.1221 -0.5665
 1883SOL    HW117282   1.566   1.110  10.392  3.1937  2.5501 -1.6162
 1883SOL    HW217283   1.613   1.064  10.258 -2.2973 -2.4224 -1.5403
 1884SOL     OW17284   3.592   2.450   5.791  0.0412 -0.2316  0.1431
 1884SOL    HW117285   3.645   2.393   5.846  1.1933  1.5778  0.9307
 1884SOL    HW217286   3.650   2.446   5.714  0.7176 -1.1951  0.7147
 1885SOL     OW17287   0.864   1.815   6.205  0.0638  0.6480 -0.3719
 1885SOL    HW117288   0.829   1.727   6.189  1.2656 -0.0916  1.1269
 1885SOL    HW217289   0.846   1.849   6.117  1.5752 -0.6446 -1.1745
 1886SOL     OW17290   1.773   2.476   2.620  0.6958  0.9866 -0.2684
 1886SOL    HW117291   1.702   2.514   2.672  1.2765  1.2484  0.3398
 1886SOL    HW217292   1.747   2.490   2.529 -1.6082  2.0492  0.5592
 1887SOL     OW17293   3.857   0.167   3.010 -0.0786  0.3292 -0.5927
 1887SOL    HW117294   3.861   0.260   2.989  0.3802 -0.0411 -2.2012
 1887SOL    HW217295   3.801   0.126   2.944 -0.9845  1.8906 -0.7830
 1888SOL     OW17296   2.546   1.561   8.140  0.5760  0.1657 -0.3235
 1888SOL    HW117297   2.589   1.645   8.158 -0.6502  0.8067 -0.4179
 1888SOL    HW217298   2.473   1.594   8.088 -0.1400  1.1346  1.2808
 1889SOL     OW17299   2.565   2.964   0.305 -0.0879  0.6311  0.3080
 1889SOL    HW117300   2.519   3.022   0.244  3.2660  0.9545 -1.9352
 1889SOL    HW217301   2.519   2.883   0.284 -0.2891  0.4721  1.3819
 1890SOL     OW17302   2.915   2.942   7.366 -0.3580  0.5436 -0.3034
 1890SOL    HW117303   2.831   2.936   7.320  0.1651 -0.6677 -1.1096
 1890SOL    HW217304   2.955   3.024   7.336 -0.4415  0.1508 -1.5222
 1891SOL     OW17305   4.004   1.816  16.412 -0.2703  0.3972 -0.2116
 1891SOL    HW117306   4.014   1.873  16.489 -2.4677  0.3784  0.0709
 1891SOL    HW217307   4.027   1.885  16.349 -0.8074 -1.2879 -2.2188
 1892SOL     OW17308   2.053   2.179  15.317 -0.2974  0.5905 -0.2288
 1892SOL    HW117309   2.121   2.218  15.263 -0.2957  3.1350  1.5699
 1892SOL    HW217310   2.077   2.088  15.336  1.1948  0.5494 -2.3546
 1893SOL     OW17311   0.052   3.322   6.938 -0.5458 -0.4897 -0.1406
 1893SOL    HW117312   0.141   3.351   6.960 -0.5879  0.3666 -1.0665
 1893SOL    HW217313   0.040   3.243   6.991 -0.5947 -0.1784  0.3070
 1894SOL     OW17314   1.619   0.670   7.077  0.5132  0.5755  0.0942
 1894SOL    HW117315   1.680   0.602   7.050  0.7387  1.4341 -1.5429
 1894SOL    HW217316   1.662   0.741   7.029 -0.8798  0.0110 -2.0236
 1895SOL     OW17317   4.130   2.571   3.448 -0.3874  0.0241  0.2649
 1895SOL    HW117318   4.165   2.548   3.534  0.1293  0.2795  0.1178
 1895SOL    HW217319   4.074   2.644   3.476 -0.2081  0.2927 -0.0800
 1896SOL     OW17320   3.958   2.553   3.819  0.2131 -0.1109 -0.3828
 1896SOL    HW117321   4.011   2.610   3.875 -0.5089  0.4709 -0.2826
 1896SOL    HW217322   3.930   2.494   3.890  0.0182 -0.0794 -0.4341
 1897SOL     OW17323   0.726   2.630   8.559 -0.1809 -0.4264  0.3707
 1897SOL    HW117324   0.780   2.572   8.505 -0.2249  0.7876 -0.9642
 1897SOL    HW217325   0.660   2.645   8.491 -0.7273 -0.3654  0.9168
 1898SOL     OW17326   3.441   3.426   6.794 -0.4502  0.4775 -0.2100
 1898SOL    HW117327   3.456   3.359   6.727 -1.6146  0.6417 -0.6263
 1898SOL    HW217328   3.346   3.430   6.792 -0.4513 -0.1923 -2.0165
 1899SOL     OW17329   2.750   4.504   6.838  0.0375  0.9970 -0.2428
 1899SOL    HW117330   2.842   4.530   6.829 -0.0175  0.8000 -1.4913
 1899SOL    HW217331   2.718   4.531   6.752 -0.4686 -1.2721 -0.7799
 1900SOL     OW17332   3.882   0.138   6.581  0.4263  0.1746  0.3750
 1900SOL    HW117333   3.946   0.092   6.636 -1.3338 -0.1276  2.1641
 1900SOL    HW217334   3.814   0.167   6.641 -0.1878  0.2091 -0.3337
 1901SOL     OW17335   1.339   2.398   9.372 -0.0155 -0.5497 -0.2974
 1901SOL    HW117336   1.264   2.405   9.313  1.1400  1.0745 -1.5807
 1901SOL    HW217337   1.404   2.367   9.309  0.7306 -0.4531  0.4226
 1902SOL     OW17338   1.403   1.420  13.173  0.1470  0.6500 -0.3286
 1902SOL    HW117339   1.338   1.365  13.216 -0.1688  1.2279 -0.0675
 1902SOL    HW217340   1.354   1.501  13.166  0.7469  0.7803 -3.0351
 1903SOL     OW17341   1.873   0.320   2.627  0.1358 -0.0689  0.1419
 1903SOL    HW117342   1.849   0.381   2.558 -0.6153 -2.1462 -1.4355
 1903SOL    HW217343   1.802   0.256   2.615 -1.6755  1.4156  2.8284
 1904SOL     OW17344   3.403   0.597   1.776  0.1690 -0.3068 -0.1285
 1904SOL    HW117345   3.403   0.640   1.862  2.5097 -3.3987  1.4583
 1904SOL    HW217346   3.394   0.507   1.810 -0.0613  0.1279  0.9568
 1905SOL     OW17347   1.045   2.086   8.135  0.0734 -0.2075 -0.3669
 1905SOL    HW117348   1.061   2.149   8.065  0.7371 -0.5343 -0.5072
 1905SOL    HW217349   0.967   2.116   8.183 -0.1285 -1.7366  0.2527
 1906SOL     OW17350   2.780   4.416   1.859 -0.0239 -0.4680  0.2093
 1906SOL    HW117351   2.828   4.348   1.811 -0.2919 -1.6146  1.5677
 1906SOL    HW217352   2.705   4.364   1.887 -0.0493 -0.9363 -0.7148
 1907SOL     OW17353   4.336   0.791   5.655  0.1545  0.1058  0.0967
 1907SOL    HW117354   4.273   0.861   5.639 -0.6340 -1.0193 -1.7462
 1907SOL    HW217355   4.292   0.712   5.686  3.0685 -2.0347 -1.2389
 1908SOL     OW17356   2.261   2.656   9.555  0.0354 -0.0295 -0.5250
 1908SOL    HW117357   2.222   2.570   9.571 -0.9695  0.5184 -0.0126
 1908SOL    HW217358   2.286   2.645   9.463  0.9776 -1.6042 -0.0862
 1909SOL     OW17359   1.255   4.724   1.057  0.5624 -0.8061 -0.1250
 1909SOL    HW117360   1.246   0.025   1.143  2.5429  1.0807 -0.8279
 1909SOL    HW217361   1.348   4.716   1.035  0.3697 -0.6903 -0.9672
 1910SOL     OW17362   4.031   2.604   2.546 -0.4475  0.0888 -0.2343
 1910SOL    HW117363   3.953   2.548   2.544 -0.2486 -0.2309  1.0847
 1910SOL    HW217364   4.091   2.544   2.590  0.2380  1.2016  0.3269
 1911SOL     OW17365   3.136   3.896   7.762 -0.1642 -0.2614 -0.0179
 1911SOL    HW117366   3.088   3.815   7.748  1.1800 -0.6767 -2.2324
 1911SOL    HW217367   3.068   3.932   7.820 -0.1404 -0.4673  0.1363
 1912SOL     OW17368   0.942   4.443   0.093 -0.3461  0.0237  0.4666
 1912SOL    HW117369   0.937   4.496   0.014  1.1857 -0.4782  0.0458
 1912SOL    HW217370   0.949   4.499   0.170  2.3859 -0.5801  0.6424
 1913SOL     OW17371   2.181   0.772   8.809  0.0326  0.2546 -0.2580
 1913SOL    HW117372   2.266   0.743   8.843 -0.2245  0.5688  0.6594
 1913SOL    HW217373   2.195   0.802   8.719  2.4365  1.9130  0.6664
 1914SOL     OW17374   1.748   0.801   6.357  0.2983  0.3825 -0.1418
 1914SOL    HW117375   1.663   0.794   6.400 -0.0325  1.2815 -0.6387
 1914SOL    HW217376   1.725   0.829   6.269  2.0466  0.3041 -0.6193
 1915SOL     OW17377   1.139   1.594  13.768  0.3181  0.2058  0.3271
 1915SOL    HW117378   1.211   1.653  13.789 -0.4168  1.0243  0.5653
 1915SOL    HW217379   1.107   1.579  13.857 -0.9783  0.9358  0.0026
 1916SOL     OW17380   2.071   0.503   2.375  0.0230 -0.2448 -0.0632
 1916SOL    HW117381   2.044   0.578   2.427  1.1800  1.4272 -1.8493
 1916SOL    HW217382   1.984   0.464   2.368  0.1592 -0.2598 -1.7305
 1917SOL     OW17383   3.616   1.602  12.350 -0.5230  0.1432  0.2636
 1917SOL    HW117384   3.577   1.583  12.435  0.0720  0.0970  0.5262
 1917SOL    HW217385   3.562   1.678  12.331  0.2788  0.6289 -0.0647
 1918SOL     OW17386   0.638   3.248   0.739 -0.2608  0.5346  0.2658
 1918SOL    HW117387   0.574   3.289   0.681 -1.9441 -1.4829  0.6813
 1918SOL    HW217388   0.655   3.321   0.798  0.1252  1.6892 -1.2655
 1919SOL     OW17389   0.076   0.970  17.274  0.1515  0.1816  0.3399
 1919SOL    HW117390   0.099   1.021  17.352  1.1667  1.4546 -0.7875
 1919SOL    HW217391   0.146   0.905  17.280 -0.6102 -0.5776  1.0027
 1920SOL     OW17392   4.054   0.149   9.639 -0.2526 -0.1683 -0.5243
 1920SOL    HW117393   4.051   0.220   9.575  0.5754  0.0545 -0.3235
 1920SOL    HW217394   4.146   0.154   9.665 -0.6945  1.1771  0.7811
 1921SOL     OW17395   1.511   2.080   7.262 -0.5156  0.5934  0.1954
 1921SOL    HW117396   1.417   2.095   7.247 -0.7052 -1.2933 -0.4986
 1921SOL    HW217397   1.529   2.008   7.202 -2.4423 -0.1490  0.5026
 1922SOL     OW17398   1.106   0.956  11.069  0.2798 -0.2716 -0.0469
 1922SOL    HW117399   1.081   1.025  11.008 -1.3415 -0.8884 -0.0864
 1922SOL    HW217400   1.042   0.887  11.050 -0.1434  0.1298 -0.1025
 1923SOL     OW17401   1.886   4.703  12.389  0.2796 -0.2573  0.1995
 1923SOL    HW117402   1.964   4.735  12.435  1.2415 -2.1978 -0.0982
 1923SOL    HW217403   1.869   4.621  12.434 -1.2745 -0.1565 -0.2163
 1924SOL     OW17404   0.803   1.461   1.897 -0.2609 -0.8656 -0.2408
 1924SOL    HW117405   0.786   1.372   1.865 -1.0266 -0.0686 -2.0608
 1924SOL    HW217406   0.882   1.488   1.851  0.7930 -2.1265  0.8201
 1925SOL     OW17407   4.302   2.318   1.094 -0.0646  0.2017 -0.5593
 1925SOL    HW117408   4.396   2.333   1.105  0.3203 -2.4660 -0.0681
 1925SOL    HW217409   4.310   2.273   1.010  1.2111  0.0466 -0.3459
 1926SOL     OW17410   0.348   2.539  13.855 -0.3897  0.5309  0.4943
 1926SOL    HW117411   0.438   2.546  13.823 -0.5004  0.2824  0.1256
 1926SOL    HW217412   0.349   2.599  13.929 -0.4816  1.1232  0.0218
 1927SOL     OW17413   1.203   2.150  12.998  0.2939  0.2104 -0.6015
 1927SOL    HW117414   1.231   2.087  13.065 -0.9120 -0.8458 -1.1073
 1927SOL    HW217415   1.207   2.102  12.916 -0.3054  0.0152 -0.5148
 1928SOL     OW17416   2.891   4.067   0.962  0.2183 -0.2153  0.2439
 1928SOL    HW117417   2.938   4.046   0.881 -2.2200 -0.3209 -1.1518
 1928SOL    HW217418   2.835   3.993   0.985  1.3789 -0.5057  2.1143
 1929SOL     OW17419   3.182   2.260  12.329 -0.6883 -0.2614  0.6292
 1929SOL    HW117420   3.131   2.265  12.248 -0.7840  0.3758  0.7320
 1929SOL    HW217421   3.261   2.301  12.295 -0.3655 -0.9287  0.5637
 1930SOL     OW17422   1.271   4.234   4.398 -0.1313 -0.2144  0.3471
 1930SOL    HW117423   1.296   4.151   4.358  2.1425  0.1225  1.0604
 1930SOL    HW217424   1.177   4.246   4.382 -0.0449  0.2101  0.1611
 1931SOL     OW17425   2.140   3.465   1.328 -0.4028 -0.1735 -0.5908
 1931SOL    HW117426   2.110   3.454   1.237  0.4790 -0.8639 -0.8052
 1931SOL    HW217427   2.057   3.487   1.370 -0.2269 -0.5156 -0.0654
 1932SOL     OW17428   2.005   3.124   9.149  0.4057 -0.5915 -0.8081
 1932SOL    HW117429   2.009   3.199   9.209 -1.2923 -0.9568 -0.2510
 1932SOL    HW217430   2.051   3.052   9.194  1.4317 -0.8961 -2.3438
 1933SOL     OW17431   4.348   1.915   7.033  0.0969  0.0839  0.0755
 1933SOL    HW117432   4.379   1.945   7.119 -3.1801 -0.3397  1.4196
 1933SOL    HW217433   4.331   2.001   6.994 -1.2435 -0.4945 -0.5913
 1934SOL     OW17434   4.419   1.417   4.903 -0.5192  0.3006 -0.4405
 1934SOL    HW117435   4.501   1.434   4.856  0.1767 -1.0775  0.2548
 1934SOL    HW217436   4.458   1.364   4.973 -3.7401 -1.2071  0.2210
 1935SOL     OW17437   3.695   0.077  11.572  0.2150 -0.2593 -0.0506
 1935SOL    HW117438   3.676   0.125  11.491  1.1404 -1.6331 -1.0677
 1935SOL    HW217439   3.786   0.048  11.575  0.6101  0.8826 -0.6644
 1936SOL     OW17440   3.478   4.308   2.660 -0.2585  0.0331 -0.2830
 1936SOL    HW117441   3.524   4.385   2.626  1.5914 -0.8092  0.3162
 1936SOL    HW217442   3.458   4.351   2.744  2.8319  1.1131 -0.0726
 1937SOL     OW17443   0.010   4.015   1.144  0.4289  0.1554  0.2812
 1937SOL    HW117444   0.032   3.977   1.229 -1.3272  0.1789  0.7483
 1937SOL    HW217445   0.059   4.095   1.166  2.3678 -1.1196  0.6649
 1938SOL     OW17446   0.982   3.934   2.790 -0.1794 -0.0473  0.0231
 1938SOL    HW117447   1.006   4.007   2.847  1.3858  0.0993 -0.8260
 1938SOL    HW217448   1.009   3.858   2.842  0.6969 -0.0073 -0.3780
 1939SOL     OW17449   1.080   1.824   8.155  0.1166  0.6230  0.4772
 1939SOL    HW117450   1.075   1.863   8.242  2.7392 -0.8946  1.3254
 1939SOL    HW217451   1.062   1.910   8.118  0.6664 -0.3131 -1.9346
 1940SOL     OW17452   1.496   4.423  11.061  0.5381 -0.2733 -0.2556
 1940SOL    HW117453   1.529   4.340  11.093  1.2586 -0.0769 -0.4681
 1940SOL    HW217454   1.417   4.418  11.113 -1.1076  0.9844 -2.6238
 1941SOL     OW17455   3.500   3.008  17.740  0.1306 -0.3575 -0.6052
 1941SOL    HW117456   3.445   2.951   0.033  0.3833  0.6285  0.7220
 1941SOL    HW217457   3.467   2.993  17.652  0.4427  1.0681 -0.9675
 1942SOL     OW17458   4.067   0.499   6.354  0.4194 -0.2275  0.1279
 1942SOL    HW117459   3.975   0.475   6.344  0.6252 -0.1953 -1.8461
 1942SOL    HW217460   4.071   0.490   6.449 -4.4882  1.1260  0.4712
 1943SOL     OW17461   3.838   3.412   7.709  0.2368  0.0491 -0.0465
 1943SOL    HW117462   3.891   3.354   7.764 -0.5100 -0.8469 -0.2673
 1943SOL    HW217463   3.871   3.382   7.624  0.5013 -1.1769  0.4828
 1944SOL     OW17464   4.387   4.572   7.704  0.4858 -0.1786  0.1802
 1944SOL    HW117465   4.352   4.650   7.747  0.3673 -0.0592 -0.1313
 1944SOL    HW217466   4.362   4.512   7.774 -0.2410 -0.0711  0.0208
 1945SOL     OW17467   2.985   3.558   5.854  0.0929 -0.6297  0.1191
 1945SOL    HW117468   3.013   3.469   5.876  1.5891 -0.3905 -0.7946
 1945SOL    HW217469   3.045   3.573   5.780  0.7055  0.3943  0.8303
 1946SOL     OW17470   3.507   2.438   0.617 -0.4548  0.1459 -0.2942
 1946SOL    HW117471   3.527   2.349   0.646  0.7595 -0.1858 -2.0735
 1946SOL    HW217472   3.485   2.480   0.699  0.5594  1.5528 -0.7470
 1947SOL     OW17473   4.690   1.813   9.167 -0.1757 -0.1743  0.1189
 1947SOL    HW117474   4.702   1.821   9.262  1.0722 -1.9723  0.1177
 1947SOL    HW217475   0.039   1.811   9.133 -0.2493  1.1607 -0.1488
 1948SOL     OW17476   3.612   3.398   5.471 -0.0572  0.8843 -0.4363
 1948SOL    HW117477   3.560   3.424   5.547  2.4944 -0.1556  1.6923
 1948SOL    HW217478   3.694   3.383   5.519 -0.7057 -1.3140 -0.0068
 1949SOL     OW17479   2.109   1.447   1.655 -0.2695 -0.0630 -0.1080
 1949SOL    HW117480   2.141   1.516   1.597  0.6167  0.2098  0.6987
 1949SOL    HW217481   2.039   1.500   1.694  0.8008 -0.0017  1.7612
 1950SOL     OW17482   3.911   1.842   8.518 -0.7122  0.0020 -0.5899
 1950SOL    HW117483   3.849   1.832   8.445 -0.4636 -0.9682 -0.6709
 1950SOL    HW217484   3.898   1.933   8.545 -0.5460 -0.0957 -0.1817
 1951SOL     OW17485   1.486   3.426   7.889 -0.3928  0.5140 -0.2481
 1951SOL    HW117486   1.460   3.373   7.964  0.5845 -1.6285 -1.4350
 1951SOL    HW217487   1.539   3.364   7.840 -0.0632  0.4130  0.2295
 1952SOL     OW17488   0.511   2.024   8.609 -0.3641 -0.4649  0.0721
 1952SOL    HW117489   0.443   2.091   8.619 -1.1692 -1.3056  0.2217
 1952SOL    HW217490   0.540   2.045   8.521 -0.8030 -0.0914  0.0155
 1953SOL     OW17491   2.299   4.639  11.441  0.0008  0.0076  0.4699
 1953SOL    HW117492   2.380   4.677  11.477  0.1106  0.2560 -0.0538
 1953SOL    HW217493   2.240   4.711  11.462  0.1942  0.2724  0.0978
 1954SOL     OW17494   3.841   0.839   1.881 -0.6011 -0.0429 -0.7924
 1954SOL    HW117495   3.908   0.896   1.918  1.5359 -2.6288 -0.7543
 1954SOL    HW217496   3.877   0.814   1.797 -3.6474 -1.9738 -1.5122
 1955SOL     OW17497   1.931   3.153   5.154 -0.1450  0.1955  0.0928
 1955SOL    HW117498   1.850   3.202   5.142  1.3209  2.3200 -1.2539
 1955SOL    HW217499   1.905   3.092   5.223  1.1048 -0.2409  0.1867
 1956SOL     OW17500   1.320   2.394   6.368  0.0647  0.0295 -0.4299
 1956SOL    HW117501   1.267   2.338   6.425  1.9698 -1.3574 -0.0330
 1956SOL    HW217502   1.272   2.476   6.378  0.9490  0.3905  0.7286
 1957SOL     OW17503   0.295   3.149   9.838 -0.2229 -0.4264 -0.0530
 1957SOL    HW117504   0.340   3.136   9.755 -0.0827 -0.8803  0.0940
 1957SOL    HW217505   0.312   3.237   9.872 -0.5833 -0.3574 -0.0424
 1958SOL     OW17506   0.321   3.034  17.362 -0.0860  0.2088  0.3930
 1958SOL    HW117507   0.270   3.018  17.442 -0.9940  0.4700 -0.1336
 1958SOL    HW217508   0.319   3.129  17.355  2.6257 -0.0110 -2.9586
 1959SOL     OW17509   2.592   2.864  16.055  0.4891 -0.0919  0.0954
 1959SOL    HW117510   2.630   2.777  16.040  0.3556 -0.1449  0.0701
 1959SOL    HW217511   2.503   2.831  16.066  0.0278  1.1010 -0.0429
 1960SOL     OW17512   2.386   4.186   9.199 -0.2521  0.5983 -0.0877
 1960SOL    HW117513   2.386   4.119   9.130 -0.4034  2.3091 -1.7289
 1960SOL    HW217514   2.423   4.260   9.151  0.5306  0.2543 -0.0278
 1961SOL     OW17515   1.928   3.671  11.998 -0.4978 -0.2278 -1.1141
 1961SOL    HW117516   1.952   3.759  12.027  0.1406 -0.9421  0.5681
 1961SOL    HW217517   1.906   3.621  12.077 -0.7082  1.2403 -0.2346
 1962SOL     OW17518   1.077   1.100  17.546 -0.1095  0.1820  0.1415
 1962SOL    HW117519   1.044   1.186  17.573  0.9395  0.5986  0.0737
 1962SOL    HW217520   1.002   1.042  17.529 -1.0562  1.4245  0.1004
 1963SOL     OW17521   1.362   1.412  17.652  0.0233  0.8609 -0.1096
 1963SOL    HW117522   1.373   1.346  17.721  0.6503 -1.0891 -2.0727
 1963SOL    HW217523   1.422   1.478  17.685 -1.4284  2.1783 -0.1340
 1964SOL     OW17524   1.498   1.180   1.198  0.2768 -0.0640 -0.2755
 1964SOL    HW117525   1.465   1.210   1.113 -1.6501  0.9430  0.8457
 1964SOL    HW217526   1.510   1.086   1.182  0.8342 -0.0650  0.1443
 1965SOL     OW17527   0.073   1.952   2.856 -0.1624  0.4302 -0.4216
 1965SOL    HW117528   0.045   1.865   2.884 -0.0499  0.9153  1.2281
 1965SOL    HW217529   0.129   1.922   2.784  0.6354 -1.5972  1.0446
 1966SOL     OW17530   2.326   3.399   4.508  0.3898 -0.2497 -0.8655
 1966SOL    HW117531   2.420   3.403   4.490  0.6354 -0.0884  0.4635
 1966SOL    HW217532   2.319   3.413   4.602 -2.7555 -0.6211 -1.0527
 1967SOL     OW17533   4.155   1.418   6.888 -0.1961  0.2564 -0.2128
 1967SOL    HW117534   4.116   1.434   6.974 -1.3757  0.0623 -0.7087
 1967SOL    HW217535   4.182   1.326   6.891 -1.8120 -0.2287 -0.2363
 1968SOL     OW17536   1.022   4.278   1.666  0.4977  0.2500  0.3892
 1968SOL    HW117537   0.952   4.293   1.603  1.9364 -2.0588 -1.7656
 1968SOL    HW217538   1.083   4.345   1.633  0.5404 -1.2362 -2.5889
 1969SOL     OW17539   1.237   2.926   8.305  0.0942 -0.4527 -0.0676
 1969SOL    HW117540   1.231   2.873   8.226  2.0962 -0.6676 -0.0767
 1969SOL    HW217541   1.313   2.890   8.352 -0.6971  1.3807  2.5771
 1970SOL     OW17542   0.140   4.270   7.569 -0.3903 -0.2782 -0.3416
 1970SOL    HW117543   0.100   4.192   7.532 -1.4748 -0.0317  0.3137
 1970SOL    HW217544   0.188   4.318   7.501  0.5353  0.0750  0.5556
 1971SOL     OW17545   4.308   0.435   0.022 -0.0957 -0.1071  0.2713
 1971SOL    HW117546   4.299   0.474   0.109 -0.9388  1.7184 -0.6476
 1971SOL    HW217547   4.261   0.352   0.026 -0.1238 -0.2326 -2.2162
 1972SOL     OW17548   2.390   0.023   4.284  0.5171 -0.1936  0.6153
 1972SOL    HW117549   2.353   0.099   4.328 -3.1233 -1.0702 -0.9260
 1972SOL    HW217550   2.473   0.011   4.331  0.9324  0.6487  0.0945
 1973SOL     OW17551   1.056   1.057   1.237 -0.2174  0.4149 -0.1253
 1973SOL    HW117552   1.104   1.110   1.300 -0.0280 -0.1316  0.1937
 1973SOL    HW217553   1.124   1.009   1.189 -0.4966 -0.3904  0.2886
 1974SOL     OW17554   0.782   2.966  11.507 -0.3373 -0.2645  0.6407
 1974SOL    HW117555   0.804   2.887  11.558 -1.0996 -1.4937 -0.9576
 1974SOL    HW217556   0.722   2.933  11.441 -1.4704  0.6031  1.2219
 1975SOL     OW17557   3.138   1.466  13.609 -0.4995  0.0931 -0.4231
 1975SOL    HW117558   3.089   1.545  13.630  1.2293  1.0521 -0.0695
 1975SOL    HW217559   3.077   1.407  13.654 -1.1919  0.7414 -0.5161
 1976SOL     OW17560   0.350   2.075   3.503 -0.1137  0.2366  0.0235
 1976SOL    HW117561   0.262   2.087   3.468  0.0480  0.9881 -0.1289
 1976SOL    HW217562   0.374   2.156   3.548 -2.3345  0.5207  0.7197
 1977SOL     OW17563   2.207   1.246   7.451  0.6213 -0.2472 -0.4364
 1977SOL    HW117564   2.284   1.239   7.395  0.0367 -1.4348 -1.1165
 1977SOL    HW217565   2.128   1.246   7.396 -0.0526 -0.0859  0.5326
 1978SOL     OW17566   1.354   3.580   2.165 -0.3648  0.3174  0.2614
 1978SOL    HW117567   1.323   3.490   2.153  2.0391 -0.8309  2.6578
 1978SOL    HW217568   1.317   3.616   2.085  0.8419  1.9066  0.4084
 1979SOL     OW17569   4.057   0.375  11.649 -0.0142  0.4928 -0.3825
 1979SOL    HW117570   4.079   0.285  11.671 -1.8089  0.6238  1.9980
 1979SOL    HW217571   4.131   0.395  11.592  1.4500 -0.7549  1.1066
 1980SOL     OW17572   3.272   0.506  13.457  0.3491  0.0823 -0.6668
 1980SOL    HW117573   3.353   0.481  13.413  0.6808  0.3007 -0.1685
 1980SOL    HW217574   3.272   0.597  13.427  0.5620  0.3584  0.1675
 1981SOL     OW17575   3.363   3.212   5.596  0.1043 -0.4240  0.2112
 1981SOL    HW117576   3.337   3.155   5.523  0.7063 -1.4921  0.8397
 1981SOL    HW217577   3.377   3.154   5.670  1.5261  1.2496  1.2559
 1982SOL     OW17578   2.340   0.334   5.664  0.2284 -0.2120  0.3803
 1982SOL    HW117579   2.430   0.363   5.681 -0.5482  0.8008  2.7490
 1982SOL    HW217580   2.344   0.239   5.664 -1.8645 -0.2929 -0.3720
 1983SOL     OW17581   2.406   2.670  15.813  0.5870 -0.1967  0.0708
 1983SOL    HW117582   2.455   2.601  15.859  1.4092  0.2057 -0.2146
 1983SOL    HW217583   2.443   2.658  15.726  2.4409 -2.9160  1.2140
 1984SOL     OW17584   3.009   1.487   5.301 -0.0121  0.2456  0.2168
 1984SOL    HW117585   3.049   1.422   5.360 -0.5249  1.8116  2.3018
 1984SOL    HW217586   2.987   1.562   5.356 -1.2279  1.3284 -1.7429
 1985SOL     OW17587   3.015   1.337   7.427 -0.1273 -0.1262 -0.0525
 1985SOL    HW117588   3.012   1.420   7.475 -1.2874 -0.7381  0.9456
 1985SOL    HW217589   2.950   1.281   7.470  1.0137 -1.5216 -0.1345
 1986SOL     OW17590   3.609   2.002   3.815 -0.5174  0.0437 -0.5753
 1986SOL    HW117591   3.681   1.945   3.790  0.4091  0.3265  1.4880
 1986SOL    HW217592   3.578   2.039   3.732 -0.9755  0.6872 -0.1217
 1987SOL     OW17593   0.907   0.293   4.012 -0.0993  0.4930 -0.5268
 1987SOL    HW117594   0.939   0.365   4.066  0.2189  0.8834 -1.2326
 1987SOL    HW217595   0.976   0.291   3.946  1.0377 -1.4016  0.7340
 1988SOL     OW17596   3.506   4.475  16.470  0.4404 -0.2216 -0.3103
 1988SOL    HW117597   3.549   4.408  16.416 -0.0422 -1.1723  0.4946
 1988SOL    HW217598   3.514   4.556  16.419 -2.6472 -0.0109 -0.4963
 1989SOL     OW17599   3.709   0.057  12.991  0.5935  0.0369 -0.6001
 1989SOL    HW117600   3.738   4.735  12.925  3.0734 -2.0476  2.4216
 1989SOL    HW217601   3.780   0.058  13.055 -0.7392 -1.9253  0.9098
 1990SOL     OW17602   2.596   0.015   8.542 -0.3589 -0.0598  0.1842
 1990SOL    HW117603   2.664   0.031   8.476  1.0698  0.4441  1.8003
 1990SOL    HW217604   2.618   0.079   8.610  0.1429  0.3540 -0.3668
 1991SOL     OW17605   4.270   3.542   5.913  0.1479 -0.3030  0.1570
 1991SOL    HW117606   4.352   3.493   5.911  0.7873  0.7626  0.3295
 1991SOL    HW217607   4.295   3.631   5.940  1.0756 -0.1294 -1.2593
 1992SOL     OW17608   1.367   4.092   2.747  1.0063 -0.5501  0.3187
 1992SOL    HW117609   1.336   4.045   2.824  1.6192  0.1638  0.9953
 1992SOL    HW217610   1.316   4.173   2.742 -0.4364 -1.5195 -0.8174
 1993SOL     OW17611   3.218   1.669   2.391 -0.5572 -0.4742  0.2426
 1993SOL    HW117612   3.201   1.739   2.329  0.9994  0.5086  0.9189
 1993SOL    HW217613   3.160   1.602   2.355 -2.8677  1.3575  0.5903
 1994SOL     OW17614   1.549   3.219  14.179  0.2214  0.1219 -0.0539
 1994SOL    HW117615   1.516   3.155  14.243 -0.3323  0.1724 -0.2857
 1994SOL    HW217616   1.586   3.286  14.236  1.5975 -0.1617 -0.6241
 1995SOL     OW17617   0.700   2.073   4.763 -0.0941 -0.1090 -0.1842
 1995SOL    HW117618   0.626   2.025   4.801 -0.1229  1.0914  1.2812
 1995SOL    HW217619   0.727   2.014   4.693 -2.3475  0.2111 -1.3324
 1996SOL     OW17620   4.590   1.402  11.266 -0.1769  0.2567  0.3613
 1996SOL    HW117621   4.616   1.487  11.232 -1.2070 -0.2797 -1.7902
 1996SOL    HW217622   4.676   1.369  11.292 -0.7166 -1.8827 -0.5704
 1997SOL     OW17623   0.888   1.916   6.685  0.7049 -0.3635  0.4183
 1997SOL    HW117624   0.814   1.909   6.745 -0.5027 -1.7170 -1.2607
 1997SOL    HW217625   0.840   1.918   6.603  2.2456  2.4004 -0.4172
 1998SOL     OW17626   1.174   0.637   2.740 -0.0018  0.1767  0.2470
 1998SOL    HW117627   1.232   0.569   2.775  0.2329  0.9712  1.4147
 1998SOL    HW217628   1.091   0.608   2.778 -0.4982  1.0359 -0.1995
 1999SOL     OW17629   3.037   0.073   8.900 -0.2427  0.6071 -0.3978
 1999SOL    HW117630   3.065   0.105   8.814  1.3660 -2.9799 -1.1817
 1999SOL    HW217631   3.105   0.010   8.923  0.3572  1.8002  1.2048
 2000SOL     OW17632   4.658   0.062   6.685  0.0362  0.1709  0.2486
 2000SOL    HW117633   4.588   0.075   6.621 -1.5926 -0.0482  2.0195
 2000SOL    HW217634   4.642   0.130   6.750  2.2397  1.7934 -0.8937
 2001SOL     OW17635   2.012   0.189  14.422 -0.4384 -0.4850  0.3149
 2001SOL    HW117636   1.971   0.138  14.353  2.8093  1.5820 -3.1182
 2001SOL    HW217637   2.103   0.176  14.397 -0.3978 -1.6523  1.0613
 2002SOL     OW17638   0.989   2.738   5.855 -0.0756 -0.4224  0.4485
 2002SOL    HW117639   0.929   2.671   5.822 -0.7893  1.5769 -2.2564
 2002SOL    HW217640   1.049   2.686   5.910 -0.2945  1.9297  2.9213
 2003SOL     OW17641   1.003   4.173   2.974 -0.3707  0.2667 -0.2483
 2003SOL    HW117642   0.929   4.200   3.028 -0.6123  1.4429 -1.1651
 2003SOL    HW217643   1.045   4.258   2.957  1.8006 -0.7946 -0.1725
 2004SOL     OW17644   2.251   4.069   6.487  0.6543 -0.0222  0.2108
 2004SOL    HW117645   2.315   4.041   6.552 -0.9483 -3.1561  0.4064
 2004SOL    HW217646   2.216   4.138   6.543 -0.9332 -0.2786 -0.4770
 2005SOL     OW17647   4.380   2.061   9.433  0.2605 -0.0627 -0.0838
 2005SOL    HW117648   4.394   1.997   9.364  2.6243 -1.0328  1.2833
 2005SOL    HW217649   4.284   2.063   9.441  0.2839 -0.8558  0.4363
 2006SOL     OW17650   1.726   4.625   7.835  0.1753  0.4191  0.0191
 2006SOL    HW117651   1.631   4.628   7.841  0.0838  1.7785 -1.8591
 2006SOL    HW217652   1.734   4.710   7.879 -0.6799  1.0758 -1.0583
 2007SOL     OW17653   3.231   2.153   7.884  0.2666  0.1838  0.0662
 2007SOL    HW117654   3.176   2.156   7.962  0.5084 -1.2381  0.3059
 2007SOL    HW217655   3.305   2.211   7.902  0.5757 -0.3026  0.3658
 2008SOL     OW17656   3.392   1.803   2.955 -0.2896  0.0793  0.5675
 2008SOL    HW117657   3.391   1.839   3.044 -2.0922  1.3539  0.0402
 2008SOL    HW217658   3.475   1.845   2.934 -0.0377 -0.6692  0.0942
 2009SOL     OW17659   2.707   4.562   2.124 -0.1009 -0.2740  0.8892
 2009SOL    HW117660   2.684   4.646   2.084  1.7866 -0.5856 -0.8260
 2009SOL    HW217661   2.661   4.504   2.063 -1.8706 -0.4479  2.3738
 2010SOL     OW17662   1.402   3.955  16.004  0.2082 -0.0855  0.7679
 2010SOL    HW117663   1.492   3.925  15.997  0.0437 -0.3768 -0.0745
 2010SOL    HW217664   1.364   3.935  15.918 -1.0581  2.2919  0.7558
 2011SOL     OW17665   3.560   1.094   6.393  0.0969 -0.0989  0.3541
 2011SOL    HW117666   3.545   1.036   6.318 -0.9486 -1.4710  1.6331
 2011SOL    HW217667   3.627   1.045   6.440  0.1671  1.4085  1.8047
 2012SOL     OW17668   0.351   0.692  10.725 -0.2866  0.2179 -0.1021
 2012SOL    HW117669   0.361   0.600  10.704 -1.5373  0.5021 -1.9476
 2012SOL    HW217670   0.403   0.729  10.653 -2.1689 -0.4579 -1.7863
 2013SOL     OW17671   3.010   1.725   4.946 -0.3169 -0.2599  0.2091
 2013SOL    HW117672   3.009   1.634   4.978 -1.0755 -0.6664 -0.9885
 2013SOL    HW217673   3.055   1.716   4.862  0.7401  1.6801  0.5716
 2014SOL     OW17674   3.899   0.495   2.558  0.2471  0.1539 -0.2001
 2014SOL    HW117675   3.815   0.448   2.560 -0.7666  1.8468 -2.8161
 2014SOL    HW217676   3.951   0.436   2.612 -2.4801 -0.5587  1.6828
 2015SOL     OW17677   0.884   1.512   2.907  0.7442  0.0417 -0.2788
 2015SOL    HW117678   0.865   1.592   2.858 -1.8490 -0.7522 -0.5854
 2015SOL    HW217679   0.956   1.555   2.953  1.2544 -0.9588 -0.1452
 2016SOL     OW17680   1.619   4.354   2.993  0.0825 -0.8499  0.1601
 2016SOL    HW117681   1.597   4.407   2.916 -2.7019  1.9564  2.8773
 2016SOL    HW217682   1.711   4.334   2.981 -0.0650 -1.2783 -0.2344
 2017SOL     OW17683   1.897   4.105   3.471 -0.0145  0.0925 -0.0877
 2017SOL    HW117684   1.950   4.145   3.540  0.1937 -2.2280  1.0854
 2017SOL    HW217685   1.835   4.048   3.515 -0.5541  1.1459  0.5216
 2018SOL     OW17686   1.939   4.703  15.474 -0.2617 -0.2893 -0.0123
 2018SOL    HW117687   1.941   4.609  15.492  0.5867 -0.3940 -0.6341
 2018SOL    HW217688   1.846   4.724  15.481 -0.1941  1.3693 -3.9354
 2019SOL     OW17689   0.429   1.254   5.929  0.0462 -0.0690 -0.6405
 2019SOL    HW117690   0.333   1.250   5.929  0.0950 -0.8564  4.7850
 2019SOL    HW217691   0.445   1.278   6.020  0.2480  1.5958 -1.1273
 2020SOL     OW17692   2.276   2.866   2.943 -0.1268  0.3261 -0.4440
 2020SOL    HW117693   2.337   2.809   2.990 -0.6525 -1.1135 -1.5082
 2020SOL    HW217694   2.205   2.873   3.006  1.0424  1.5079  0.7377
 2021SOL     OW17695   3.831   1.991   3.531 -0.3720 -0.1284  0.4597
 2021SOL    HW117696   3.821   1.936   3.608  2.0933 -1.7057 -0.3501
 2021SOL    HW217697   3.925   1.989   3.514 -0.2888 -0.1088  0.9231
 2022SOL     OW17698   2.403   3.990   2.336 -0.0120 -0.3230  0.0478
 2022SOL    HW117699   2.497   3.997   2.320  0.5812 -2.7603  2.2863
 2022SOL    HW217700   2.398   3.896   2.357  2.5065 -0.5974 -0.4899
 2023SOL     OW17701   1.938   2.347  14.327 -0.1307  0.0546  0.2080
 2023SOL    HW117702   1.895   2.423  14.366 -0.9140  0.0223 -0.5933
 2023SOL    HW217703   2.024   2.384  14.310  0.6455 -1.5141  0.6350
 2024SOL     OW17704   2.612   4.125  16.543 -0.5049  0.0723  0.1380
 2024SOL    HW117705   2.608   4.078  16.459  1.3497 -0.1591  0.1703
 2024SOL    HW217706   2.698   4.167  16.539 -0.9335  0.8942 -0.4230
 2025SOL     OW17707   0.277   4.410   7.369 -0.7841  0.4605  0.4265
 2025SOL    HW117708   0.279   4.506   7.360 -0.1627  0.4351  0.3093
 2025SOL    HW217709   0.363   4.396   7.409  0.4508  0.6865 -2.1223
 2026SOL     OW17710   0.098   0.422   8.306  0.5661  0.2778  0.2746
 2026SOL    HW117711   0.044   0.448   8.380  2.9239 -1.0336  2.4626
 2026SOL    HW217712   0.059   0.335   8.296  0.2768  0.3079  1.1709
 2027SOL     OW17713   4.410   2.447  14.900 -0.1790  0.0557 -0.0235
 2027SOL    HW117714   4.480   2.506  14.926  1.0298 -0.8755 -1.1498
 2027SOL    HW217715   4.460   2.390  14.841 -0.6233 -1.1950  0.8061
 2028SOL     OW17716   2.732   3.434   5.280 -0.2818  0.2074 -0.1849
 2028SOL    HW117717   2.795   3.478   5.337 -1.3095  0.3948  0.8039
 2028SOL    HW217718   2.656   3.486   5.303 -1.6772 -1.3972 -1.1473
 2029SOL     OW17719   0.838   2.514   8.084  0.2725 -0.0257  0.3688
 2029SOL    HW117720   0.882   2.553   8.009  1.7169  1.1157  1.8128
 2029SOL    HW217721   0.900   2.542   8.151  0.3360 -0.7541  0.6188
 2030SOL     OW17722   2.843   2.369   8.420  0.1116  0.5218  0.4450
 2030SOL    HW117723   2.772   2.382   8.483 -0.3054  0.9619 -0.1146
 2030SOL    HW217724   2.924   2.355   8.470  0.2567 -2.4295 -0.5781
 2031SOL     OW17725   4.640   4.473   7.995 -0.2443 -0.3624  0.3431
 2031SOL    HW117726   4.549   4.493   8.013 -0.3860  0.6950 -1.5826
 2031SOL    HW217727   4.620   4.446   7.905 -1.6462 -0.4312  0.6843
 2032SOL     OW17728   0.675   0.472   3.090 -0.0299  0.0955  0.1797
 2032SOL    HW117729   0.643   0.426   3.167 -0.7935 -0.1503 -0.2859
 2032SOL    HW217730   0.760   0.434   3.067  0.7097  2.3536 -0.8872
 2033SOL     OW17731   1.165   0.376   2.594  0.4599 -0.3304 -0.3294
 2033SOL    HW117732   1.092   0.416   2.641  1.1676  0.8191 -0.2264
 2033SOL    HW217733   1.117   0.330   2.525  0.4426 -0.5680 -0.1596
 2034SOL     OW17734   4.626   2.787  10.464  0.2158  0.1191 -0.4091
 2034SOL    HW117735   4.553   2.726  10.451  0.1417  0.0855  0.1583
 2034SOL    HW217736   4.660   2.794  10.375 -0.7788  0.0882 -0.7920
 2035SOL     OW17737   3.007   2.010   2.097  0.7842  0.1159  0.9113
 2035SOL    HW117738   2.936   2.065   2.064 -0.2090 -1.7255 -0.0587
 2035SOL    HW217739   2.962   1.931   2.128  2.1717 -0.8484  0.4671
 2036SOL     OW17740   3.262   3.770  15.007  0.1260  0.2521  0.5700
 2036SOL    HW117741   3.187   3.710  15.003  1.4856 -1.3204 -1.5249
 2036SOL    HW217742   3.212   3.850  14.989 -1.8636 -0.7285  1.7136
 2037SOL     OW17743   3.698   3.963   5.653  0.1177 -0.1366  0.4314
 2037SOL    HW117744   3.704   3.922   5.739  0.4397 -2.1752 -0.5676
 2037SOL    HW217745   3.624   4.023   5.666 -0.5060 -1.0269  0.9456
 2038SOL     OW17746   0.626   4.117  15.340 -0.7112  0.7121 -0.1492
 2038SOL    HW117747   0.594   4.136  15.428 -0.4154 -2.0038  0.5221
 2038SOL    HW217748   0.561   4.158  15.282 -0.0812  1.5092 -0.3002
 2039SOL     OW17749   3.757   2.198  13.143  0.2241  0.5790  0.0047
 2039SOL    HW117750   3.722   2.166  13.060  2.1342 -2.8831  0.5327
 2039SOL    HW217751   3.686   2.255  13.175 -0.1382 -0.3862  0.9281
 2040SOL     OW17752   3.389   1.211   4.661 -0.0819 -0.2858 -0.3616
 2040SOL    HW117753   3.479   1.214   4.629  0.7312 -1.1665  1.7621
 2040SOL    HW217754   3.392   1.291   4.713  2.0812  0.7586 -2.0866
 2041SOL     OW17755   2.328   4.608   2.715  0.7051  0.6096  0.6054
 2041SOL    HW117756   2.409   4.636   2.672  0.6910  1.3470  1.0544
 2041SOL    HW217757   2.278   4.678   2.674  0.5256 -0.5740 -1.1828
 2042SOL     OW17758   3.067   0.673   4.788 -0.0037  0.4430 -0.2578
 2042SOL    HW117759   3.070   0.703   4.697 -2.6731 -0.3459 -0.6232
 2042SOL    HW217760   3.066   0.756   4.836  1.3024  0.6659 -0.6108
 2043SOL     OW17761   2.262   1.346   1.319 -0.3325 -0.1426  0.5606
 2043SOL    HW117762   2.217   1.261   1.326  0.3849 -0.7983 -2.7290
 2043SOL    HW217763   2.347   1.313   1.290  0.0222  0.7383  0.6175
 2044SOL     OW17764   0.428   3.913   1.936 -0.4910  0.1171 -0.4044
 2044SOL    HW117765   0.412   3.894   1.843 -0.0349 -0.8595 -0.2732
 2044SOL    HW217766   0.490   3.986   1.937 -0.2911 -0.0933  1.7617
 2045SOL     OW17767   4.193   2.932   3.765 -0.4085  0.0527 -0.3742
 2045SOL    HW117768   4.205   3.003   3.829  0.5122 -0.5586  0.1322
 2045SOL    HW217769   4.162   2.867   3.828  0.1890 -1.0395 -1.2229
 2046SOL     OW17770   3.597   1.998   3.359  0.0571 -0.4096 -0.8654
 2046SOL    HW117771   3.552   2.038   3.434 -0.5005 -0.1667 -1.3287
 2046SOL    HW217772   3.676   1.975   3.408  0.0391 -2.3192 -1.7089
 2047SOL     OW17773   0.158   3.660   4.972 -0.1201  0.3345  0.6108
 2047SOL    HW117774   0.077   3.700   4.941 -1.0927 -1.8146  0.3698
 2047SOL    HW217775   0.138   3.567   4.982  0.2864  0.1081 -0.6668
 2048SOL     OW17776   4.087   2.219   6.548 -0.1825  0.1680 -0.0820
 2048SOL    HW117777   4.083   2.312   6.573  0.9129 -0.0809  0.9741
 2048SOL    HW217778   3.995   2.210   6.524 -0.5589 -0.0449  1.4458
 2049SOL     OW17779   1.278   2.963   7.260  0.5591 -0.3513 -0.1281
 2049SOL    HW117780   1.206   2.916   7.304 -0.0953  0.0970 -0.7237
 2049SOL    HW217781   1.306   2.895   7.198  0.1398 -1.6247  1.0570
 2050SOL     OW17782   4.499   2.707   3.876 -0.6456 -0.4501 -0.5628
 2050SOL    HW117783   4.575   2.763   3.861 -1.1197  0.7316  1.5022
 2050SOL    HW217784   4.540   2.624   3.897  1.0358  1.0115  1.9124
 2051SOL     OW17785   2.364   2.620   8.376  0.6423 -0.0145 -0.4321
 2051SOL    HW117786   2.330   2.545   8.425  3.5196 -2.8192 -2.7188
 2051SOL    HW217787   2.408   2.582   8.301 -0.4448 -0.9133 -0.6076
 2052SOL     OW17788   0.862   3.163   3.425  0.0969 -0.0351 -0.3181
 2052SOL    HW117789   0.922   3.091   3.444 -0.4249 -0.2897  0.3739
 2052SOL    HW217790   0.876   3.212   3.506  1.4200  0.2983 -0.7502
 2053SOL     OW17791   3.111   0.075   5.346 -0.5382  0.0731 -0.1578
 2053SOL    HW117792   3.100   0.069   5.251 -0.2392 -0.7661 -0.1403
 2053SOL    HW217793   3.030   0.034   5.376 -0.0991  0.8293  2.0592
 2054SOL     OW17794   0.276   4.339  14.251  0.6708 -0.4850  0.3249
 2054SOL    HW117795   0.252   4.276  14.320  2.5263  1.3362  2.6624
 2054SOL    HW217796   0.231   4.303  14.175 -1.0209  1.3832  0.4619
 2055SOL     OW17797   2.719   0.519  16.824  0.0626  0.2268  0.0259
 2055SOL    HW117798   2.720   0.615  16.814  0.3236  0.1036 -1.1618
 2055SOL    HW217799   2.697   0.482  16.739  0.0956  3.7188 -1.5192
 2056SOL     OW17800   1.456   4.046   7.301 -0.5477  0.0506  0.1743
 2056SOL    HW117801   1.382   4.070   7.356 -1.0734  0.5739 -0.7549
 2056SOL    HW217802   1.529   4.082   7.352 -0.1259 -0.1652 -0.2732
 2057SOL     OW17803   3.448   2.080  17.049 -0.2133 -0.5688  0.6624
 2057SOL    HW117804   3.486   2.003  17.092  1.0787 -0.3792 -0.1215
 2057SOL    HW217805   3.517   2.110  16.989  0.4382 -0.0115  1.6971
 2058SOL     OW17806   0.285   4.212  14.585  0.1521 -0.0627 -0.2337
 2058SOL    HW117807   0.340   4.137  14.564 -1.0187 -0.1310 -3.0153
 2058SOL    HW217808   0.343   4.264  14.641  0.3313  0.5583 -0.9890
 2059SOL     OW17809   2.157   4.065  17.234 -0.4776 -0.1963 -0.1945
 2059SOL    HW117810   2.178   4.006  17.161 -0.7721  1.1555 -1.3703
 2059SOL    HW217811   2.163   4.001  17.305  0.0909 -0.0207 -0.0818
 2060SOL     OW17812   2.457   4.359   9.007 -0.2580  0.1831  0.3964
 2060SOL    HW117813   2.523   4.427   9.001 -1.7654  1.9253  3.5569
 2060SOL    HW217814   2.378   4.406   8.978 -0.4966  0.2666  1.1688
 2061SOL     OW17815   4.307   3.914   3.056 -0.8905 -0.0976  0.1232
 2061SOL    HW117816   4.232   3.946   3.008 -1.0190  0.0330  0.4089
 2061SOL    HW217817   4.265   3.904   3.142 -2.0914  0.5187 -0.4071
 2062SOL     OW17818   2.852   2.092  15.274  0.4611 -0.3167  0.3065
 2062SOL    HW117819   2.869   2.142  15.354 -0.6997  3.7814 -1.9977
 2062SOL    HW217820   2.815   2.164  15.223  1.3778 -1.1070 -1.4997
 2063SOL     OW17821   1.733   4.673   2.032 -0.2567  0.1222 -0.3267
 2063SOL    HW117822   1.751   4.581   2.054  3.7121  0.5858 -1.5482
 2063SOL    HW217823   1.748   4.679   1.938 -3.1905  2.2599 -0.6491
 2064SOL     OW17824   2.772   4.530  16.904  0.4815  0.5628 -0.3592
 2064SOL    HW117825   2.773   4.452  16.848 -1.5323 -0.6708  1.3471
 2064SOL    HW217826   2.746   4.595  16.838 -0.3150 -0.2606 -0.8579
 2065SOL     OW17827   2.040   1.508   8.107 -0.2445  0.0451  0.2657
 2065SOL    HW117828   2.008   1.433   8.156 -0.6837 -0.7011 -1.1679
 2065SOL    HW217829   2.047   1.466   8.022  1.3384  0.8413 -0.0174
 2066SOL     OW17830   0.346   2.796   3.310 -0.0689  0.3193 -0.1731
 2066SOL    HW117831   0.299   2.809   3.392  0.9459 -0.5605  0.5438
 2066SOL    HW217832   0.290   2.724   3.282 -0.8496  1.1777 -0.8118
 2067SOL     OW17833   4.291   4.481   3.760  0.2722  0.8370 -0.8609
 2067SOL    HW117834   4.225   4.447   3.821  1.8654 -0.7808 -0.0397
 2067SOL    HW217835   4.358   4.528   3.808 -1.1800  1.0368  0.9868
 2068SOL     OW17836   1.809   2.759   4.934 -0.3368 -0.2321 -0.0423
 2068SOL    HW117837   1.752   2.728   5.005 -0.2906  0.6799  0.3865
 2068SOL    HW217838   1.756   2.740   4.856  1.1016 -2.0801 -0.5570
 2069SOL     OW17839   4.595   3.528   5.473  0.2888 -0.2272 -0.4828
 2069SOL    HW117840   4.671   3.479   5.440  1.2739  0.6146  0.5209
 2069SOL    HW217841   4.614   3.521   5.567 -2.9039  0.7252  0.2379
 2070SOL     OW17842   4.678   1.487   4.223  0.5766  0.0804  0.1462
 2070SOL    HW117843   4.587   1.495   4.252  0.5579  0.0575  0.0941
 2070SOL    HW217844   4.716   1.405   4.254  0.6746  0.4096  0.9039
 2071SOL     OW17845   3.510   4.366   6.887 -0.3125  0.5017  0.1295
 2071SOL    HW117846   3.445   4.307   6.924 -0.3578 -0.3158 -1.2610
 2071SOL    HW217847   3.521   4.430   6.957  4.9760 -0.6157  0.3289
 2072SOL     OW17848   4.618   0.627   3.464 -0.4544  0.0820 -0.1789
 2072SOL    HW117849   4.648   0.619   3.374  2.3836  0.2936  0.7332
 2072SOL    HW217850   4.556   0.554   3.467  0.6785 -0.8627  0.2772
 2073SOL     OW17851   0.041   1.454   1.250 -0.0677  0.0085  0.6068
 2073SOL    HW117852   0.127   1.489   1.274  0.1549  0.0900 -0.3284
 2073SOL    HW217853   4.718   1.520   1.279 -1.3483 -1.6357  1.5303
 2074SOL     OW17854   3.327   1.015   7.347 -0.5246 -0.2686  0.0539
 2074SOL    HW117855   3.260   1.076   7.314  0.4847  0.0024 -1.5391
 2074SOL    HW217856   3.323   0.947   7.280 -0.6030  2.9821 -3.2843
 2075SOL     OW17857   4.335   1.138   4.459  0.1112 -0.1105  0.8361
 2075SOL    HW117858   4.306   1.226   4.480  0.0259  0.0196  0.1826
 2075SOL    HW217859   4.361   1.153   4.368  0.0998  1.0746  1.0360
 2076SOL     OW17860   4.255   0.832   1.465  0.5799 -0.1406 -0.8260
 2076SOL    HW117861   4.160   0.823   1.471  0.8859 -2.7034  0.3180
 2076SOL    HW217862   4.280   0.752   1.419 -0.1596 -0.4970 -0.6072
 2077SOL     OW17863   2.458   0.902   5.085 -0.6937 -0.3142  0.0055
 2077SOL    HW117864   2.443   0.854   5.003 -0.7110  0.2268 -0.3063
 2077SOL    HW217865   2.495   0.827   5.132 -2.0792 -1.8988 -1.4290
 2078SOL     OW17866   4.594   1.101   6.575 -0.4262  0.0791  0.0305
 2078SOL    HW117867   4.672   1.106   6.631 -0.1632  0.7582 -0.3900
 2078SOL    HW217868   4.637   1.058   6.500 -2.0315 -1.4546  0.0002
 2079SOL     OW17869   2.512   2.325   1.700  1.0168  0.4074  0.8003
 2079SOL    HW117870   2.440   2.278   1.659  1.4121  0.6375 -0.1547
 2079SOL    HW217871   2.583   2.311   1.637 -1.0280  1.3844 -1.7197
 2080SOL     OW17872   3.704   4.269   3.321 -0.1695 -0.1797 -0.5745
 2080SOL    HW117873   3.758   4.205   3.274 -0.1748 -0.2883 -0.4345
 2080SOL    HW217874   3.625   4.215   3.324 -1.5701  1.9193  0.3524
 2081SOL     OW17875   1.687   0.543  11.800  0.4414  0.2102  0.0672
 2081SOL    HW117876   1.700   0.593  11.881 -0.3754  1.3186 -0.4837
 2081SOL    HW217877   1.774   0.504  11.796 -0.5353 -1.9121 -0.3307
 2082SOL     OW17878   3.971   3.743   5.087 -0.1657 -0.2926 -0.3621
 2082SOL    HW117879   4.002   3.834   5.082 -0.0402 -0.3645 -0.8267
 2082SOL    HW217880   4.025   3.707   5.158  0.5869 -2.2274 -1.9498
 2083SOL     OW17881   3.326   1.767   9.713 -0.0695 -0.4367  0.2963
 2083SOL    HW117882   3.333   1.685   9.664 -1.1922 -0.9548  1.0121
 2083SOL    HW217883   3.318   1.734   9.802  0.4132  0.5188  0.6961
 2084SOL     OW17884   4.404   2.824  16.844  0.2405  0.1219 -0.0072
 2084SOL    HW117885   4.327   2.850  16.794  0.1126 -0.0448  0.1063
 2084SOL    HW217886   4.463   2.898  16.825  1.6360 -1.2208 -0.8976
 2085SOL     OW17887   4.476   4.319   4.020  0.3934  0.2061 -0.0465
 2085SOL    HW117888   4.540   4.369   3.969  0.6700 -0.2696 -0.1704
 2085SOL    HW217889   4.535   4.275   4.081  2.1617 -0.1498 -1.9945
 2086SOL     OW17890   3.571   3.126   8.155 -0.2229  0.3461 -0.6237
 2086SOL    HW117891   3.506   3.060   8.178 -1.3195  1.3167 -0.8808
 2086SOL    HW217892   3.510   3.199   8.173  1.9695  1.2832  2.8917
 2087SOL     OW17893   0.444   0.657   8.901 -0.1702 -0.6516  0.0229
 2087SOL    HW117894   0.409   0.684   8.815  0.3893 -0.7536 -0.2378
 2087SOL    HW217895   0.469   0.734   8.952 -0.5687 -1.4070  1.3301
 2088SOL     OW17896   2.167   3.472   0.879 -0.2746 -0.0082  0.2825
 2088SOL    HW117897   2.108   3.485   0.805 -1.1183 -1.2321  0.7498
 2088SOL    HW217898   2.196   3.384   0.857  1.8222  1.1775 -1.8156
 2089SOL     OW17899   0.851   1.784   3.249  0.0637  0.4729  0.4963
 2089SOL    HW117900   0.905   1.706   3.257  0.6063  0.5968 -1.9429
 2089SOL    HW217901   0.780   1.760   3.309 -0.0678 -0.2146  0.0566
 2090SOL     OW17902   1.219   0.413   6.615 -0.2782 -0.0858 -0.2087
 2090SOL    HW117903   1.221   0.318   6.615  1.8921 -0.0525 -0.0595
 2090SOL    HW217904   1.141   0.437   6.665 -1.2690 -1.9046 -0.9073
 2091SOL     OW17905   1.227   2.849   6.838 -0.6631 -0.1464  0.0014
 2091SOL    HW117906   1.148   2.899   6.820 -0.3736  0.2329 -0.2400
 2091SOL    HW217907   1.300   2.909   6.819 -0.8408 -0.3704 -1.3644
 2092SOL     OW17908   3.996   3.335   2.956 -0.1836 -0.2589 -0.6302
 2092SOL    HW117909   3.981   3.312   2.865 -0.2307 -1.2923 -0.3558
 2092SOL    HW217910   4.037   3.419   2.935  1.7571 -1.0403  0.0230
 2093SOL     OW17911   2.354   0.142  11.682 -0.2771 -0.1108  0.1362
 2093SOL    HW117912   2.391   0.085  11.749 -1.1068 -0.0303  0.6542
 2093SOL    HW217913   2.365   0.225  11.729 -1.2851 -0.3881  0.8588
 2094SOL     OW17914   1.793   1.894   3.852  0.4252  0.6107  0.4841
 2094SOL    HW117915   1.867   1.837   3.873 -0.8994  0.0808  3.6818
 2094SOL    HW217916   1.727   1.851   3.905  1.2872 -0.8960  0.3468
 2095SOL     OW17917   4.383   2.087  14.815  0.8099  0.3473  0.7174
 2095SOL    HW117918   4.417   2.021  14.754  0.4038 -0.4258  1.3363
 2095SOL    HW217919   4.392   2.061  14.906 -0.8287 -3.7467 -0.2811
 2096SOL     OW17920   3.800   2.582   3.239 -0.0251 -0.2819 -0.3552
 2096SOL    HW117921   3.809   2.615   3.150 -0.0221  0.3907 -0.1104
 2096SOL    HW217922   3.859   2.650   3.270 -0.0094  0.3839 -1.8756
 2097SOL     OW17923   0.681   4.283   7.742 -0.1585  0.2796 -0.0304
 2097SOL    HW117924   0.675   4.225   7.665  3.5902 -0.5617  0.3438
 2097SOL    HW217925   0.644   4.224   7.808  0.2275 -0.7970 -0.7689
 2098SOL     OW17926   0.640   2.409   2.482  0.3442 -0.5924 -0.1659
 2098SOL    HW117927   0.550   2.384   2.504  1.1759 -2.3849  1.2106
 2098SOL    HW217928   0.685   2.375   2.559  0.4046 -1.5047 -0.6044
 2099SOL     OW17929   1.580   0.829   1.480  0.1727  0.3685  0.4463
 2099SOL    HW117930   1.640   0.761   1.511 -1.3543 -1.5496 -0.8196
 2099SOL    HW217931   1.515   0.833   1.549  1.3070 -0.0989  1.5458
 2100SOL     OW17932   0.353   4.428   3.077  0.0765 -0.9102 -0.5054
 2100SOL    HW117933   0.428   4.376   3.106  0.6727 -0.2830 -0.9169
 2100SOL    HW217934   0.304   4.373   3.015 -0.4237  1.3537 -2.1278
 2101SOL     OW17935   2.544   0.372  13.004 -0.2804 -0.1105 -0.0107
 2101SOL    HW117936   2.638   0.364  12.987 -0.0867  1.0843  0.5473
 2101SOL    HW217937   2.543   0.421  13.086  0.5991 -2.2413  1.2888
 2102SOL     OW17938   1.348   2.662   7.570  0.1119 -0.2121 -0.0900
 2102SOL    HW117939   1.419   2.686   7.631 -1.6961  1.7881  1.2354
 2102SOL    HW217940   1.394   2.659   7.486 -1.4814  0.8762 -0.9964
 2103SOL     OW17941   0.999   2.674   8.269  0.2140 -0.3722  0.5481
 2103SOL    HW117942   1.010   2.667   8.364  0.8273 -1.1375  0.4254
 2103SOL    HW217943   0.989   2.768   8.251 -0.6587 -0.6084 -0.1876
 2104SOL     OW17944   0.046   0.801   0.549  0.2977 -0.5824  0.5064
 2104SOL    HW117945   0.059   0.765   0.636  0.9550  1.1943  1.1393
 2104SOL    HW217946   4.721   0.743   0.511  0.0120  1.6042 -2.3624
 2105SOL     OW17947   3.199   0.974   4.093 -0.4508 -0.7884  0.2969
 2105SOL    HW117948   3.124   1.010   4.047 -0.3928 -1.0820 -0.0263
 2105SOL    HW217949   3.256   0.980   4.017 -1.8027 -0.4134 -0.6697
 2106SOL     OW17950   0.096   3.491   5.292  0.3969  0.3328 -0.2173
 2106SOL    HW117951   0.182   3.464   5.260  0.2112 -1.9598  1.2507
 2106SOL    HW217952   0.103   3.586   5.296 -1.3169  0.3248  2.5408
 2107SOL     OW17953   2.140   0.911  11.777 -0.3388  0.0669  0.6920
 2107SOL    HW117954   2.170   0.942  11.863 -0.3972  2.1402 -0.0308
 2107SOL    HW217955   2.059   0.959  11.758  0.3248 -0.4827 -3.3970
 2108SOL     OW17956   2.662   3.058   4.232 -0.2642  0.0946 -0.0203
 2108SOL    HW117957   2.658   3.089   4.323 -1.4683 -1.6740  0.5353
 2108SOL    HW217958   2.587   3.106   4.197 -0.2781 -0.1300 -0.2959
 2109SOL     OW17959   3.804   1.460   8.691  0.1811  0.0343 -0.0003
 2109SOL    HW117960   3.776   1.550   8.678 -0.7118 -0.2300  0.0356
 2109SOL    HW217961   3.832   1.452   8.782 -1.1819  0.4485  0.4604
 2110SOL     OW17962   0.645   2.949   5.635 -0.8215  0.1286 -0.1456
 2110SOL    HW117963   0.617   2.868   5.592 -0.1027 -0.7318  1.0075
 2110SOL    HW217964   0.680   2.992   5.557 -3.6082  2.3007 -0.1849
 2111SOL     OW17965   3.731   2.921   2.152 -0.1033  0.3974  0.5976
 2111SOL    HW117966   3.804   2.947   2.096  0.6811 -0.6329  1.1398
 2111SOL    HW217967   3.786   2.910   2.230 -0.3916 -2.4108  0.3857
 2112SOL     OW17968   1.401   0.637  14.808 -0.1611  0.1189  0.2767
 2112SOL    HW117969   1.386   0.548  14.775 -2.8685  1.8838 -3.1799
 2112SOL    HW217970   1.324   0.683  14.776  1.6149  2.8213 -0.1172
 2113SOL     OW17971   2.220   0.862   6.602  0.0250  0.1551  0.3430
 2113SOL    HW117972   2.273   0.940   6.585  0.1278  0.3177  1.3609
 2113SOL    HW217973   2.140   0.891   6.558  0.9771  2.4441  0.0968
 2114SOL     OW17974   2.949   3.803   8.644 -0.7021  0.3989  0.3376
 2114SOL    HW117975   2.864   3.773   8.611 -1.2941  2.4986 -0.0840
 2114SOL    HW217976   2.955   3.886   8.596 -2.0662  0.7756  0.8157
 2115SOL     OW17977   3.983   3.070   4.986 -0.4549  0.1736 -0.4400
 2115SOL    HW117978   3.933   3.102   4.911 -1.7092 -0.8200 -0.0257
 2115SOL    HW217979   3.909   3.074   5.047 -1.4714  0.3039 -1.6868
 2116SOL     OW17980   3.211   4.502  11.395  0.4146 -0.4618  0.0623
 2116SOL    HW117981   3.236   4.515  11.486  1.6213 -0.4019 -0.2739
 2116SOL    HW217982   3.166   4.418  11.398 -0.2435 -0.1472 -0.8345
 2117SOL     OW17983   2.177   3.728   9.189 -0.1627 -0.6120  0.1078
 2117SOL    HW117984   2.224   3.798   9.144 -0.0864 -0.3374  0.6115
 2117SOL    HW217985   2.127   3.772   9.257  1.7033 -0.4664  1.3970
 2118SOL     OW17986   3.262   3.063  13.443 -0.4952  0.3974  0.4472
 2118SOL    HW117987   3.317   3.003  13.393  0.7549  0.8964  1.2402
 2118SOL    HW217988   3.282   3.148  13.404  0.1563  0.1539  0.2485
 2119SOL     OW17989   1.267   1.609   6.346  0.3245  0.2885 -0.6307
 2119SOL    HW117990   1.242   1.671   6.278  2.7453  0.8195 -1.0350
 2119SOL    HW217991   1.354   1.591   6.311  1.5238  0.4273  2.2712
 2120SOL     OW17992   2.540   2.869  12.251 -0.1267  0.0488  0.2716
 2120SOL    HW117993   2.469   2.866  12.187 -1.5197  0.4142  1.8088
 2120SOL    HW217994   2.497   2.832  12.329  1.0210  2.0600  1.8472
 2121SOL     OW17995   2.899   1.333   4.299  0.2079  0.4106  0.8345
 2121SOL    HW117996   2.824   1.363   4.351 -2.8619 -2.3125 -2.0384
 2121SOL    HW217997   2.908   1.241   4.323  0.7067  0.7813  2.0919
 2122SOL     OW17998   1.075   1.972  12.120 -0.5002  0.4178 -0.6822
 2122SOL    HW117999   1.079   1.966  12.024 -1.5542 -0.6417 -0.6510
 2122SOL    HW218000   1.144   1.913  12.152  0.5890  1.1626 -1.6255
 2123SOL     OW18001   3.883   4.159  14.733  0.1583 -0.3255  0.1263
 2123SOL    HW118002   3.976   4.160  14.755  0.5598  0.9325 -1.6101
 2123SOL    HW218003   3.842   4.228  14.784  0.3147 -0.2242  0.1154
 2124SOL     OW18004   3.994   0.467   4.416 -0.0811  0.5278 -0.0047
 2124SOL    HW118005   3.995   0.530   4.488 -1.3348 -0.4671  0.8998
 2124SOL    HW218006   3.984   0.386   4.466 -0.6407  1.6735  1.7377
 2125SOL     OW18007   0.397   1.645   4.719  0.0160  0.2941  0.4821
 2125SOL    HW118008   0.465   1.654   4.652  0.5062  2.4883  1.3056
 2125SOL    HW218009   0.329   1.688   4.667 -1.3516 -0.9745  1.2278
 2126SOL     OW18010   4.317   2.874  10.297 -0.1545 -0.0624 -0.1848
 2126SOL    HW118011   4.380   2.810  10.265 -0.0720  0.4496 -1.0532
 2126SOL    HW218012   4.246   2.817  10.328 -0.5501 -0.0530 -1.0514
 2127SOL     OW18013   2.425   3.819  11.848 -0.0138  0.6120 -0.3625
 2127SOL    HW118014   2.444   3.869  11.769 -0.6517  0.8775 -0.3461
 2127SOL    HW218015   2.331   3.802  11.845 -0.1933  1.8741 -2.1770
 2128SOL     OW18016   3.377   0.869   5.364 -0.2201 -0.1414 -0.2045
 2128SOL    HW118017   3.396   0.831   5.450  1.7119  2.1506  0.4014
 2128SOL    HW218018   3.408   0.959   5.373  0.9560 -0.5355 -0.3358
 2129SOL     OW18019   2.516   0.602   7.153 -0.6939  0.0332  0.4964
 2129SOL    HW118020   2.481   0.513   7.155  0.5060 -0.5006 -3.2949
 2129SOL    HW218021   2.461   0.646   7.088 -0.1928  0.8073  0.5949
 2130SOL     OW18022   0.690   1.815  10.199  0.2478 -0.1575  0.2634
 2130SOL    HW118023   0.672   1.721  10.187 -0.4099 -0.2110  1.7238
 2130SOL    HW218024   0.639   1.820  10.280  0.1935  1.9415  0.0791
 2131SOL     OW18025   2.546   2.618   0.578  0.5921 -0.3927 -0.8259
 2131SOL    HW118026   2.621   2.660   0.619 -0.7098  0.5191  0.6244
 2131SOL    HW218027   2.555   2.641   0.486  0.5844 -1.9062 -1.2010
 2132SOL     OW18028   0.527   0.020   2.648 -0.1021 -0.4590  0.3768
 2132SOL    HW118029   0.545   0.024   2.554 -2.8213 -0.6163 -0.1293
 2132SOL    HW218030   0.532   0.111   2.679 -1.0372 -0.0439 -0.6844
 2133SOL     OW18031   3.683   3.342   9.633  0.5581 -0.1597 -0.0635
 2133SOL    HW118032   3.756   3.389   9.675 -1.3725  0.9408  2.0803
 2133SOL    HW218033   3.616   3.406   9.657  2.3132  1.2557  1.0396
 2134SOL     OW18034   4.297   3.175   6.877 -0.1511  0.2019 -0.0605
 2134SOL    HW118035   4.377   3.184   6.928 -0.9185 -1.2629  1.4041
 2134SOL    HW218036   4.292   3.082   6.901 -0.1993  0.4529  0.8805
 2135SOL     OW18037   1.556   4.726   4.502  0.5870 -0.1392 -0.0214
 2135SOL    HW118038   1.512   4.678   4.431 -0.5062  0.8506 -0.0178
 2135SOL    HW218039   1.524   4.670   4.572  0.1689 -0.2925 -0.3340
 2136SOL     OW18040   2.768   3.842  14.697  0.4837  0.3313  0.4577
 2136SOL    HW118041   2.855   3.820  14.664  0.6272 -0.3078  1.2649
 2136SOL    HW218042   2.739   3.910  14.637  1.1799  0.7837  0.6272
 2137SOL     OW18043   0.329   1.382   6.415  0.3566 -0.2593  0.0795
 2137SOL    HW118044   0.233   1.386   6.421  0.4751 -1.3105  2.9101
 2137SOL    HW218045   0.352   1.319   6.483  1.4198  2.6953  2.4581
 2138SOL     OW18046   1.618   1.897   9.852 -0.1694 -0.0443  0.1541
 2138SOL    HW118047   1.641   1.886   9.759 -1.3614  1.8984 -0.3598
 2138SOL    HW218048   1.691   1.954   9.874  0.1812 -0.8542  1.1336
 2139SOL     OW18049   2.029   1.962  12.272 -0.3838  0.1102  0.4448
 2139SOL    HW118050   1.960   1.901  12.299 -0.3433 -0.0683  0.1520
 2139SOL    HW218051   1.979   2.039  12.248 -0.1741 -0.0416 -0.5002
 2140SOL     OW18052   1.186   0.119  16.083  0.2496  0.4244 -0.1761
 2140SOL    HW118053   1.128   0.186  16.120 -1.6138 -2.1764  1.5948
 2140SOL    HW218054   1.265   0.146  16.131  1.3629  1.3517 -2.4863
 2141SOL     OW18055   4.615   0.867   5.536  0.2959  0.1633 -0.1911
 2141SOL    HW118056   4.623   0.775   5.509  0.7224  0.3054 -0.5570
 2141SOL    HW218057   4.523   0.887   5.551  0.0969 -1.7045  1.0207
 2142SOL     OW18058   0.670   3.768   8.207 -0.2649  0.5446  0.4222
 2142SOL    HW118059   0.714   3.770   8.122  0.4234  2.8594  0.8339
 2142SOL    HW218060   0.732   3.806   8.270  3.1551 -2.1871 -1.2820
 2143SOL     OW18061   1.061   2.949   5.116 -0.0167 -0.0528  0.0986
 2143SOL    HW118062   1.053   2.906   5.202 -2.3898 -0.9648 -0.5583
 2143SOL    HW218063   1.037   3.040   5.131 -2.9172 -0.8326  0.3641
 2144SOL     OW18064   2.681   4.717  16.737  0.5268 -0.0081 -0.1173
 2144SOL    HW118065   2.675   4.739  16.644 -1.3524  0.8496  0.2151
 2144SOL    HW218066   2.588   4.696  16.744 -0.0102  3.1050  2.2896
 2145SOL     OW18067   4.726   1.701   0.612 -0.2024  0.3379  0.5653
 2145SOL    HW118068   0.028   1.787   0.609  1.0514 -0.2983  0.1685
 2145SOL    HW218069   4.639   1.719   0.576  0.1499 -1.3729 -1.1220
 2146SOL     OW18070   2.837   0.777   3.940  0.0298 -0.0224  0.1409
 2146SOL    HW118071   2.804   0.807   4.025  0.3686 -1.0878  0.6596
 2146SOL    HW218072   2.906   0.721   3.976  1.3835  1.0785 -0.7546
 2147SOL     OW18073   1.808   0.735   1.123  0.0271  0.1203  0.3095
 2147SOL    HW118074   1.878   0.673   1.106  0.4353  0.3167  1.2895
 2147SOL    HW218075   1.789   0.713   1.214 -0.2275 -0.2598  0.1625
 2148SOL     OW18076   0.286   0.229  14.237  0.5417  0.0726 -0.4128
 2148SOL    HW118077   0.211   0.169  14.232  1.3271 -0.8437 -1.0689
 2148SOL    HW218078   0.333   0.186  14.309 -1.9796  1.0342  1.7991
 2149SOL     OW18079   1.474   0.869   6.870  0.2294 -0.0270  0.1573
 2149SOL    HW118080   1.409   0.806   6.901 -0.2616 -0.2908 -1.3726
 2149SOL    HW218081   1.478   0.939   6.935 -2.9407 -1.5535  2.0157
 2150SOL     OW18082   0.772   2.545   7.602  0.5772 -0.4492  0.0228
 2150SOL    HW118083   0.759   2.450   7.598  2.7176 -0.8774  3.0714
 2150SOL    HW218084   0.710   2.582   7.539  0.4334 -0.1585  0.3343
 2151SOL     OW18085   3.798   1.502   5.887 -0.2349  0.4457  0.1288
 2151SOL    HW118086   3.806   1.407   5.882 -0.6098  0.3031  2.0727
 2151SOL    HW218087   3.878   1.534   5.929 -1.1373  1.4700  1.0849
 2152SOL     OW18088   2.533   1.963   5.103 -0.2702 -0.1610  0.2118
 2152SOL    HW118089   2.488   1.880   5.085 -2.2630  1.0320 -0.2541
 2152SOL    HW218090   2.627   1.944   5.107 -0.3921 -1.0653 -0.9509
 2153SOL     OW18091   3.437   4.062   7.721  0.1199  0.0464  0.4920
 2153SOL    HW118092   3.509   4.125   7.710  0.5720 -1.2020 -3.9358
 2153SOL    HW218093   3.376   4.103   7.660  0.0506  0.1837  0.6569
 2154SOL     OW18094   0.706   2.432  10.532  0.0811  0.3446 -0.0933
 2154SOL    HW118095   0.644   2.362  10.555 -0.6338  1.1360  0.3584
 2154SOL    HW218096   0.747   2.404  10.450 -1.9457  2.1263 -1.6826
 2155SOL     OW18097   2.989   0.495  14.639  0.0437  0.2483 -0.4099
 2155SOL    HW118098   3.062   0.554  14.655  1.2331 -0.7567 -2.1935
 2155SOL    HW218099   2.983   0.484  14.544 -1.1081 -1.6966 -0.1122
 2156SOL     OW18100   3.091   2.331   5.853 -0.0777  0.1745  0.8109
 2156SOL    HW118101   3.171   2.282   5.831 -0.0854 -0.3849  2.0582
 2156SOL    HW218102   3.095   2.347   5.947 -1.1134  2.5597  0.4514
 2157SOL     OW18103   0.149   1.155   1.495 -0.8516  0.2899  0.0901
 2157SOL    HW118104   0.074   1.177   1.440  0.2653  1.0358 -1.1168
 2157SOL    HW218105   0.177   1.241   1.526 -1.1491  0.6267 -0.5809
 2158SOL     OW18106   1.916   3.003   4.908  0.4671 -0.0477 -0.0229
 2158SOL    HW118107   1.872   2.921   4.929 -0.2197  1.2896  3.8786
 2158SOL    HW218108   1.956   3.012   4.995 -1.8491 -3.0173  1.3540
 2159SOL     OW18109   3.394   4.647  13.786  0.6518  0.3332 -0.3742
 2159SOL    HW118110   3.431   4.615  13.703  2.4287 -0.5296  0.7340
 2159SOL    HW218111   3.424   4.572  13.839  0.5001  1.6122  1.5153
 2160SOL     OW18112   1.148   3.237   7.534 -0.3395  0.0114 -0.0138
 2160SOL    HW118113   1.123   3.258   7.625 -4.8027 -0.5596 -1.1179
 2160SOL    HW218114   1.197   3.155   7.541 -2.7070 -1.4473 -0.5485
 2161SOL     OW18115   3.325   0.403   7.680 -0.1655 -0.5279  0.3930
 2161SOL    HW118116   3.399   0.460   7.662  1.1496 -1.8870  1.4441
 2161SOL    HW218117   3.307   0.377   7.589 -2.1116  0.2029  0.5663
 2162SOL     OW18118   3.418   1.299   9.988 -0.4258 -0.2399  0.0978
 2162SOL    HW118119   3.385   1.245   9.916  0.4539  0.1403 -0.5910
 2162SOL    HW218120   3.509   1.273   9.999 -0.2737  0.1432 -0.2364
 2163SOL     OW18121   3.638   3.871   6.338  0.7246  0.0061  0.3261
 2163SOL    HW118122   3.673   3.820   6.265  0.5955  1.4044 -0.7137
 2163SOL    HW218123   3.544   3.871   6.319  0.9745  1.2554 -0.8239
 2164SOL     OW18124   3.087   1.451   5.036 -0.2376  0.4024 -0.2330
 2164SOL    HW118125   3.042   1.462   5.120 -2.3670  3.4924 -1.7663
 2164SOL    HW218126   3.173   1.421   5.063 -0.8987 -0.3564  0.9986
 2165SOL     OW18127   1.243   3.066   2.052 -0.1264 -0.2744  0.0805
 2165SOL    HW118128   1.155   3.053   2.087  0.5572 -0.7372  1.6245
 2165SOL    HW218129   1.256   3.161   2.048  0.2623 -0.3615 -0.5472
 2166SOL     OW18130   2.988   2.323   5.212 -0.4365 -0.1180  0.6748
 2166SOL    HW118131   2.960   2.236   5.241 -1.6604  0.7431  2.0353
 2166SOL    HW218132   3.045   2.351   5.284  0.6600 -1.4141  0.3198
 2167SOL     OW18133   2.427   1.259   7.293  0.2246 -0.0053  1.0575
 2167SOL    HW118134   2.463   1.218   7.215  0.8517 -0.2925  1.4941
 2167SOL    HW218135   2.433   1.348   7.258  1.9626 -0.2575  0.7111
 2168SOL     OW18136   3.528   0.874   6.219  0.0182  0.3571 -0.3345
 2168SOL    HW118137   3.436   0.859   6.197  0.2462  0.9956 -1.7313
 2168SOL    HW218138   3.549   0.781   6.228 -2.2386  0.0117  1.4997
 2169SOL     OW18139   4.272   0.667   6.248 -0.2310 -0.3106 -0.2671
 2169SOL    HW118140   4.288   0.760   6.266  1.0348 -0.2397 -1.7490
 2169SOL    HW218141   4.204   0.635   6.308 -0.9892 -0.6830 -1.3392
 2170SOL     OW18142   4.061   1.694  14.641  0.2132 -0.1471 -0.0458
 2170SOL    HW118143   3.995   1.755  14.609  0.3069  0.5185  1.0742
 2170SOL    HW218144   4.042   1.618  14.585 -1.4029 -0.9926  1.6659
 2171SOL     OW18145   4.428   4.545   6.330  0.2570  0.2291  0.1105
 2171SOL    HW118146   4.436   4.453   6.356 -0.3475  0.0545 -0.3239
 2171SOL    HW218147   4.433   4.530   6.236  0.5620 -0.8012  0.2970
 2172SOL     OW18148   1.721   1.294   1.312 -0.1252  0.5304 -0.7883
 2172SOL    HW118149   1.764   1.319   1.230 -0.8572 -1.1875 -1.6929
 2172SOL    HW218150   1.646   1.247   1.277  1.4964 -1.7248 -1.2668
 2173SOL     OW18151   1.757   3.644   0.801  0.4363 -0.6378 -0.3421
 2173SOL    HW118152   1.792   3.729   0.773  0.1650  0.1382  1.6349
 2173SOL    HW218153   1.664   3.652   0.781  0.4536 -1.2564 -0.6611
 2174SOL     OW18154   0.615   0.231   9.761  0.2908 -0.0432 -0.4128
 2174SOL    HW118155   0.542   0.194   9.810 -0.9403 -0.6909 -2.7825
 2174SOL    HW218156   0.608   0.324   9.784 -1.5249  0.3173 -2.5041
 2175SOL     OW18157   0.509   3.817   6.408 -0.0662 -0.0685 -0.1447
 2175SOL    HW118158   0.564   3.851   6.479 -0.7975  0.4082  0.1920
 2175SOL    HW218159   0.429   3.813   6.460 -1.0946  1.4775 -1.5837
 2176SOL     OW18160   3.902   0.075  13.176 -0.3047  0.1172 -0.0758
 2176SOL    HW118161   3.857   0.142  13.228  0.1003  0.7223 -0.4924
 2176SOL    HW218162   3.992   0.106  13.191 -1.2477  2.3179  1.0119
 2177SOL     OW18163   0.060   0.835   5.171 -0.3569 -1.0622 -0.5264
 2177SOL    HW118164   0.036   0.762   5.228  0.6955 -1.7816 -1.0179
 2177SOL    HW218165   0.045   0.793   5.087 -0.3704  0.1326 -1.1193
 2178SOL     OW18166   3.041   4.236  12.773 -0.1188  0.4075 -0.1157
 2178SOL    HW118167   3.069   4.258  12.862  1.3395 -0.8673 -0.2621
 2178SOL    HW218168   3.022   4.324  12.742  2.1433  0.9706  0.1546
 2179SOL     OW18169   0.456   0.469  11.578  0.2590  0.9768 -0.0529
 2179SOL    HW118170   0.497   0.529  11.515  0.6904 -0.9133 -1.5602
 2179SOL    HW218171   0.476   0.384  11.539  1.9852  0.8641  1.0518
 2180SOL     OW18172   1.453   3.157   5.928  0.2169  0.0653 -0.4597
 2180SOL    HW118173   1.511   3.209   5.872 -0.1648  0.9672 -0.0135
 2180SOL    HW218174   1.489   3.188   6.011 -2.6514  0.0997  0.7685
 2181SOL     OW18175   4.723   4.411   5.508  0.1869 -0.2989  0.5043
 2181SOL    HW118176   0.015   4.499   5.487  0.2099 -0.3456  0.3433
 2181SOL    HW218177   0.003   4.364   5.427 -1.4430 -1.9536  1.0580
 2182SOL     OW18178   3.377   0.779   8.230 -0.3446 -0.0469  0.1418
 2182SOL    HW118179   3.435   0.850   8.259 -1.0761  0.8450 -0.5829
 2182SOL    HW218180   3.324   0.838   8.177  1.8361  0.5565 -1.3536
 2183SOL     OW18181   4.258   0.728   2.808  0.7789 -0.2627  0.6551
 2183SOL    HW118182   4.222   0.770   2.731  2.9330  0.2609 -0.0700
 2183SOL    HW218183   4.283   0.810   2.851 -0.4715 -0.0248  0.9095
 2184SOL     OW18184   1.915   1.396   0.264 -0.1521 -0.8434  0.0375
 2184SOL    HW118185   1.857   1.439   0.200 -0.7060  0.1121  1.1885
 2184SOL    HW218186   1.932   1.470   0.322  0.7926 -0.4119 -0.7821
 2185SOL     OW18187   2.581   2.521   3.689  0.4319  0.0524 -0.1264
 2185SOL    HW118188   2.637   2.455   3.730  1.2276  0.2102 -0.9546
 2185SOL    HW218189   2.547   2.466   3.617  0.5872  0.0840 -0.2235
 2186SOL     OW18190   0.010   3.022   1.452 -0.1303 -0.1588 -0.2285
 2186SOL    HW118191   0.042   2.993   1.537 -0.5679 -0.1867 -0.0711
 2186SOL    HW218192   4.655   3.028   1.458 -0.2597 -1.2505 -1.3271
 2187SOL     OW18193   2.080   0.959   5.863 -0.4556 -0.7720 -0.3211
 2187SOL    HW118194   2.150   0.984   5.802  0.8349 -2.8999  0.3283
 2187SOL    HW218195   2.015   0.929   5.799 -1.3053 -0.8551  0.5796
 2188SOL     OW18196   2.496   3.031   8.926  0.0996 -0.6582  0.3080
 2188SOL    HW118197   2.542   2.995   8.850  2.0550  0.2169  1.0787
 2188SOL    HW218198   2.406   3.013   8.898  1.4140 -0.2544 -4.1178
 2189SOL     OW18199   1.280   1.540  12.108 -0.7253 -0.7247  0.6421
 2189SOL    HW118200   1.248   1.595  12.037 -0.1770 -0.9330  0.2218
 2189SOL    HW218201   1.283   1.611  12.171 -1.7334  0.4886 -0.6804
 2190SOL     OW18202   1.622   0.494   5.172 -0.2124 -0.2833 -0.4509
 2190SOL    HW118203   1.607   0.400   5.161 -2.4935  0.1055 -0.7132
 2190SOL    HW218204   1.626   0.515   5.265 -0.5412 -2.5420  0.0673
 2191SOL     OW18205   1.331   0.900   5.531 -0.1244  0.2640 -0.3839
 2191SOL    HW118206   1.375   0.984   5.519 -1.7813  0.7623 -2.9280
 2191SOL    HW218207   1.302   0.883   5.441  2.5535  2.4221 -1.6480
 2192SOL     OW18208   2.346   4.416   8.704 -0.3195 -0.7168  0.4928
 2192SOL    HW118209   2.282   4.439   8.770 -0.7506  0.6733 -0.4037
 2192SOL    HW218210   2.325   4.477   8.633  2.6220  0.9847  1.0352
 2193SOL     OW18211   0.293   0.247  12.209 -0.1725 -0.0703  0.1208
 2193SOL    HW118212   0.349   0.294  12.146  1.0415 -0.8288  0.6468
 2193SOL    HW218213   0.276   0.320  12.268 -0.0009 -1.2212  1.6013
 2194SOL     OW18214   2.917   0.143   7.941  0.5310  0.3439 -0.5538
 2194SOL    HW118215   2.964   0.088   7.879  1.2677  0.8409 -0.4295
 2194SOL    HW218216   2.983   0.209   7.959  0.0283  0.5780  0.4776
 2195SOL     OW18217   4.489   3.996   6.113 -0.8055  0.4809  0.6066
 2195SOL    HW118218   4.578   4.021   6.089 -1.2162  1.0650 -0.3008
 2195SOL    HW218219   4.505   3.983   6.207  0.9362 -1.8945 -0.0078
 2196SOL     OW18220   1.056   1.817  16.543  0.4791  0.2116  0.2419
 2196SOL    HW118221   0.970   1.791  16.512  0.2607 -0.1608  1.1568
 2196SOL    HW218222   1.094   1.732  16.568 -0.7341 -0.1731  0.7619
 2197SOL     OW18223   4.325   2.032   2.495  0.1390 -0.6730 -0.1587
 2197SOL    HW118224   4.276   1.970   2.549 -0.1913 -0.3455 -0.0826
 2197SOL    HW218225   4.409   1.986   2.491  1.5258  2.2028 -3.3136
 2198SOL     OW18226   1.386   0.858   8.688 -0.6120 -0.2193 -0.4364
 2198SOL    HW118227   1.341   0.777   8.714  1.7825 -1.2072  0.6703
 2198SOL    HW218228   1.342   0.878   8.606 -0.5154  0.4801 -0.3169
 2199SOL     OW18229   3.790   3.137   6.997 -0.5180 -0.5367  0.0942
 2199SOL    HW118230   3.863   3.185   7.035 -1.5934  2.4511 -1.6601
 2199SOL    HW218231   3.720   3.149   7.060 -0.9596 -1.7844 -0.1451
 2200SOL     OW18232   1.760   3.110   8.492 -0.6842 -0.1576 -0.3257
 2200SOL    HW118233   1.743   3.097   8.398 -0.2017 -0.6139 -0.3527
 2200SOL    HW218234   1.731   3.198   8.514  1.9781  0.6017  0.1620
 2201SOL     OW18235   1.448   2.124   2.350  0.3816 -0.1290 -0.2107
 2201SOL    HW118236   1.519   2.163   2.401 -0.8461  1.8520 -0.0139
 2201SOL    HW218237   1.449   2.190   2.280  3.0621  0.6866  0.6042
 2202SOL     OW18238   4.127   1.166   5.420 -0.1239  0.7279  0.3907
 2202SOL    HW118239   4.212   1.205   5.436  0.5977 -1.3203  1.5972
 2202SOL    HW218240   4.089   1.233   5.363 -1.1589 -1.0198 -0.9929
 2203SOL     OW18241   1.026   2.814   7.357  0.1417  0.5501  0.6842
 2203SOL    HW118242   0.970   2.878   7.312 -0.6022 -0.5615  0.0136
 2203SOL    HW218243   0.997   2.738   7.307  0.0461 -0.2980  2.0432
 2204SOL     OW18244   0.578   1.030   3.329  0.3112  0.4174 -0.0962
 2204SOL    HW118245   0.539   0.960   3.277 -3.5051  2.7448 -0.3934
 2204SOL    HW218246   0.662   1.025   3.284  0.7607 -0.4189  0.8423
 2205SOL     OW18247   3.769   1.365  15.640  0.0044 -0.2058  0.6282
 2205SOL    HW118248   3.769   1.401  15.551 -2.3365 -1.0319  0.3077
 2205SOL    HW218249   3.837   1.298  15.637  1.2182  1.1095 -1.4058
 2206SOL     OW18250   1.808   1.572   0.078 -0.1599 -0.0829  0.1123
 2206SOL    HW118251   1.805   1.587  17.744 -1.2008  2.5616  0.5495
 2206SOL    HW218252   1.830   1.658   0.114 -0.4637  0.7308 -1.6078
 2207SOL     OW18253   4.200   1.346  10.513 -0.0359 -0.0956 -0.2409
 2207SOL    HW118254   4.231   1.332  10.424 -2.1813  0.5666 -1.0939
 2207SOL    HW218255   4.256   1.278  10.551 -0.5508 -0.5230 -0.2529
 2208SOL     OW18256   2.737   2.441   3.290 -0.1408  0.3994  0.1862
 2208SOL    HW118257   2.663   2.390   3.323  0.4450 -0.4381  0.2001
 2208SOL    HW218258   2.711   2.527   3.325 -0.6191  0.4084 -0.1916
 2209SOL     OW18259   2.792   2.337   4.290 -0.3682  0.6027 -0.0703
 2209SOL    HW118260   2.853   2.404   4.318  0.4700 -1.0372  2.0664
 2209SOL    HW218261   2.836   2.287   4.222 -2.3458 -1.6550  0.2954
 2210SOL     OW18262   3.783   4.011   4.801 -0.7049  0.0350 -0.2431
 2210SOL    HW118263   3.804   3.958   4.724 -1.1950 -0.0819 -0.2971
 2210SOL    HW218264   3.743   3.950   4.863  0.2478 -0.1560  0.1844
 2211SOL     OW18265   1.606   2.112   3.615  0.7116  0.0431  0.2239
 2211SOL    HW118266   1.552   2.034   3.628 -0.4397  0.9009  0.6061
 2211SOL    HW218267   1.656   2.113   3.697  0.5476  1.1696  0.3014
 2212SOL     OW18268   1.390   1.913   5.490 -0.3187  0.5214  0.0366
 2212SOL    HW118269   1.472   1.869   5.511 -0.0925  1.2857  0.7873
 2212SOL    HW218270   1.347   1.934   5.573 -3.7556 -0.9653 -1.3755
 2213SOL     OW18271   4.594   1.250  17.390  0.4268 -0.4242  0.2634
 2213SOL    HW118272   4.617   1.246  17.297 -1.3232  3.0569 -0.3328
 2213SOL    HW218273   4.628   1.333  17.422 -0.0425  0.0677 -0.4925
 2214SOL     OW18274   0.242   1.693   7.786 -0.1327  0.4470 -0.0594
 2214SOL    HW118275   0.197   1.637   7.849  1.6705  0.6909  1.4499
 2214SOL    HW218276   0.187   1.770   7.796 -1.6567 -0.5484 -0.8377
 2215SOL     OW18277   0.362   3.871   1.412 -0.3213  0.2076  0.3616
 2215SOL    HW118278   0.398   3.960   1.419 -0.4360  0.1053  2.2466
 2215SOL    HW218279   0.445   3.824   1.414  0.4166  1.4308 -1.3947
 2216SOL     OW18280   1.628   3.151  12.461 -0.0544  0.4716 -0.3532
 2216SOL    HW118281   1.535   3.161  12.481 -0.0616 -1.3349  0.5185
 2216SOL    HW218282   1.625   3.064  12.422 -0.3624  0.4307 -0.2361
 2217SOL     OW18283   1.603   0.317  17.119 -0.1500  0.1024 -0.0780
 2217SOL    HW118284   1.568   0.337  17.205  2.5236 -2.1594  1.5542
 2217SOL    HW218285   1.524   0.272  17.088 -0.2220 -0.3808  0.8058
 2218SOL     OW18286   0.518   3.092   6.763 -0.0323 -0.0748  0.7408
 2218SOL    HW118287   0.458   3.109   6.690  0.0971  3.4330  1.4217
 2218SOL    HW218288   0.561   3.176   6.778 -0.0152 -0.0580  0.5950
 2219SOL     OW18289   3.836   0.524   4.195  0.2210  0.2146 -0.0199
 2219SOL    HW118290   3.882   0.514   4.278 -0.4699  1.2141  0.4871
 2219SOL    HW218291   3.869   0.450   4.143  0.0821 -1.0905  1.7366
 2220SOL     OW18292   2.528   0.413   1.841  0.1833 -0.2404  0.8003
 2220SOL    HW118293   2.603   0.392   1.896 -0.0419 -0.3273  1.0770
 2220SOL    HW218294   2.531   0.509   1.839 -0.0541 -0.2360  0.5622
 2221SOL     OW18295   3.089   0.390   2.297  0.0468  0.0275  0.2921
 2221SOL    HW118296   3.047   0.473   2.278  1.0930  1.1117  2.7586
 2221SOL    HW218297   3.151   0.390   2.224 -0.2717  0.1837  0.0214
 2222SOL     OW18298   0.502   2.519   8.729 -0.2394  0.0642  0.0127
 2222SOL    HW118299   0.464   2.601   8.697  0.7598  0.0069 -1.3457
 2222SOL    HW218300   0.586   2.517   8.683 -0.9194 -0.4095 -1.2035
 2223SOL     OW18301   4.023   3.058   4.005  0.2337 -0.2157 -0.0695
 2223SOL    HW118302   3.960   3.074   3.935 -1.8987 -0.8907  1.6768
 2223SOL    HW218303   4.050   3.149   3.999  0.4933 -0.3995 -1.4790
 2224SOL     OW18304   3.712   2.353  15.418  0.6045 -0.2440 -0.6617
 2224SOL    HW118305   3.788   2.299  15.437  0.8411  0.5277  0.6383
 2224SOL    HW218306   3.740   2.366  15.327 -1.3317  1.3246 -1.0372
 2225SOL     OW18307   1.134   2.334   9.150  0.3784 -0.0456 -0.2226
 2225SOL    HW118308   1.051   2.292   9.174 -0.6457  2.2612  0.2578
 2225SOL    HW218309   1.138   2.309   9.058  1.2840  0.0829 -0.2217
 2226SOL     OW18310   2.774   4.154   0.636 -0.4658 -0.3298  0.2140
 2226SOL    HW118311   2.860   4.155   0.596 -0.7098  1.8107 -0.2533
 2226SOL    HW218312   2.772   4.066   0.674  0.7406 -0.1759  0.6170
 2227SOL     OW18313   3.715   3.703   1.234  0.1187 -0.1118 -0.1691
 2227SOL    HW118314   3.798   3.688   1.281 -0.3016 -2.4349 -0.1444
 2227SOL    HW218315   3.710   3.798   1.227  3.0716  0.0088 -0.8172
 2228SOL     OW18316   4.620   2.865  12.906  0.5065  0.5993 -0.4437
 2228SOL    HW118317   4.701   2.888  12.952  0.9836  1.8414 -1.9020
 2228SOL    HW218318   4.663   2.804  12.847 -0.5851 -1.9123  1.3434
 2229SOL     OW18319   2.160   4.724  15.115 -0.4869 -0.4555  0.2188
 2229SOL    HW118320   2.122   4.637  15.111  0.1267 -0.6690 -0.9162
 2229SOL    HW218321   2.121   0.032  15.188 -0.5422  0.1672 -0.2201
 2230SOL     OW18322   2.285   1.185   2.186  0.4627 -0.5235 -0.4024
 2230SOL    HW118323   2.194   1.156   2.197 -0.0716  1.0166 -0.8789
 2230SOL    HW218324   2.332   1.121   2.240 -0.2072 -1.6745 -1.1838
 2231SOL     OW18325   1.770   1.062   6.737 -0.2294 -0.0317 -0.4952
 2231SOL    HW118326   1.818   1.028   6.661 -0.6091 -0.8286 -0.3786
 2231SOL    HW218327   1.844   1.100   6.785 -1.2852  0.7725  0.5113
 2232SOL     OW18328   3.959   4.310   1.933  0.0552  0.0038  0.1766
 2232SOL    HW118329   3.887   4.253   1.907  1.3026 -1.3827 -0.1959
 2232SOL    HW218330   4.036   4.255   1.928 -0.1467 -0.5778  3.4654
 2233SOL     OW18331   3.701   3.683   7.631  0.2995 -1.2039 -0.0533
 2233SOL    HW118332   3.751   3.607   7.661  1.7251 -0.5036 -0.6501
 2233SOL    HW218333   3.622   3.643   7.595 -0.2391 -0.8811  0.7538
 2234SOL     OW18334   1.098   1.189   7.477  0.2911 -0.0482 -0.3534
 2234SOL    HW118335   1.157   1.123   7.441  0.1497 -0.6319  0.4724
 2234SOL    HW218336   1.085   1.237   7.396 -2.5064  1.1357  0.8144
 2235SOL     OW18337   2.457   3.411   6.222 -0.2335 -0.3657  0.3952
 2235SOL    HW118338   2.479   3.494   6.179 -2.3949  0.1751  0.3355
 2235SOL    HW218339   2.439   3.446   6.309 -1.4998 -1.4290  0.5494
 2236SOL     OW18340   1.507   1.842   1.819 -0.0861 -0.0519 -0.5432
 2236SOL    HW118341   1.511   1.868   1.911  1.5956  0.9118 -0.9027
 2236SOL    HW218342   1.569   1.910   1.794  0.0761  0.5808  1.5571
 2237SOL     OW18343   4.410   1.657   3.729  0.2204 -0.2342 -0.4125
 2237SOL    HW118344   4.495   1.673   3.769 -0.0548  1.4098 -0.5106
 2237SOL    HW218345   4.417   1.565   3.702  0.2804  0.0790 -1.4602
 2238SOL     OW18346   0.825   0.132  11.825 -0.1344 -0.1646 -0.3462
 2238SOL    HW118347   0.871   0.171  11.899 -0.1295 -3.4993  1.4098
 2238SOL    HW218348   0.899   0.105  11.771  1.4060  1.5261  0.9442
 2239SOL     OW18349   1.060   0.517   2.957  0.2818 -0.0030  0.3370
 2239SOL    HW118350   1.099   0.430   2.965 -2.5965 -1.4438 -1.2129
 2239SOL    HW218351   1.038   0.538   3.048  1.9656  4.1816 -0.1927
 2240SOL     OW18352   2.519   1.772   6.475  0.5483  0.2212  0.9513
 2240SOL    HW118353   2.453   1.812   6.418  0.4042 -2.3115 -0.6367
 2240SOL    HW218354   2.595   1.790   6.420 -0.0423 -0.3358 -0.0469
 2241SOL     OW18355   1.851   1.045   1.997  0.1902 -0.3217 -0.4126
 2241SOL    HW118356   1.800   1.108   1.945 -0.8962 -1.2030 -0.4122
 2241SOL    HW218357   1.911   1.009   1.932 -1.0136 -1.4386 -0.8920
 2242SOL     OW18358   3.592   4.548   9.083 -0.1304 -0.3493  0.2985
 2242SOL    HW118359   3.625   4.476   9.136  1.1803  1.4221  1.8828
 2242SOL    HW218360   3.512   4.548   9.136 -0.7057 -0.4408 -0.5707
 2243SOL     OW18361   1.341   1.509   6.927  0.1010  0.2462  0.1433
 2243SOL    HW118362   1.265   1.450   6.933  0.8785 -0.7062  0.5851
 2243SOL    HW218363   1.344   1.511   6.832  0.8890 -2.5449  0.1109
 2244SOL     OW18364   0.399   2.606   7.117  0.3462  0.1595 -0.3298
 2244SOL    HW118365   0.407   2.510   7.118 -0.1135  0.1133 -1.2395
 2244SOL    HW218366   0.404   2.612   7.022  1.4236 -1.8451 -0.3994
 2245SOL     OW18367   3.149   3.937   3.436 -0.8040  0.0864  0.3276
 2245SOL    HW118368   3.177   3.942   3.527  0.1866 -0.6694  0.0647
 2245SOL    HW218369   3.150   4.030   3.413 -1.1899 -0.1353 -0.6053
 2246SOL     OW18370   4.067   1.550   4.600 -0.2795 -0.4329 -0.5211
 2246SOL    HW118371   3.998   1.596   4.552 -0.7471 -1.1092 -0.4975
 2246SOL    HW218372   4.109   1.628   4.637 -0.3941  0.1024 -1.5098
 2247SOL     OW18373   4.438   1.680   7.464  0.1529  0.0961 -0.4435
 2247SOL    HW118374   4.475   1.640   7.543  0.9718  1.8432  0.0647
 2247SOL    HW218375   4.370   1.618   7.440  0.8817 -2.0737  3.0952
 2248SOL     OW18376   3.422   0.520   3.447  0.0956  0.4058  0.1585
 2248SOL    HW118377   3.412   0.522   3.543 -0.1186  1.3209  0.1112
 2248SOL    HW218378   3.329   0.521   3.425  0.5128 -0.4641 -1.5884
 2249SOL     OW18379   0.191   3.278   2.777 -0.0894 -0.2929 -0.0376
 2249SOL    HW118380   0.184   3.301   2.685  1.9365 -0.5244 -0.2550
 2249SOL    HW218381   0.096   3.282   2.791 -0.1000 -0.1771 -0.1422
 2250SOL     OW18382   3.583   3.543   4.026 -0.3265 -0.0383  0.3715
 2250SOL    HW118383   3.490   3.563   4.042  0.2214  2.2951  0.6315
 2250SOL    HW218384   3.619   3.626   3.996 -1.8083  0.7322  0.7250
 2251SOL     OW18385   0.331   0.645   3.184 -0.1124 -0.1881  0.7159
 2251SOL    HW118386   0.352   0.556   3.212  0.9894 -0.6431 -1.5293
 2251SOL    HW218387   0.415   0.666   3.143 -0.4785  0.6329  0.3911
 2252SOL     OW18388   1.870   3.344   7.902 -0.6040  0.5490 -1.1704
 2252SOL    HW118389   1.818   3.270   7.933  1.5799 -1.0300 -1.3358
 2252SOL    HW218390   1.940   3.286   7.871 -0.8864 -0.6844  0.4989
 2253SOL     OW18391   4.465   0.716   8.761  0.1991 -0.7109 -0.2498
 2253SOL    HW118392   4.413   0.772   8.703  1.4636 -0.1741 -0.8619
 2253SOL    HW218393   4.440   0.631   8.726 -3.0246 -0.2909  1.0167
 2254SOL     OW18394   3.605   3.904   2.805  0.1260  0.3408 -0.0796
 2254SOL    HW118395   3.614   3.962   2.729  0.4623  0.7622  0.2834
 2254SOL    HW218396   3.664   3.944   2.868  1.1186  2.8262 -2.6095
 2255SOL     OW18397   1.332   1.326   6.586  0.4347  0.1722 -0.0945
 2255SOL    HW118398   1.407   1.284   6.628  0.9939  0.3684 -0.8809
 2255SOL    HW218399   1.340   1.415   6.619 -1.4298  0.3985 -0.2196
 2256SOL     OW18400   3.780   0.973  16.887 -0.8708  0.1000 -0.5099
 2256SOL    HW118401   3.770   0.921  16.808 -3.4470  2.0191 -1.4376
 2256SOL    HW218402   3.870   1.006  16.877  0.0743 -1.6013  2.2967
 2257SOL     OW18403   2.157   0.282  17.613 -0.2454  0.1654  0.0835
 2257SOL    HW118404   2.102   0.358  17.631  1.0067  1.6006 -2.2328
 2257SOL    HW218405   2.165   0.227  17.691 -1.9505 -1.9110 -1.2088
 2258SOL     OW18406   0.639   3.020   9.771  0.2665  0.1862  0.2914
 2258SOL    HW118407   0.617   2.944   9.716 -1.3727 -0.5693  1.9976
 2258SOL    HW218408   0.665   2.963   9.843 -0.1921  0.9782  1.0718
 2259SOL     OW18409   1.816   0.033   4.499 -0.4365 -0.0477  0.9906
 2259SOL    HW118410   1.721   0.027   4.496 -0.4624  0.0457  1.8146
 2259SOL    HW218411   1.841   4.690   4.538  3.0932  0.0664 -0.9931
 2260SOL     OW18412   4.583   3.545   3.937 -0.2597  0.2721 -0.1807
 2260SOL    HW118413   4.553   3.572   3.850 -1.4336 -0.5026 -0.0017
 2260SOL    HW218414   4.515   3.591   3.986 -0.3993 -0.2457  0.1048
 2261SOL     OW18415   2.455   1.785   3.682  0.5799  0.4166 -0.1328
 2261SOL    HW118416   2.482   1.799   3.773  3.8755 -0.6798 -0.9204
 2261SOL    HW218417   2.537   1.771   3.634 -0.5561  0.0305 -1.9624
 2262SOL     OW18418   3.403   3.547   5.294  0.0209  0.3054  0.4614
 2262SOL    HW118419   3.449   3.629   5.276 -0.3217  0.2834 -0.5663
 2262SOL    HW218420   3.460   3.497   5.352 -0.1668  1.5956  1.7627
 2263SOL     OW18421   2.329   3.618   3.655 -0.4157  0.2986  0.6277
 2263SOL    HW118422   2.295   3.586   3.572  0.6471 -0.0799  0.3385
 2263SOL    HW218423   2.334   3.713   3.649  1.4752  0.1662  0.3903
 2264SOL     OW18424   2.179   0.187   0.113 -0.3778  0.0902 -0.2299
 2264SOL    HW118425   2.137   0.148   0.189  0.8349  3.2338  2.0334
 2264SOL    HW218426   2.256   0.130   0.110  0.8753  1.6653  1.9399
 2265SOL     OW18427   0.752   1.939   5.020 -0.3572  0.5029  0.4190
 2265SOL    HW118428   0.731   1.851   5.051  1.9554 -1.0807 -2.5469
 2265SOL    HW218429   0.720   1.933   4.930 -0.6023 -2.1983  0.6851
 2266SOL     OW18430   1.754   0.825  13.779  0.4190  0.0768 -0.0646
 2266SOL    HW118431   1.691   0.895  13.794  2.2325  1.2383  2.1511
 2266SOL    HW218432   1.760   0.791  13.868 -0.2135  3.7978  1.4175
 2267SOL     OW18433   4.368   4.403   7.969  0.4264 -0.6540  0.2638
 2267SOL    HW118434   4.351   4.380   8.060  2.8134 -2.5427  0.2491
 2267SOL    HW218435   4.389   4.315   7.939  0.1929 -1.3200  2.0761
 2268SOL     OW18436   2.316   0.810  14.707  0.0034 -0.4080  0.3173
 2268SOL    HW118437   2.237   0.797  14.655  0.8946 -1.5819 -0.7229
 2268SOL    HW218438   2.280   0.843  14.790 -0.1065 -1.3030  0.6180
 2269SOL     OW18439   1.506   3.613   8.484  0.3987  0.0439  0.0044
 2269SOL    HW118440   1.547   3.699   8.483  1.6849 -0.5715 -0.3253
 2269SOL    HW218441   1.422   3.634   8.523  0.5531  0.5341  0.0705
 2270SOL     OW18442   0.922   2.684   0.233  0.2664 -0.6654  0.1212
 2270SOL    HW118443   0.830   2.679   0.259  1.1419 -1.9570  3.0577
 2270SOL    HW218444   0.942   2.774   0.259 -1.8205 -0.5411  1.3062
 2271SOL     OW18445   2.966   0.654   5.620  0.1788  0.0947 -0.7764
 2271SOL    HW118446   3.061   0.657   5.629  0.3137  1.7262 -2.8353
 2271SOL    HW218447   2.947   0.619   5.707 -0.0787  1.5207 -0.2720
 2272SOL     OW18448   3.218   2.954   5.122  0.0465 -0.1662  0.3098
 2272SOL    HW118449   3.194   2.926   5.033  2.0497  2.0080 -0.9299
 2272SOL    HW218450   3.168   2.898   5.181 -0.4466 -0.9081 -0.7995
 2273SOL     OW18451   2.762   3.574   6.790 -0.3320  0.0822  0.0443
 2273SOL    HW118452   2.715   3.645   6.747 -0.2563  0.8576  1.2321
 2273SOL    HW218453   2.729   3.507   6.730  2.6887 -1.5756  0.2381
 2274SOL     OW18454   1.241   0.764   6.322  0.4268  0.5364  0.2589
 2274SOL    HW118455   1.172   0.820   6.359  0.8731  0.2423  1.5466
 2274SOL    HW218456   1.178   0.695   6.302  0.2275  1.4540 -2.2434
 2275SOL     OW18457   2.928   4.369   9.026  0.0143  0.0505  0.0814
 2275SOL    HW118458   2.947   4.425   8.951 -0.9395 -0.5736 -0.6246
 2275SOL    HW218459   2.842   4.400   9.053 -0.4313 -2.0475  1.0658
 2276SOL     OW18460   0.299   0.408   6.706 -0.4968  0.1054 -0.5152
 2276SOL    HW118461   0.334   0.341   6.765 -1.7954  1.6738  2.0145
 2276SOL    HW218462   0.231   0.360   6.658 -1.8341  2.2005 -0.6818
 2277SOL     OW18463   1.073   1.078   5.121  0.4351 -0.2185  0.5198
 2277SOL    HW118464   1.167   1.059   5.122  0.5210  0.0068 -3.8291
 2277SOL    HW218465   1.043   1.064   5.211  2.7346 -1.1980  1.1189
 2278SOL     OW18466   3.204   0.241  13.367  0.5257  0.3285  0.4442
 2278SOL    HW118467   3.224   0.329  13.399 -1.0124  0.9512 -0.3338
 2278SOL    HW218468   3.156   0.212  13.444  0.7146  1.7825  1.1044
 2279SOL     OW18469   2.338   3.610  13.341 -0.3189  0.6733  0.2132
 2279SOL    HW118470   2.397   3.678  13.373  0.0215  0.5382 -0.1339
 2279SOL    HW218471   2.254   3.628  13.384  0.1807  2.8172  0.2703
 2280SOL     OW18472   1.476   0.866   6.382 -0.1980 -0.2794 -0.4050
 2280SOL    HW118473   1.395   0.816   6.371 -2.6330  3.0145  2.7891
 2280SOL    HW218474   1.455   0.927   6.453  0.3276  0.9972 -1.3652
 2281SOL     OW18475   1.099   2.453   9.713 -0.3304 -0.4557 -0.1688
 2281SOL    HW118476   1.188   2.440   9.680 -0.0401  2.1362 -0.4108
 2281SOL    HW218477   1.053   2.378   9.676 -0.0473 -1.3575  1.3084
 2282SOL     OW18478   4.079   0.104   8.765  0.3730  0.1543 -0.2239
 2282SOL    HW118479   4.017   0.167   8.802 -0.4762 -0.1710 -1.1204
 2282SOL    HW218480   4.066   0.029   8.823 -1.6898  1.0250  0.4523
 2283SOL     OW18481   4.124   4.654   8.980  0.0104 -0.1741  0.4988
 2283SOL    HW118482   4.091   4.633   9.067 -1.5564 -1.0844 -0.3104
 2283SOL    HW218483   4.093   4.583   8.924 -0.1014 -0.4184  0.8709
 2284SOL     OW18484   3.582   4.075   3.921  0.0606  0.3134  0.2659
 2284SOL    HW118485   3.573   4.117   3.835 -2.0190  0.8784  0.7590
 2284SOL    HW218486   3.518   4.128   3.969  0.3947  0.3743  0.6404
 2285SOL     OW18487   3.675   0.684   6.644 -0.6830  0.0828  0.7245
 2285SOL    HW118488   3.706   0.759   6.594  2.5004 -0.9663  1.1164
 2285SOL    HW218489   3.588   0.689   6.604 -1.8658  0.0919  3.3556
 2286SOL     OW18490   2.245   0.855   8.254  0.6067 -0.3573 -0.3516
 2286SOL    HW118491   2.286   0.930   8.209  1.0594 -1.6350 -2.0666
 2286SOL    HW218492   2.312   0.792   8.225 -0.0382 -0.4372 -1.6706
 2287SOL     OW18493   1.076   1.733   1.991  0.1189  0.5012  0.2441
 2287SOL    HW118494   1.123   1.690   1.919 -0.0976  0.0221  0.3906
 2287SOL    HW218495   1.013   1.789   1.944 -0.6025 -0.9064 -0.4480
 2288SOL     OW18496   4.289   1.565   0.415 -0.0725  0.3479 -0.1252
 2288SOL    HW118497   4.354   1.558   0.346  0.3147 -4.4108  0.7514
 2288SOL    HW218498   4.260   1.474   0.411 -0.4003  0.4754 -0.5809
 2289SOL     OW18499   4.132   2.475   8.778 -0.8218  0.0310 -0.0158
 2289SOL    HW118500   4.172   2.410   8.720 -0.5322  0.4336 -0.2584
 2289SOL    HW218501   4.143   2.434   8.864 -1.8401  0.5950  0.3750
 2290SOL     OW18502   4.740   0.831   1.658 -0.0177  0.2384  0.6615
 2290SOL    HW118503   4.669   0.875   1.611 -0.1948  0.8026  1.4491
 2290SOL    HW218504   4.714   0.745   1.624  0.0511  0.6792 -0.4698
 2291SOL     OW18505   1.371   2.370   4.390  0.1095 -0.0440  0.3234
 2291SOL    HW118506   1.354   2.278   4.410 -0.1994 -0.3574 -1.3905
 2291SOL    HW218507   1.396   2.377   4.297 -3.6563 -1.5865 -0.7819
 2292SOL     OW18508   3.676   2.751   5.540 -0.2071 -0.0672  0.2705
 2292SOL    HW118509   3.740   2.762   5.470  0.5041  1.0667  1.0981
 2292SOL    HW218510   3.605   2.785   5.486  0.5947  2.5355  0.8423
 2293SOL     OW18511   2.951   0.229  14.708  0.1465 -0.3086  0.3757
 2293SOL    HW118512   2.968   0.318  14.677 -3.1481  0.4568  0.8397
 2293SOL    HW218513   3.025   0.218  14.768  1.8963  0.3790 -1.6444
 2294SOL     OW18514   2.038   4.653   8.106  0.9280  0.4993 -0.6642
 2294SOL    HW118515   2.130   4.629   8.114  0.7529  0.3505  0.8530
 2294SOL    HW218516   2.011   4.670   8.196  2.2862  0.1558 -0.2020
 2295SOL     OW18517   1.825   2.011   1.499  0.0595 -0.4050 -0.2222
 2295SOL    HW118518   1.792   2.101   1.506  1.9285  0.4852 -2.5804
 2295SOL    HW218519   1.798   1.991   1.409  0.0813 -0.0549 -0.3059
 2296SOL     OW18520   3.231   4.738   8.546  0.3951 -0.4135 -0.7103
 2296SOL    HW118521   3.313   4.723   8.592 -0.5806 -0.1318  1.0913
 2296SOL    HW218522   3.223   0.090   8.569  0.3800 -0.7007  0.4394
 2297SOL     OW18523   0.836   2.979  14.281  0.0217 -0.1958 -0.0547
 2297SOL    HW118524   0.854   3.015  14.368 -0.8078 -3.0318  1.3073
 2297SOL    HW218525   0.775   2.908  14.302  1.2380 -1.4195 -0.6169
 2298SOL     OW18526   4.082   1.623   8.556 -0.2040  0.0436 -0.1246
 2298SOL    HW118527   4.002   1.571   8.558 -0.2598  0.1199 -0.4403
 2298SOL    HW218528   4.053   1.714   8.560 -0.4514 -0.0393 -0.0357
 2299SOL     OW18529   0.688   1.767   1.583 -0.2648 -0.5409  0.3202
 2299SOL    HW118530   0.617   1.777   1.647 -0.3563  1.0708 -0.0393
 2299SOL    HW218531   0.749   1.837   1.605 -2.2131  1.0568  0.5785
 2300SOL     OW18532   1.188   0.511  16.759  0.4452 -0.0923  0.5443
 2300SOL    HW118533   1.267   0.564  16.748  1.6879 -2.0523  0.0604
 2300SOL    HW218534   1.224   0.422  16.761 -1.2614 -0.8160 -0.4964
 2301SOL     OW18535   3.317   1.648   3.590  0.1831 -0.1020 -0.1937
 2301SOL    HW118536   3.297   1.652   3.497  0.7133  0.9829 -0.2537
 2301SOL    HW218537   3.230   1.668   3.625 -0.2197  2.1155 -2.4622
 2302SOL     OW18538   0.547   3.542   8.206 -0.5051 -0.8015 -0.4334
 2302SOL    HW118539   0.602   3.534   8.283 -0.5675  1.0823 -0.1981
 2302SOL    HW218540   0.570   3.631   8.181 -0.1637 -0.5608  0.7371
 2303SOL     OW18541   3.118   0.736   4.272 -0.6258 -0.6291 -0.1045
 2303SOL    HW118542   3.133   0.822   4.233  0.1210 -1.4898 -1.6961
 2303SOL    HW218543   3.066   0.692   4.204 -2.7356  0.4655  0.7973
 2304SOL     OW18544   2.899   2.251   7.498  0.2360  0.2240  0.4144
 2304SOL    HW118545   2.910   2.157   7.513 -2.9448 -0.4560 -1.5637
 2304SOL    HW218546   2.989   2.283   7.509  1.1019 -1.9968 -0.2423
 2305SOL     OW18547   0.499   0.656   6.742 -0.1406 -0.4221 -0.2412
 2305SOL    HW118548   0.510   0.648   6.836  0.9698  0.7990 -0.2605
 2305SOL    HW218549   0.408   0.627   6.737  0.5314 -2.5186 -0.2735
 2306SOL     OW18550   3.771   0.265  11.316  0.0013 -0.1559 -0.0802
 2306SOL    HW118551   3.860   0.293  11.298 -0.2231  0.9402  0.5282
 2306SOL    HW218552   3.762   0.192  11.254 -0.4294 -0.7241  0.6403
 2307SOL     OW18553   1.087   3.190   2.522  0.1409 -0.0828 -0.1005
 2307SOL    HW118554   1.078   3.102   2.558 -1.8598 -0.8215 -2.3923
 2307SOL    HW218555   1.001   3.229   2.538  0.7783  1.5936 -0.7858
 2308SOL     OW18556   0.422   3.367   4.408 -0.4007  0.8068 -0.3494
 2308SOL    HW118557   0.443   3.341   4.318 -1.2355 -2.6798  0.4557
 2308SOL    HW218558   0.506   3.358   4.453 -0.4382 -2.0023 -0.8752
 2309SOL     OW18559   4.155   1.692   2.396 -0.0351 -0.1787  0.2453
 2309SOL    HW118560   4.143   1.746   2.317  2.0251 -1.9027 -1.2674
 2309SOL    HW218561   4.129   1.746   2.471 -0.3132  0.6721 -0.4631
 2310SOL     OW18562   2.577   3.414   8.856  0.5923  0.3912  0.1874
 2310SOL    HW118563   2.603   3.440   8.945  1.8207 -1.5001  0.3950
 2310SOL    HW218564   2.528   3.490   8.827 -2.6119 -0.9809  2.0552
 2311SOL     OW18565   0.428   3.479   1.431 -0.3773 -0.5043  0.3325
 2311SOL    HW118566   0.468   3.566   1.438 -2.5390  0.6631 -1.6146
 2311SOL    HW218567   0.337   3.495   1.406 -0.0043 -0.2836 -0.8583
 2312SOL     OW18568   3.274   3.308   9.703  0.4341 -0.1963  0.0461
 2312SOL    HW118569   3.349   3.367   9.709 -0.2410  0.8309 -1.5039
 2312SOL    HW218570   3.309   3.220   9.720 -0.3194 -0.1313  1.8177
 2313SOL     OW18571   2.503   3.425   1.603  0.1858 -0.2388 -0.7756
 2313SOL    HW118572   2.556   3.377   1.666 -0.2587  1.0334  0.5684
 2313SOL    HW218573   2.475   3.367   1.533 -2.1847 -1.6984  1.3728
 2314SOL     OW18574   2.244   0.407   5.403 -0.0843 -0.8429  0.4202
 2314SOL    HW118575   2.280   0.416   5.491  0.5834  0.2103  0.0340
 2314SOL    HW218576   2.310   0.345   5.372  0.7283 -1.2249  2.9062
 2315SOL     OW18577   2.278   0.823   4.890  0.1199  0.0528  0.5996
 2315SOL    HW118578   2.240   0.852   4.807  1.0372  0.0867  0.1852
 2315SOL    HW218579   2.208   0.766   4.919  0.8680 -0.3884  1.5262
 2316SOL     OW18580   1.735   2.788   1.576  0.6769  0.0646 -0.0121
 2316SOL    HW118581   1.773   2.837   1.504 -0.9985  0.2229 -0.7857
 2316SOL    HW218582   1.748   2.847   1.650 -0.3034  0.8828 -0.4980
 2317SOL     OW18583   3.595   0.599   9.178  0.0471  0.3175 -0.1461
 2317SOL    HW118584   3.566   0.604   9.087 -1.0639 -0.6694  0.1526
 2317SOL    HW218585   3.686   0.572   9.161  0.0427  0.9556 -1.1892
 2318SOL     OW18586   1.809   2.796   7.887  0.1002  0.5836 -0.0098
 2318SOL    HW118587   1.819   2.702   7.902 -0.2589  0.7460  1.3072
 2318SOL    HW218588   1.751   2.826   7.957  1.1452 -0.0498  1.1157
 2319SOL     OW18589   2.010   0.929   1.807  0.0413 -0.5091  0.2920
 2319SOL    HW118590   2.042   0.866   1.871 -0.2293  0.4896  1.4187
 2319SOL    HW218591   2.017   0.870   1.732 -2.5114  0.5678 -0.8069
 2320SOL     OW18592   0.200   4.057   7.801  0.0115  0.3729 -0.3349
 2320SOL    HW118593   0.191   3.962   7.791  0.9257  0.2934 -0.4279
 2320SOL    HW218594   0.208   4.092   7.712  0.4840 -1.3289 -0.9471
 2321SOL     OW18595   3.897   3.060   8.120 -0.0685 -0.2106 -0.0973
 2321SOL    HW118596   3.981   3.016   8.136  0.3580  0.1780 -1.3157
 2321SOL    HW218597   3.853   2.983   8.083 -3.1634  0.1890  2.6727
 2322SOL     OW18598   0.106   0.002   9.005 -0.1952  0.3658 -0.4892
 2322SOL    HW118599   0.132   0.095   9.003 -0.2108  0.3711 -0.4548
 2322SOL    HW218600   0.109   4.728   9.099  2.0448 -0.7650 -0.7333
 2323SOL     OW18601   4.675   1.016   9.412 -0.1387 -0.0168 -0.3384
 2323SOL    HW118602   4.648   0.929   9.440 -0.9365  1.0161  2.1154
 2323SOL    HW218603   0.000   0.983   9.351 -1.1942 -0.3856 -1.2646
 2324SOL     OW18604   2.961   3.701  13.333  0.6231 -0.3108 -0.5402
 2324SOL    HW118605   2.898   3.771  13.351 -0.5829 -1.0274 -1.9013
 2324SOL    HW218606   2.952   3.692  13.238 -1.5284  0.2820 -0.3997
 2325SOL     OW18607   3.753   2.307   8.343 -0.8096  0.1628 -0.2871
 2325SOL    HW118608   3.712   2.336   8.425  2.7247  2.5520  0.6677
 2325SOL    HW218609   3.845   2.308   8.371 -1.4262 -2.5680  1.7732
 2326SOL     OW18610   3.383   2.475  15.167 -0.1602  0.0086  0.1490
 2326SOL    HW118611   3.343   2.389  15.181 -0.4242 -0.2242 -2.0994
 2326SOL    HW218612   3.323   2.504  15.099 -1.3927  1.2250  1.7549
 2327SOL     OW18613   1.746   2.638   2.402 -0.3767  0.5344 -0.2911
 2327SOL    HW118614   1.827   2.687   2.386 -1.0528  1.5234 -0.7107
 2327SOL    HW218615   1.709   2.683   2.478  2.1880 -1.5207  2.1811
 2328SOL     OW18616   4.435   1.470   4.339 -0.3106  0.0786  0.4935
 2328SOL    HW118617   4.389   1.454   4.422 -1.0172  0.1818  0.1244
 2328SOL    HW218618   4.382   1.547   4.318 -1.9942 -1.1362  0.2208
 2329SOL     OW18619   0.886   3.303   5.979  0.3289 -0.3749  0.2140
 2329SOL    HW118620   0.830   3.254   5.918 -0.7185  2.4178 -1.0355
 2329SOL    HW218621   0.941   3.348   5.915  0.8968  1.8930  2.3545
 2330SOL     OW18622   3.069   3.804   7.087  0.1074 -0.5558  0.1690
 2330SOL    HW118623   3.099   3.713   7.083 -1.1362 -0.9861  0.6559
 2330SOL    HW218624   2.979   3.793   7.117 -0.2315 -0.7635 -0.9020
 2331SOL     OW18625   2.695   2.400  13.082 -0.0650 -0.0243  0.2286
 2331SOL    HW118626   2.687   2.365  13.171 -2.7316 -0.8056 -0.3301
 2331SOL    HW218627   2.765   2.348  13.043 -1.3696 -1.3567 -0.3281
 2332SOL     OW18628   3.263   0.587   2.738  0.0672  0.0730  0.0559
 2332SOL    HW118629   3.193   0.523   2.750 -0.2573  0.3693 -0.2445
 2332SOL    HW218630   3.297   0.552   2.655  0.8290 -1.4311  1.0194
 2333SOL     OW18631   0.004   2.112  11.119  0.6949 -0.8895 -0.1464
 2333SOL    HW118632   4.660   2.137  11.157  0.0275 -0.7963 -1.7124
 2333SOL    HW218633   0.043   2.198  11.099 -4.5765  1.9171  1.7178
 2334SOL     OW18634   1.574   1.555  15.082 -0.1134  0.4456  0.2004
 2334SOL    HW118635   1.504   1.543  15.018 -1.0501 -0.1649  1.3277
 2334SOL    HW218636   1.582   1.651  15.082 -1.2160  0.5462  0.7895
 2335SOL     OW18637   4.627   2.455   2.247 -0.2698 -0.0832  0.7521
 2335SOL    HW118638   4.559   2.470   2.311 -2.0836 -0.7743 -1.0144
 2335SOL    HW218639   4.667   2.540   2.227 -0.4678 -0.5821 -1.7178
 2336SOL     OW18640   0.538   1.463   8.197  0.4002 -0.5085  0.5535
 2336SOL    HW118641   0.572   1.377   8.223  0.8270 -0.6396 -0.4372
 2336SOL    HW218642   0.571   1.521   8.266  1.1276  0.8210 -0.9253
 2337SOL     OW18643   4.396   0.203  16.697  0.3311 -0.1621 -0.2458
 2337SOL    HW118644   4.333   0.182  16.766 -1.3133 -1.4568 -2.1353
 2337SOL    HW218645   4.392   0.297  16.714  0.3844 -0.4992  1.5984
 2338SOL     OW18646   1.819   4.299   1.680  0.3698 -0.3538 -0.1585
 2338SOL    HW118647   1.742   4.290   1.736  0.8216 -0.9255  0.3646
 2338SOL    HW218648   1.765   4.310   1.602 -0.4270 -0.3850  0.3890
 2339SOL     OW18649   3.814   3.674   6.230  0.0599  0.0355 -0.3663
 2339SOL    HW118650   3.876   3.744   6.245  0.7592 -0.9006  1.0229
 2339SOL    HW218651   3.840   3.619   6.303 -0.6760  0.8608  0.5060
 2340SOL     OW18652   0.869   4.000   4.365 -0.1165 -0.6162  0.6844
 2340SOL    HW118653   0.908   4.085   4.384  0.9340 -0.8497 -0.4485
 2340SOL    HW218654   0.879   3.962   4.452 -0.4316 -0.6789  0.6939
 2341SOL     OW18655   1.203   1.780  12.458  0.4209 -0.0739 -0.0224
 2341SOL    HW118656   1.210   1.807  12.549 -2.8935 -1.0362  0.4880
 2341SOL    HW218657   1.109   1.773  12.446  0.4144  1.6765 -1.0372
 2342SOL     OW18658   2.934   4.370   2.990 -0.3469 -0.4991 -0.1166
 2342SOL    HW118659   2.900   4.387   2.902  1.8217  1.4779 -0.5672
 2342SOL    HW218660   3.029   4.376   2.977 -0.2261 -1.6948  0.2018
 2343SOL     OW18661   3.966   4.646  17.331 -0.1383  0.7082  0.0786
 2343SOL    HW118662   4.024   4.573  17.311 -2.1705 -0.8663 -0.1262
 2343SOL    HW218663   3.991   4.700  17.256 -2.5205 -1.0562 -2.0029
 2344SOL     OW18664   3.049   3.567   6.732 -0.2029 -0.0472 -0.1972
 2344SOL    HW118665   3.050   3.634   6.664  1.3328 -1.7009 -1.7927
 2344SOL    HW218666   2.960   3.575   6.768 -0.2016 -0.5886 -0.0680
 2345SOL     OW18667   0.216   2.282   6.224  0.1742 -0.2750 -0.0444
 2345SOL    HW118668   0.196   2.240   6.307  1.4240 -0.0874  0.3498
 2345SOL    HW218669   0.272   2.214   6.186  0.2944  0.0496 -0.4481
 2346SOL     OW18670   4.608   0.797  13.931 -0.6141 -0.0764 -0.0554
 2346SOL    HW118671   4.553   0.825  14.004  0.9668  0.6266  0.8798
 2346SOL    HW218672   4.672   0.868  13.937 -0.6193 -0.3154  2.8015
 2347SOL     OW18673   3.880   0.330   5.844  0.0079 -0.5667 -0.0675
 2347SOL    HW118674   3.822   0.355   5.916  1.1288 -0.0910  0.6893
 2347SOL    HW218675   3.954   0.391   5.851 -0.9982  0.4698  1.7194
 2348SOL     OW18676   0.877   4.682   4.349 -0.0061 -0.4466 -0.0742
 2348SOL    HW118677   0.867   4.589   4.329  0.5195 -0.4783 -0.1747
 2348SOL    HW218678   0.864   4.680   4.444  1.6689  0.6306  0.1764
 2349SOL     OW18679   2.578   2.263   1.416 -0.6493 -0.0012  0.0320
 2349SOL    HW118680   2.618   2.201   1.355  1.2558 -1.0225  2.3522
 2349SOL    HW218681   2.484   2.260   1.395 -0.8362 -1.3256  1.0200
 2350SOL     OW18682   2.467   3.771  15.077  0.0055  0.1922 -0.1832
 2350SOL    HW118683   2.390   3.714  15.082 -0.2500  0.4569 -1.1107
 2350SOL    HW218684   2.480   3.764  14.983  1.4187 -0.0802  0.0453
 2351SOL     OW18685   3.267   4.379   9.576 -0.2103 -0.6723  0.6117
 2351SOL    HW118686   3.343   4.387   9.518 -1.7343 -1.5491 -1.4787
 2351SOL    HW218687   3.245   4.288   9.557  1.3128 -0.8934 -0.0604
 2352SOL     OW18688   0.168   3.158   3.430  0.6172  0.1030 -0.3746
 2352SOL    HW118689   0.178   3.175   3.524  4.8855 -1.0804 -0.6476
 2352SOL    HW218690   0.262   3.149   3.416  0.9428  0.8613  1.3311
 2353SOL     OW18691   2.743   3.202  15.326 -0.0715 -0.0620 -0.9622
 2353SOL    HW118692   2.816   3.161  15.279 -0.2614 -0.7196 -0.6936
 2353SOL    HW218693   2.668   3.173  15.275 -1.9438  1.5684  0.9000
 2354SOL     OW18694   4.193   4.476  12.763  0.0139  0.5262  0.5528
 2354SOL    HW118695   4.239   4.481  12.679  1.5162  0.2419  1.3613
 2354SOL    HW218696   4.226   4.400  12.812 -2.5734 -0.7358  0.3115
 2355SOL     OW18697   1.461   0.381   2.368  0.0144 -0.2125 -0.2370
 2355SOL    HW118698   1.424   0.445   2.429  0.4368  0.0789 -0.2865
 2355SOL    HW218699   1.541   0.426   2.341  2.1541 -2.2676  2.6632
 2356SOL     OW18700   4.005   1.349   4.790 -0.0010  0.2069 -0.4154
 2356SOL    HW118701   4.013   1.428   4.737  1.1132  1.2505  1.2884
 2356SOL    HW218702   3.939   1.382   4.851 -0.1369 -1.4192  0.3044
 2357SOL     OW18703   3.232   1.596   8.173  0.2977  0.3079 -0.6086
 2357SOL    HW118704   3.258   1.649   8.249  1.3988 -1.3876  0.1921
 2357SOL    HW218705   3.309   1.541   8.159 -0.4745 -1.2160  1.2442
 2358SOL     OW18706   2.902   0.677   4.447  0.6664  0.2307  0.3002
 2358SOL    HW118707   2.830   0.674   4.510  0.6980  3.0427  0.4305
 2358SOL    HW218708   2.894   0.588   4.411  2.0609  0.8763 -1.5698
 2359SOL     OW18709   2.408   3.610  12.744  0.5584 -0.0872 -0.1232
 2359SOL    HW118710   2.430   3.577  12.657 -0.2215  1.7411 -1.0098
 2359SOL    HW218711   2.418   3.705  12.736 -0.5795  0.2011  1.7634
 2360SOL     OW18712   4.009   1.115   3.921  0.2056  0.2446  0.5958
 2360SOL    HW118713   4.020   1.053   3.993  0.1757 -0.2862  0.1384
 2360SOL    HW218714   4.091   1.092   3.879  0.9901  0.3240  2.0936
 2361SOL     OW18715   1.509   2.608   8.179 -0.3016 -0.4637 -0.2861
 2361SOL    HW118716   1.499   2.514   8.162 -0.8133 -0.8999  2.4272
 2361SOL    HW218717   1.437   2.631   8.122 -0.6747 -1.2619 -0.1366
 2362SOL     OW18718   1.223   0.554   7.740  0.5042  0.0365 -0.0170
 2362SOL    HW118719   1.242   0.520   7.653 -0.4847  0.4008 -0.3732
 2362SOL    HW218720   1.183   0.636   7.709  1.0154  0.0490 -0.6362
 2363SOL     OW18721   2.417   2.085   4.374  0.2432 -0.2228  0.2571
 2363SOL    HW118722   2.412   2.176   4.345  1.6455 -0.4361 -0.6233
 2363SOL    HW218723   2.410   2.106   4.467 -4.3830  1.6326 -0.5289
 2364SOL     OW18724   3.357   3.713   7.805  0.5825  0.2072  0.2349
 2364SOL    HW118725   3.287   3.778   7.806 -0.8606 -1.3225 -2.0672
 2364SOL    HW218726   3.387   3.724   7.715  3.9634  0.1600  1.3298
 2365SOL     OW18727   0.414   2.904   2.742 -0.4466 -0.2222 -0.1729
 2365SOL    HW118728   0.464   2.822   2.752 -0.4119  0.0550  1.9458
 2365SOL    HW218729   0.465   2.956   2.804 -0.4483  2.2560 -2.2726
 2366SOL     OW18730   2.162   1.872   6.000  0.1846  0.7022  0.3664
 2366SOL    HW118731   2.247   1.904   5.970  0.3109 -0.3316 -0.3897
 2366SOL    HW218732   2.113   1.953   5.988  1.5302  1.4095 -0.3929
 2367SOL     OW18733   2.048   1.595   3.310 -0.4122 -0.0577  0.3181
 2367SOL    HW118734   2.122   1.537   3.331  0.5255  0.0938 -2.5648
 2367SOL    HW218735   2.041   1.646   3.391  0.1336  0.8580 -0.2242
 2368SOL     OW18736   1.141   0.726  10.204  0.3658  0.5235  0.3467
 2368SOL    HW118737   1.172   0.759  10.288  1.7708 -2.3506  0.9577
 2368SOL    HW218738   1.048   0.729  10.227  0.0346  1.1193 -1.0790
 2369SOL     OW18739   4.653   2.934  14.004  0.2562  0.2647 -0.5681
 2369SOL    HW118740   4.625   2.904  14.090 -0.0819 -0.4865 -0.9402
 2369SOL    HW218741   4.678   2.851  13.962 -1.1442 -0.5476  0.2319
 2370SOL     OW18742   4.604   3.145   3.512 -0.3904 -0.4627  0.4098
 2370SOL    HW118743   4.645   3.067   3.474 -1.6076 -0.2020 -1.4236
 2370SOL    HW218744   4.636   3.218   3.458 -0.2000 -1.5755 -1.0003
 2371SOL     OW18745   2.675   0.252   3.129 -0.2899 -0.1711  0.5516
 2371SOL    HW118746   2.756   0.236   3.081  1.1576 -0.6196  3.1289
 2371SOL    HW218747   2.615   0.185   3.096 -0.5137  0.3733 -0.1328
 2372SOL     OW18748   2.365   0.423  14.833 -0.6299 -1.2211 -0.2771
 2372SOL    HW118749   2.446   0.402  14.787 -0.4822 -0.8369 -0.1936
 2372SOL    HW218750   2.390   0.409  14.924  1.0745  0.2104 -0.5071
 2373SOL     OW18751   0.956   4.569   5.540 -0.0210 -0.3094  0.0688
 2373SOL    HW118752   0.887   4.635   5.536 -0.1897 -0.4031  1.7192
 2373SOL    HW218753   0.919   4.494   5.492  0.5982 -0.6898  0.1857
 2374SOL     OW18754   0.286   4.057   3.704 -0.3506 -0.6604  0.0667
 2374SOL    HW118755   0.229   4.131   3.682  0.7804  0.2133  0.0541
 2374SOL    HW218756   0.239   3.976   3.684 -0.6229 -1.0712  2.3823
 2375SOL     OW18757   1.171   1.200   8.492 -0.3245 -0.0434 -0.5683
 2375SOL    HW118758   1.093   1.217   8.439  0.9789  3.2717 -1.4224
 2375SOL    HW218759   1.138   1.237   8.574  0.6998  3.2280 -1.6573
 2376SOL     OW18760   0.305   1.624   6.932 -0.0913  0.0446 -0.8761
 2376SOL    HW118761   0.277   1.694   6.991  4.0299  1.0849 -0.1101
 2376SOL    HW218762   0.345   1.558   6.990 -0.4501  0.9642  0.4058
 2377SOL     OW18763   3.821   3.208  11.485 -0.0415 -0.2158  0.5166
 2377SOL    HW118764   3.808   3.295  11.524 -1.5944  0.5618 -1.7037
 2377SOL    HW218765   3.762   3.160  11.543 -0.5723  0.3350  0.4447
 2378SOL     OW18766   3.103   0.333   9.790 -0.1035 -0.0195  0.3238
 2378SOL    HW118767   3.146   0.275   9.853  1.4825  1.4842  0.6121
 2378SOL    HW218768   3.158   0.410   9.783 -1.8097  1.4806  3.5556
 2379SOL     OW18769   1.149   2.338   3.106 -0.0884 -0.2614 -0.4926
 2379SOL    HW118770   1.177   2.329   3.015  2.0337  2.5679 -0.1226
 2379SOL    HW218771   1.139   2.244   3.123 -1.5604  0.2004  1.2336
 2380SOL     OW18772   2.690   4.306  16.025 -0.1301 -0.2890  0.3699
 2380SOL    HW118773   2.729   4.374  15.970  0.4682 -0.3502  0.7187
 2380SOL    HW218774   2.752   4.234  16.039  1.8049  1.2468 -0.3176
 2381SOL     OW18775   3.529   4.444  12.974  0.1003 -0.0603 -0.2093
 2381SOL    HW118776   3.448   4.396  12.987 -0.4000  1.0024  0.5989
 2381SOL    HW218777   3.578   4.436  13.055  1.6482  0.9855 -1.0287
 2382SOL     OW18778   1.792   1.099  15.475 -0.1866 -0.3348 -0.1517
 2382SOL    HW118779   1.701   1.072  15.486 -0.5546  0.9502  0.0605
 2382SOL    HW218780   1.797   1.143  15.390 -3.5768  0.6113  0.1310
 2383SOL     OW18781   4.351   0.993   5.034  0.2652  0.1675 -0.4015
 2383SOL    HW118782   4.388   0.994   5.122 -0.5884  4.0735 -0.0712
 2383SOL    HW218783   4.271   1.045   5.040  0.5037  0.5864 -0.7515
 2384SOL     OW18784   4.363   0.641  11.683 -0.7494  0.0936  0.4327
 2384SOL    HW118785   4.297   0.669  11.621 -0.3008  0.5318  0.1552
 2384SOL    HW218786   4.429   0.707  11.662  0.5970 -1.8058 -1.2760
 2385SOL     OW18787   0.693   1.984  12.625 -0.3751 -0.0267  0.4707
 2385SOL    HW118788   0.682   1.963  12.532  2.8285  2.0575 -0.3833
 2385SOL    HW218789   0.677   1.899  12.664  2.8041 -0.7147  0.2892
 2386SOL     OW18790   3.456   0.299   1.517 -0.2594 -0.5630  0.4009
 2386SOL    HW118791   3.423   0.375   1.469  0.3078 -0.2974  0.4371
 2386SOL    HW218792   3.490   0.246   1.444 -1.6007  2.2896 -2.3184
 2387SOL     OW18793   2.838   1.555   3.675  0.8687 -0.4233 -0.3619
 2387SOL    HW118794   2.789   1.574   3.595  0.7438 -1.7887 -0.6183
 2387SOL    HW218795   2.766   1.569   3.737  0.3919 -2.8129 -0.3464
 2388SOL     OW18796   2.215   4.123   1.084  0.1336 -0.2233  0.1176
 2388SOL    HW118797   2.227   4.167   1.000  2.3539  3.4410  2.3374
 2388SOL    HW218798   2.228   4.033   1.053 -0.2944  0.0183 -0.7415
 2389SOL     OW18799   0.915   0.448   2.640  0.0633  0.4618 -0.4771
 2389SOL    HW118800   0.836   0.471   2.591 -0.2200  2.4339  0.9156
 2389SOL    HW218801   0.907   0.483   2.729  0.5837 -0.5691 -0.0195
 2390SOL     OW18802   2.172   1.566   2.666 -0.0391  0.2829 -0.0864
 2390SOL    HW118803   2.145   1.530   2.581 -2.3581  1.2343  0.2330
 2390SOL    HW218804   2.266   1.575   2.656  0.4498 -3.2845  1.0193
 2391SOL     OW18805   3.058   3.300   5.893 -0.5571 -0.6748 -0.0433
 2391SOL    HW118806   3.037   3.208   5.884 -2.4030 -0.1515 -1.0115
 2391SOL    HW218807   3.120   3.307   5.965 -0.7009  1.4662 -0.1037
 2392SOL     OW18808   4.295   1.537  12.036  0.2386  0.8018  0.5369
 2392SOL    HW118809   4.378   1.561  12.075  0.4570 -1.2861  1.3527
 2392SOL    HW218810   4.230   1.555  12.103  2.3287 -0.6959  2.9394
 2393SOL     OW18811   0.662   1.712   3.865 -0.8626  0.0615 -0.4233
 2393SOL    HW118812   0.652   1.651   3.791  1.3748  1.2964 -1.7361
 2393SOL    HW218813   0.751   1.742   3.847 -0.2804 -1.2998  0.1788
 2394SOL     OW18814   4.005   3.678   4.818 -0.5296  0.2804  0.5356
 2394SOL    HW118815   3.995   3.685   4.913  1.5795  0.4017  0.7467
 2394SOL    HW218816   4.044   3.765   4.804  0.4058 -0.2509 -0.1307
 2395SOL     OW18817   0.887   3.170  14.524 -0.0996  0.1351  0.0595
 2395SOL    HW118818   0.980   3.191  14.521  0.1012 -0.6034  1.4119
 2395SOL    HW218819   0.878   3.138  14.613 -1.8892 -3.8368 -1.5421
 2396SOL     OW18820   3.370   1.457   4.796 -0.2597  0.8893  0.4732
 2396SOL    HW118821   3.457   1.496   4.802 -0.8156  2.2560 -0.3404
 2396SOL    HW218822   3.317   1.526   4.837  0.7288  0.8213  1.8553
 2397SOL     OW18823   4.702   3.925   3.815 -0.3255  0.0435 -0.7772
 2397SOL    HW118824   4.651   3.960   3.888  0.2012  0.5740 -0.6639
 2397SOL    HW218825   0.048   3.912   3.854 -0.5198 -1.1113 -0.7196
 2398SOL     OW18826   3.670   1.281  11.880 -0.1348  0.3215  0.0287
 2398SOL    HW118827   3.713   1.366  11.887 -0.8375  0.7824 -1.1761
 2398SOL    HW218828   3.589   1.315  11.841 -0.1598  0.7324  0.4345
 2399SOL     OW18829   0.931   1.465   3.324  0.5403 -0.2156 -0.5980
 2399SOL    HW118830   0.911   1.382   3.367  1.2233  0.0799  0.2924
 2399SOL    HW218831   0.941   1.526   3.398 -0.5440  0.5913 -1.1232
 2400SOL     OW18832   0.453   4.502  10.024  0.3548 -0.3742 -0.3712
 2400SOL    HW118833   0.410   4.585  10.003 -0.2865 -0.3906  0.8582
 2400SOL    HW218834   0.506   4.490   9.945  2.2961  1.2049  0.7069
 2401SOL     OW18835   3.982   0.065   5.813 -0.1063  0.2022  0.2571
 2401SOL    HW118836   3.925   0.018   5.873  0.9192 -3.2612 -1.4408
 2401SOL    HW218837   3.951   0.154   5.826  0.2034 -0.1227  3.2292
 2402SOL     OW18838   1.938   4.688   3.031  0.4467  0.0089  0.5928
 2402SOL    HW118839   2.023   4.726   3.053 -0.6333  1.6509  2.0167
 2402SOL    HW218840   1.906   4.688   3.122 -0.9887  2.2019  0.0846
 2403SOL     OW18841   0.019   3.942  10.346 -0.4839  0.8229 -0.6787
 2403SOL    HW118842   0.078   3.974  10.278 -0.0773  1.0036 -0.2337
 2403SOL    HW218843   4.714   3.866  10.310  0.8753  0.4794 -1.6691
 2404SOL     OW18844   3.489   1.341   5.723 -0.0852 -0.1913 -0.2275
 2404SOL    HW118845   3.483   1.277   5.794  0.1381  1.6896  1.5120
 2404SOL    HW218846   3.559   1.403   5.743  0.4341 -0.9248  0.2425
 2405SOL     OW18847   1.351   0.497   3.925  0.7490 -0.0529 -0.1972
 2405SOL    HW118848   1.376   0.428   3.986 -0.6439  1.6058  2.2711
 2405SOL    HW218849   1.304   0.551   3.988  1.0295 -0.1846  0.1226
 2406SOL     OW18850   1.004   2.808   6.570  0.2986 -0.0907 -0.0584
 2406SOL    HW118851   1.029   2.736   6.627 -1.5109  0.2737  1.1962
 2406SOL    HW218852   1.088   2.846   6.545 -0.2511  1.2486  0.1141
 2407SOL     OW18853   2.288   2.620   1.224 -0.4687  0.6713  0.1934
 2407SOL    HW118854   2.220   2.574   1.272  0.0197 -1.3290 -1.0455
 2407SOL    HW218855   2.285   2.567   1.144 -1.0550  1.5326 -0.3532
 2408SOL     OW18856   0.722   0.339   5.121  0.0676 -0.1037 -0.4067
 2408SOL    HW118857   0.629   0.325   5.104  0.7369 -1.3773 -2.9784
 2408SOL    HW218858   0.764   0.280   5.058  0.9334  1.2216 -1.0614
 2409SOL     OW18859   0.019   1.008  13.901 -0.5042  0.0209 -0.1517
 2409SOL    HW118860   4.684   1.051  13.860 -0.2855 -1.6013 -2.2762
 2409SOL    HW218861   0.058   1.081  13.948 -0.9518  0.6049 -0.6984
 2410SOL     OW18862   0.628   3.492  17.388 -0.3253 -0.1369 -0.8870
 2410SOL    HW118863   0.702   3.437  17.414  0.3137  1.0118 -0.3188
 2410SOL    HW218864   0.619   3.546  17.466 -0.9306  0.0510 -1.0827
 2411SOL     OW18865   1.179   4.658   7.789 -0.4214  0.2605  0.0259
 2411SOL    HW118866   1.108   4.706   7.833  0.2302 -0.3845  1.7798
 2411SOL    HW218867   1.168   4.689   7.699  1.6685  1.4596  0.1901
 2412SOL     OW18868   4.232   0.182   5.796 -0.5202  0.2185  0.1241
 2412SOL    HW118869   4.145   0.144   5.811 -0.9406  1.3665  0.6256
 2412SOL    HW218870   4.254   0.219   5.882 -0.5494  2.7741 -0.9522
 2413SOL     OW18871   4.306   2.020   0.498 -0.1282 -0.2409 -0.4957
 2413SOL    HW118872   4.253   1.943   0.474 -1.5501  0.2483  1.1055
 2413SOL    HW218873   4.256   2.048   0.574  0.4919 -2.6773  0.7958
 2414SOL     OW18874   1.142   1.538  13.298  0.0462 -0.0610 -0.1079
 2414SOL    HW118875   1.182   1.545  13.384 -1.9547  1.6125  0.6746
 2414SOL    HW218876   1.056   1.501  13.318 -0.3763  0.9941 -0.0121
 2415SOL     OW18877   4.588   0.381   6.668 -0.4976  0.7531 -0.4238
 2415SOL    HW118878   4.518   0.370   6.603 -3.0212 -0.4167  2.4794
 2415SOL    HW218879   4.547   0.329   6.736  1.3978 -0.4332 -0.2063
 2416SOL     OW18880   1.285   0.674  16.984 -0.6454  0.2675 -0.1053
 2416SOL    HW118881   1.216   0.677  17.050 -0.3358  1.2210  0.1782
 2416SOL    HW218882   1.255   0.595  16.939  2.6761  0.1177 -2.0832
 2417SOL     OW18883   0.302   3.325  17.345 -0.1696  0.3819 -0.1133
 2417SOL    HW118884   0.226   3.378  17.319  0.3543  1.3916  0.4285
 2417SOL    HW218885   0.348   3.391  17.396  0.5959  1.7889 -2.6035
 2418SOL     OW18886   1.612   2.944   6.337  0.2048  0.0850  0.7749
 2418SOL    HW118887   1.563   2.933   6.255  2.2215  1.1944 -0.5940
 2418SOL    HW218888   1.560   2.878   6.382 -0.2359 -0.8557 -1.0970
 2419SOL     OW18889   2.804   2.973   9.652 -0.0122 -0.3948 -0.0303
 2419SOL    HW118890   2.811   3.065   9.628 -0.5745 -0.7750 -1.5864
 2419SOL    HW218891   2.882   2.956   9.706 -1.9192 -1.2375  2.4560
 2420SOL     OW18892   4.714   0.433  15.658 -0.0074  0.1434  0.1961
 2420SOL    HW118893   0.067   0.440  15.643 -0.2751  1.6422 -0.6978
 2420SOL    HW218894   4.707   0.441  15.753  0.8554 -0.4466  0.3163
 2421SOL     OW18895   2.201   1.983  12.516  0.5639 -0.5549  0.5983
 2421SOL    HW118896   2.147   2.017  12.445  1.4113 -1.6754 -0.5970
 2421SOL    HW218897   2.265   1.930  12.468 -1.4060 -1.8486 -0.5480
 2422SOL     OW18898   0.383   1.787   4.129  0.4097 -0.0298  0.2354
 2422SOL    HW118899   0.302   1.750   4.165 -0.1588  1.5073  0.5103
 2422SOL    HW218900   0.388   1.731   4.051 -4.2316 -0.2441  0.0949
 2423SOL     OW18901   0.603   1.269  16.222  0.3335 -0.4395 -0.0368
 2423SOL    HW118902   0.530   1.305  16.272  1.1377  0.0066  0.8320
 2423SOL    HW218903   0.558   1.188  16.200 -0.0413  0.2612 -1.7829
 2424SOL     OW18904   1.400   0.661   2.469  0.3004 -0.1639  0.3772
 2424SOL    HW118905   1.472   0.713   2.433  1.4688 -2.2032 -0.2449
 2424SOL    HW218906   1.438   0.646   2.555  1.9396 -1.0089 -0.4937
 2425SOL     OW18907   3.203   1.325   6.776  0.1109  0.5601 -0.1043
 2425SOL    HW118908   3.125   1.366   6.740  1.6675  1.3469 -2.5884
 2425SOL    HW218909   3.217   1.256   6.711 -2.2612 -2.0629  2.1188
 2426SOL     OW18910   3.966   3.823   6.753  0.1074  0.1485  0.1724
 2426SOL    HW118911   3.911   3.827   6.832 -0.1009  0.0226  0.0354
 2426SOL    HW218912   3.899   3.800   6.689  0.1576 -0.5763  0.3742
 2427SOL     OW18913   0.261   2.114   9.321 -0.2366  0.4760 -0.1196
 2427SOL    HW118914   0.290   2.188   9.269  1.5295  0.1316  0.3913
 2427SOL    HW218915   0.267   2.151   9.409  0.1503  2.4033 -0.9684
 2428SOL     OW18916   4.638   3.025   6.888 -0.1212  0.6514  0.0242
 2428SOL    HW118917   4.686   3.098   6.851  0.8660  0.2404  0.5008
 2428SOL    HW218918   4.618   2.977   6.808  0.9686 -0.2071  0.2647
 2429SOL     OW18919   2.268   4.496  13.809  0.5614 -0.3523  0.2186
 2429SOL    HW118920   2.200   4.512  13.743  2.5323  2.8682 -1.0472
 2429SOL    HW218921   2.233   4.536  13.888 -1.6331 -0.2616 -0.7814
 2430SOL     OW18922   1.431   3.596   1.143 -0.1260  0.0555 -0.2909
 2430SOL    HW118923   1.418   3.520   1.200 -0.5988  1.7978  1.9265
 2430SOL    HW218924   1.380   3.566   1.068  2.2573 -1.3641 -1.3390
 2431SOL     OW18925   3.390   1.446  11.293 -0.6763 -0.0870  0.6777
 2431SOL    HW118926   3.466   1.413  11.341 -0.2162  0.6889  0.4774
 2431SOL    HW218927   3.346   1.363  11.273 -0.3507 -0.3463  1.0353
 2432SOL     OW18928   0.296   3.406   6.981  0.4788  0.0989 -0.1005
 2432SOL    HW118929   0.305   3.480   6.919 -0.4599  1.0437  0.8975
 2432SOL    HW218930   0.327   3.439   7.065 -0.8528  1.1329 -0.0117
 2433SOL     OW18931   0.831   4.504  13.895 -0.2570 -0.2791  0.0645
 2433SOL    HW118932   0.887   4.474  13.824 -0.5085  2.3009 -1.2292
 2433SOL    HW218933   0.823   4.428  13.953 -1.5648  0.3418  0.7117
 2434SOL     OW18934   0.942   4.080   5.522 -0.4320  0.4469  0.0871
 2434SOL    HW118935   0.949   4.030   5.440 -0.9137  0.0965  0.2578
 2434SOL    HW218936   0.921   4.166   5.486  0.1570  0.9519  0.9618
 2435SOL     OW18937   4.380   4.698   1.658 -0.1787  0.4314  0.1503
 2435SOL    HW118938   4.416   4.657   1.736 -0.9555  0.7660  0.6789
 2435SOL    HW218939   4.381   0.047   1.692  0.9579  0.7814 -0.7895
 2436SOL     OW18940   0.479   1.077   0.932 -0.0210  0.0213  0.0154
 2436SOL    HW118941   0.411   1.140   0.905 -3.0265 -2.9507  0.6111
 2436SOL    HW218942   0.496   1.102   1.022  0.3559 -1.6881  0.4049
 2437SOL     OW18943   4.535   4.607  12.362  0.3288  0.1859 -0.1454
 2437SOL    HW118944   4.561   4.695  12.335 -0.1377  0.9270  1.8259
 2437SOL    HW218945   4.495   4.574  12.282  0.2977  0.1290 -0.1073
 2438SOL     OW18946   0.400   0.133   3.356  0.1102  0.5688  0.4022
 2438SOL    HW118947   0.411   0.160   3.447 -1.2936  0.3312  0.6438
 2438SOL    HW218948   0.312   0.170   3.342  1.5380  3.8037  0.1295
 2439SOL     OW18949   1.829   2.140   9.568 -0.2934 -0.8331  0.0260
 2439SOL    HW118950   1.868   2.227   9.577 -2.3576  0.3657 -2.5975
 2439SOL    HW218951   1.832   2.108   9.658  1.5773 -1.3303 -0.2209
 2440SOL     OW18952   3.959   4.538  14.114 -0.7636 -0.1678 -0.6708
 2440SOL    HW118953   3.984   4.627  14.138  1.1081 -0.7745 -0.3620
 2440SOL    HW218954   3.961   4.487  14.194  1.2427  1.4002  0.2811
 2441SOL     OW18955   2.437   1.091  10.202 -0.2679 -0.0464  0.0687
 2441SOL    HW118956   2.409   1.136  10.282 -0.5355  0.6076 -0.3942
 2441SOL    HW218957   2.498   1.162  10.181 -1.5085  0.8275 -0.6160
 2442SOL     OW18958   2.516   2.721   8.580 -0.2238 -0.2610  0.1722
 2442SOL    HW118959   2.475   2.696   8.497  0.8484 -0.5582 -0.2630
 2442SOL    HW218960   2.531   2.636   8.621  2.4383  0.3486  0.4382
 2443SOL     OW18961   0.267   2.379   7.283 -0.1922  0.1304  0.3180
 2443SOL    HW118962   0.294   2.460   7.327  1.7931 -0.1825 -0.3027
 2443SOL    HW218963   0.331   2.327   7.331 -1.2866 -2.0169 -0.5503
 2444SOL     OW18964   0.523   3.586   5.463 -0.0978  0.3209 -0.4213
 2444SOL    HW118965   0.561   3.669   5.433  1.3431 -0.5969 -1.1266
 2444SOL    HW218966   0.432   3.597   5.438  0.5993  2.0365 -2.1892
 2445SOL     OW18967   1.408   0.181   2.597  0.4658  0.0875 -0.2702
 2445SOL    HW118968   1.322   0.149   2.625  0.4923  0.0224 -0.2621
 2445SOL    HW218969   1.387   0.233   2.519 -0.8750 -0.4487 -0.2786
 2446SOL     OW18970   0.907   1.030   8.206  0.0293  0.2249 -0.1488
 2446SOL    HW118971   0.835   0.983   8.162  1.2563  0.3403 -2.2576
 2446SOL    HW218972   0.980   0.969   8.197  0.6435  0.7482  1.3449
 2447SOL     OW18973   2.023   0.018  13.627 -0.8452  0.8321 -0.0848
 2447SOL    HW118974   2.115   0.007  13.601 -1.5840 -0.8164 -1.9848
 2447SOL    HW218975   2.020   0.095  13.685  0.0777 -0.8106  2.1711
 2448SOL     OW18976   0.961   1.354   5.126 -0.1903 -0.0157  0.3808
 2448SOL    HW118977   0.985   1.295   5.054 -1.6750  2.0104 -1.7952
 2448SOL    HW218978   0.867   1.337   5.131 -0.0956  0.2608  2.8429
 2449SOL     OW18979   0.896   4.720   2.353  0.5750 -0.9091 -0.0021
 2449SOL    HW118980   0.812   4.683   2.327  0.3349  0.6552 -1.4072
 2449SOL    HW218981   0.888   0.071   2.328  3.2697 -0.7210 -0.1769
 2450SOL     OW18982   4.387   3.542   8.792 -0.6196 -0.0170 -0.1303
 2450SOL    HW118983   4.392   3.632   8.759 -1.3043 -0.4138 -1.3106
 2450SOL    HW218984   4.469   3.504   8.760 -0.6555 -0.2921  0.1071
 2451SOL     OW18985   1.714   1.398   6.186  0.1054  0.3704 -0.3468
 2451SOL    HW118986   1.771   1.435   6.119  0.9790  1.8521  1.2087
 2451SOL    HW218987   1.768   1.420   6.262 -0.1904 -2.6241  0.7508
 2452SOL     OW18988   1.067   4.441   2.995 -0.2422  0.1877 -0.3652
 2452SOL    HW118989   1.024   4.521   3.024 -0.3797 -0.2218  0.5463
 2452SOL    HW218990   1.153   4.453   3.034 -0.1397  1.6204 -1.0515
 2453SOL     OW18991   3.885   1.860  14.073  0.5657 -0.7842 -0.0561
 2453SOL    HW118992   3.951   1.801  14.110  1.9115  1.3975  0.9924
 2453SOL    HW218993   3.811   1.800  14.056 -1.1514  1.0274  0.9885
 2454SOL     OW18994   3.593   4.075  14.914 -0.3308 -0.1022  0.1871
 2454SOL    HW118995   3.616   4.160  14.874 -0.0503  0.1293  0.8437
 2454SOL    HW218996   3.651   4.013  14.870  2.3210  1.1406  1.9712
 2455SOL     OW18997   2.291   1.937  13.536  0.2286  0.3618  0.3981
 2455SOL    HW118998   2.242   1.929  13.618  0.6134 -0.6917  0.5259
 2455SOL    HW218999   2.314   2.028  13.551 -0.6137  0.8156 -1.0152
 2456SOL     OW19000   4.682   0.814   2.249 -0.4091 -0.6137 -0.8645
 2456SOL    HW119001   4.721   0.730   2.275  1.8915  0.2087 -1.6784
 2456SOL    HW219002   4.689   0.868   2.328  0.5829 -3.6318  1.1106
 2457SOL     OW19003   1.855   4.473   3.210 -0.1260 -0.0071 -0.1226
 2457SOL    HW119004   1.835   4.393   3.258 -1.1284 -0.1549 -0.7802
 2457SOL    HW219005   1.886   4.432   3.129  2.1036 -1.9509  1.7192
 2458SOL     OW19006   2.326   1.894   1.722  0.4404 -0.1336  0.6703
 2458SOL    HW119007   2.334   1.804   1.690 -0.7193 -0.3028  0.8918
 2458SOL    HW219008   2.354   1.933   1.639 -1.5431 -0.5943 -0.2202
 2459SOL     OW19009   3.281   0.363   2.089  0.6966 -0.2184  0.8392
 2459SOL    HW119010   3.358   0.383   2.036 -0.1079  1.9079  0.4970
 2459SOL    HW219011   3.269   0.271   2.064 -0.6752  0.3876 -0.6419
 2460SOL     OW19012   2.332   4.504   4.787  0.0195 -0.1670 -0.1511
 2460SOL    HW119013   2.290   4.428   4.746  0.1246 -0.1936 -0.2084
 2460SOL    HW219014   2.304   4.495   4.878  0.6266  0.4838  0.1010
 2461SOL     OW19015   2.001   0.915   6.977 -0.6548  0.0664  0.3408
 2461SOL    HW119016   2.028   0.872   6.896 -0.0599 -1.4700  1.3612
 2461SOL    HW219017   2.063   0.890   7.045 -1.8061  1.4266  1.8733
 2462SOL     OW19018   0.455   2.333   3.668 -0.0904 -0.0504 -0.4685
 2462SOL    HW119019   0.540   2.350   3.708  0.0278 -0.6544 -0.4550
 2462SOL    HW219020   0.395   2.359   3.738 -1.4905 -2.5512 -0.7348
 2463SOL     OW19021   3.132   1.385  11.798 -0.0326  0.4074 -0.7972
 2463SOL    HW119022   3.095   1.473  11.807 -0.2899  0.1129  1.0784
 2463SOL    HW219023   3.130   1.347  11.886  0.9505  1.7982 -0.1657
 2464SOL     OW19024   1.149   0.736   8.824  0.0440 -0.0646  0.7580
 2464SOL    HW119025   1.210   0.690   8.882 -0.0404 -0.0669  0.8451
 2464SOL    HW219026   1.070   0.695   8.859 -0.6716  1.7767  1.3419
 2465SOL     OW19027   1.591   1.840  12.291  0.4320 -0.2847 -0.4437
 2465SOL    HW119028   1.632   1.754  12.280 -1.1071 -1.0603 -0.0809
 2465SOL    HW219029   1.665   1.884  12.332  0.0417 -2.3612  2.4446
 2466SOL     OW19030   0.188   1.276  12.145  0.2885  0.1854 -0.1069
 2466SOL    HW119031   0.196   1.211  12.075 -0.7705 -0.3938  0.3252
 2466SOL    HW219032   0.203   1.217  12.218  0.5405  0.1429 -0.1916
 2467SOL     OW19033   0.013   0.863   8.966 -0.0109 -0.1363  0.1475
 2467SOL    HW119034   4.677   0.920   8.961  0.7581  0.9786  1.3143
 2467SOL    HW219035   0.018   0.842   8.872  3.0641 -0.4458  0.3736
 2468SOL     OW19036   2.047   2.543   4.203  0.2530  0.5861  0.0312
 2468SOL    HW119037   2.073   2.452   4.219 -0.2340  0.6377  1.1514
 2468SOL    HW219038   2.124   2.581   4.246  0.2559  0.9169 -0.2773
 2469SOL     OW19039   3.512   4.230   2.318 -0.2936  0.1577 -0.6971
 2469SOL    HW119040   3.439   4.276   2.276  0.0706  0.7980 -0.6210
 2469SOL    HW219041   3.460   4.172   2.374  2.1938 -1.2826  0.1172
 2470SOL     OW19042   0.349   0.546  11.820  0.3681 -0.0860  0.3115
 2470SOL    HW119043   0.265   0.583  11.794  0.6946  0.0896 -0.4813
 2470SOL    HW219044   0.386   0.534  11.733 -0.3980  1.2624 -0.2035
 2471SOL     OW19045   2.569   0.441   5.795 -0.1128  0.4564 -0.0790
 2471SOL    HW119046   2.606   0.497   5.727  0.5532  0.9726  0.7051
 2471SOL    HW219047   2.577   0.496   5.873  0.4963 -0.4268  0.4841
 2472SOL     OW19048   1.457   0.327  12.945 -0.1253  0.0026  0.3206
 2472SOL    HW119049   1.400   0.272  12.891  1.0703  0.8868 -1.8542
 2472SOL    HW219050   1.503   0.262  12.998 -0.3260  2.0019  2.9262
 2473SOL     OW19051   0.561   1.489   3.685 -0.4602  0.5130  0.3751
 2473SOL    HW119052   0.498   1.512   3.616 -0.0558  1.0217  0.1738
 2473SOL    HW219053   0.618   1.438   3.627  0.1451  3.1138 -1.3570
 2474SOL     OW19054   2.730   1.068   8.448  0.4174  0.8582 -0.5765
 2474SOL    HW119055   2.713   1.076   8.354  2.6366  0.6435 -0.9879
 2474SOL    HW219056   2.727   0.975   8.470  2.0305  0.9522  0.0479
 2475SOL     OW19057   1.747   4.580   0.232  0.2500  0.2055  0.1656
 2475SOL    HW119058   1.820   4.598   0.173 -1.1144  1.0226 -1.2766
 2475SOL    HW219059   1.795   4.564   0.313 -1.5169  1.9137  1.5457
 2476SOL     OW19060   1.804   0.411   2.380 -0.0108 -0.0677 -0.2475
 2476SOL    HW119061   1.741   0.466   2.333  0.4783 -1.3373 -2.3960
 2476SOL    HW219062   1.816   0.341   2.316  2.7190  1.6290 -1.5878
 2477SOL     OW19063   0.064   1.949  15.889  0.2116 -0.0305  0.0004
 2477SOL    HW119064   0.040   1.872  15.838  0.4692  0.2462 -0.5454
 2477SOL    HW219065   0.157   1.944  15.867  0.3589  1.6056  0.2180
 2478SOL     OW19066   2.547   2.323   1.971 -0.1239 -0.3318 -0.6852
 2478SOL    HW119067   2.532   2.296   1.881 -0.6271 -1.1460 -0.3569
 2478SOL    HW219068   2.633   2.365   1.970 -0.6045  0.6296 -1.4360
 2479SOL     OW19069   1.375   4.010   4.263  0.1824 -0.1400 -0.5369
 2479SOL    HW119070   1.461   3.995   4.223  1.6718  1.5098  2.0208
 2479SOL    HW219071   1.351   3.921   4.286 -0.5809  0.3868  0.7294
 2480SOL     OW19072   3.697   4.681   8.342 -0.2796 -0.1425 -0.2381
 2480SOL    HW119073   3.784   4.686   8.301  0.2647  0.3354  0.9559
 2480SOL    HW219074   3.675   0.031   8.322 -0.4721 -0.7182 -2.6123
 2481SOL     OW19075   2.829   1.262   7.627 -0.3639 -0.1208  0.1345
 2481SOL    HW119076   2.876   1.196   7.678  0.8402 -0.3261 -1.2348
 2481SOL    HW219077   2.813   1.326   7.697  0.0776  0.7965 -0.6129
 2482SOL     OW19078   1.835   0.578   1.410 -0.0371 -1.1625 -0.1306
 2482SOL    HW119079   1.758   0.556   1.462  1.1740  2.4524  3.1635
 2482SOL    HW219080   1.863   0.492   1.380 -0.8088 -1.3060 -0.4301
 2483SOL     OW19081   4.428   2.044   8.136  0.0289 -0.4033 -0.1882
 2483SOL    HW119082   4.416   2.096   8.057  1.5235 -0.3209 -0.3588
 2483SOL    HW219083   4.432   1.954   8.104 -1.0196 -1.4823  2.6295
 2484SOL     OW19084   3.719   1.028   4.163  0.4960  0.2364 -0.2562
 2484SOL    HW119085   3.668   0.953   4.135 -0.2102  1.0176 -1.0718
 2484SOL    HW219086   3.805   0.995   4.136 -1.1305 -1.6581 -3.0141
 2485SOL     OW19087   0.215   0.341   9.974  0.4704 -0.3954 -0.0088
 2485SOL    HW119088   0.261   0.420  10.001 -1.3208  1.6100 -2.8048
 2485SOL    HW219089   0.289   0.287   9.949 -0.0865 -1.3303  0.3431
 2486SOL     OW19090   4.526   2.975  15.028 -0.0826 -0.4763 -0.3002
 2486SOL    HW119091   4.432   2.961  15.029  0.0763 -1.2453  3.0563
 2486SOL    HW219092   4.565   2.902  15.075 -1.2494  0.1434  1.6274
 2487SOL     OW19093   1.071   1.335   1.818  0.8532  0.0054  0.1861
 2487SOL    HW119094   1.061   1.241   1.833  1.7410 -0.2662 -0.9112
 2487SOL    HW219095   1.151   1.351   1.868  1.3703 -2.4827  0.1354
 2488SOL     OW19096   0.074   3.345   7.862 -0.5187  0.0744  0.3886
 2488SOL    HW119097   0.004   3.281   7.878  0.1854 -0.0197  3.0997
 2488SOL    HW219098   0.079   3.349   7.767 -1.0018  1.1560  0.4060
 2489SOL     OW19099   2.932   3.422   4.800 -0.4798 -0.3102  0.4841
 2489SOL    HW119100   3.009   3.370   4.823  1.1178  1.1284 -1.5718
 2489SOL    HW219101   2.893   3.447   4.884 -1.1461  3.9311 -1.0805
 2490SOL     OW19102   1.307   2.221   5.917  0.0437 -0.1688  0.2013
 2490SOL    HW119103   1.271   2.208   6.004 -1.4679 -0.1726 -0.4311
 2490SOL    HW219104   1.232   2.264   5.877  0.1088 -1.1304 -0.9508
 2491SOL     OW19105   0.285   3.160   1.464 -0.1348 -0.4488  0.1430
 2491SOL    HW119106   0.312   3.097   1.397  2.6520 -0.7361  1.5162
 2491SOL    HW219107   0.193   3.165   1.438 -0.1330 -0.5811  0.1123
 2492SOL     OW19108   2.793   0.384   3.914 -0.3623  0.2304  0.1340
 2492SOL    HW119109   2.792   0.408   4.006 -0.4464 -0.9179  0.4207
 2492SOL    HW219110   2.752   0.298   3.915 -0.8342  0.4150 -2.1115
 2493SOL     OW19111   2.003   4.648   8.384  0.3810  0.2190  0.5128
 2493SOL    HW119112   1.918   4.617   8.416  0.5569 -0.8688 -0.1019
 2493SOL    HW219113   2.055   4.650   8.465 -0.2969  1.2664  0.9308
 2494SOL     OW19114   4.711   3.715   0.136  0.0339  0.2447 -0.1715
 2494SOL    HW119115   0.024   3.774   0.189  0.0831  2.4018 -2.6405
 2494SOL    HW219116   4.625   3.757   0.137  0.3232  0.8174  0.6563
 2495SOL     OW19117   1.326   0.188   1.282 -0.1374 -0.4863  0.6752
 2495SOL    HW119118   1.335   0.236   1.365  1.4353  3.1480 -1.5981
 2495SOL    HW219119   1.402   0.131   1.293  0.5828  0.7240  1.9863
 2496SOL     OW19120   3.043   2.860   6.121  0.3768  0.8418 -0.4899
 2496SOL    HW119121   3.026   2.782   6.068  0.8865  1.1025 -1.0389
 2496SOL    HW219122   2.959   2.875   6.165 -0.2810  1.1106 -1.8612
 2497SOL     OW19123   4.554   0.933  12.396 -0.2986 -0.4482 -0.1339
 2497SOL    HW119124   4.575   1.019  12.432  0.0608 -0.7246  0.3272
 2497SOL    HW219125   4.481   0.910  12.454 -0.3799  0.6922  0.2277
 2498SOL     OW19126   3.359   4.661   4.622  0.2988  0.0736 -0.1409
 2498SOL    HW119127   3.299   4.698   4.557  3.2109  0.6443 -2.4921
 2498SOL    HW219128   3.443   4.687   4.584  0.9897 -1.1670  0.5564
 2499SOL     OW19129   4.226   0.023  14.376  0.3717 -0.0538  0.0202
 2499SOL    HW119130   4.227   4.669  14.362 -0.0713 -0.0263 -0.2177
 2499SOL    HW219131   4.314   0.050  14.351  0.8018 -1.3086  0.1507
 2500SOL     OW19132   1.066   3.231  11.198  0.2131 -0.3072  0.2000
 2500SOL    HW119133   1.100   3.260  11.284 -0.1720  4.7652 -1.3178
 2500SOL    HW219134   0.985   3.281  11.193  0.4359 -0.1257 -1.5741
 2501SOL     OW19135   2.527   3.176   3.885  0.0357 -0.3762 -0.6467
 2501SOL    HW119136   2.560   3.232   3.956  2.0177 -2.8401  0.3617
 2501SOL    HW219137   2.463   3.236   3.845 -0.2406 -1.2486 -1.5134
 2502SOL     OW19138   2.739   4.145   6.247 -0.4208  0.3067  0.1405
 2502SOL    HW119139   2.703   4.221   6.200  0.0934 -0.3024 -1.2449
 2502SOL    HW219140   2.819   4.126   6.199 -2.3371 -3.9473 -1.3620
 2503SOL     OW19141   0.187   0.019   4.902  0.0432  0.3559 -0.5119
 2503SOL    HW119142   0.205   0.059   4.817  0.5852 -1.1624 -1.1246
 2503SOL    HW219143   0.139   4.681   4.878 -0.1310 -0.0889  1.3221
 2504SOL     OW19144   0.892   0.749   2.347 -0.4206  0.4554  0.9360
 2504SOL    HW119145   0.866   0.779   2.260  0.8269  1.2408  0.8321
 2504SOL    HW219146   0.957   0.818   2.362  1.0325 -0.1605 -2.2910
 2505SOL     OW19147   0.029   4.189  14.439 -0.1181 -0.0452 -0.3308
 2505SOL    HW119148   4.706   4.163  14.506  0.8044  2.0670  1.3627
 2505SOL    HW219149   0.085   4.245  14.492 -1.5522 -1.2374  2.4885
 2506SOL     OW19150   0.966   3.538   1.452  0.2184  0.1201  0.4247
 2506SOL    HW119151   0.923   3.461   1.490  0.8316 -0.4284  0.0029
 2506SOL    HW219152   1.027   3.557   1.523  0.8065 -0.4710  0.0743
 2507SOL     OW19153   0.359   2.718   6.855  0.1785 -0.2446 -0.0319
 2507SOL    HW119154   0.300   2.674   6.794 -0.2003 -2.1288  1.6977
 2507SOL    HW219155   0.435   2.740   6.801  0.0475  1.6341  0.5495
 2508SOL     OW19156   3.517   1.999   1.653 -0.7395 -0.0658  0.7222
 2508SOL    HW119157   3.469   2.009   1.571 -2.5074 -3.2602  1.3917
 2508SOL    HW219158   3.499   1.908   1.678 -0.3785 -0.4838 -0.5428
 2509SOL     OW19159   4.160   1.563   7.194 -0.2641 -0.3772  0.5791
 2509SOL    HW119160   4.065   1.574   7.193  0.0808  2.4730  0.8493
 2509SOL    HW219161   4.183   1.651   7.166  1.0571 -0.3777  1.6890
 2510SOL     OW19162   2.660   2.261  17.237 -0.8419 -0.1938  0.1798
 2510SOL    HW119163   2.606   2.337  17.211  1.8197  1.7519  0.3849
 2510SOL    HW219164   2.588   2.204  17.263 -0.2824 -0.0221  2.0491
 2511SOL     OW19165   3.282   2.638   2.190  0.6591 -0.6717 -0.3741
 2511SOL    HW119166   3.234   2.681   2.119  1.0532 -0.2913 -0.4080
 2511SOL    HW219167   3.367   2.611   2.156  0.8459  2.0750 -2.0421
 2512SOL     OW19168   3.565   1.912  14.190  0.1600  1.0814  0.2152
 2512SOL    HW119169   3.604   1.833  14.153 -2.1568 -0.1471  0.4075
 2512SOL    HW219170   3.575   1.886  14.281 -0.2731 -1.7646 -0.5330
 2513SOL     OW19171   2.241   3.159   3.401  0.0031 -0.3296  0.1676
 2513SOL    HW119172   2.325   3.204   3.410 -0.5065  0.4585  0.9981
 2513SOL    HW219173   2.208   3.163   3.491  1.9942 -0.6918  0.9168
 2514SOL     OW19174   2.495   4.089   5.677  0.8368  0.3582  0.0906
 2514SOL    HW119175   2.472   3.999   5.652 -0.3816  0.6013  0.3634
 2514SOL    HW219176   2.435   4.101   5.750 -0.8688 -0.0238 -1.2447
 2515SOL     OW19177   1.103   1.345  12.121 -0.0266  0.3083 -0.3895
 2515SOL    HW119178   1.185   1.298  12.105 -0.9175 -1.3652  0.0155
 2515SOL    HW219179   1.143   1.431  12.106 -0.1286 -0.0314 -2.5647
 2516SOL     OW19180   0.689   0.322   5.946  0.4580 -0.6105 -0.1872
 2516SOL    HW119181   0.754   0.392   5.954 -0.6793  0.4313 -0.0664
 2516SOL    HW219182   0.723   0.255   6.005  3.3890  1.7872  0.8044
 2517SOL     OW19183   3.058   1.288   2.678 -0.6708 -0.0683 -0.4769
 2517SOL    HW119184   3.131   1.236   2.712  0.4747  0.9110 -1.4304
 2517SOL    HW219185   3.086   1.289   2.586  1.3090 -1.7190  0.1201
 2518SOL     OW19186   3.049   1.602   3.136 -0.2141  0.4502 -0.1312
 2518SOL    HW119187   3.075   1.535   3.073  0.3835  1.1455 -0.6253
 2518SOL    HW219188   2.960   1.568   3.148 -0.4598  0.8253 -0.8688
 2519SOL     OW19189   3.348   0.759   5.878 -0.8721 -0.1073 -0.0930
 2519SOL    HW119190   3.334   0.732   5.969  0.3342  0.4003  0.2531
 2519SOL    HW219191   3.289   0.830   5.854 -1.8138 -0.3526  1.5233
 2520SOL     OW19192   4.240   0.404   4.282  0.2575 -0.2977 -0.0938
 2520SOL    HW119193   4.165   0.429   4.334 -0.3685 -2.0727 -0.1295
 2520SOL    HW219194   4.218   0.422   4.191 -3.1286  1.0895  1.0186
 2521SOL     OW19195   1.622   0.797   2.369  0.0464  0.2320 -0.5332
 2521SOL    HW119196   1.632   0.836   2.282  1.0769  1.8217  0.2978
 2521SOL    HW219197   1.619   0.872   2.429 -0.5376  0.5194 -0.9255
 2522SOL     OW19198   2.747   1.752   1.847 -0.4815 -0.2895  0.1524
 2522SOL    HW119199   2.690   1.686   1.887 -0.1072 -2.0962 -2.2999
 2522SOL    HW219200   2.693   1.826   1.876 -0.7094 -0.4453  0.1288
 2523SOL     OW19201   4.387   3.331   4.809  0.5842 -1.0005  0.5923
 2523SOL    HW119202   4.441   3.304   4.735  1.8376 -2.7340  2.1300
 2523SOL    HW219203   4.307   3.286   4.781 -0.1811 -0.4564  1.9242
 2524SOL     OW19204   3.030   1.045  12.932 -0.2333 -0.3464  0.0894
 2524SOL    HW119205   2.978   1.125  12.938 -1.2247 -1.1268  1.9292
 2524SOL    HW219206   3.034   1.021  13.024 -1.3236 -0.3908  0.1180
 2525SOL     OW19207   1.773   1.417   7.493  0.1506 -0.3562 -0.0070
 2525SOL    HW119208   1.826   1.380   7.564  0.1332  1.4197  0.9338
 2525SOL    HW219209   1.706   1.473   7.532  1.7737  0.0599  2.2230
 2526SOL     OW19210   3.726   1.897  12.950 -0.0101 -0.1692 -0.0918
 2526SOL    HW119211   3.761   1.961  12.888  3.4244 -0.1639  1.8662
 2526SOL    HW219212   3.807   1.856  12.980  0.7956  0.9801 -0.7036
 2527SOL     OW19213   1.253   2.272   7.662 -0.1377 -0.4064 -0.4404
 2527SOL    HW119214   1.339   2.311   7.644  0.2713 -1.6330 -1.1748
 2527SOL    HW219215   1.277   2.180   7.670 -1.3002 -0.8435 -2.0610
 2528SOL     OW19216   2.201   2.390   9.568  0.2849  0.2890 -0.6912
 2528SOL    HW119217   2.111   2.421   9.580  0.0086 -0.1729 -1.5755
 2528SOL    HW219218   2.214   2.338   9.647  0.1823  3.0089  1.0998
 2529SOL     OW19219   2.776   4.510   6.038 -0.6190 -0.1285  0.0103
 2529SOL    HW119220   2.729   4.592   6.021  0.3129  0.6193  1.0053
 2529SOL    HW219221   2.709   4.470   6.093  0.7680 -0.6869  1.2865
 2530SOL     OW19222   1.535   2.333   7.959  0.1424 -0.4584  0.3969
 2530SOL    HW119223   1.543   2.244   7.926  5.1466  0.4436 -0.8108
 2530SOL    HW219224   1.596   2.378   7.901 -1.2530  0.4276 -0.3951
 2531SOL     OW19225   2.350   4.009   7.909  0.3792  0.0679 -0.1185
 2531SOL    HW119226   2.409   3.941   7.942 -1.4784 -1.6491 -0.3406
 2531SOL    HW219227   2.284   4.001   7.978  0.7169  3.5203  0.5920
 2532SOL     OW19228   0.428   2.662   5.228  0.0161 -0.1164  0.2677
 2532SOL    HW119229   0.442   2.691   5.318 -0.1892 -0.6601  0.4738
 2532SOL    HW219230   0.505   2.704   5.190 -0.9125  2.2244  0.9689
 2533SOL     OW19231   4.533   4.269   6.407  0.1988 -0.7482  0.1626
 2533SOL    HW119232   4.581   4.311   6.479 -1.6771  2.8125 -0.6898
 2533SOL    HW219233   4.496   4.190   6.445 -1.6069  0.9007  1.8571
 2534SOL     OW19234   0.807   3.832   6.810  0.4626  0.1391  0.0595
 2534SOL    HW119235   0.840   3.921   6.823 -0.1354  0.0344  2.2129
 2534SOL    HW219236   0.881   3.787   6.770  0.8823 -0.3529  1.4119
 2535SOL     OW19237   2.767   2.247   6.934  0.6714 -0.0992  0.1777
 2535SOL    HW119238   2.757   2.229   7.027 -0.9478  2.9620  0.6041
 2535SOL    HW219239   2.710   2.176   6.904  0.3632 -0.2143  1.0443
 2536SOL     OW19240   0.902   2.927   3.056 -0.4707  0.0003 -0.2223
 2536SOL    HW119241   0.880   2.842   3.095  0.6605  0.5015  1.5374
 2536SOL    HW219242   0.818   2.938   3.011  0.8951  1.5915 -2.3594
 2537SOL     OW19243   4.112   1.982   3.481 -0.4766 -0.4700 -0.5927
 2537SOL    HW119244   4.175   1.910   3.470 -0.5452 -0.8774  1.7549
 2537SOL    HW219245   4.119   2.016   3.392  0.4376  1.3662  0.1779
 2538SOL     OW19246   3.229   0.175   6.794 -0.5823 -0.2294  0.5489
 2538SOL    HW119247   3.170   0.137   6.858  0.1185  0.7870  1.8015
 2538SOL    HW219248   3.209   0.124   6.715 -1.4398 -0.0158  0.6267
 2539SOL     OW19249   4.359   3.940   7.073  0.1107 -0.4729 -0.9077
 2539SOL    HW119250   4.278   3.991   7.063 -0.8172 -1.7650 -0.0095
 2539SOL    HW219251   4.331   3.888   7.148 -1.0586  0.1837 -0.8731
 2540SOL     OW19252   3.316   3.539   3.979 -0.1689 -0.3623  0.1921
 2540SOL    HW119253   3.275   3.458   4.007  1.4780 -0.4304  2.4788
 2540SOL    HW219254   3.299   3.523   3.886 -1.6377 -0.5871  0.5023
 2541SOL     OW19255   1.776   1.847   0.148 -1.0786  0.2758 -0.1414
 2541SOL    HW119256   1.845   1.861   0.083 -2.0028  0.3647 -1.1065
 2541SOL    HW219257   1.744   1.935   0.169  1.5021  1.6724 -1.9614
 2542SOL     OW19258   2.620   4.539   4.932 -0.5214 -0.2429  0.1267
 2542SOL    HW119259   2.677   4.544   5.009 -1.7905 -2.1578  1.2117
 2542SOL    HW219260   2.535   4.520   4.970  0.2946 -2.0988  1.0437
 2543SOL     OW19261   4.191   0.209   5.108 -0.3038  0.4012  0.5619
 2543SOL    HW119262   4.101   0.195   5.139 -1.7319  0.8612 -3.3888
 2543SOL    HW219263   4.239   0.207   5.191  0.3818 -1.0095  0.1372
 2544SOL     OW19264   0.901   1.461   3.765  0.1199 -0.5725  0.6417
 2544SOL    HW119265   0.967   1.445   3.698 -0.7431  2.1950 -0.8491
 2544SOL    HW219266   0.844   1.385   3.759  0.4283 -0.6519 -1.3259
 2545SOL     OW19267   2.495   1.067   8.622 -0.0626 -0.3814  0.1484
 2545SOL    HW119268   2.569   1.015   8.592  0.4018  1.3326 -1.6942
 2545SOL    HW219269   2.464   1.103   8.539 -1.6294  1.3241  1.4529
 2546SOL     OW19270   4.034   0.971   4.136  0.1060  0.1439  0.4945
 2546SOL    HW119271   3.990   0.899   4.182  1.0944 -0.3640  0.6502
 2546SOL    HW219272   4.039   1.040   4.202 -1.1260 -0.3397  1.0849
 2547SOL     OW19273   2.960   2.255  12.705 -0.0182  0.1360 -0.5381
 2547SOL    HW119274   2.916   2.174  12.680 -1.2850  0.3648  0.9538
 2547SOL    HW219275   2.949   2.314  12.630 -1.8943  1.0060  0.4112
 2548SOL     OW19276   4.675   3.489   6.220  0.0095  0.1024  0.3917
 2548SOL    HW119277   4.680   3.395   6.200  0.8466 -0.1073  1.6460
 2548SOL    HW219278   4.583   3.483   6.246  0.0239 -0.0573  0.4062
 2549SOL     OW19279   2.640   0.145   2.247  0.4487 -0.3406 -0.0474
 2549SOL    HW119280   2.560   0.145   2.300 -0.1809 -1.2750 -0.9916
 2549SOL    HW219281   2.603   0.118   2.163 -0.0583  0.1288  0.0209
 2550SOL     OW19282   1.683   0.137   2.587  0.5036  0.0272  0.2145
 2550SOL    HW119283   1.593   0.171   2.591 -0.1740 -1.6452 -0.5167
 2550SOL    HW219284   1.685   0.071   2.655 -0.8925  1.1326  1.3281
 2551SOL     OW19285   4.114   3.797   3.310 -0.6919  0.1678 -0.1311
 2551SOL    HW119286   4.199   3.835   3.331 -0.5056  0.6653 -1.8125
 2551SOL    HW219287   4.105   3.738   3.385 -1.3247  0.8661  0.3493
 2552SOL     OW19288   4.238   2.494   1.292 -0.1541 -0.1996 -0.0187
 2552SOL    HW119289   4.258   2.420   1.234 -1.0690 -0.7343  0.3339
 2552SOL    HW219290   4.322   2.538   1.304  0.6353 -1.1079 -2.1267
 2553SOL     OW19291   3.540   0.590  13.916 -0.2356  0.1327 -0.1966
 2553SOL    HW119292   3.522   0.683  13.908  0.5616  0.3997  1.0934
 2553SOL    HW219293   3.487   0.555  13.845 -1.4370  2.0412 -0.2194
 2554SOL     OW19294   3.026   1.113   3.588 -0.2331  0.1662 -0.3745
 2554SOL    HW119295   3.086   1.048   3.552 -0.3766 -0.8832  1.2665
 2554SOL    HW219296   2.994   1.068   3.667  0.3673 -1.7151 -1.1889
 2555SOL     OW19297   3.265   1.068   6.941 -0.7152  0.2761 -0.3143
 2555SOL    HW119298   3.265   1.136   6.874 -0.4547  0.3924 -0.1974
 2555SOL    HW219299   3.171   1.063   6.957 -0.8314 -0.7585 -1.3633
 2556SOL     OW19300   4.560   1.828   6.218 -0.0403 -0.1969  0.4119
 2556SOL    HW119301   4.560   1.917   6.183  2.4394  0.7232  2.7567
 2556SOL    HW219302   4.560   1.773   6.139  0.2978  0.2232  0.1262
 2557SOL     OW19303   1.454   3.982   6.422 -0.5147 -0.1885  0.0474
 2557SOL    HW119304   1.521   4.012   6.484 -1.5600 -0.2665  1.1970
 2557SOL    HW219305   1.392   3.943   6.483  1.2875 -0.7842  1.5177
 2558SOL     OW19306   1.315   0.956  10.083 -0.2483 -0.8443 -0.0091
 2558SOL    HW119307   1.400   0.943  10.042 -0.7856 -0.4442 -1.2259
 2558SOL    HW219308   1.286   0.867  10.105  0.9346 -0.4947  3.0499
 2559SOL     OW19309   0.541   4.174   2.953 -0.1128 -0.3457  0.0442
 2559SOL    HW119310   0.510   4.133   3.033  0.3416  0.6198  0.7111
 2559SOL    HW219311   0.455   4.207   2.924 -0.9900 -1.2722  1.6038
 2560SOL     OW19312   0.519   1.971   7.459  0.1524 -0.6822 -0.3072
 2560SOL    HW119313   0.508   1.896   7.517  0.3776  0.3312  1.0699
 2560SOL    HW219314   0.597   2.009   7.499  0.5968 -0.5394 -1.3034
 2561SOL     OW19315   0.393   3.572   0.795  0.7059  0.5055  0.3617
 2561SOL    HW119316   0.305   3.573   0.832  0.5316 -1.7631  0.0046
 2561SOL    HW219317   0.381   3.634   0.723  0.1976  1.1655  1.0124
 2562SOL     OW19318   1.293   2.850   9.421  0.0500  0.4053 -0.3260
 2562SOL    HW119319   1.373   2.898   9.400  0.5896 -0.3562  0.0017
 2562SOL    HW219320   1.326   2.800   9.496  0.6829  1.4119  0.0780
 2563SOL     OW19321   0.899   3.250   7.361  0.4356  0.2034 -0.2682
 2563SOL    HW119322   0.942   3.215   7.440 -0.4474  0.0465  0.1441
 2563SOL    HW219323   0.973   3.276   7.307  0.8039 -0.4765 -0.0972
 2564SOL     OW19324   2.920   2.524   2.201  0.9532 -0.1034 -0.2295
 2564SOL    HW119325   2.947   2.604   2.156 -1.1954  1.1651  0.8080
 2564SOL    HW219326   2.836   2.548   2.239  0.0600  1.8563 -3.4554
 2565SOL     OW19327   4.342   2.325   3.050 -0.3334  0.0842  0.1367
 2565SOL    HW119328   4.319   2.389   3.117 -1.4014  0.3614 -0.5075
 2565SOL    HW219329   4.436   2.338   3.035 -0.3507  0.8706  0.7177
 2566SOL     OW19330   4.015   4.131   0.847 -0.4168  0.0723 -0.5237
 2566SOL    HW119331   3.925   4.146   0.875 -0.9149 -1.4996 -1.2717
 2566SOL    HW219332   4.014   4.043   0.809  1.7321 -0.8310  1.5194
 2567SOL     OW19333   3.452   4.720   7.592 -0.2731  0.2944  0.0548
 2567SOL    HW119334   3.446   4.732   7.687 -0.6111  0.4944  0.0084
 2567SOL    HW219335   3.375   0.032   7.571  0.0098  0.6761 -0.0221
 2568SOL     OW19336   1.845   3.750  11.679  0.3242 -0.6990 -0.1772
 2568SOL    HW119337   1.777   3.815  11.701 -0.5867 -1.6052 -0.3314
 2568SOL    HW219338   1.812   3.668  11.715 -0.5382  0.9594  2.8963
 2569SOL     OW19339   0.266   0.733   4.844  0.1984 -0.5182  0.4296
 2569SOL    HW119340   0.298   0.740   4.935  0.3821  0.8362  0.2727
 2569SOL    HW219341   0.184   0.688   4.860  1.8701 -3.5971  0.3719
 2570SOL     OW19342   0.463   2.726   9.299 -0.0731  0.6321 -0.1589
 2570SOL    HW119343   0.387   2.762   9.344 -0.8835  0.0549 -1.0571
 2570SOL    HW219344   0.493   2.800   9.246  0.9464  0.7490  0.5907
 2571SOL     OW19345   4.419   2.343  12.395 -0.2730 -0.1569  0.2505
 2571SOL    HW119346   4.503   2.347  12.350 -0.3621  0.3372  0.1274
 2571SOL    HW219347   4.444   2.314  12.483  0.8351  1.0300  0.3262
 2572SOL     OW19348   2.466   0.608   3.261  0.6291 -0.6053 -0.1853
 2572SOL    HW119349   2.478   0.513   3.267  0.1509 -0.7396 -1.3497
 2572SOL    HW219350   2.456   0.636   3.352  0.4383 -0.1925 -0.3327
 2573SOL     OW19351   0.695   2.853   4.145  0.2509 -0.2539 -0.4512
 2573SOL    HW119352   0.697   2.907   4.066 -0.0787 -1.9221 -1.5929
 2573SOL    HW219353   0.679   2.919   4.212  2.8763  0.1705 -0.2303
 2574SOL     OW19354   4.238   1.373   8.308 -0.2119  0.1260 -0.0597
 2574SOL    HW119355   4.311   1.409   8.259  1.0762 -1.6339  0.6086
 2574SOL    HW219356   4.172   1.362   8.239 -0.9527  0.2606  0.6166
 2575SOL     OW19357   0.910   2.477  15.668 -0.2615 -0.0994  0.7133
 2575SOL    HW119358   0.951   2.474  15.754  0.4187 -3.5374  0.2876
 2575SOL    HW219359   0.821   2.509  15.687 -1.7911 -3.2690 -1.0026
 2576SOL     OW19360   4.458   2.166   7.482 -0.3894  0.1588  0.1632
 2576SOL    HW119361   4.510   2.130   7.554 -0.0424  2.4174  1.0235
 2576SOL    HW219362   4.529   2.192   7.423  2.0281 -0.5648  2.7184
 2577SOL     OW19363   2.828   0.836   7.893 -0.0967 -0.5029 -0.2737
 2577SOL    HW119364   2.839   0.787   7.812  0.6883 -2.5190  1.0574
 2577SOL    HW219365   2.741   0.808   7.924 -0.7539  1.4210 -0.3425
 2578SOL     OW19366   2.549   3.870   0.754 -0.3965 -0.1721  0.2959
 2578SOL    HW119367   2.630   3.826   0.728 -0.5182  1.2127 -2.3878
 2578SOL    HW219368   2.551   3.863   0.850  0.4080  1.7926  0.4205
 2579SOL     OW19369   0.100   1.932   5.424 -0.2268 -0.2511 -0.1782
 2579SOL    HW119370   0.143   2.018   5.426  1.0248 -0.9219  1.6451
 2579SOL    HW219371   0.011   1.969   5.424 -0.4195 -0.7288 -1.7065
 2580SOL     OW19372   1.971   0.510  17.644  0.4908 -0.2631 -0.0161
 2580SOL    HW119373   1.960   0.555  17.560  2.1445  0.0845 -0.0517
 2580SOL    HW219374   1.985   0.592  17.693 -0.4582  0.1391 -0.4232
 2581SOL     OW19375   4.690   0.400   6.228 -0.1013  0.6102 -0.3055
 2581SOL    HW119376   4.662   0.351   6.151 -2.3315  0.6991  0.4423
 2581SOL    HW219377   4.662   0.345   6.302  0.8404  1.7996  0.9360
 2582SOL     OW19378   3.336   0.908   1.180  0.4874  0.1020  0.0931
 2582SOL    HW119379   3.381   0.986   1.213 -0.7622  0.7127  0.3256
 2582SOL    HW219380   3.288   0.882   1.259  1.8423  1.3135  1.3367
 2583SOL     OW19381   3.217   2.521  12.535 -0.4230 -0.2628 -0.2727
 2583SOL    HW119382   3.303   2.548  12.565  0.1933 -1.1260 -1.2641
 2583SOL    HW219383   3.237   2.476  12.453  1.0474  1.1537 -0.6897
 2584SOL     OW19384   4.087   2.398   0.046 -0.3162 -0.5427  0.4777
 2584SOL    HW119385   4.027   2.327   0.024  1.4425 -1.6511 -0.7303
 2584SOL    HW219386   4.020   2.465   0.060  0.6989  0.3619  0.9613
 2585SOL     OW19387   3.568   3.148   6.280 -0.5925  0.5052  0.4728
 2585SOL    HW119388   3.628   3.078   6.308 -1.5248 -0.6610 -0.4641
 2585SOL    HW219389   3.624   3.226   6.287 -0.4071  0.3475  0.7640
 2586SOL     OW19390   3.073   4.697   7.731  0.1505  0.2293  0.5430
 2586SOL    HW119391   3.101   0.014   7.659  0.6657 -0.2603  0.3466
 2586SOL    HW219392   3.088   4.623   7.672 -3.2922 -2.0598  2.5582
 2587SOL     OW19393   1.087   1.005   3.271 -0.2735 -0.7442 -0.1595
 2587SOL    HW119394   1.139   1.005   3.190  0.0253  1.8197  0.0475
 2587SOL    HW219395   1.157   0.985   3.332 -0.3843  2.6591  1.0564
 2588SOL     OW19396   0.855   1.858   7.293  0.0090 -0.1013 -0.3981
 2588SOL    HW119397   0.805   1.813   7.225  1.6313 -2.8167  0.1948
 2588SOL    HW219398   0.942   1.859   7.254  0.8747  0.8603  1.5649
 2589SOL     OW19399   3.909   0.485   3.607  0.2377 -0.2072 -0.2050
 2589SOL    HW119400   3.852   0.435   3.667 -0.2694 -2.3948 -2.5181
 2589SOL    HW219401   3.878   0.575   3.619  3.3527  1.0076 -1.3347
 2590SOL     OW19402   2.026   2.646   7.296 -0.1531  0.1370 -0.2268
 2590SOL    HW119403   2.113   2.685   7.304 -0.6478  0.8029  1.9378
 2590SOL    HW219404   2.054   2.561   7.260  2.5134  0.6856  0.5935
 2591SOL     OW19405   3.985   1.126   0.619  0.3297 -0.5421  0.0122
 2591SOL    HW119406   3.961   1.172   0.539 -3.4617 -0.0835  1.3993
 2591SOL    HW219407   3.968   1.037   0.588 -1.7876 -0.0500 -0.2378
 2592SOL     OW19408   3.775   2.838   4.357  0.3832 -0.3647  0.3766
 2592SOL    HW119409   3.864   2.828   4.394 -0.8127 -1.3584  3.0118
 2592SOL    HW219410   3.776   2.922   4.311  3.3850  0.2488  1.5519
 2593SOL     OW19411   0.187   1.133   2.269  0.0026 -0.4264  0.1886
 2593SOL    HW119412   0.095   1.147   2.244  0.9196  3.2923 -0.9861
 2593SOL    HW219413   0.239   1.162   2.194 -2.5207  1.8713 -0.6746
 2594SOL     OW19414   4.712   2.644   2.894  0.2143 -0.1743  0.5416
 2594SOL    HW119415   4.653   2.678   2.961  1.1547  0.5168  1.0210
 2594SOL    HW219416   0.045   2.705   2.892  1.7895 -2.1550 -1.9951
 2595SOL     OW19417   0.998   0.969   5.369  0.2482  0.3557 -0.1211
 2595SOL    HW119418   1.008   0.874   5.374  0.3184  0.4106  0.8150
 2595SOL    HW219419   0.906   0.976   5.345  0.3303  0.9916 -0.2433
 2596SOL     OW19420   3.360   3.936   6.198 -0.3410  0.0839 -0.3508
 2596SOL    HW119421   3.307   3.925   6.119 -0.8081  0.7690 -0.1385
 2596SOL    HW219422   3.293   3.954   6.265 -0.0548 -1.3975  0.3160
 2597SOL     OW19423   1.732   0.926   6.116 -0.6402 -0.4663 -0.1714
 2597SOL    HW119424   1.720   1.020   6.110 -2.4680 -0.7759 -1.2850
 2597SOL    HW219425   1.648   0.895   6.083 -0.7322 -0.6487  0.2386
 2598SOL     OW19426   1.466   0.050  11.194  0.1135 -0.5113 -0.0259
 2598SOL    HW119427   1.546   4.739  11.191  0.1669 -0.3470 -1.5353
 2598SOL    HW219428   1.393   4.730  11.187 -0.6005  0.1855  1.3362
 2599SOL     OW19429   0.829   2.237   7.657  0.5203 -0.6419  0.5334
 2599SOL    HW119430   0.861   2.182   7.728  1.9796 -0.3872  0.0646
 2599SOL    HW219431   0.913   2.238   7.611  0.0285 -0.0405 -0.3661
 2600SOL     OW19432   1.703   1.380   3.129 -0.8072 -0.0404  0.0691
 2600SOL    HW119433   1.689   1.297   3.083 -0.4782 -0.2250  0.3022
 2600SOL    HW219434   1.759   1.354   3.202 -1.7772  1.1004  1.2135
 2601SOL     OW19435   1.981   3.015   7.357 -0.4215 -0.2442 -0.2772
 2601SOL    HW119436   1.937   3.058   7.431 -1.9905  0.4993 -1.6517
 2601SOL    HW219437   1.908   2.989   7.301  0.3853 -1.3413 -0.7980
 2602SOL     OW19438   0.620   0.999   6.770  0.0348 -0.1313  0.3364
 2602SOL    HW119439   0.699   1.052   6.782  2.1432 -2.9030 -1.2027
 2602SOL    HW219440   0.642   0.928   6.831  2.1363 -0.3391 -0.6751
 2603SOL     OW19441   3.839   0.160   6.291  0.8107 -0.3623  0.3585
 2603SOL    HW119442   3.815   0.070   6.269  0.3212 -0.6495  2.1110
 2603SOL    HW219443   3.851   0.151   6.385  0.3150  0.1203  0.4663
 2604SOL     OW19444   4.648   3.021   4.187 -0.0013 -0.6730  0.4490
 2604SOL    HW119445   4.594   2.943   4.192 -1.5143  0.2764 -0.8067
 2604SOL    HW219446   4.731   3.000   4.229  0.8053 -0.1843 -0.8877
 2605SOL     OW19447   3.610   0.814  13.265 -0.7772 -0.1404  0.0626
 2605SOL    HW119448   3.622   0.844  13.175 -2.9121 -0.6760 -0.4026
 2605SOL    HW219449   3.633   0.891  13.317 -0.5665  0.6530 -1.2161
 2606SOL     OW19450   1.851   4.372   5.925 -0.0984  0.2858 -0.3822
 2606SOL    HW119451   1.939   4.409   5.929  0.5909 -1.6005  1.8764
 2606SOL    HW219452   1.800   4.441   5.883  0.9959  0.3624 -1.5861
 2607SOL     OW19453   3.129   2.115  14.875 -0.6839  0.3674  0.2743
 2607SOL    HW119454   3.161   2.174  14.943 -0.9173 -0.5981  1.2157
 2607SOL    HW219455   3.079   2.163  14.809 -0.5183  2.4308  1.6455
 2608SOL     OW19456   1.449   0.484  16.815  0.0014 -0.2473  0.1629
 2608SOL    HW119457   1.536   0.512  16.842  0.3649 -0.6447 -0.5770
 2608SOL    HW219458   1.435   0.408  16.870 -1.0777 -1.1281 -1.3225
 2609SOL     OW19459   0.203   0.675   6.825 -0.0764  0.2041  0.2974
 2609SOL    HW119460   0.183   0.624   6.904  1.1157 -1.7739 -0.6560
 2609SOL    HW219461   0.155   0.622   6.761  0.3963 -0.5748  0.5764
 2610SOL     OW19462   3.234   3.764   8.859  0.4060 -0.3649 -0.4238
 2610SOL    HW119463   3.142   3.787   8.872 -0.1967 -3.2011  0.3378
 2610SOL    HW219464   3.265   3.850   8.830  0.7589 -0.6063 -0.7631
 2611SOL     OW19465   3.501   1.805   2.168  0.0407 -0.1858 -0.1432
 2611SOL    HW119466   3.409   1.831   2.164  0.3749  1.1141  0.3963
 2611SOL    HW219467   3.523   1.766   2.084 -1.0439 -1.0211 -0.0352
 2612SOL     OW19468   1.022   0.215   2.250 -0.4820 -0.4170 -0.8660
 2612SOL    HW119469   0.957   0.205   2.181 -0.8182  0.2394 -0.6454
 2612SOL    HW219470   1.025   0.308   2.273  0.0013 -0.7065  0.2457
 2613SOL     OW19471   0.682   3.279   8.620  0.2882  0.6232  0.1260
 2613SOL    HW119472   0.701   3.204   8.676 -0.0072 -1.0584 -2.0707
 2613SOL    HW219473   0.657   3.349   8.681 -2.0905 -0.5697  0.4991
 2614SOL     OW19474   2.897   2.948   6.841  0.4493  0.3218 -0.2958
 2614SOL    HW119475   2.928   2.922   6.927 -0.0430 -0.5248 -0.3759
 2614SOL    HW219476   2.802   2.934   6.844  0.5694 -0.5822 -0.8224
 2615SOL     OW19477   4.542   2.745  10.173  0.5249  1.0001  0.1730
 2615SOL    HW119478   4.579   2.666  10.211 -0.6587  0.0126 -0.7430
 2615SOL    HW219479   4.580   2.735  10.086 -1.6482  0.2257 -0.6973
 2616SOL     OW19480   3.854   0.502   6.792  0.7266 -0.1013 -0.1939
 2616SOL    HW119481   3.796   0.426   6.792 -0.7437  1.0170 -0.6938
 2616SOL    HW219482   3.825   0.561   6.722  0.3835 -0.4688 -0.3561
 2617SOL     OW19483   0.418   2.136   6.594 -0.0177 -0.3565  0.0733
 2617SOL    HW119484   0.361   2.060   6.607 -0.2957 -0.3600 -1.1527
 2617SOL    HW219485   0.479   2.102   6.528  2.0418  0.7994  1.4026
 2618SOL     OW19486   2.408   4.725   4.010 -0.1351 -0.1884  0.2188
 2618SOL    HW119487   2.333   0.011   3.957  0.2783  1.3515  0.4136
 2618SOL    HW219488   2.389   0.002   4.102 -3.6664 -0.3362 -0.4718
 2619SOL     OW19489   2.632   3.758   2.593  0.3621 -0.1751  0.7303
 2619SOL    HW119490   2.678   3.748   2.510  0.9400  0.1765  1.0063
 2619SOL    HW219491   2.704   3.807   2.634 -0.8559  0.6787  1.8530
 2620SOL     OW19492   4.205   1.784   7.911 -0.3566 -0.4757  0.2088
 2620SOL    HW119493   4.110   1.788   7.902 -0.3472 -0.3710  0.1514
 2620SOL    HW219494   4.225   1.699   7.870 -0.1153 -0.1501 -0.3542
 2621SOL     OW19495   1.036   1.740   4.413 -0.2031  0.5210 -0.0912
 2621SOL    HW119496   1.078   1.654   4.400 -1.8595 -0.4404  0.9260
 2621SOL    HW219497   0.998   1.757   4.327  0.8472  2.1177 -0.2358
 2622SOL     OW19498   0.646   1.202   8.255 -0.5043  0.4955  0.4800
 2622SOL    HW119499   0.636   1.155   8.338 -1.0659  0.7281  0.5431
 2622SOL    HW219500   0.662   1.125   8.201 -2.6433  0.7767 -0.5630
 2623SOL     OW19501   3.664   0.588   8.487 -0.0155  0.4267  0.1949
 2623SOL    HW119502   3.698   0.536   8.560 -0.4632  1.3105  1.0303
 2623SOL    HW219503   3.725   0.560   8.419 -1.5088 -1.0496 -0.5588
 2624SOL     OW19504   4.472   2.911   1.227  0.7631 -0.0870  0.3105
 2624SOL    HW119505   4.387   2.871   1.210 -0.5950  1.3574  3.7258
 2624SOL    HW219506   4.452   2.934   1.318  1.4270  0.7518  0.2459
 2625SOL     OW19507   3.392   4.270  13.162  0.3573  0.3017  0.4225
 2625SOL    HW119508   3.397   4.354  13.207  2.7300  0.4026 -0.0227
 2625SOL    HW219509   3.332   4.221  13.218  0.1199 -0.8437 -0.8352
 2626SOL     OW19510   1.389   0.906   1.669 -0.4945  0.2900  0.1599
 2626SOL    HW119511   1.386   0.996   1.701 -0.0166  0.3386  0.0766
 2626SOL    HW219512   1.297   0.878   1.671  0.1778 -2.1178 -1.8120
 2627SOL     OW19513   0.965   3.988   6.159  0.6988  0.3926  0.2887
 2627SOL    HW119514   1.016   3.969   6.237 -1.4698  1.6067  2.0119
 2627SOL    HW219515   0.979   4.083   6.160  1.7318  0.2391  0.3020
 2628SOL     OW19516   4.594   3.048   8.454  0.0108  0.2168 -0.1903
 2628SOL    HW119517   4.536   3.116   8.487 -0.0223 -0.9934  2.2421
 2628SOL    HW219518   4.535   2.973   8.461  0.5852 -0.1059  1.1844
 2629SOL     OW19519   4.221   0.640   7.220  0.3651  0.5301  0.0979
 2629SOL    HW119520   4.237   0.604   7.308 -1.8954  0.6598  0.5475
 2629SOL    HW219521   4.170   0.570   7.179  1.3648  0.1696 -0.5513
 2630SOL     OW19522   1.500   4.559   0.119  0.2627  0.1850 -0.0016
 2630SOL    HW119523   1.583   4.596   0.146  0.2215 -0.3285  0.8354
 2630SOL    HW219524   1.513   4.570   0.025  3.3092 -1.0481  0.2967
 2631SOL     OW19525   1.419   4.321   8.332  0.2552 -0.0958  0.0361
 2631SOL    HW119526   1.375   4.308   8.248  1.9984 -2.5669 -0.4884
 2631SOL    HW219527   1.347   4.322   8.396  0.2313  0.7794 -0.0077
 2632SOL     OW19528   3.890   2.563  13.274 -0.7396 -0.0860  0.1914
 2632SOL    HW119529   3.900   2.537  13.366  0.4097 -3.2101 -0.7970
 2632SOL    HW219530   3.979   2.559  13.237 -1.1865 -1.3985 -0.7600
 2633SOL     OW19531   0.128   0.855   7.672  0.6398 -0.1230 -0.5032
 2633SOL    HW119532   0.150   0.773   7.716  0.5086  0.2476  0.2700
 2633SOL    HW219533   0.143   0.831   7.581 -2.3968  1.3223 -1.3628
 2634SOL     OW19534   4.026   1.666   4.278 -0.1797 -0.0300 -0.5249
 2634SOL    HW119535   3.952   1.626   4.324  0.8360 -0.9173  0.3201
 2634SOL    HW219536   4.054   1.591   4.226 -2.3955 -0.2893 -1.3364
 2635SOL     OW19537   2.737   3.979  15.642 -0.6958 -0.1709  0.3584
 2635SOL    HW119538   2.816   4.016  15.604 -0.9737 -0.0536 -0.1082
 2635SOL    HW219539   2.702   3.939  15.562  1.0055  0.9920 -0.9763
 2636SOL     OW19540   1.063   0.974   9.921 -0.2450  0.0962 -0.1515
 2636SOL    HW119541   1.076   1.030   9.845  1.1726  1.1187  0.8464
 2636SOL    HW219542   1.126   1.012   9.982  0.9069 -1.3149 -0.4471
 2637SOL     OW19543   2.192   1.961   6.846 -0.2779  0.0854 -0.8499
 2637SOL    HW119544   2.248   1.897   6.891  0.7426 -0.6891 -3.2292
 2637SOL    HW219545   2.135   2.004   6.910 -0.1296 -0.8524 -0.0807
 2638SOL     OW19546   3.683   1.541   5.603  0.2338  0.4937 -0.4031
 2638SOL    HW119547   3.735   1.580   5.673  1.6174  0.7200 -1.5656
 2638SOL    HW219548   3.615   1.609   5.607 -1.8163 -1.4571 -1.8274
 2639SOL     OW19549   0.913   0.260   6.861  0.3670 -0.0629  0.8307
 2639SOL    HW119550   0.968   0.294   6.931  1.6846  0.3921 -0.4449
 2639SOL    HW219551   0.947   0.314   6.790 -2.5789  2.0203  0.9621
 2640SOL     OW19552   0.983   3.913   3.593  0.0004 -0.2169 -0.3810
 2640SOL    HW119553   0.899   3.881   3.627 -0.2885  0.2073 -0.6942
 2640SOL    HW219554   0.950   3.942   3.508  0.9821 -1.0689 -1.0491
 2641SOL     OW19555   2.368   2.716  16.061 -0.4593  0.9383  0.3663
 2641SOL    HW119556   2.348   2.704  15.969 -2.6241 -1.6234  1.1558
 2641SOL    HW219557   2.285   2.746  16.100  0.9715  1.8541  2.7075
 2642SOL     OW19558   4.609   1.871   1.648  0.0130 -0.1463  0.1187
 2642SOL    HW119559   4.615   1.830   1.734 -0.7018  1.6275  1.0148
 2642SOL    HW219560   4.532   1.928   1.651  0.3692  0.3245  0.4308
 2643SOL     OW19561   2.741   3.568   1.916  0.3842 -0.0847 -0.2601
 2643SOL    HW119562   2.787   3.558   1.832 -0.4368 -0.2852 -0.6829
 2643SOL    HW219563   2.650   3.555   1.890 -0.0781  0.5805  1.0284
 2644SOL     OW19564   2.547   4.548   4.608 -0.1902 -0.4191  0.1459
 2644SOL    HW119565   2.510   4.538   4.696  0.3852  0.9784  0.5582
 2644SOL    HW219566   2.528   4.465   4.565  0.5150 -0.5236  0.0296
 2645SOL     OW19567   3.082   0.730   2.481 -0.4366  0.3006 -0.4423
 2645SOL    HW119568   3.166   0.772   2.497  0.1666 -1.2649  0.5523
 2645SOL    HW219569   3.113   0.647   2.518  0.1439  0.5937 -0.2807
 2646SOL     OW19570   4.134   4.532   3.207 -0.5999  0.0110 -0.5804
 2646SOL    HW119571   4.060   4.592   3.216  0.2234  0.9570 -0.1104
 2646SOL    HW219572   4.121   4.506   3.115 -0.0771 -2.2553 -0.0300
 2647SOL     OW19573   1.472   4.596  16.503  0.7059  0.6338  0.1940
 2647SOL    HW119574   1.462   4.685  16.537  0.4250  0.5863  0.2349
 2647SOL    HW219575   1.490   4.606  16.409  0.7824 -0.5638  0.0736
 2648SOL     OW19576   3.114   0.778   5.349  0.3484 -0.2988  0.0271
 2648SOL    HW119577   3.091   0.836   5.422  1.7228 -0.8786  0.9304
 2648SOL    HW219578   3.193   0.819   5.313 -0.4925  1.7878  0.5478
 2649SOL     OW19579   2.411   2.665   7.508  0.1060  0.0787  0.0320
 2649SOL    HW119580   2.409   2.744   7.562 -0.4496 -0.1659  0.3668
 2649SOL    HW219581   2.502   2.669   7.478 -0.8633  1.9802 -2.7196
 2650SOL     OW19582   4.528   3.173  13.951  0.6832  0.0701 -0.7677
 2650SOL    HW119583   4.598   3.190  13.888  1.4103 -0.1967 -0.0441
 2650SOL    HW219584   4.558   3.089  13.986 -1.3883  0.2782  1.5560
 2651SOL     OW19585   4.716   3.731   8.027  0.5501  0.3045 -0.5726
 2651SOL    HW119586   4.718   3.791   7.953 -0.5246 -0.6571 -1.3812
 2651SOL    HW219587   0.069   3.719   8.044  0.3189  0.0565  0.5189
 2652SOL     OW19588   1.474   1.722   7.179  0.2807 -0.0892  0.0121
 2652SOL    HW119589   1.442   1.640   7.142  1.9063 -1.1420  0.9183
 2652SOL    HW219590   1.462   1.778   7.103  0.0902 -0.2478 -0.0745
 2653SOL     OW19591   0.610   2.025   0.313  0.2873  0.1922 -0.1891
 2653SOL    HW119592   0.601   1.998   0.222  0.9749  0.9292 -0.4771
 2653SOL    HW219593   0.602   1.944   0.363 -1.2285  1.4026  1.5249
 2654SOL     OW19594   4.516   4.542   3.444  0.1326 -0.0541  0.0599
 2654SOL    HW119595   4.454   4.601   3.401 -3.6965 -2.9847  1.6630
 2654SOL    HW219596   4.507   4.464   3.390  0.4117  0.3004 -0.5010
 2655SOL     OW19597   0.359   1.113   4.598 -0.1271  0.1349 -0.0216
 2655SOL    HW119598   0.439   1.153   4.632 -0.1150  0.8509 -0.8805
 2655SOL    HW219599   0.309   1.191   4.575  0.8646  0.8699  0.2969
 2656SOL     OW19600   0.636   3.502   6.695 -0.2074 -0.1564  1.0053
 2656SOL    HW119601   0.689   3.574   6.729 -1.7881  2.8103 -2.7158
 2656SOL    HW219602   0.674   3.495   6.608 -0.7359 -0.2024  0.7748
 2657SOL     OW19603   4.017   3.398   2.460  0.0322 -0.2221 -0.3087
 2657SOL    HW119604   3.998   3.364   2.548  0.6547 -1.5117 -0.6733
 2657SOL    HW219605   4.093   3.454   2.476  0.4066 -0.9294  0.4145
 2658SOL     OW19606   3.780   0.841   3.008 -0.0470 -0.0534  0.1017
 2658SOL    HW119607   3.794   0.916   3.066 -1.0335 -0.3237  0.6993
 2658SOL    HW219608   3.835   0.866   2.933  0.2885  0.3317  0.4777
 2659SOL     OW19609   4.016   0.958   2.385  0.2034 -0.5107 -0.5545
 2659SOL    HW119610   4.051   0.901   2.317 -0.4461 -0.6493 -0.7616
 2659SOL    HW219611   3.926   0.927   2.391  0.0930 -0.1294 -0.2279
 2660SOL     OW19612   4.556   4.131   7.005 -0.1482 -0.2365 -0.0508
 2660SOL    HW119613   4.564   4.117   6.911  1.8221  0.0481  0.0858
 2660SOL    HW219614   4.486   4.069   7.029  0.9775 -1.0287  1.1949
 2661SOL     OW19615   4.550   3.786  13.969 -0.2853  0.2245 -0.6061
 2661SOL    HW119616   4.478   3.795  13.905  1.2182 -0.1573 -2.3442
 2661SOL    HW219617   4.584   3.699  13.951  0.1685  0.3407 -0.2943
 2662SOL     OW19618   1.993   1.005   0.148 -0.5288  0.0567 -0.3239
 2662SOL    HW119619   2.037   1.086   0.177 -1.0260 -0.2569  1.3393
 2662SOL    HW219620   1.909   1.019   0.191 -0.9320 -1.0848 -0.7630
 2663SOL     OW19621   0.748   2.757  15.651 -0.1820 -0.2152 -0.3255
 2663SOL    HW119622   0.719   2.848  15.644 -1.5168 -0.5513  0.8348
 2663SOL    HW219623   0.680   2.718  15.707  0.6570  0.6549  1.2980
 2664SOL     OW19624   0.250   0.207  10.632  1.0275 -0.2625  0.0080
 2664SOL    HW119625   0.296   0.284  10.665  2.0135 -1.0864  0.5433
 2664SOL    HW219626   0.246   0.157  10.713  1.5067  1.5697  1.1795
 2665SOL     OW19627   3.107   2.473   2.767  0.4392  0.4846 -0.1686
 2665SOL    HW119628   3.119   2.428   2.683 -0.6888  0.9700 -0.5920
 2665SOL    HW219629   3.014   2.495   2.756 -0.3781 -2.0273  1.6409
 2666SOL     OW19630   0.526   1.200   1.957 -0.2734  0.2879 -0.4590
 2666SOL    HW119631   0.434   1.176   1.970  0.1218 -1.7246 -1.3221
 2666SOL    HW219632   0.538   1.150   1.876  0.3576  1.8739 -1.3282
 2667SOL     OW19633   4.271   0.120   7.432 -0.2676 -0.6134  0.1053
 2667SOL    HW119634   4.335   0.125   7.503 -0.1592  1.7141 -0.1555
 2667SOL    HW219635   4.233   0.033   7.439 -0.5389 -0.5504 -0.5357
 2668SOL     OW19636   1.445   4.633   5.503  0.3994  0.0883 -0.8221
 2668SOL    HW119637   1.355   4.636   5.469 -0.5485  0.4493  1.6884
 2668SOL    HW219638   1.418   4.669   5.587  1.5646 -1.6598  0.2984
 2669SOL     OW19639   0.260   3.654   3.569 -0.3850 -0.8533  0.1067
 2669SOL    HW119640   0.328   3.697   3.621  0.5037 -0.3246 -1.4777
 2669SOL    HW219641   0.316   3.600   3.513 -2.0109 -1.7590 -0.6511
 2670SOL     OW19642   3.740   2.698   6.319  0.2701 -0.4231 -0.2996
 2670SOL    HW119643   3.725   2.706   6.225  2.3711 -1.2553 -0.7069
 2670SOL    HW219644   3.747   2.602   6.323  0.6249 -0.3610  0.7340
 2671SOL     OW19645   0.887   2.252   9.193  0.4629 -0.7040 -0.3124
 2671SOL    HW119646   0.850   2.309   9.125 -0.6072 -0.8450  0.1454
 2671SOL    HW219647   0.850   2.166   9.172 -1.2694 -0.2804  0.9630
 2672SOL     OW19648   1.866   4.477  11.327  0.6349  0.1381 -0.1405
 2672SOL    HW119649   1.897   4.496  11.238  2.0665 -1.3522  0.0554
 2672SOL    HW219650   1.943   4.462  11.380 -0.6148 -0.4761  1.4997
 2673SOL     OW19651   3.341   1.657   1.943 -0.0725  0.0448 -0.2118
 2673SOL    HW119652   3.407   1.673   1.876 -1.1572  1.4821 -0.9558
 2673SOL    HW219653   3.254   1.675   1.908 -0.3822 -2.0055 -0.4455
 2674SOL     OW19654   1.908   1.510   8.449 -0.4214 -0.4838  0.8020
 2674SOL    HW119655   1.952   1.460   8.518 -1.1542  0.2107  1.7812
 2674SOL    HW219656   1.981   1.566   8.422 -0.0936 -0.9252  0.7778
 2675SOL     OW19657   0.752   0.962   4.775  0.2842  0.0481 -0.1889
 2675SOL    HW119658   0.666   0.921   4.760  0.1570 -0.6830  2.4372
 2675SOL    HW219659   0.775   0.937   4.865 -0.2573 -0.5701 -0.2199
 2676SOL     OW19660   2.219   0.756   2.848 -0.4974 -0.2216 -0.1571
 2676SOL    HW119661   2.219   0.660   2.850 -1.1618 -0.2459 -1.1257
 2676SOL    HW219662   2.285   0.769   2.779  0.0471  1.6289  0.7384
 2677SOL     OW19663   0.755   4.301   6.028 -0.4976  0.6750 -0.1784
 2677SOL    HW119664   0.825   4.236   6.030 -1.5703 -0.4438  1.2170
 2677SOL    HW219665   0.805   4.378   6.053  1.9049 -0.7194 -0.6841
 2678SOL     OW19666   0.131   3.553   8.591 -0.1158 -0.0765  0.3033
 2678SOL    HW119667   0.216   3.588   8.566  0.1305 -0.7303  0.2337
 2678SOL    HW219668   0.078   3.633   8.597 -2.1979 -1.5100  0.7982
 2679SOL     OW19669   4.594   3.790   5.437  0.3706 -0.4342 -0.1069
 2679SOL    HW119670   4.616   3.698   5.425  0.1935 -0.7056  1.6948
 2679SOL    HW219671   4.524   3.792   5.501  0.4498 -0.6196 -0.0147
 2680SOL     OW19672   3.893   4.094  12.066 -0.0188 -0.1673 -0.7574
 2680SOL    HW119673   3.944   4.071  12.143 -1.7811 -1.5119 -0.0016
 2680SOL    HW219674   3.868   4.185  12.081 -1.1638 -0.3027 -1.8266
 2681SOL     OW19675   3.936   2.687   0.350 -0.1196 -0.0466  0.2322
 2681SOL    HW119676   3.929   2.685   0.254 -1.2669  3.7254  0.2262
 2681SOL    HW219677   4.012   2.633   0.368 -0.5061  0.1015  2.2973
 2682SOL     OW19678   0.141   0.703   5.729  0.1193  0.3448 -0.0175
 2682SOL    HW119679   0.118   0.714   5.821  1.2460 -1.5999  0.4858
 2682SOL    HW219680   0.218   0.648   5.744 -1.7700 -2.5980 -1.2607
 2683SOL     OW19681   3.085   2.976   1.291  0.2175  0.3617  0.1078
 2683SOL    HW119682   3.105   2.895   1.340 -0.3786  0.1568  0.0137
 2683SOL    HW219683   3.030   3.017   1.358  1.5369 -2.2415  2.7819
 2684SOL     OW19684   1.007   3.700   5.854  0.5846 -0.2015  0.1317
 2684SOL    HW119685   1.032   3.787   5.824 -0.1766 -0.4984 -1.3832
 2684SOL    HW219686   1.065   3.647   5.799  1.3290 -0.1480  0.8696
 2685SOL     OW19687   1.892   2.150  12.124  0.0780  0.3397  0.0745
 2685SOL    HW119688   1.837   2.227  12.115 -0.9071 -0.3075  0.5869
 2685SOL    HW219689   1.964   2.171  12.065  0.2267  0.8764  0.4413
 2686SOL     OW19690   4.418   1.727   4.096 -0.5493 -0.0868  0.4549
 2686SOL    HW119691   4.337   1.753   4.053 -0.9580 -0.1761  1.1722
 2686SOL    HW219692   4.388   1.728   4.187 -1.5960 -0.0874  0.1048
 2687SOL     OW19693   0.401   1.935   0.783  0.3375  0.3219 -0.4092
 2687SOL    HW119694   0.455   1.946   0.862  2.6758  2.3861 -2.2942
 2687SOL    HW219695   0.466   1.951   0.715 -0.4815  1.4983 -0.9025
 2688SOL     OW19696   4.526   3.183   6.212  0.2726 -0.5011  0.8330
 2688SOL    HW119697   4.612   3.167   6.173  0.4796 -1.0799  1.5196
 2688SOL    HW219698   4.466   3.112   6.188  0.1212 -0.3275  0.6998
 2689SOL     OW19699   3.548   2.716   4.902  0.4616 -0.1379  0.5224
 2689SOL    HW119700   3.474   2.743   4.956  0.4305  2.1180 -0.6610
 2689SOL    HW219701   3.530   2.767   4.823 -1.0442  0.4230  1.2385
 2690SOL     OW19702   1.090   1.503   1.349 -0.5039 -0.4963  0.7109
 2690SOL    HW119703   1.030   1.460   1.289  0.6094 -0.1440 -0.6630
 2690SOL    HW219704   1.073   1.466   1.435  0.0715 -0.9204  0.6436
 2691SOL     OW19705   0.357   3.591   6.759 -0.1278 -0.0411 -0.2013
 2691SOL    HW119706   0.410   3.656   6.805  0.3768  0.5144 -1.5500
 2691SOL    HW219707   0.423   3.554   6.700 -0.0053  0.3815 -0.3299
 2692SOL     OW19708   1.942   3.255  14.838 -0.3029  0.2003 -0.5259
 2692SOL    HW119709   1.890   3.306  14.777 -0.5318  0.6657  0.0604
 2692SOL    HW219710   1.987   3.196  14.776 -1.2034 -2.3289  1.2404
 2693SOL     OW19711   1.044   1.166  15.702 -0.3020 -0.4154 -0.2703
 2693SOL    HW119712   1.003   1.173  15.615 -0.4131  0.1663 -0.1646
 2693SOL    HW219713   1.137   1.155  15.685 -0.0864  0.9523  0.0959
 2694SOL     OW19714   4.520   1.049   8.915 -0.3779  0.2715 -0.0842
 2694SOL    HW119715   4.442   1.003   8.885  1.7057 -1.1460 -3.3203
 2694SOL    HW219716   4.521   1.113   8.843 -2.0109  1.4990  1.0148
 2695SOL     OW19717   0.824   2.919   2.394 -0.4040  0.3469 -0.2527
 2695SOL    HW119718   0.751   2.981   2.391 -0.6876  0.0770  0.9478
 2695SOL    HW219719   0.772   2.846   2.427 -1.0486  0.8340 -0.1724
 2696SOL     OW19720   0.017   1.487   6.054 -0.4010 -0.3535 -0.0545
 2696SOL    HW119721   4.682   1.488   5.996  1.1763 -0.1687 -2.0737
 2696SOL    HW219722   4.708   1.448   6.126  1.2822 -0.2110  1.1797
 2697SOL     OW19723   0.849   3.436   8.839  0.0022  0.8680 -0.1391
 2697SOL    HW119724   0.908   3.465   8.770  1.6270 -3.3144 -0.4915
 2697SOL    HW219725   0.812   3.522   8.860 -0.2528  0.5853  0.5990
 2698SOL     OW19726   0.721   2.245  12.345 -0.6999 -0.1264 -0.3024
 2698SOL    HW119727   0.755   2.156  12.352  0.2298  0.4450  2.2757
 2698SOL    HW219728   0.767   2.283  12.420 -1.6934  0.0449  0.2182
 2699SOL     OW19729   3.547   2.763  10.837  0.2860 -0.1816  0.2876
 2699SOL    HW119730   3.591   2.690  10.880  0.7818 -0.7613 -1.2110
 2699SOL    HW219731   3.592   2.760  10.753 -1.7416  0.0961 -0.8225
 2700SOL     OW19732   2.688   3.335   8.630 -0.4367 -0.4726 -0.2885
 2700SOL    HW119733   2.664   3.369   8.716  0.9517 -0.2375  0.0172
 2700SOL    HW219734   2.777   3.303   8.643 -0.5871  0.2259  2.4635
 2701SOL     OW19735   1.730   3.420   1.516  0.4188  0.3107  0.1286
 2701SOL    HW119736   1.734   3.462   1.602 -0.3127  0.6648 -0.0128
 2701SOL    HW219737   1.819   3.386   1.527  0.2344  0.6118  2.5302
 2702SOL     OW19738   3.359   3.383   8.008 -0.0693  0.4874 -0.2447
 2702SOL    HW119739   3.396   3.341   7.930  1.8702  0.5577  0.6115
 2702SOL    HW219740   3.316   3.458   7.969 -0.6116 -0.1070 -0.7845
 2703SOL     OW19741   3.170   0.565  17.006  0.1907 -0.0222  0.3869
 2703SOL    HW119742   3.094   0.508  16.992 -0.2237  0.2105  1.6638
 2703SOL    HW219743   3.199   0.584  16.917  0.9113  1.1005  0.8649
 2704SOL     OW19744   4.377   3.543   3.394 -0.1589 -0.1540  0.1930
 2704SOL    HW119745   4.379   3.464   3.341 -0.1357  1.1856 -1.7765
 2704SOL    HW219746   4.442   3.592   3.344 -0.0193 -1.1864 -0.6037
 2705SOL     OW19747   4.337   2.527   5.123 -0.1627 -0.2399  0.0922
 2705SOL    HW119748   4.386   2.579   5.059 -0.1915  0.5919  0.7549
 2705SOL    HW219749   4.283   2.468   5.071 -0.9283  1.1628 -0.6944
 2706SOL     OW19750   3.437   4.201   0.397  0.5369  0.3522 -0.0102
 2706SOL    HW119751   3.514   4.168   0.444 -0.1736  0.9595  1.5683
 2706SOL    HW219752   3.380   4.233   0.467 -0.6270  0.3455 -0.9534
 2707SOL     OW19753   0.001   2.714   2.588 -0.1498  0.0535 -0.4766
 2707SOL    HW119754   0.042   2.632   2.561 -1.2952 -0.2757 -1.2226
 2707SOL    HW219755   4.729   2.696   2.681 -0.6003  1.4096 -0.2800
 2708SOL     OW19756   2.851   2.632   1.814  0.0835 -0.0384 -0.9589
 2708SOL    HW119757   2.880   2.547   1.847 -1.1046 -0.2731 -0.5311
 2708SOL    HW219758   2.771   2.599   1.774 -0.5073  0.0761  0.1303
 2709SOL     OW19759   0.611   3.967   3.417 -0.5226  0.6352  0.3605
 2709SOL    HW119760   0.544   3.903   3.392 -1.0530  0.2322  2.8155
 2709SOL    HW219761   0.674   3.941   3.350 -1.0664  0.1914  0.0159
 2710SOL     OW19762   3.647   4.716   3.913 -0.0816  0.1697 -0.5741
 2710SOL    HW119763   3.569   0.029   3.926  0.8647  1.2053  0.8839
 2710SOL    HW219764   3.707   0.049   3.923 -0.8341  0.7156 -0.0589
 2711SOL     OW19765   4.683   2.507   5.176 -0.3374  0.4474  0.2070
 2711SOL    HW119766   4.646   2.566   5.243  0.5445  0.9823  0.2234
 2711SOL    HW219767   4.724   2.562   5.110  2.9024  1.6092  3.1538
 2712SOL     OW19768   1.442   4.663  11.721  0.4060  0.1971  0.1997
 2712SOL    HW119769   1.402   4.596  11.665  0.7028 -0.6010  0.9443
 2712SOL    HW219770   1.379   4.655  11.793 -0.4544  0.5382 -0.5166
 2713SOL     OW19771   1.725   0.688   8.273 -0.4310  0.2043 -0.3164
 2713SOL    HW119772   1.759   0.735   8.197  0.9654  1.4296  1.0488
 2713SOL    HW219773   1.637   0.722   8.285  0.3940  1.7610  1.3450
 2714SOL     OW19774   0.039   2.427   9.438 -0.2448 -0.7672  0.4284
 2714SOL    HW119775   0.093   2.349   9.454  0.3860 -0.1230  1.4692
 2714SOL    HW219776   4.689   2.400   9.450 -0.3985  0.1557  1.3414
 2715SOL     OW19777   1.870   2.602   7.537 -0.2327 -0.4753  0.4134
 2715SOL    HW119778   1.915   2.619   7.455 -0.1425  0.5874  0.6914
 2715SOL    HW219779   1.933   2.634   7.601 -1.5251 -1.4907  2.1980
 2716SOL     OW19780   4.712   4.115   1.704  0.3150 -0.0020  0.5748
 2716SOL    HW119781   4.716   4.117   1.800  2.0876 -1.0247  0.5175
 2716SOL    HW219782   4.684   4.027   1.678  0.4043  1.1738 -3.5032
 2717SOL     OW19783   4.082   2.590   8.474  0.0540 -0.8248  0.0152
 2717SOL    HW119784   4.120   2.546   8.550  1.1256  2.7713  1.5524
 2717SOL    HW219785   4.155   2.588   8.412  1.2293 -0.4813  1.4055
 2718SOL     OW19786   3.852   0.738   6.311 -0.5935  0.4243 -0.3137
 2718SOL    HW119787   3.877   0.726   6.219  1.6772 -0.6926  0.4528
 2718SOL    HW219788   3.788   0.670   6.332  0.1030  0.0517  0.5703
 2719SOL     OW19789   4.343   2.651  13.819  0.0297 -0.1859  0.1406
 2719SOL    HW119790   4.260   2.641  13.772 -0.0969 -1.3942  0.6375
 2719SOL    HW219791   4.364   2.735  13.778 -2.1808  0.6525  0.7276
 2720SOL     OW19792   0.603   0.320   2.381  0.2365  0.0211  0.5215
 2720SOL    HW119793   0.517   0.344   2.418 -0.2051  0.0628 -0.5511
 2720SOL    HW219794   0.648   0.395   2.420  1.8434 -0.6217 -0.1271
 2721SOL     OW19795   4.348   2.997   6.254  0.6821 -0.0509  0.1133
 2721SOL    HW119796   4.422   2.948   6.289  0.3781  1.0143  2.2904
 2721SOL    HW219797   4.279   2.930   6.256  0.0925  0.5283 -0.5906
 2722SOL     OW19798   0.516   3.212   7.108  0.4789 -0.2534  0.2796
 2722SOL    HW119799   0.517   3.248   7.019  0.9969 -1.4526 -0.2024
 2722SOL    HW219800   0.480   3.289   7.153  0.5360  1.0052 -1.8132
 2723SOL     OW19801   4.704   0.908   0.298 -0.6593  0.4549  0.6264
 2723SOL    HW119802   0.018   0.873   0.369  1.3583 -0.3923 -1.3446
 2723SOL    HW219803   4.639   0.839   0.309 -0.1088  0.2385  2.4714
 2724SOL     OW19804   0.479   1.288   6.194  0.0528 -0.2769 -0.4889
 2724SOL    HW119805   0.526   1.366   6.163  2.5083 -1.6767 -0.2719
 2724SOL    HW219806   0.416   1.314   6.261  0.0669  1.0319 -0.9835
 2725SOL     OW19807   0.749   1.076   2.329 -0.4851 -0.4763  0.5786
 2725SOL    HW119808   0.722   1.080   2.421  0.5662  1.4701  0.7856
 2725SOL    HW219809   0.821   1.014   2.340 -0.3356 -0.8750 -2.5514
 2726SOL     OW19810   3.345   4.112  15.192 -0.2272  0.2874 -0.1888
 2726SOL    HW119811   3.405   4.049  15.231 -0.9364  0.4347  1.1659
 2726SOL    HW219812   3.269   4.056  15.208  0.4300 -0.6159 -0.2726
 2727SOL     OW19813   1.913   3.389   4.175  0.0483  0.3113  0.2020
 2727SOL    HW119814   1.998   3.425   4.149  0.1768  0.6821  1.1326
 2727SOL    HW219815   1.948   3.309   4.214  0.0177  2.3002  4.2428
 2728SOL     OW19816   2.668   1.408  11.785 -0.3250  0.1488 -0.2287
 2728SOL    HW119817   2.711   1.492  11.799 -0.9725  0.2952  0.8539
 2728SOL    HW219818   2.592   1.434  11.734  0.2990  2.6741  0.1217
 2729SOL     OW19819   1.817   3.443   3.604 -0.6698  0.7328  0.5768
 2729SOL    HW119820   1.788   3.432   3.695  0.2763 -1.3371  0.6132
 2729SOL    HW219821   1.776   3.529   3.601 -0.6233  0.7148 -0.5555
 2730SOL     OW19822   2.199   1.754   7.653  0.1629 -0.4704  0.3571
 2730SOL    HW119823   2.254   1.675   7.655  0.9475  0.1257  2.1022
 2730SOL    HW219824   2.212   1.788   7.565  0.9020 -0.8629  0.3106
 2731SOL     OW19825   0.990   4.126   8.716 -0.3520 -0.1885  0.6216
 2731SOL    HW119826   0.928   4.120   8.789  0.4494 -1.5337  1.1949
 2731SOL    HW219827   1.045   4.192   8.758  0.1904  0.4418 -1.0809
 2732SOL     OW19828   4.666   2.346   1.439  0.3644 -0.3692  0.1749
 2732SOL    HW119829   4.654   2.433   1.478  1.4873 -0.2567  0.2474
 2732SOL    HW219830   4.640   2.375   1.351  1.0625  1.1694  0.4672
 2733SOL     OW19831   0.634   0.771   9.800  0.8221 -0.1794 -0.0417
 2733SOL    HW119832   0.555   0.770   9.854 -0.6880  1.6074 -2.1972
 2733SOL    HW219833   0.619   0.838   9.733  1.2902 -0.0708 -0.0366
 2734SOL     OW19834   0.539   2.418   9.553 -0.3703  0.2406  0.2979
 2734SOL    HW119835   0.561   2.436   9.462 -2.6118  0.1657 -0.2699
 2734SOL    HW219836   0.463   2.474   9.572 -0.4353  0.9701 -2.0913
 2735SOL     OW19837   2.531   3.069   6.433  0.4917 -0.3477  0.4380
 2735SOL    HW119838   2.593   3.120   6.485  1.2260 -1.2484  0.4502
 2735SOL    HW219839   2.536   2.982   6.474 -0.1481  0.1209  1.5109
 2736SOL     OW19840   2.732   0.112  14.623 -0.0433 -0.6055  0.0702
 2736SOL    HW119841   2.812   0.142  14.665 -1.3471  2.1617  0.5851
 2736SOL    HW219842   2.695   0.195  14.592  0.1835 -0.3914  0.3745
 2737SOL     OW19843   2.378   3.854   7.062  0.5486 -0.3386  0.2413
 2737SOL    HW119844   2.361   3.797   6.987 -1.3968 -0.9627  1.1562
 2737SOL    HW219845   2.434   3.794   7.111 -2.6184 -1.1845  2.8432
 2738SOL     OW19846   4.717   2.241   3.876  0.2573  0.2877  0.5670
 2738SOL    HW119847   4.676   2.169   3.924 -2.0716 -0.6259 -2.7373
 2738SOL    HW219848   0.062   2.207   3.849 -0.6604 -0.2352 -1.7064
 2739SOL     OW19849   0.720   1.417   4.326  0.0096 -0.1487  0.5814
 2739SOL    HW119850   0.722   1.488   4.390 -0.8110 -0.5719  1.0767
 2739SOL    HW219851   0.703   1.469   4.248 -1.8390 -1.1427  0.3295
 2740SOL     OW19852   2.411   3.775   3.036  0.2107 -0.2116  0.2129
 2740SOL    HW119853   2.460   3.837   3.090 -1.7161  1.7259 -0.2266
 2740SOL    HW219854   2.458   3.693   3.048  0.5580  0.0078  0.3442
 2741SOL     OW19855   1.779   2.365   7.620 -0.0273 -0.7246 -0.1522
 2741SOL    HW119856   1.861   2.327   7.590  0.4529 -0.0734  0.3252
 2741SOL    HW219857   1.806   2.457   7.617 -0.6093 -0.6259 -2.2327
 2742SOL     OW19858   1.669   1.102  13.915 -0.3230  0.3733  0.0537
 2742SOL    HW119859   1.589   1.062  13.881 -1.4593  0.5870  2.5208
 2742SOL    HW219860   1.672   1.184  13.866  0.4247  0.7120  0.6795
 2743SOL     OW19861   2.985   0.770   9.778 -0.5287 -0.3384 -0.4436
 2743SOL    HW119862   2.921   0.700   9.763 -0.4815  0.0209 -2.3915
 2743SOL    HW219863   2.949   0.845   9.731 -1.5760 -0.4479  0.1681
 2744SOL     OW19864   2.181   4.587   4.328  0.4531  0.6831 -0.3655
 2744SOL    HW119865   2.264   4.629   4.305  1.4679 -1.2138 -0.2048
 2744SOL    HW219866   2.180   4.605   4.422  0.7729  0.1134 -0.2533
 2745SOL     OW19867   2.273   0.236   4.438  0.1598 -0.2818 -0.1721
 2745SOL    HW119868   2.246   0.305   4.377 -4.2701 -1.5395  0.3443
 2745SOL    HW219869   2.197   0.242   4.496  1.0792 -0.9796  1.0793
 2746SOL     OW19870   2.628   0.208   3.684  0.6834 -0.2370  0.3278
 2746SOL    HW119871   2.570   0.281   3.664  2.0176 -0.1628 -3.2687
 2746SOL    HW219872   2.690   0.199   3.612  1.0187  1.3352  0.4217
 2747SOL     OW19873   2.026   3.483   2.593  0.2009 -0.4936  0.3166
 2747SOL    HW119874   1.952   3.505   2.650 -0.9985 -0.3607 -1.2915
 2747SOL    HW219875   1.984   3.506   2.509  0.7194 -0.7693 -0.0157
 2748SOL     OW19876   4.241   1.726   8.274  0.5641 -0.3135  0.0056
 2748SOL    HW119877   4.249   1.716   8.369 -0.1642  0.9232  0.2059
 2748SOL    HW219878   4.180   1.654   8.258  0.3286  0.1491 -1.2062
 2749SOL     OW19879   3.123   4.278   2.652 -0.0384  0.1457  0.5822
 2749SOL    HW119880   3.185   4.277   2.724 -0.3725  0.8053  0.8838
 2749SOL    HW219881   3.051   4.335   2.680  0.2599  0.4496  0.7302
 2750SOL     OW19882   1.162   1.329  14.566  0.1326 -0.1549 -0.1410
 2750SOL    HW119883   1.114   1.412  14.568 -0.1287 -0.2746 -2.0003
 2750SOL    HW219884   1.104   1.280  14.508 -1.4777  0.7662  0.6715
 2751SOL     OW19885   2.587   1.966  13.699  0.6558 -0.4551 -0.0225
 2751SOL    HW119886   2.601   1.902  13.769  2.6060 -1.0330 -0.9492
 2751SOL    HW219887   2.578   2.046  13.750  0.2084 -1.4768  1.5211
 2752SOL     OW19888   0.249   3.374   6.072  0.0039 -0.3552  0.3795
 2752SOL    HW119889   0.332   3.346   6.111 -1.5494 -3.6445  1.3399
 2752SOL    HW219890   0.276   3.432   6.001  0.4176 -1.4580 -0.3689
 2753SOL     OW19891   1.479   2.266   6.172 -0.2058 -0.4217 -1.3473
 2753SOL    HW119892   1.417   2.322   6.218  0.7788 -2.0948  2.0251
 2753SOL    HW219893   1.422   2.252   6.097  0.4984 -0.1286 -1.9332
 2754SOL     OW19894   2.261   4.319   1.919 -0.2531  0.5702  0.7671
 2754SOL    HW119895   2.170   4.337   1.944 -1.2939 -1.8526 -1.2922
 2754SOL    HW219896   2.287   4.259   1.989  0.8070  1.6862  1.3229
 2755SOL     OW19897   1.515   2.200   9.608  0.6833 -0.3100 -0.0105
 2755SOL    HW119898   1.510   2.153   9.525 -1.0437 -1.0611  0.5288
 2755SOL    HW219899   1.602   2.239   9.600  0.7652 -0.1950  1.5014
 2756SOL     OW19900   2.482   4.429   1.393  0.1745 -0.7021  0.3779
 2756SOL    HW119901   2.451   4.355   1.445 -2.5759 -0.1153 -0.4848
 2756SOL    HW219902   2.506   4.487   1.465  2.5905 -1.7870  0.4565
 2757SOL     OW19903   0.198   0.575  13.114 -0.6116 -0.5072  0.2560
 2757SOL    HW119904   0.218   0.498  13.167 -0.4122 -0.6246  0.0127
 2757SOL    HW219905   0.248   0.643  13.158  0.9698 -0.5843 -1.4199
 2758SOL     OW19906   2.923   0.403  12.681 -0.1687  0.1392  0.9128
 2758SOL    HW119907   2.989   0.402  12.751 -0.1048 -1.8012  0.8286
 2758SOL    HW219908   2.981   0.406  12.604 -1.2247 -1.2801  0.0678
 2759SOL     OW19909   2.698   0.786   8.434 -0.6541  0.1151  0.2424
 2759SOL    HW119910   2.621   0.756   8.481 -0.3410 -2.2470 -0.7400
 2759SOL    HW219911   2.772   0.739   8.474  1.2947  1.2663 -1.9819
 2760SOL     OW19912   0.560   2.064   4.230  0.0608 -0.1898 -0.2751
 2760SOL    HW119913   0.547   2.158   4.239  1.7476 -0.0259  0.4599
 2760SOL    HW219914   0.609   2.059   4.148  0.2098 -1.5143 -0.1047
 2761SOL     OW19915   3.449   4.376   5.534  0.5152 -0.0395 -0.6072
 2761SOL    HW119916   3.542   4.400   5.538  0.1998  1.6042 -3.0324
 2761SOL    HW219917   3.411   4.442   5.476 -1.0485  0.2486  0.7292
 2762SOL     OW19918   1.741   3.721   8.003 -0.0369 -0.2015  0.4352
 2762SOL    HW119919   1.762   3.646   7.946  1.5068  0.8637 -0.3941
 2762SOL    HW219920   1.763   3.798   7.950 -1.0295  0.4709  1.0124
 2763SOL     OW19921   1.395   0.270   8.391  0.3291  0.1915 -0.2387
 2763SOL    HW119922   1.345   0.263   8.309  0.8998  1.6120 -0.7094
 2763SOL    HW219923   1.465   0.332   8.370 -0.6276  1.1675 -0.5781
 2764SOL     OW19924   2.211   1.305  17.145 -0.1593 -0.1569  0.0185
 2764SOL    HW119925   2.273   1.348  17.087  0.8248 -0.8906  0.5323
 2764SOL    HW219926   2.172   1.250  17.078  0.3951  1.0618 -1.3038
 2765SOL     OW19927   4.376   2.884  13.670 -0.0576 -0.7008  0.9165
 2765SOL    HW119928   4.452   2.942  13.663 -0.9030  0.3457  0.3595
 2765SOL    HW219929   4.371   2.871  13.575 -1.6412 -1.5324  1.1144
 2766SOL     OW19930   1.020   2.336   5.118 -0.4097  0.1823 -0.3008
 2766SOL    HW119931   1.042   2.250   5.083  0.5138  1.0550 -1.8123
 2766SOL    HW219932   1.061   2.384   5.047  0.5337 -0.2905 -0.0670
 2767SOL     OW19933   4.432   0.362  17.533  0.3543 -0.3746 -0.2998
 2767SOL    HW119934   4.522   0.354  17.564 -0.6369  0.4194  2.7355
 2767SOL    HW219935   4.396   0.369  17.621  2.0281 -0.5413  0.3831
 2768SOL     OW19936   2.626   2.008   8.644  0.5023  0.3042 -0.1908
 2768SOL    HW119937   2.712   2.044   8.668 -0.4408  1.9484  0.6832
 2768SOL    HW219938   2.582   2.080   8.600 -0.5157  0.6041  1.3281
 2769SOL     OW19939   2.730   1.341   7.012  0.3959 -0.1143  0.1162
 2769SOL    HW119940   2.642   1.375   6.998  1.4363  1.5386 -2.3024
 2769SOL    HW219941   2.741   1.370   7.102 -1.1805  2.3702 -0.4979
 2770SOL     OW19942   2.693   2.367   8.828  0.3193  0.7766  0.6457
 2770SOL    HW119943   2.786   2.361   8.806 -0.0872  2.4522 -1.5482
 2770SOL    HW219944   2.701   2.368   8.924 -0.3662  0.8339  0.6980
 2771SOL     OW19945   4.359   2.092   4.432 -0.2803 -0.7648  0.3273
 2771SOL    HW119946   4.414   2.019   4.461  0.0665  0.8728  3.8695
 2771SOL    HW219947   4.271   2.057   4.444 -0.6301 -0.3467 -1.0141
 2772SOL     OW19948   0.625   1.193   6.469 -0.2027 -0.6645  0.5671
 2772SOL    HW119949   0.708   1.164   6.507  0.1436 -0.2352  0.1374
 2772SOL    HW219950   0.646   1.285   6.453 -0.0768 -0.4359  2.0351
 2773SOL     OW19951   0.545   2.755  11.466  0.1124 -0.2879  0.6194
 2773SOL    HW119952   0.507   2.667  11.461 -0.5331  0.1166 -1.4716
 2773SOL    HW219953   0.473   2.796  11.515  0.2000  1.0615 -0.3613
 2774SOL     OW19954   2.322   3.115   1.103 -0.2709  0.1395 -0.6378
 2774SOL    HW119955   2.384   3.150   1.168 -1.7459 -1.2389  1.5242
 2774SOL    HW219956   2.368   3.085   1.025  0.9482 -2.1479  0.9364
 2775SOL     OW19957   1.914   1.043  14.025  0.0292 -0.2322  0.0900
 2775SOL    HW119958   1.831   1.037  13.978  0.0664  1.3650 -0.1571
 2775SOL    HW219959   1.965   1.041  13.944 -2.4757  0.8851 -1.5128
 2776SOL     OW19960   4.471   3.228  15.129 -0.2666 -0.1287 -0.0649
 2776SOL    HW119961   4.562   3.243  15.155  0.4949 -0.6299 -2.4344
 2776SOL    HW219962   4.469   3.138  15.096  2.9460  0.2958 -1.4802
 2777SOL     OW19963   2.868   4.715  12.545  0.2818  0.0709  0.5582
 2777SOL    HW119964   2.840   0.036  12.478  1.0587  1.6612  1.6819
 2777SOL    HW219965   2.808   4.729  12.618 -0.5931 -1.8033  0.2048
 2778SOL     OW19966   3.788   3.858   4.559 -0.2181  0.4314  0.2943
 2778SOL    HW119967   3.770   3.764   4.562  0.9058  0.1808 -0.8645
 2778SOL    HW219968   3.861   3.863   4.498 -1.3347  0.1478 -1.0535
 2779SOL     OW19969   1.663   3.862   8.546 -0.2313  0.0773  0.2241
 2779SOL    HW119970   1.716   3.888   8.621  0.5915  0.4322 -0.4838
 2779SOL    HW219971   1.588   3.919   8.563 -0.5190 -0.5040  0.8741
 2780SOL     OW19972   2.133   0.634  11.727 -0.7366  0.0867  0.1562
 2780SOL    HW119973   2.132   0.720  11.769 -3.0107  0.8094 -1.3415
 2780SOL    HW219974   2.177   0.647  11.643  2.5699 -2.8133  1.4690
 2781SOL     OW19975   0.896   1.031   5.608 -0.4231 -0.3297  0.7781
 2781SOL    HW119976   0.939   1.001   5.527  0.2193  1.7552  0.3558
 2781SOL    HW219977   0.830   1.092   5.577 -1.4932 -1.8382  0.0974
 2782SOL     OW19978   1.323   1.627   4.684 -0.3624 -0.3346 -0.1745
 2782SOL    HW119979   1.250   1.688   4.696  1.3696  0.8294  4.5053
 2782SOL    HW219980   1.298   1.556   4.744 -3.7231  1.5345  0.6105
 2783SOL     OW19981   3.682   2.351  16.897  0.1699  0.5835  0.2535
 2783SOL    HW119982   3.766   2.368  16.940 -0.2634 -0.1047  1.3694
 2783SOL    HW219983   3.691   2.257  16.880  0.2993  1.1347 -2.7592
 2784SOL     OW19984   2.863   2.074   5.844 -0.0168  0.2626 -0.2986
 2784SOL    HW119985   2.785   2.053   5.794  1.3380 -0.2394 -2.1898
 2784SOL    HW219986   2.925   2.091   5.773  2.1771 -1.0840  1.2638
 2785SOL     OW19987   4.678   2.269   0.227 -0.6277  0.3299  0.2726
 2785SOL    HW119988   4.633   2.347   0.195 -0.2205 -0.5895 -2.4769
 2785SOL    HW219989   4.713   2.303   0.310 -0.4929 -0.3434  0.4927
 2786SOL     OW19990   0.411   2.295   2.547 -0.2692  0.1584 -0.2493
 2786SOL    HW119991   0.463   2.214   2.546  1.6432  1.3545  1.6449
 2786SOL    HW219992   0.335   2.260   2.595 -1.1956  1.2328 -0.9485
 2787SOL     OW19993   4.442   1.864   4.555  0.5492  0.4360 -0.1910
 2787SOL    HW119994   4.504   1.795   4.578  1.1728  0.7369 -0.9378
 2787SOL    HW219995   4.430   1.887   4.647  0.8147  0.9955 -0.2956
 2788SOL     OW19996   3.738   1.399   4.977  0.2191  0.1149  0.3823
 2788SOL    HW119997   3.782   1.410   5.061  0.0175 -0.1973  0.5276
 2788SOL    HW219998   3.762   1.310   4.952 -1.3172 -0.1350 -0.2474
 2789SOL     OW19999   3.986   2.185   8.892 -0.4950 -0.8606 -0.8873
 2789SOL    HW120000   4.036   2.120   8.941  1.2695  1.2176  0.0399
 2789SOL    HW220001   4.041   2.192   8.814 -0.4934  0.3266 -0.7745
 2790SOL     OW20002   1.695   1.495  16.430  0.0904 -0.2157 -0.0905
 2790SOL    HW120003   1.618   1.542  16.464 -0.8205 -2.2169  0.5677
 2790SOL    HW220004   1.736   1.577  16.400  0.1221 -1.0459 -2.3010
 2791SOL     OW20005   1.624   0.003   7.192  0.3309  0.5700 -0.2497
 2791SOL    HW120006   1.644   4.729   7.284  2.0444 -1.0990 -0.8938
 2791SOL    HW220007   1.579   0.085   7.212 -0.5482 -0.3349  1.4927
 2792SOL     OW20008   0.845   0.145  16.418  0.2880 -0.3103  0.8944
 2792SOL    HW120009   0.904   0.174  16.348 -3.2145  1.5602 -1.3151
 2792SOL    HW220010   0.806   0.232  16.430  0.6813 -0.3907  2.7263
 2793SOL     OW20011   2.177   3.953   7.239 -0.2253 -0.3325 -0.1576
 2793SOL    HW120012   2.249   3.917   7.186  0.6320  1.2816 -0.0955
 2793SOL    HW220013   2.219   3.954   7.325 -0.3119 -1.1622 -0.1041
 2794SOL     OW20014   3.497   3.764  15.187 -0.6958 -0.0210 -0.1717
 2794SOL    HW120015   3.452   3.721  15.259 -0.8910  0.3245 -0.0853
 2794SOL    HW220016   3.423   3.765  15.126  0.4799  1.9047 -1.5953
 2795SOL     OW20017   2.777   4.249  14.738 -0.4453 -0.1663 -0.1877
 2795SOL    HW120018   2.845   4.316  14.751 -1.9183  1.2006  0.4876
 2795SOL    HW220019   2.797   4.186  14.808  3.1350 -0.9606 -1.9437
 2796SOL     OW20020   1.088   0.179   4.804 -0.2406 -0.1543 -0.0474
 2796SOL    HW120021   1.141   0.239   4.857 -0.1199  0.5519 -0.9651
 2796SOL    HW220022   1.138   0.174   4.723  1.4383  0.3316  0.9511
 2797SOL     OW20023   1.159   0.263  10.781  0.8802 -0.1462 -0.0891
 2797SOL    HW120024   1.147   0.341  10.727 -1.3312 -1.6785 -1.8620
 2797SOL    HW220025   1.230   0.288  10.839  1.0849  0.0954 -0.4456
 2798SOL     OW20026   0.190   3.682   4.598 -0.1286 -0.6865 -0.4547
 2798SOL    HW120027   0.213   3.626   4.524 -0.3324  0.3187 -1.2788
 2798SOL    HW220028   0.157   3.613   4.655 -1.4157  0.8719  0.6443
 2799SOL     OW20029   3.715   1.303   0.683  0.6047 -0.1159 -0.1317
 2799SOL    HW120030   3.655   1.249   0.735 -0.9388 -1.0386 -2.8764
 2799SOL    HW220031   3.785   1.238   0.677  0.2884 -0.6967  2.5950
 2800SOL     OW20032   4.411   2.446   5.808 -0.0082 -0.6440 -0.4554
 2800SOL    HW120033   4.348   2.462   5.738  0.9949  0.1182 -1.1982
 2800SOL    HW220034   4.496   2.451   5.763 -0.1370  1.2075 -0.4945
 2801SOL     OW20035   2.242   4.345  17.261 -0.3389 -0.2269 -0.6678
 2801SOL    HW120036   2.325   4.349  17.310 -0.0422  0.5301 -1.2305
 2801SOL    HW220037   2.214   4.254  17.259 -2.6972  0.4887  0.5506
 2802SOL     OW20038   1.241   3.001   3.439  0.1430 -0.5484 -0.7544
 2802SOL    HW120039   1.259   3.000   3.345 -0.0111 -1.7729 -0.7691
 2802SOL    HW220040   1.279   3.089   3.450 -2.3166  0.4833 -0.6911
 2803SOL     OW20041   2.573   1.431  14.249 -0.0054  0.5079  0.4774
 2803SOL    HW120042   2.657   1.450  14.291  0.5609 -0.3298 -0.2781
 2803SOL    HW220043   2.582   1.337  14.231  0.6332  0.8565 -0.9833
 2804SOL     OW20044   0.339   1.726   7.372  0.3313 -0.3736 -0.6213
 2804SOL    HW120045   0.322   1.768   7.288 -2.6476  1.3651  0.8472
 2804SOL    HW220046   0.413   1.668   7.354  2.6877  2.1077  1.0655
 2805SOL     OW20047   1.854   1.166   4.330  0.0639 -0.5632 -0.1129
 2805SOL    HW120048   1.868   1.214   4.248 -0.8244  0.5269  0.3752
 2805SOL    HW220049   1.819   1.082   4.302  1.2798 -0.8298 -0.8428
 2806SOL     OW20050   1.086   3.627   7.535  0.0729 -0.2673  0.1143
 2806SOL    HW120051   1.174   3.662   7.520 -0.2841  0.8853  0.6740
 2806SOL    HW220052   1.100   3.580   7.617 -1.8504  0.5652  0.8971
 2807SOL     OW20053   1.299   1.055  10.533  0.5254  0.2683 -0.2713
 2807SOL    HW120054   1.360   1.117  10.491  1.9395 -1.4111 -0.6696
 2807SOL    HW220055   1.352   0.976  10.528 -1.3373 -0.9204 -0.9403
 2808SOL     OW20056   4.305   0.159  15.001  0.0715  0.0519 -0.2848
 2808SOL    HW120057   4.388   0.111  15.003  0.1888  0.2505 -0.4031
 2808SOL    HW220058   4.322   0.225  14.933 -1.4017 -0.0178 -0.7193
 2809SOL     OW20059   0.186   2.706   5.092 -0.2322  0.0673  0.7124
 2809SOL    HW120060   0.230   2.714   5.008 -1.2089  0.3332  0.2174
 2809SOL    HW220061   0.267   2.685   5.138 -0.5453 -2.4526  0.1109
 2810SOL     OW20062   1.925   4.064   8.202  0.2370  0.7805  0.2197
 2810SOL    HW120063   2.020   4.057   8.198  0.3333  2.4448 -0.3250
 2810SOL    HW220064   1.891   4.084   8.115  0.9561 -1.0151 -0.4621
 2811SOL     OW20065   3.626   1.016   5.085  0.2919  0.1662  0.2365
 2811SOL    HW120066   3.620   1.091   5.145 -1.1845 -0.9727  1.4846
 2811SOL    HW220067   3.667   1.048   5.005  1.3468 -0.2357  0.6109
 2812SOL     OW20068   0.425   1.057  14.055  0.1258 -0.3944 -0.4424
 2812SOL    HW120069   0.499   1.118  14.054 -1.0776  1.0297 -1.8143
 2812SOL    HW220070   0.356   1.108  14.013 -1.2215 -0.7134  1.3683
 2813SOL     OW20071   2.017   0.990  12.252 -0.0541  0.0150  0.0238
 2813SOL    HW120072   2.013   0.975  12.158  0.5232  1.0532 -0.1647
 2813SOL    HW220073   2.091   1.050  12.249  0.4709 -0.3778  3.9844
 2814SOL     OW20074   1.653   4.506  15.663 -0.3733  0.0674 -0.0112
 2814SOL    HW120075   1.690   4.465  15.742 -0.3198  4.2882  2.1936
 2814SOL    HW220076   1.727   4.493  15.603  0.9179  0.1756  1.5343
 2815SOL     OW20077   2.927   0.237   1.156  0.1463  0.0487  0.2011
 2815SOL    HW120078   2.998   0.212   1.097  0.6203  1.9577 -0.0600
 2815SOL    HW220079   2.920   0.176   1.229  1.8761 -2.7368 -1.9733
 2816SOL     OW20080   2.449   0.338  12.633 -0.2372 -0.4588 -0.6009
 2816SOL    HW120081   2.535   0.319  12.671 -0.7041 -0.7396  0.3029
 2816SOL    HW220082   2.458   0.315  12.541  0.0873  1.8111 -1.1595
 2817SOL     OW20083   3.089   0.909   4.907  0.2354  0.0209 -0.1950
 2817SOL    HW120084   3.170   0.934   4.861  0.2712  1.3843  0.5933
 2817SOL    HW220085   3.080   0.980   4.971  2.5553  0.2949 -0.1382
 2818SOL     OW20086   4.486   4.006  10.236 -0.1509  0.1262 -0.1317
 2818SOL    HW120087   4.526   3.997  10.322 -0.9361 -0.1120  0.2071
 2818SOL    HW220088   4.465   3.913  10.227 -2.5382  0.7719 -1.2533
 2819SOL     OW20089   2.445   1.982   2.371 -0.0419  0.0411  0.3857
 2819SOL    HW120090   2.399   2.066   2.383  1.9506  1.0756  0.7758
 2819SOL    HW220091   2.483   1.996   2.284 -0.9720 -0.0969 -0.0430
 2820SOL     OW20092   0.460   1.526   3.400 -0.3517  0.6373  0.0530
 2820SOL    HW120093   0.402   1.577   3.343  1.2313 -0.3376 -2.4119
 2820SOL    HW220094   0.440   1.435   3.380  1.0822 -0.2363  2.5230
 2821SOL     OW20095   4.517   4.533   9.950  0.3442  0.2188  0.2930
 2821SOL    HW120096   4.578   4.552   9.878 -1.3268  0.3587 -1.0922
 2821SOL    HW220097   4.554   4.451   9.984  3.1325  1.0264 -0.8030
 2822SOL     OW20098   1.807   2.385   4.764 -0.0630  0.0604  0.0382
 2822SOL    HW120099   1.761   2.468   4.756 -2.0436 -1.2424 -2.0868
 2822SOL    HW220100   1.794   2.355   4.674 -0.5831  0.9631 -0.1888
 2823SOL     OW20101   0.011   3.622   5.975  0.1182 -0.4489  0.1945
 2823SOL    HW120102   4.709   3.583   6.051 -1.3278  1.7437  0.5228
 2823SOL    HW220103   0.104   3.603   5.986 -0.2643 -1.9085  0.8631
 2824SOL     OW20104   0.474   3.619   4.876  0.5189  0.1920 -0.0283
 2824SOL    HW120105   0.414   3.668   4.931  1.9473  1.6971  0.2018
 2824SOL    HW220106   0.410   3.565   4.830  0.8469 -0.3282  0.1237
 2825SOL     OW20107   4.470   4.727   2.314 -0.3265 -0.1240  0.5856
 2825SOL    HW120108   4.464   0.081   2.325  1.5166  0.0433  0.2521
 2825SOL    HW220109   4.564   4.709   2.314 -0.9310 -3.2837  0.3241
 2826SOL     OW20110   3.462   2.941  11.585 -0.3247  0.1932  0.0440
 2826SOL    HW120111   3.411   2.860  11.576  0.3354 -0.4250  1.9313
 2826SOL    HW220112   3.506   2.937  11.500  0.6585 -1.2124  0.6260
 2827SOL     OW20113   3.366   3.296   9.401  0.6527  0.4882  0.4727
 2827SOL    HW120114   3.403   3.239   9.469  0.1167  0.0416  0.3888
 2827SOL    HW220115   3.310   3.227   9.365  1.0253 -0.2427  1.2857
 2828SOL     OW20116   3.004   4.681  10.529  0.0409 -0.4620 -0.7233
 2828SOL    HW120117   3.057   4.630  10.590 -1.1039 -0.7618  0.0302
 2828SOL    HW220118   3.018   4.630  10.449 -0.7938 -2.7208  0.5712
 2829SOL     OW20119   1.741   2.020   1.752  0.1623  0.0377  0.2609
 2829SOL    HW120120   1.787   2.004   1.669 -1.4394  3.4066 -1.2712
 2829SOL    HW220121   1.755   2.113   1.766 -1.5587  0.6011 -1.7776
 2830SOL     OW20122   0.485   1.432  11.524  0.0062 -0.5941 -0.0113
 2830SOL    HW120123   0.421   1.391  11.582 -1.5011 -0.0035 -1.2800
 2830SOL    HW220124   0.425   1.483  11.471  0.9241  2.4633  1.8849
 2831SOL     OW20125   0.533   0.752   7.827 -0.1567 -0.6288 -0.0436
 2831SOL    HW120126   0.544   0.708   7.743 -0.3558 -0.9731  0.1117
 2831SOL    HW220127   0.610   0.716   7.869 -0.0872  0.7438  1.0139
 2832SOL     OW20128   3.271   3.109   2.679 -0.1744 -0.1293 -0.1662
 2832SOL    HW120129   3.231   3.190   2.648  0.6722  1.2197  2.2644
 2832SOL    HW220130   3.219   3.096   2.759 -1.6002  0.4887 -0.9929
 2833SOL     OW20131   1.697   2.542   7.041 -0.3481 -0.3156 -0.0289
 2833SOL    HW120132   1.627   2.479   7.028 -0.2902 -0.0870 -1.3685
 2833SOL    HW220133   1.735   2.511   7.124  0.0570  0.5386  0.1088
 2834SOL     OW20134   4.643   3.290   2.155 -0.1913  0.1828 -0.7638
 2834SOL    HW120135   4.597   3.209   2.133 -0.1988 -0.7635  2.8595
 2834SOL    HW220136   4.646   3.270   2.248 -1.2282  0.3888 -0.6855
 2835SOL     OW20137   2.313   2.002   3.969  0.2729 -0.1339 -0.6694
 2835SOL    HW120138   2.222   2.022   3.994  0.6793 -0.1959  0.8837
 2835SOL    HW220139   2.353   1.982   4.054 -0.6819  3.7373  0.7042
 2836SOL     OW20140   0.667   2.173   5.934 -0.2689 -0.5869 -0.0658
 2836SOL    HW120141   0.716   2.090   5.937 -0.3029 -0.7685 -4.4035
 2836SOL    HW220142   0.729   2.226   5.883 -0.9823 -1.7331 -2.1293
 2837SOL     OW20143   3.262   2.606   8.667  0.3357 -0.1840 -0.0478
 2837SOL    HW120144   3.271   2.686   8.719  0.2566 -0.2191  0.0204
 2837SOL    HW220145   3.342   2.555   8.685  0.9702  0.2131 -1.8183
 2838SOL     OW20146   0.482   3.493   7.816 -0.0354 -0.1436  0.4672
 2838SOL    HW120147   0.429   3.498   7.736  3.4888 -0.2474 -1.8587
 2838SOL    HW220148   0.428   3.439   7.874  0.2063 -0.1286  0.7064
 2839SOL     OW20149   1.968   0.424  11.650 -0.3485 -0.2987  0.0649
 2839SOL    HW120150   1.986   0.514  11.678  1.6370 -0.8219  0.4439
 2839SOL    HW220151   2.045   0.413  11.594  0.6166  2.3868  0.8619
 2840SOL     OW20152   2.248   4.639   5.808  0.3261  0.4959  0.0907
 2840SOL    HW120153   2.296   4.641   5.725  0.5023  3.3638  0.2537
 2840SOL    HW220154   2.165   4.604   5.778  1.0152 -0.9755 -0.1371
 2841SOL     OW20155   2.097   4.075  14.825  0.3006 -0.1825 -0.0825
 2841SOL    HW120156   2.171   4.034  14.780  0.8861 -0.6444  1.3073
 2841SOL    HW220157   2.149   4.115  14.894  0.8168 -0.9886 -0.0028
 2842SOL     OW20158   0.415   1.478   5.735 -0.0620  0.5101 -0.1523
 2842SOL    HW120159   0.334   1.524   5.760  0.1943  0.1898  1.2938
 2842SOL    HW220160   0.440   1.435   5.817 -3.8677 -1.0037  0.1923
 2843SOL     OW20161   4.508   3.022   0.965 -0.1575 -0.1807 -0.4536
 2843SOL    HW120162   4.507   2.948   1.026 -1.9353 -0.9095 -1.3818
 2843SOL    HW220163   4.421   3.010   0.928  0.1029  0.4983 -1.3041
 2844SOL     OW20164   4.643   4.396   8.301  0.9330 -0.0657  0.1036
 2844SOL    HW120165   4.634   4.356   8.214 -0.7514  2.1987 -0.7705
 2844SOL    HW220166   4.725   4.361   8.334  2.0226  1.3589 -1.1206
 2845SOL     OW20167   0.764   3.344   1.936  0.5078 -0.1431  0.6087
 2845SOL    HW120168   0.729   3.301   1.858  0.8747  0.6856 -0.0166
 2845SOL    HW220169   0.778   3.263   1.983  1.7268 -0.1479  0.2306
 2846SOL     OW20170   4.389   1.965   4.807 -0.0830  0.2401  0.0921
 2846SOL    HW120171   4.414   2.055   4.786 -0.6872  0.6811  1.2533
 2846SOL    HW220172   4.318   1.983   4.869 -0.1465  0.3701 -0.0194
 2847SOL     OW20173   1.370   1.583  11.086 -0.3577  0.3085  0.1857
 2847SOL    HW120174   1.426   1.573  11.163  1.6760  0.4268 -1.2919
 2847SOL    HW220175   1.293   1.626  11.123 -1.3400  1.2845 -3.0608
 2848SOL     OW20176   1.854   4.586   6.134 -0.7276  0.4102 -0.0470
 2848SOL    HW120177   1.868   4.653   6.066  0.6867 -1.0578 -1.1821
 2848SOL    HW220178   1.759   4.582   6.137 -0.6606 -0.8001  0.1861
 2849SOL     OW20179   2.926   0.632   8.070  0.0258 -0.8109 -0.1936
 2849SOL    HW120180   2.903   0.682   7.991 -2.3355 -0.2020  0.8790
 2849SOL    HW220181   2.925   0.700   8.138  1.6290  0.7277 -1.6964
 2850SOL     OW20182   0.673   3.915  15.066  0.8839  0.1405 -0.2762
 2850SOL    HW120183   0.640   3.828  15.046  1.4068  0.2092 -1.4328
 2850SOL    HW220184   0.647   3.961  14.986  1.3556 -0.3722 -0.7201
 2851SOL     OW20185   0.054   3.829   6.556 -0.1237  0.1704 -0.2618
 2851SOL    HW120186   0.045   3.766   6.627  0.7869  0.1657 -0.1557
 2851SOL    HW220187   0.134   3.867   6.593  0.0352 -0.2296 -0.1988
 2852SOL     OW20188   1.959   0.425  14.543 -0.4286  0.2390  0.4163
 2852SOL    HW120189   1.985   0.338  14.512  0.4841  0.9220 -0.7478
 2852SOL    HW220190   2.030   0.437  14.606  0.0741  0.2966 -0.1635
 2853SOL     OW20191   1.789   1.977   5.282  0.3304  0.0871 -0.5729
 2853SOL    HW120192   1.841   1.898   5.268 -0.4832 -0.1832 -2.1495
 2853SOL    HW220193   1.797   2.008   5.191  3.1629  0.5142 -0.1791
 2854SOL     OW20194   4.367   0.526   0.317  0.1903  0.5492 -0.3015
 2854SOL    HW120195   4.385   0.441   0.357  1.6807  0.5706 -0.9446
 2854SOL    HW220196   4.273   0.520   0.299  0.0997 -0.2834  0.4770
 2855SOL     OW20197   0.791   2.341   2.719 -0.4129 -0.0856 -0.2657
 2855SOL    HW120198   0.863   2.402   2.734 -0.8024  0.1772  0.5375
 2855SOL    HW220199   0.832   2.258   2.741 -0.8983 -0.6227 -1.4022
 2856SOL     OW20200   2.808   3.447   3.929 -0.2071 -0.1762  0.6576
 2856SOL    HW120201   2.826   3.526   3.980 -2.5285  0.0731  1.0958
 2856SOL    HW220202   2.729   3.470   3.880  0.0251 -1.1482 -0.1625
 2857SOL     OW20203   2.862   2.384   7.861 -0.1668 -0.6122 -0.6377
 2857SOL    HW120204   2.894   2.463   7.816 -0.5305 -0.1977 -0.1641
 2857SOL    HW220205   2.767   2.400   7.866 -0.1269 -0.2065 -1.1466
 2858SOL     OW20206   3.397   3.017  16.677  0.3410 -0.0553 -0.1349
 2858SOL    HW120207   3.302   3.027  16.685  0.3523 -0.3291  0.3540
 2858SOL    HW220208   3.417   3.050  16.590 -0.2391 -2.1544 -1.0522
 2859SOL     OW20209   4.181   4.725   6.098 -0.4786  0.3523 -0.1966
 2859SOL    HW120210   4.155   0.076   6.103  1.1122  0.9238 -2.3048
 2859SOL    HW220211   4.173   4.705   6.191 -2.0285  0.0634 -0.3942
 2860SOL     OW20212   4.491   4.499   5.470  0.0978  0.1101 -0.3395
 2860SOL    HW120213   4.479   4.505   5.565 -0.3493 -2.7084 -0.1991
 2860SOL    HW220214   4.569   4.443   5.464 -0.7710 -0.9086 -2.0676
 2861SOL     OW20215   0.743   4.545   1.913  0.2693  0.4524  0.0817
 2861SOL    HW120216   0.790   4.617   1.870 -2.0718  1.4737 -0.8106
 2861SOL    HW220217   0.668   4.521   1.858 -0.6695  2.6739  0.3743
 2862SOL     OW20218   0.399   3.103   5.256 -0.2061 -0.2400 -0.1634
 2862SOL    HW120219   0.341   3.137   5.325  1.9803  3.3864 -0.1290
 2862SOL    HW220220   0.339   3.117   5.182 -2.3206 -0.4921  1.4891
 2863SOL     OW20221   3.549   2.187   0.725  0.1623 -0.1389  0.7475
 2863SOL    HW120222   3.591   2.119   0.673 -0.1857 -0.9846  1.5626
 2863SOL    HW220223   3.556   2.162   0.817  1.8522 -0.6016  0.4951
 2864SOL     OW20224   0.925   0.506  16.929 -0.1237 -0.2471  0.7650
 2864SOL    HW120225   0.953   0.519  17.019 -1.0955 -1.7824  1.3006
 2864SOL    HW220226   1.005   0.538  16.887 -0.9920 -1.4317 -1.8089
 2865SOL     OW20227   3.770   1.522   1.956  0.6331  0.0990  0.1863
 2865SOL    HW120228   3.729   1.449   1.909  4.3476 -1.3730 -0.7107
 2865SOL    HW220229   3.770   1.474   2.039  1.5594 -0.5608 -0.2042
 2866SOL     OW20230   0.031   2.049   5.702  0.3197  0.2907  0.3322
 2866SOL    HW120231   0.027   2.122   5.765  0.1945  1.1686 -0.7010
 2866SOL    HW220232   0.075   2.099   5.633 -0.5858 -0.3973 -0.7186
 2867SOL     OW20233   2.678   4.026  16.258  0.1999  0.0717 -0.3851
 2867SOL    HW120234   2.760   3.991  16.293  1.7121  2.3830 -1.6034
 2867SOL    HW220235   2.638   3.949  16.218  1.0973 -0.8239  0.4443
 2868SOL     OW20236   2.068   2.108   3.281  0.0333 -0.0130  0.6413
 2868SOL    HW120237   2.034   2.193   3.254  0.8406 -0.2382 -1.0485
 2868SOL    HW220238   2.006   2.091   3.352 -1.1043 -0.7574 -0.5277
 2869SOL     OW20239   1.067   1.578   3.951  0.0823  0.3910  0.0108
 2869SOL    HW120240   1.081   1.492   3.991  0.5695  0.5025  0.0851
 2869SOL    HW220241   1.019   1.550   3.874  0.1613 -2.7343  1.0984
 2870SOL     OW20242   0.081   3.641   6.748 -0.2938 -0.3886 -0.0252
 2870SOL    HW120243   0.174   3.623   6.739  0.3520  1.7739  2.5860
 2870SOL    HW220244   0.072   3.632   6.843 -0.1818  0.3833  0.0581
 2871SOL     OW20245   3.268   3.071   9.283 -0.1912 -0.5347  0.4217
 2871SOL    HW120246   3.194   3.022   9.246  1.2181 -2.6500  0.4150
 2871SOL    HW220247   3.312   3.004   9.336  1.5409  0.0595 -0.2795
 2872SOL     OW20248   0.953   2.111   2.798  0.0928  0.2577 -0.1444
 2872SOL    HW120249   0.973   2.024   2.765  0.1533 -0.2891  1.3275
 2872SOL    HW220250   1.041   2.121   2.833  0.7025 -1.5745 -1.1496
 2873SOL     OW20251   3.896   0.511  13.229  0.4342 -0.0031 -0.0926
 2873SOL    HW120252   3.981   0.517  13.271  0.4676 -0.8588 -0.0463
 2873SOL    HW220253   3.892   0.424  13.190  0.4641 -0.3394  0.6690
 2874SOL     OW20254   1.037   2.918  12.857  0.2398  0.5876  0.3582
 2874SOL    HW120255   1.047   2.998  12.909 -2.4087  1.3328 -0.2836
 2874SOL    HW220256   1.037   2.854  12.928 -1.4838  1.9092  1.5502
 2875SOL     OW20257   4.030   2.985   3.501  0.1726  0.0618  0.0731
 2875SOL    HW120258   3.960   2.923   3.520  0.6969 -0.1377  1.3374
 2875SOL    HW220259   4.085   2.982   3.580  0.5658  1.6701 -0.1454
 2876SOL     OW20260   4.623   3.850   4.065  0.2538 -0.0646  0.2552
 2876SOL    HW120261   4.652   3.818   3.980  1.1804  1.0490  0.1529
 2876SOL    HW220262   4.562   3.778   4.083  0.1712  0.2387  1.1739
 2877SOL     OW20263   2.557   0.890  15.369 -0.3466  0.3132  0.0353
 2877SOL    HW120264   2.549   0.912  15.277 -0.4384 -1.9290 -0.4804
 2877SOL    HW220265   2.580   0.973  15.411  0.3466  0.4344 -0.5790
 2878SOL     OW20266   3.476   0.101   3.644 -0.5413 -0.4475  0.2051
 2878SOL    HW120267   3.566   0.115   3.673 -0.5458  0.3638 -0.1655
 2878SOL    HW220268   3.470   0.012   3.677 -0.0598 -0.4415  0.3150
 2879SOL     OW20269   0.038   3.388   3.996  0.6609  0.1236 -0.1468
 2879SOL    HW120270   4.706   3.449   3.980  0.7984  0.4296  0.3953
 2879SOL    HW220271   0.101   3.431   3.938  0.3291 -1.8887 -2.0224
 2880SOL     OW20272   2.879   3.457   1.684  0.2481  0.5296 -0.0442
 2880SOL    HW120273   2.958   3.403   1.681 -0.2147 -0.0976 -0.8096
 2880SOL    HW220274   2.866   3.462   1.590  0.7675  0.4883 -0.1172
 2881SOL     OW20275   4.625   3.927   2.926 -0.1380 -0.0111 -0.5760
 2881SOL    HW120276   4.629   3.886   3.012 -1.4576  0.0814 -0.4778
 2881SOL    HW220277   4.683   3.860   2.889 -0.3580 -0.8139  0.5419
 2882SOL     OW20278   1.960   4.119   0.575 -0.1602 -0.0128  0.3998
 2882SOL    HW120279   2.018   4.043   0.565  0.4245  0.7122 -1.7232
 2882SOL    HW220280   2.017   4.188   0.541 -1.5969  1.9729  2.0035
 2883SOL     OW20281   3.487   3.012   2.504 -0.0618  0.8655  0.2864
 2883SOL    HW120282   3.444   2.999   2.419 -0.2301 -1.4978  0.7428
 2883SOL    HW220283   3.416   3.054   2.553 -0.9178 -3.2226  2.5008
 2884SOL     OW20284   0.638   3.266   3.297 -0.3855  0.5386  0.7948
 2884SOL    HW120285   0.719   3.228   3.331 -0.4749  0.0160  0.4343
 2884SOL    HW220286   0.655   3.358   3.315 -3.1473  1.3111 -0.5256
 2885SOL     OW20287   3.456   3.174   1.138  0.1757  0.4133  0.4908
 2885SOL    HW120288   3.472   3.173   1.233  1.7806  2.0297  0.2182
 2885SOL    HW220289   3.366   3.202   1.152 -0.2575 -0.1774 -1.0818
 2886SOL     OW20290   1.709   4.729  11.878  0.2232  0.0051  0.5792
 2886SOL    HW120291   1.636   4.675  11.848  0.3887  0.5903 -0.9179
 2886SOL    HW220292   1.718   4.705  11.970 -1.7126 -2.7206  0.0671
 2887SOL     OW20293   2.426   0.499   6.079 -0.1685  0.2444  0.0367
 2887SOL    HW120294   2.521   0.510   6.086 -0.0387 -0.4145 -0.6082
 2887SOL    HW220295   2.394   0.578   6.036 -2.9444 -1.3918 -0.9444
 2888SOL     OW20296   0.428   1.824   6.404 -0.6231 -0.1466 -0.1181
 2888SOL    HW120297   0.455   1.738   6.436 -0.3866 -0.2541 -0.6104
 2888SOL    HW220298   0.474   1.819   6.321 -1.0938  0.1586 -0.4012
 2889SOL     OW20299   1.214   0.046   2.718 -0.4540  0.3275  0.2162
 2889SOL    HW120300   1.291   0.007   2.759 -0.4407  3.2032  2.9167
 2889SOL    HW220301   1.168   4.704   2.705 -0.4079  0.2879  0.3061
 2890SOL     OW20302   1.733   0.181   8.830 -0.1124 -0.2280 -0.1864
 2890SOL    HW120303   1.746   0.205   8.922  1.7067  1.3930 -0.8664
 2890SOL    HW220304   1.723   0.269   8.792 -1.4843 -1.1456 -1.9417
 2891SOL     OW20305   2.270   1.732   8.855  0.0897  0.0660  0.1280
 2891SOL    HW120306   2.273   1.727   8.950  0.2181  1.8814  0.2182
 2891SOL    HW220307   2.352   1.781   8.845 -1.1826  2.1845 -0.0906
 2892SOL     OW20308   1.178   4.171   0.796 -0.0084  0.0973  0.0793
 2892SOL    HW120309   1.184   4.127   0.711  0.7331  0.1005  0.1240
 2892SOL    HW220310   1.270   4.176   0.824 -0.1828  0.1322  0.6524
 2893SOL     OW20311   3.403   2.171   8.638 -0.0054  0.1769 -0.0640
 2893SOL    HW120312   3.392   2.241   8.573 -2.3015  1.3971  1.6586
 2893SOL    HW220313   3.439   2.231   8.704  0.8482 -0.2141 -0.1809
 2894SOL     OW20314   3.718   4.288   5.128  0.4837 -0.3328  0.1539
 2894SOL    HW120315   3.761   4.261   5.047 -0.2655 -0.3159 -0.2442
 2894SOL    HW220316   3.787   4.266   5.191 -1.2473  2.0220  2.8914
 2895SOL     OW20317   4.079   3.470   8.417 -0.2249  0.4908  0.1639
 2895SOL    HW120318   4.003   3.425   8.381  2.2359 -1.8759 -2.1282
 2895SOL    HW220319   4.114   3.391   8.459 -1.3919 -1.1962 -2.0721
 2896SOL     OW20320   3.548   2.728   5.776  0.3290 -0.1484 -0.0788
 2896SOL    HW120321   3.586   2.746   5.690 -0.9976 -1.4853 -0.9446
 2896SOL    HW220322   3.542   2.633   5.784 -0.8167 -0.0706  0.0420
 2897SOL     OW20323   0.179   4.284   3.578 -0.5136  0.3571 -0.7331
 2897SOL    HW120324   0.188   4.273   3.484  1.2101  1.3323 -0.6706
 2897SOL    HW220325   0.147   4.374   3.589  1.9097  0.9549  1.5017
 2898SOL     OW20326   1.229   4.394   6.267 -0.2189  0.5004  0.1350
 2898SOL    HW120327   1.165   4.441   6.321 -1.2178 -0.4393 -0.2261
 2898SOL    HW220328   1.301   4.435   6.315  1.8926 -0.8170 -1.9226
 2899SOL     OW20329   4.683   1.114   2.149  0.2743 -0.2169 -0.0103
 2899SOL    HW120330   4.663   1.024   2.171  2.1443 -0.3860  0.9746
 2899SOL    HW220331   4.654   1.119   2.058  0.0386 -0.3377  0.0576
 2900SOL     OW20332   1.323   2.141  16.695  0.1921 -0.4333  0.0653
 2900SOL    HW120333   1.293   2.138  16.605  0.4894  0.2947 -0.0546
 2900SOL    HW220334   1.371   2.222  16.709  0.1112 -0.1635 -1.2450
 2901SOL     OW20335   1.550   1.847   3.176  0.6588 -0.3680 -0.3235
 2901SOL    HW120336   1.547   1.929   3.225 -3.4244 -0.4105 -0.5008
 2901SOL    HW220337   1.614   1.870   3.108 -0.2169  0.0116 -1.0097
 2902SOL     OW20338   2.087   3.595   8.131 -0.0912 -0.2603  0.0027
 2902SOL    HW120339   2.112   3.562   8.045 -0.6865  0.2884 -0.3813
 2902SOL    HW220340   2.049   3.513   8.162  1.1115 -0.7970  0.0535
 2903SOL     OW20341   1.871   4.706   3.308 -0.2087 -0.3674 -0.2670
 2903SOL    HW120342   1.880   4.613   3.290 -0.8915 -0.0112 -2.3520
 2903SOL    HW220343   1.900   4.700   3.399  0.4521 -1.1275 -0.5245
 2904SOL     OW20344   2.766   1.552   6.604 -0.0736 -0.1086 -0.1092
 2904SOL    HW120345   2.858   1.538   6.583 -0.2127 -0.8802 -0.2290
 2904SOL    HW220346   2.719   1.473   6.577 -2.2044  1.0583  0.1851
 2905SOL     OW20347   4.270   3.391   7.527  0.1172  0.7460 -0.2250
 2905SOL    HW120348   4.291   3.466   7.584 -0.2624 -0.5025  1.5579
 2905SOL    HW220349   4.277   3.322   7.592 -2.8214  0.6258 -0.0543
 2906SOL     OW20350   3.740   0.285  16.032  0.0583 -0.7196  0.0435
 2906SOL    HW120351   3.790   0.332  15.966 -1.7798  0.2519 -0.6441
 2906SOL    HW220352   3.809   0.228  16.066  1.3326 -0.1911 -1.6747
 2907SOL     OW20353   2.091   4.703   4.988  0.4224 -0.0344  0.0675
 2907SOL    HW120354   2.103   4.610   5.003  2.0491  0.3757  1.2811
 2907SOL    HW220355   2.017   4.715   5.047  0.9816  2.0810  0.3646
 2908SOL     OW20356   4.274   1.755   3.504 -0.2629 -0.2442  0.1624
 2908SOL    HW120357   4.194   1.707   3.525 -1.4486  1.7235  0.1471
 2908SOL    HW220358   4.311   1.745   3.591  0.8613 -3.4386 -0.6598
 2909SOL     OW20359   3.774   0.438   4.810  0.2702  0.1646 -0.1312
 2909SOL    HW120360   3.851   0.464   4.860 -0.5949  1.5928  0.4487
 2909SOL    HW220361   3.703   0.478   4.860 -0.9992  1.6413 -3.0945
 2910SOL     OW20362   3.810   2.693   4.800  0.2219  0.4872  0.1590
 2910SOL    HW120363   3.739   2.718   4.860 -1.3055  0.1926 -1.5335
 2910SOL    HW220364   3.754   2.633   4.751  0.0598 -0.0310  0.9695
 2911SOL     OW20365   1.090   1.779   4.693  0.0845  0.8619 -0.2719
 2911SOL    HW120366   1.069   1.871   4.704 -0.9569  0.5658  0.1969
 2911SOL    HW220367   1.060   1.771   4.602  0.3051 -1.0980 -0.1789
 2912SOL     OW20368   1.878   1.754   4.431  0.0131 -0.4830 -0.4827
 2912SOL    HW120369   1.873   1.733   4.524  0.6562 -0.3505 -0.4187
 2912SOL    HW220370   1.944   1.694   4.396  0.9957  0.4432 -0.2306
 2913SOL     OW20371   1.924   2.349   8.643 -0.6431  0.3320 -0.7716
 2913SOL    HW120372   1.833   2.325   8.661 -0.0366 -1.5047 -0.1808
 2913SOL    HW220373   1.957   2.346   8.733  0.3830  0.8840 -1.1247
 2914SOL     OW20374   0.772   3.827   7.959  0.4307  0.1117  1.3896
 2914SOL    HW120375   0.693   3.811   7.907  1.4706  0.3952 -0.2749
 2914SOL    HW220376   0.846   3.811   7.900 -3.0515 -1.2624 -2.6353
 2915SOL     OW20377   2.211   2.126  11.125 -0.1975  0.5282 -0.0606
 2915SOL    HW120378   2.158   2.177  11.064 -2.3126  1.0403  2.1950
 2915SOL    HW220379   2.160   2.044  11.126  1.2901 -0.4060 -0.5010
 2916SOL     OW20380   4.337   0.054  15.572 -0.3694 -0.0378 -0.3009
 2916SOL    HW120381   4.256   0.007  15.587 -1.1845  0.9731 -1.5161
 2916SOL    HW220382   4.396   4.728  15.606 -0.8872 -2.0261 -3.3326
 2917SOL     OW20383   1.744   3.257   2.946 -0.1252  0.1972 -0.3938
 2917SOL    HW120384   1.680   3.188   2.962 -0.0670  0.9181  2.8976
 2917SOL    HW220385   1.818   3.196   2.951 -1.2218 -1.0888  0.1160
 2918SOL     OW20386   1.525   2.751   6.774 -0.1591  0.1122  0.1386
 2918SOL    HW120387   1.494   2.829   6.728  1.4163  0.8266  0.2894
 2918SOL    HW220388   1.527   2.777   6.867  1.3984  1.4195 -0.2674
 2919SOL     OW20389   1.109   3.905   7.441 -0.1103 -0.7145 -0.0613
 2919SOL    HW120390   1.189   3.893   7.492 -1.1791 -0.4138  1.6940
 2919SOL    HW220391   1.059   3.832   7.478 -0.6214 -0.7797 -0.8826
 2920SOL     OW20392   4.197   2.944   7.174  0.0409 -0.3533 -0.0905
 2920SOL    HW120393   4.149   2.874   7.218 -0.4329 -0.7007 -1.1625
 2920SOL    HW220394   4.180   2.928   7.081  0.3088  0.5024 -0.2840
 2921SOL     OW20395   1.880   2.286   9.206  0.3366 -0.4040  0.1462
 2921SOL    HW120396   1.858   2.200   9.243  1.0129 -0.1981  1.0271
 2921SOL    HW220397   1.800   2.337   9.217 -0.1343 -1.0916 -0.0552
 2922SOL     OW20398   1.701   0.172  10.719  0.2079 -0.0051  0.1668
 2922SOL    HW120399   1.700   0.163  10.814 -0.5404 -1.0686  0.0553
 2922SOL    HW220400   1.631   0.113  10.692 -0.1526  1.0241 -1.1072
 2923SOL     OW20401   3.737   3.410  17.260 -0.4313 -0.1353  0.4559
 2923SOL    HW120402   3.678   3.371  17.196  1.8466 -1.6708 -0.7150
 2923SOL    HW220403   3.676   3.468  17.305  0.1534  2.2826 -1.8321
 2924SOL     OW20404   1.686   4.624   9.255  0.1312 -0.0036  0.2682
 2924SOL    HW120405   1.685   4.665   9.342  0.4078  1.3289 -0.3518
 2924SOL    HW220406   1.778   4.631   9.232  0.3829 -0.9268  0.9915
 2925SOL     OW20407   4.363   0.380   1.516 -0.4391  0.3546  0.2207
 2925SOL    HW120408   4.416   0.304   1.491 -0.1319  0.6621 -0.0611
 2925SOL    HW220409   4.298   0.332   1.567 -0.7614  2.5957  1.9177
 2926SOL     OW20410   3.498   2.940   6.518 -0.2105  0.3233 -0.1610
 2926SOL    HW120411   3.521   2.847   6.528 -0.1093  0.3176 -0.4288
 2926SOL    HW220412   3.581   2.971   6.481 -0.3500  0.3969 -0.4130
 2927SOL     OW20413   2.646   4.147  12.196  0.6570 -0.2545 -0.4130
 2927SOL    HW120414   2.681   4.127  12.282 -1.0011 -2.0896 -0.1613
 2927SOL    HW220415   2.637   4.059  12.159 -0.2429  0.8843 -2.9117
 2928SOL     OW20416   1.101   2.309   7.972  0.1038 -0.2198  0.1959
 2928SOL    HW120417   1.035   2.374   7.951 -0.2353 -1.0542 -1.3339
 2928SOL    HW220418   1.141   2.280   7.889 -0.4594  1.3829 -0.6444
 2929SOL     OW20419   3.922   1.718   7.396 -0.0643  0.3839  0.1347
 2929SOL    HW120420   3.846   1.768   7.427 -1.5083 -0.7631 -1.6079
 2929SOL    HW220421   3.933   1.750   7.307 -1.0843 -1.6459 -0.7110
 2930SOL     OW20422   3.134   3.372   2.879  0.5531  0.1053 -0.2444
 2930SOL    HW120423   3.104   3.282   2.868  1.4139  0.1251 -2.8179
 2930SOL    HW220424   3.155   3.386   2.786 -0.0324 -1.3618 -0.6043
 2931SOL     OW20425   0.502   0.261   7.704  0.4784 -0.4065  0.1336
 2931SOL    HW120426   0.505   0.193   7.636 -0.6602 -1.8429  1.5104
 2931SOL    HW220427   0.445   0.221   7.770  1.8288 -1.5129  0.6192
 2932SOL     OW20428   4.708   2.486   4.757 -0.2021 -0.1251  0.3847
 2932SOL    HW120429   4.696   2.444   4.843 -0.9805  3.7686  2.1711
 2932SOL    HW220430   4.689   2.414   4.697  1.3455  1.2006 -1.6809
 2933SOL     OW20431   0.202   1.292  17.108  0.1793 -0.7777  0.5588
 2933SOL    HW120432   0.186   1.380  17.141  1.4024 -0.7026  0.9660
 2933SOL    HW220433   0.219   1.231  17.180  2.0224 -1.4839 -0.4778
 2934SOL     OW20434   2.873   4.226   6.918  0.1912  0.3047  0.8194
 2934SOL    HW120435   2.794   4.261   6.877  1.6355  0.1308 -2.1529
 2934SOL    HW220436   2.927   4.299   6.948  2.0788 -0.8238  0.1791
 2935SOL     OW20437   1.633   1.342   0.883  0.1476 -0.1047  0.1139
 2935SOL    HW120438   1.547   1.342   0.926  0.3556  0.9694  0.5285
 2935SOL    HW220439   1.686   1.372   0.956 -1.0372  3.8340 -0.6164
 2936SOL     OW20440   4.717   2.252   9.739  0.0702  0.2207  0.3845
 2936SOL    HW120441   4.699   2.343   9.761  0.1649  0.0177  1.3290
 2936SOL    HW220442   4.658   2.230   9.667 -0.2446  1.7123  0.2005
 2937SOL     OW20443   2.864   3.758  13.073 -0.3557 -0.1230 -0.1235
 2937SOL    HW120444   2.778   3.799  13.070 -0.4738 -0.4565 -1.4281
 2937SOL    HW220445   2.839   3.675  13.031 -2.0458  1.2909 -1.8808
 2938SOL     OW20446   4.648   2.605   1.565  0.1609 -0.1447 -0.3749
 2938SOL    HW120447   4.569   2.625   1.615  1.5409 -2.1524  2.5951
 2938SOL    HW220448   4.698   2.680   1.596  2.1154 -1.4241 -0.4451
 2939SOL     OW20449   1.127   4.501  11.045  0.1904 -0.1891  0.6109
 2939SOL    HW120450   1.036   4.483  11.069  0.2091 -0.1446  0.7182
 2939SOL    HW220451   1.111   4.578  10.991  1.3787 -1.1643 -1.1063
 2940SOL     OW20452   2.351   3.783   4.111 -0.2796  0.1909  0.5669
 2940SOL    HW120453   2.257   3.773   4.123 -0.5287  2.4254  0.3331
 2940SOL    HW220454   2.369   3.876   4.103  2.4762 -0.3931 -0.1455
 2941SOL     OW20455   4.546   3.733   7.037  0.4917  0.2338  0.0212
 2941SOL    HW120456   4.532   3.710   6.945 -1.6900 -0.5872  0.5783
 2941SOL    HW220457   4.466   3.780   7.061  0.6561  0.3206  0.3855
 2942SOL     OW20458   0.338   1.589  12.213  0.4033  0.0685  0.2057
 2942SOL    HW120459   0.329   1.667  12.269  1.0224 -0.5539  1.1722
 2942SOL    HW220460   0.355   1.522  12.280 -1.7342  1.0486  1.7268
 2943SOL     OW20461   1.601   4.077   1.507 -0.1824  0.3543 -0.7973
 2943SOL    HW120462   1.644   4.106   1.427 -0.3194 -0.0419 -1.0154
 2943SOL    HW220463   1.544   4.149   1.534 -0.2548  0.7018 -1.8854
 2944SOL     OW20464   1.711   3.151   8.051 -0.1232  0.1944 -0.0606
 2944SOL    HW120465   1.780   3.097   8.089  1.8084  1.6220 -1.5511
 2944SOL    HW220466   1.679   3.195   8.130  0.6535 -0.2497  0.4894
 2945SOL     OW20467   2.110   0.936  14.990  0.2196  0.1700  0.4373
 2945SOL    HW120468   2.092   0.987  14.911 -1.4700  0.9167  1.2997
 2945SOL    HW220469   2.032   0.881  14.988  0.8078 -0.7072  1.7308
 2946SOL     OW20470   4.450   3.404   6.369 -0.3824  0.3877 -0.0205
 2946SOL    HW120471   4.436   3.326   6.314 -0.0105  0.9658 -0.9306
 2946SOL    HW220472   4.420   3.379   6.457  1.3216 -0.4169  0.3183
 2947SOL     OW20473   3.864   0.478   8.645  0.2361  0.4308 -0.3334
 2947SOL    HW120474   3.897   0.400   8.601  2.4951  0.9318  0.4965
 2947SOL    HW220475   3.913   0.550   8.606  1.1264  1.2984  2.3431
 2948SOL     OW20476   0.278   0.418   1.738 -0.0288  0.4930  0.1920
 2948SOL    HW120477   0.370   0.392   1.731  0.5766  2.7858 -0.4317
 2948SOL    HW220478   0.240   0.331   1.749 -1.3306  0.9508 -0.6727
 2949SOL     OW20479   0.735   1.015   5.302 -0.1262 -0.4531 -0.3737
 2949SOL    HW120480   0.645   0.984   5.314 -1.1359  3.0756  1.1401
 2949SOL    HW220481   0.722   1.034   5.209  0.8855  0.5461 -0.3015
 2950SOL     OW20482   4.683   4.048   2.026  0.0428  0.6582 -0.0440
 2950SOL    HW120483   0.020   3.996   2.048 -0.4695 -0.4873 -0.8891
 2950SOL    HW220484   4.704   4.137   2.052 -1.1749  0.3628  1.9533
 2951SOL     OW20485   3.562   1.006   8.286 -0.2582  0.0615  0.0790
 2951SOL    HW120486   3.648   0.966   8.293  0.9610  2.4703 -1.3195
 2951SOL    HW220487   3.571   1.054   8.204 -0.2180  0.1474  0.1345
 2952SOL     OW20488   0.974   1.575   6.371 -0.1467  0.0619  0.4822
 2952SOL    HW120489   0.964   1.598   6.278  1.3908 -2.2971 -0.2879
 2952SOL    HW220490   1.068   1.580   6.387 -0.0282  0.0907 -0.1947
 2953SOL     OW20491   3.381   1.333   3.530  0.3384 -0.0544  0.2234
 2953SOL    HW120492   3.337   1.413   3.558  0.0066 -0.4623  0.8755
 2953SOL    HW220493   3.308   1.273   3.547 -1.1310  1.8925  0.7236
 2954SOL     OW20494   2.872   2.104   8.681 -0.0572  0.3727 -0.0666
 2954SOL    HW120495   2.949   2.049   8.693 -2.5466 -2.4621  2.8661
 2954SOL    HW220496   2.895   2.186   8.725  1.2693 -1.2246  2.1862
 2955SOL     OW20497   3.995   4.644  15.913 -0.9258 -0.0726 -0.2246
 2955SOL    HW120498   4.012   4.696  15.834 -0.9940 -1.6024 -1.2531
 2955SOL    HW220499   3.928   4.587  15.876 -1.8081  0.2780  0.8493
 2956SOL     OW20500   0.056   1.342   5.011 -0.0026  0.6979  0.3365
 2956SOL    HW120501   0.087   1.317   4.925 -0.6328  0.4123  0.1946
 2956SOL    HW220502   0.144   1.374   5.033 -0.0672  0.3691  1.0723
 2957SOL     OW20503   4.035   1.411  15.858  0.3638 -0.5552  0.1885
 2957SOL    HW120504   4.128   1.388  15.859  0.1634 -1.3734  0.2787
 2957SOL    HW220505   4.005   1.368  15.777 -0.6035  1.9367 -0.7479
 2958SOL     OW20506   0.517   1.580   6.094 -0.1920 -0.6760 -0.1667
 2958SOL    HW120507   0.425   1.562   6.074 -0.3393  0.7655 -0.8305
 2958SOL    HW220508   0.522   1.675   6.107 -0.3168 -0.3987 -2.0698
 2959SOL     OW20509   1.704   0.630  15.003 -0.4680 -0.5989  0.4607
 2959SOL    HW120510   1.651   0.675  14.937  1.1561 -0.6433 -0.8858
 2959SOL    HW220511   1.631   0.631  15.065 -2.3732  1.7737 -1.8275
 2960SOL     OW20512   0.186   1.947   9.772 -0.4239  0.5723  0.3302
 2960SOL    HW120513   0.164   1.890   9.699 -2.2683 -0.6918  1.8737
 2960SOL    HW220514   0.265   1.982   9.732  0.0034 -1.3903 -0.5491
 2961SOL     OW20515   3.745   3.745   6.572  0.4648  0.0954  0.2493
 2961SOL    HW120516   3.709   3.812   6.631  0.1666  0.5958 -0.5056
 2961SOL    HW220517   3.705   3.777   6.492  0.0007  0.2976  0.5629
 2962SOL     OW20518   0.782   2.769   7.851 -0.7382 -0.4722  0.0974
 2962SOL    HW120519   0.830   2.756   7.769 -1.6712 -2.2749 -0.1818
 2962SOL    HW220520   0.815   2.850   7.888  1.5186 -0.3592 -2.1637
 2963SOL     OW20521   4.037   2.688  13.941  0.1928  0.2774 -0.0193
 2963SOL    HW120522   4.095   2.650  14.008  0.3152  1.1265  0.3512
 2963SOL    HW220523   3.957   2.636  13.953  1.0216 -0.9454  0.2975
 2964SOL     OW20524   3.258   3.906   5.933  0.2380 -0.3227 -0.7791
 2964SOL    HW120525   3.218   3.914   5.847 -0.2581 -2.7122 -0.7766
 2964SOL    HW220526   3.233   3.816   5.954  0.4185  0.0089  0.8275
 2965SOL     OW20527   0.005   4.256   5.282 -0.2123  0.3839 -0.1376
 2965SOL    HW120528   4.683   4.188   5.306  0.6700 -0.4510 -0.1945
 2965SOL    HW220529   0.065   4.210   5.223  1.3047  0.0693  1.6458
 2966SOL     OW20530   4.449   2.516  14.019 -0.1878 -0.7832  0.0989
 2966SOL    HW120531   4.400   2.574  13.961  0.4301 -1.4643 -1.0928
 2966SOL    HW220532   4.443   2.558  14.105 -2.4001 -1.3290  0.2261
 2967SOL     OW20533   1.188   2.991  15.890 -0.2403 -0.0853  0.0562
 2967SOL    HW120534   1.263   2.940  15.859  2.3693  3.6295  0.2920
 2967SOL    HW220535   1.107   2.944  15.868 -0.6756 -0.1479  1.8076
 2968SOL     OW20536   0.366   0.589   1.260  0.1301  0.6252  0.2733
 2968SOL    HW120537   0.375   0.495   1.279  0.9230  0.6500  0.0142
 2968SOL    HW220538   0.364   0.627   1.348 -0.7633  0.4865  0.3177
 2969SOL     OW20539   4.205   3.336   8.700 -0.5523  0.4322 -0.2352
 2969SOL    HW120540   4.234   3.426   8.714 -0.3207  0.1947  0.8403
 2969SOL    HW220541   4.164   3.323   8.786 -0.2829  1.4394  0.0484
 2970SOL     OW20542   4.105   0.136   6.818  0.0279 -0.2790 -0.1122
 2970SOL    HW120543   4.091   0.219   6.864  0.3180  1.0038 -2.2914
 2970SOL    HW220544   4.163   0.098   6.883  1.4396  0.9295 -0.6682
 2971SOL     OW20545   2.469   1.789  11.663  0.8246  0.0104  0.1457
 2971SOL    HW120546   2.486   1.860  11.724  2.5158 -1.5007  1.4413
 2971SOL    HW220547   2.376   1.801  11.646  0.8855 -0.1627 -0.3130
 2972SOL     OW20548   3.971   4.033   5.610 -0.2628 -0.1242 -0.0936
 2972SOL    HW120549   4.010   4.064   5.692 -1.6030 -0.9918  0.8877
 2972SOL    HW220550   3.884   4.010   5.643  0.7618 -2.5314  0.9995
 2973SOL     OW20551   2.024   2.517   6.170  0.0761 -0.2758  0.1419
 2973SOL    HW120552   2.080   2.453   6.216  0.3518 -0.1379 -0.0001
 2973SOL    HW220553   2.096   2.578   6.153  0.7866 -1.0258  0.4431
 2974SOL     OW20554   1.738   2.282   2.084  0.3245 -0.1269  0.2005
 2974SOL    HW120555   1.829   2.254   2.096  0.8909  0.6977 -2.0608
 2974SOL    HW220556   1.742   2.342   2.009  1.7478 -0.5743 -0.0827
 2975SOL     OW20557   0.490   2.449   4.451  0.0558  0.3399  0.5709
 2975SOL    HW120558   0.542   2.400   4.515  0.6903  1.7747  1.1657
 2975SOL    HW220559   0.521   2.538   4.468 -1.3009  0.9076  0.0441
 2976SOL     OW20560   1.968   0.335   5.421 -0.2209 -0.2761 -0.2245
 2976SOL    HW120561   1.919   0.272   5.367  0.7215 -1.5924  0.4356
 2976SOL    HW220562   2.056   0.339   5.383 -1.3173  1.4563 -2.5459
 2977SOL     OW20563   1.295   3.748   0.799  0.3299  0.2760 -0.2798
 2977SOL    HW120564   1.332   3.805   0.866 -0.1806 -0.5117  0.6642
 2977SOL    HW220565   1.202   3.761   0.815  0.3672 -0.2992  0.4190
 2978SOL     OW20566   0.924   1.436   5.635  0.0586 -0.4984  0.2872
 2978SOL    HW120567   0.919   1.368   5.567 -0.3109 -0.8390  0.6591
 2978SOL    HW220568   1.009   1.421   5.677  0.0396 -3.0647 -0.5349
 2979SOL     OW20569   3.941   0.981  17.198 -0.4389 -0.1424 -0.3188
 2979SOL    HW120570   3.934   0.912  17.265 -1.9869  0.2485 -0.0626
 2979SOL    HW220571   3.849   1.001  17.179 -1.0025 -1.5017  0.8808
 2980SOL     OW20572   2.991   2.912  11.120  0.1262 -0.3240  0.3349
 2980SOL    HW120573   3.043   2.938  11.045  1.4409  0.4574  1.5179
 2980SOL    HW220574   3.053   2.922  11.192 -0.2452 -0.3252  0.6573
 2981SOL     OW20575   3.121   3.213   4.983 -0.5896  0.2742 -0.7858
 2981SOL    HW120576   3.185   3.240   4.917  0.4161 -2.3541 -0.8872
 2981SOL    HW220577   3.094   3.133   4.938  1.7004 -2.6903  3.0915
 2982SOL     OW20578   4.430   1.044   8.450  0.2561  0.0999  0.0504
 2982SOL    HW120579   4.393   1.007   8.370  0.3832 -1.5059  0.7309
 2982SOL    HW220580   4.434   0.964   8.503  3.0487  0.0910 -0.1759
 2983SOL     OW20581   1.880   1.130   6.225  0.7215 -0.0551  0.5207
 2983SOL    HW120582   1.823   1.155   6.297 -2.9022 -2.5416 -1.4265
 2983SOL    HW220583   1.927   1.061   6.270  0.4574 -0.1664  0.6289
 2984SOL     OW20584   0.887   2.369   4.543 -0.2291  0.2044  0.1871
 2984SOL    HW120585   0.884   2.293   4.483  2.4934 -0.2181  0.5990
 2984SOL    HW220586   0.800   2.374   4.583 -0.1929 -2.8289  0.6647
 2985SOL     OW20587   2.861   1.345   4.878 -0.4451  0.3829 -0.1701
 2985SOL    HW120588   2.916   1.310   4.808 -1.5474 -0.5268 -0.5935
 2985SOL    HW220589   2.925   1.402   4.919  0.7329 -2.0356  1.3457
 2986SOL     OW20590   0.436   1.553   0.319 -0.0735  0.3420 -0.4220
 2986SOL    HW120591   0.372   1.616   0.351 -1.5540 -0.9661 -0.7878
 2986SOL    HW220592   0.510   1.612   0.311 -0.0337  0.2843 -0.4721
 2987SOL     OW20593   2.507   3.205   5.692  0.1204  0.2618 -0.1886
 2987SOL    HW120594   2.414   3.218   5.676 -0.0839  0.3631  1.0270
 2987SOL    HW220595   2.544   3.293   5.694 -0.8609  0.6663 -0.0111
 2988SOL     OW20596   0.045   3.876  14.225 -0.2003  0.1977 -0.7737
 2988SOL    HW120597   0.031   3.818  14.150 -0.2038 -1.2391  0.3337
 2988SOL    HW220598   0.034   3.820  14.302  1.2702  0.7011 -0.2073
 2989SOL     OW20599   2.889   0.558  13.023  0.2878 -0.3300  0.5016
 2989SOL    HW120600   2.968   0.516  12.988  1.8650  2.2730  1.0074
 2989SOL    HW220601   2.864   0.491  13.086  1.7512 -1.2673  0.1076
 2990SOL     OW20602   4.594   2.042   6.469  0.8776 -0.5374  0.0309
 2990SOL    HW120603   4.542   2.101   6.524 -0.5063  0.7285 -2.6126
 2990SOL    HW220604   4.603   1.970   6.530  1.3840  0.8520  1.5956
 2991SOL     OW20605   1.638   2.814   3.143  0.4813  0.3053 -0.6463
 2991SOL    HW120606   1.659   2.865   3.221  1.4145 -2.4033  0.8571
 2991SOL    HW220607   1.614   2.888   3.086  2.2296 -0.1609 -1.9895
 2992SOL     OW20608   3.294   4.258  14.533 -0.7472 -0.8224 -0.0780
 2992SOL    HW120609   3.241   4.326  14.492 -2.6225 -0.1809  3.3816
 2992SOL    HW220610   3.235   4.182  14.539 -0.2202 -1.2269  0.0199
 2993SOL     OW20611   2.959   4.359   4.530  0.0375 -0.8444 -0.3126
 2993SOL    HW120612   2.932   4.315   4.449  1.5689 -0.5852 -0.9656
 2993SOL    HW220613   2.993   4.439   4.490 -2.5418 -0.2277 -1.2834
 2994SOL     OW20614   1.628   2.391   5.679 -0.0993  0.3825 -0.5125
 2994SOL    HW120615   1.688   2.317   5.694  0.0719  0.3900 -1.1764
 2994SOL    HW220616   1.599   2.398   5.770 -1.2667  1.1277 -0.9502
 2995SOL     OW20617   3.052   1.903   8.766  0.6599  0.4609  0.4666
 2995SOL    HW120618   3.061   1.891   8.861  2.9765  0.4263  0.2400
 2995SOL    HW220619   3.011   1.819   8.744  0.1340  1.4650 -2.3246
 2996SOL     OW20620   3.009   1.560   3.958  0.6814  0.1308 -0.4288
 2996SOL    HW120621   2.920   1.567   3.991  1.1326 -1.2048  1.0988
 2996SOL    HW220622   3.053   1.562   4.043 -2.2744 -0.2361  1.1117
 2997SOL     OW20623   3.581   2.322  17.211 -0.2263 -0.1071 -0.0760
 2997SOL    HW120624   3.541   2.242  17.244  2.8983 -0.7976  2.0993
 2997SOL    HW220625   3.610   2.300  17.122 -0.7586 -2.4969  0.3459
 2998SOL     OW20626   2.482   3.574  11.131  0.2213 -0.4585 -0.1036
 2998SOL    HW120627   2.424   3.506  11.094 -0.4098 -0.9085  1.7106
 2998SOL    HW220628   2.551   3.580  11.065  1.4495  0.6220  1.2890
 2999SOL     OW20629   0.026   1.060   8.466  0.8066  0.6289  0.1745
 2999SOL    HW120630   4.710   1.017   8.530 -0.3232 -0.1447 -1.3401
 2999SOL    HW220631   4.721   1.046   8.383 -3.3373  0.6383  2.4745
 3000SOL     OW20632   1.659   3.446   2.416 -0.2676  0.0732  0.0737
 3000SOL    HW120633   1.597   3.381   2.382  0.2868 -0.6862  0.5474
 3000SOL    HW220634   1.679   3.398   2.496  0.2556 -1.8798 -1.2370
 3001SOL     OW20635   0.320   1.882   5.038 -0.0432 -0.2372  0.1248
 3001SOL    HW120636   0.350   1.936   5.111  0.5358  3.0148 -2.4720
 3001SOL    HW220637   0.294   1.809   5.094  1.8027 -0.9990 -0.0125
 3002SOL     OW20638   0.597   0.265   6.686  0.3037 -0.4604  0.8579
 3002SOL    HW120639   0.525   0.307   6.639  0.9886 -0.8324 -0.5053
 3002SOL    HW220640   0.587   0.174   6.660  1.7330 -0.2669 -0.3626
 3003SOL     OW20641   3.818   3.069   4.207 -0.0067  0.8494 -0.7288
 3003SOL    HW120642   3.768   3.147   4.185  1.3176  2.0735  0.6167
 3003SOL    HW220643   3.884   3.069   4.139  2.1917  0.4242  1.3958
 3004SOL     OW20644   4.441   1.488   9.456 -0.6980  0.1190  0.6210
 3004SOL    HW120645   4.487   1.404   9.460  1.9027  1.3811 -2.3398
 3004SOL    HW220646   4.396   1.478   9.373 -2.4704  1.1916  1.4561
 3005SOL     OW20647   2.070   4.357   5.385  0.7756 -0.1534  0.3593
 3005SOL    HW120648   2.123   4.304   5.327  0.6198  0.4047 -0.2974
 3005SOL    HW220649   2.044   4.300   5.457 -2.2011  0.9096  0.1545
 3006SOL     OW20650   3.249   2.006   4.278  0.3562  0.1094  0.7888
 3006SOL    HW120651   3.183   2.001   4.348 -0.4164  0.1063  0.0615
 3006SOL    HW220652   3.302   2.082   4.303 -2.3902  1.7574  1.6750
 3007SOL     OW20653   2.037   0.762   3.064 -0.1566 -0.4004 -0.2384
 3007SOL    HW120654   2.093   0.763   2.986 -0.0335 -1.8900 -0.1780
 3007SOL    HW220655   2.092   0.815   3.121  0.5502 -0.8006 -0.5522
 3008SOL     OW20656   4.659   0.988   8.225 -0.3374  0.0332  0.0775
 3008SOL    HW120657   4.637   1.049   8.155  0.6900  1.8029  1.3030
 3008SOL    HW220658   4.676   0.909   8.174  0.4930  0.9492 -1.0777
 3009SOL     OW20659   3.134   3.472  11.412  0.2339 -0.3677 -0.0053
 3009SOL    HW120660   3.121   3.452  11.320 -3.0148  1.5321  0.0207
 3009SOL    HW220661   3.044   3.477  11.445  0.4124  1.4514  0.2370
 3010SOL     OW20662   3.268   2.943   3.159 -0.1112 -0.0797  0.2433
 3010SOL    HW120663   3.182   2.930   3.120  0.1906 -1.0761 -0.0751
 3010SOL    HW220664   3.256   3.038   3.172 -1.9770 -0.3074  0.1298
 3011SOL     OW20665   2.987   1.508  13.277  0.4900 -0.1303  0.3256
 3011SOL    HW120666   2.947   1.497  13.190 -1.1429 -0.1827  1.0802
 3011SOL    HW220667   2.908   1.524  13.328 -0.6063 -1.7291 -0.8606
 3012SOL     OW20668   3.473   0.150   6.429 -0.0530  0.1456 -0.5726
 3012SOL    HW120669   3.542   0.099   6.386  1.4251 -0.5219  2.6561
 3012SOL    HW220670   3.404   0.095   6.465  0.5243 -0.6431 -0.6464
 3013SOL     OW20671   1.241   1.724  14.759 -0.5974  0.6744  0.3046
 3013SOL    HW120672   1.266   1.647  14.809  1.6506  0.6865 -0.8153
 3013SOL    HW220673   1.162   1.696  14.713 -1.5642  1.1501  1.6848
 3014SOL     OW20674   4.181   3.895   4.197 -0.0004 -0.0877 -0.1573
 3014SOL    HW120675   4.113   3.880   4.262  1.0960 -0.3790  0.8980
 3014SOL    HW220676   4.145   3.851   4.120 -1.1987  1.6713 -0.6151
 3015SOL     OW20677   2.545   4.373  14.521 -0.0502  0.1924  0.5588
 3015SOL    HW120678   2.588   4.457  14.537 -1.5945  1.1656 -0.4556
 3015SOL    HW220679   2.523   4.336  14.607  0.8471  1.0776  1.1675
 3016SOL     OW20680   1.135   4.487   1.029  0.6090  0.1278 -0.2021
 3016SOL    HW120681   1.130   4.464   0.936 -0.2065 -0.2329 -0.0689
 3016SOL    HW220682   1.194   4.563   1.029  0.5065  0.2079 -0.3046
 3017SOL     OW20683   2.409   1.947   6.007  0.4968  0.0588 -0.7220
 3017SOL    HW120684   2.389   1.900   6.088  0.0938  0.3515 -0.6475
 3017SOL    HW220685   2.477   2.003   6.043  0.3010 -0.0838 -0.1257
 3018SOL     OW20686   1.739   4.660  11.049  0.0032 -0.5753 -0.9168
 3018SOL    HW120687   1.812   4.599  11.063  0.4663  0.3695  0.7479
 3018SOL    HW220688   1.739   4.718  11.125 -1.6356 -3.1868  1.1048
 3019SOL     OW20689   1.221   1.758  12.801 -0.2228  0.3410  0.0650
 3019SOL    HW120690   1.157   1.689  12.818 -0.5428  0.5406 -0.3378
 3019SOL    HW220691   1.266   1.752  12.885 -0.4771  0.3162  0.1984
 3020SOL     OW20692   0.509   2.720   5.503  0.3946 -0.3212 -0.2605
 3020SOL    HW120693   0.463   2.640   5.526 -2.1448  0.6973 -1.8354
 3020SOL    HW220694   0.432   2.777   5.509  0.4022 -0.1641 -1.6519
 3021SOL     OW20695   4.685   4.179   7.987 -0.5086 -0.4864  0.7460
 3021SOL    HW120696   4.591   4.179   7.969 -0.6747 -0.4138  1.6083
 3021SOL    HW220697   4.716   4.251   7.932 -1.8185 -0.3860  0.1339
 3022SOL     OW20698   2.438   2.386   4.386 -0.0744 -0.2639  0.5898
 3022SOL    HW120699   2.480   2.472   4.392 -0.2157 -0.2046  0.7106
 3022SOL    HW220700   2.467   2.352   4.301  0.0277 -0.4099  0.6834
 3023SOL     OW20701   1.989   3.545   8.827  0.5562 -0.8266 -0.9496
 3023SOL    HW120702   2.043   3.494   8.766  0.3580  0.7583 -2.4736
 3023SOL    HW220703   2.016   3.519   8.915  3.0198  2.2195 -0.8177
 3024SOL     OW20704   2.331   0.246   1.225 -0.0923 -0.1322  0.4843
 3024SOL    HW120705   2.373   0.270   1.308  1.3088  0.3419 -0.3704
 3024SOL    HW220706   2.309   0.333   1.192 -1.2825  0.2243  2.2083
 3025SOL     OW20707   0.987   0.950   9.105 -0.2104 -0.3847 -0.0789
 3025SOL    HW120708   1.048   0.911   9.167  2.0497 -0.3865 -2.2942
 3025SOL    HW220709   0.916   0.986   9.159  2.5100  1.9969  1.8823
 3026SOL     OW20710   1.138   1.048   1.852  0.9087  0.1411 -0.1135
 3026SOL    HW120711   1.166   0.995   1.927 -2.4184 -1.2719  0.1072
 3026SOL    HW220712   1.226   1.081   1.836  1.3846 -0.4323  1.3444
 3027SOL     OW20713   2.046   4.087   6.137  0.3096 -0.2788 -0.0642
 3027SOL    HW120714   2.138   4.097   6.163  0.0427 -0.2472  0.8687
 3027SOL    HW220715   2.003   4.170   6.160  0.7187  0.0513 -0.4719
 3028SOL     OW20716   3.706   2.242   2.823  0.4231  0.5855  0.3029
 3028SOL    HW120717   3.639   2.281   2.768  0.3755 -0.9491 -0.7392
 3028SOL    HW220718   3.657   2.176   2.873 -0.1294  1.2127  0.5872
 3029SOL     OW20719   4.435   0.273  15.425 -0.1187  0.1255  0.5629
 3029SOL    HW120720   4.418   0.216  15.499 -0.7401  1.5234  1.5046
 3029SOL    HW220721   4.351   0.318  15.412  0.1317  0.0275 -1.4980
 3030SOL     OW20722   2.045   2.779   3.067  0.1871  0.2471 -0.1711
 3030SOL    HW120723   2.040   2.692   3.027  0.7360  0.7287 -1.3037
 3030SOL    HW220724   2.057   2.767   3.161  0.9897 -0.3451 -0.3531
 3031SOL     OW20725   1.140   3.514  15.194 -0.2323 -0.1054  0.2909
 3031SOL    HW120726   1.194   3.588  15.164  0.5033 -1.3849 -1.4879
 3031SOL    HW220727   1.133   3.546  15.284 -2.0575  0.4784 -0.0680
 3032SOL     OW20728   0.763   0.558   1.711 -0.5749  0.0888  0.6294
 3032SOL    HW120729   0.803   0.639   1.745  1.6201 -1.5412  1.9245
 3032SOL    HW220730   0.715   0.585   1.633 -3.3537 -0.6166  2.0939
 3033SOL     OW20731   0.591   3.529   9.110  0.2323  0.0601 -0.1676
 3033SOL    HW120732   0.595   3.445   9.065  1.4208  0.3090 -0.5238
 3033SOL    HW220733   0.521   3.570   9.059  0.1382  0.5036  0.3151
 3034SOL     OW20734   4.519   0.402  10.785 -0.2735 -0.3112 -0.1276
 3034SOL    HW120735   4.477   0.316  10.783 -1.3891  0.2116  0.7414
 3034SOL    HW220736   4.585   0.382  10.719  0.4602  0.6549  0.3044
 3035SOL     OW20737   0.388   0.128   5.524  0.1705 -0.1996 -0.2380
 3035SOL    HW120738   0.331   0.192   5.565 -0.3862 -0.0457 -1.2574
 3035SOL    HW220739   0.371   0.046   5.571 -0.2036  0.2600  0.4169
 3036SOL     OW20740   0.614   4.493   8.296  0.1902 -0.3187 -0.4037
 3036SOL    HW120741   0.574   4.408   8.276 -2.7761  1.1149 -0.5142
 3036SOL    HW220742   0.545   4.559   8.294  2.0941  1.6600 -1.4130
 3037SOL     OW20743   4.310   2.539   3.275 -0.2256  0.5308 -0.2084
 3037SOL    HW120744   4.230   2.538   3.327  0.1260 -0.2701  0.3141
 3037SOL    HW220745   4.307   2.633   3.255  3.3691  0.8937  0.9609
 3038SOL     OW20746   4.471   3.060  16.717  0.3179 -0.6756 -0.4534
 3038SOL    HW120747   4.559   3.097  16.723 -0.7759  1.8127  0.3155
 3038SOL    HW220748   4.413   3.118  16.766  2.0226 -0.1827  0.9507
 3039SOL     OW20749   0.689   2.052   3.983  0.1766 -0.0041  0.1387
 3039SOL    HW120750   0.594   2.051   3.968 -0.1025  1.2257  1.7982
 3039SOL    HW220751   0.716   1.994   3.912  0.4378 -1.0330  1.0907
 3040SOL     OW20752   3.805   0.067   7.209 -0.4423 -0.7805  0.1535
 3040SOL    HW120753   3.861   4.736   7.178 -0.6034 -0.2544 -1.3419
 3040SOL    HW220754   3.809   0.046   7.302 -0.4499  2.2645  0.8177
 3041SOL     OW20755   4.175   0.585   2.510 -0.5378  0.0773 -0.7720
 3041SOL    HW120756   4.204   0.536   2.587 -1.6414 -0.0497 -0.4420
 3041SOL    HW220757   4.080   0.575   2.507 -0.8212  2.8068 -1.6950
 3042SOL     OW20758   3.873   3.629  15.920  0.0167  0.6566  0.1302
 3042SOL    HW120759   3.944   3.578  15.960 -0.2747  1.4659  1.6784
 3042SOL    HW220760   3.818   3.557  15.890 -0.5336  1.4324 -0.7384
 3043SOL     OW20761   0.583   1.185   5.525  0.2103  0.2470  0.2786
 3043SOL    HW120762   0.532   1.131   5.464 -1.6027  1.6722  0.5485
 3043SOL    HW220763   0.606   1.268   5.484 -0.2166  0.2853  0.1146
 3044SOL     OW20764   0.815   4.296   1.490  0.3738 -0.0623  0.9868
 3044SOL    HW120765   0.791   4.363   1.426  1.9210  2.0812  2.6641
 3044SOL    HW220766   0.854   4.243   1.421  0.8843 -0.6596  1.7373
 3045SOL     OW20767   0.435   3.099   3.396 -0.1976  0.2755 -0.5704
 3045SOL    HW120768   0.438   3.048   3.315 -0.7158 -1.0600  0.2496
 3045SOL    HW220769   0.501   3.167   3.386  0.8781 -0.4625  1.4409
 3046SOL     OW20770   1.549   4.030   9.791  0.2773  0.4560 -0.2910
 3046SOL    HW120771   1.600   4.012   9.870 -0.2762 -0.8160 -0.2238
 3046SOL    HW220772   1.468   4.055   9.834  0.0924 -1.2289  0.3221
 3047SOL     OW20773   2.207   2.238  15.097  0.1672 -0.1978 -0.3547
 3047SOL    HW120774   2.134   2.270  15.045 -0.1529  0.2305  0.3634
 3047SOL    HW220775   2.243   2.169  15.041  2.3689 -0.3761  1.2861
 3048SOL     OW20776   3.292   2.168   5.019 -0.0772  0.2554  0.4340
 3048SOL    HW120777   3.291   2.096   5.081  1.9184 -0.6634 -0.6116
 3048SOL    HW220778   3.230   2.132   4.955 -0.0325  1.3195 -0.2105
 3049SOL     OW20779   4.553   4.710   4.843 -0.3241 -0.2590  0.1244
 3049SOL    HW120780   4.583   0.059   4.849 -1.6097  0.1904 -0.1549
 3049SOL    HW220781   4.466   4.725   4.880  0.0386  1.7072  0.1350
 3050SOL     OW20782   3.706   2.928   8.930  0.1082 -0.3735  0.3547
 3050SOL    HW120783   3.791   2.926   8.885  0.1182 -0.2351  0.3674
 3050SOL    HW220784   3.646   2.978   8.876 -1.9020 -2.8493  0.3114
 3051SOL     OW20785   4.066   2.531   6.149  0.2250  0.1389 -0.9521
 3051SOL    HW120786   4.152   2.490   6.163  0.8473  2.1531  1.0716
 3051SOL    HW220787   4.004   2.459   6.154  0.6000  0.1216  2.9168
 3052SOL     OW20788   1.925   4.615   2.421  0.1407 -1.2376  0.0106
 3052SOL    HW120789   1.830   4.619   2.426  0.3307  2.6624  0.6310
 3052SOL    HW220790   1.934   4.527   2.385  1.8156 -0.2464 -2.0004
 3053SOL     OW20791   4.153   4.267   5.672 -0.5047  0.0679 -0.3902
 3053SOL    HW120792   4.121   4.313   5.750  0.5581 -1.1352  0.7407
 3053SOL    HW220793   4.115   4.327   5.608 -1.0844  1.8465  1.6118
 3054SOL     OW20794   4.699   4.627  16.220 -0.1950  0.0532  0.0994
 3054SOL    HW120795   4.632   4.654  16.282 -0.1305  0.0728  0.1610
 3054SOL    HW220796   0.024   4.696  16.232 -1.6479  1.5070 -0.3826
 3055SOL     OW20797   2.514   3.882  17.295  1.1461 -0.0536 -0.4558
 3055SOL    HW120798   2.587   3.939  17.317  1.2525 -0.8171  1.1174
 3055SOL    HW220799   2.458   3.918  17.364  0.5547  1.2691 -1.6117
 3056SOL     OW20800   3.238   3.203   6.975  0.6282  0.0390 -0.1240
 3056SOL    HW120801   3.295   3.182   6.901 -0.1894  1.1086 -1.0551
 3056SOL    HW220802   3.303   3.192   7.045 -0.6862  2.0356  1.4098
 3057SOL     OW20803   1.933   4.473   1.082  0.3191  0.4670  0.3268
 3057SOL    HW120804   1.957   4.445   1.170  2.0217  3.9746  1.0101
 3057SOL    HW220805   1.929   4.568   1.098  1.5826  0.5085  0.4282
 3058SOL     OW20806   3.216   2.952   6.430 -0.1181 -0.5196 -0.0575
 3058SOL    HW120807   3.187   2.888   6.495  1.1412  1.0041  1.9711
 3058SOL    HW220808   3.307   2.925   6.424 -0.2444 -0.5285 -2.0598
 3059SOL     OW20809   1.240   3.454   6.681  0.3129 -0.0814 -0.6806
 3059SOL    HW120810   1.310   3.392   6.659  2.0152  1.4707  0.3685
 3059SOL    HW220811   1.247   3.465   6.775  3.0414  0.7309 -0.9829
 3060SOL     OW20812   2.385   1.628  11.297  0.1247 -0.4666  0.3467
 3060SOL    HW120813   2.314   1.589  11.349 -1.0584  0.0725 -0.8537
 3060SOL    HW220814   2.401   1.572  11.222 -0.7281  1.1781 -1.0834
 3061SOL     OW20815   4.427   3.322  11.764 -0.0916 -0.0359 -0.4060
 3061SOL    HW120816   4.462   3.355  11.682 -0.4084 -1.1243 -0.9832
 3061SOL    HW220817   4.334   3.319  11.741 -0.1826  0.8702 -0.1461
 3062SOL     OW20818   2.145   3.704  11.791  0.1745  0.0937  0.5842
 3062SOL    HW120819   2.075   3.731  11.731  1.6755  0.6093 -0.9530
 3062SOL    HW220820   2.092   3.655  11.853 -0.8587  1.6918  0.9582
 3063SOL     OW20821   4.053   2.321   8.289  0.1263 -0.3999  0.0390
 3063SOL    HW120822   4.136   2.325   8.337 -0.5763  0.0091  1.2338
 3063SOL    HW220823   4.084   2.285   8.206  0.2076  3.3935 -1.5701
 3064SOL     OW20824   1.561   2.975   9.261  0.3488 -0.1051 -0.2390
 3064SOL    HW120825   1.642   2.947   9.303 -1.8326  0.4223  4.3016
 3064SOL    HW220826   1.565   2.932   9.175 -0.4834  0.9351 -0.8116
 3065SOL     OW20827   2.505   2.177   9.128  0.9191  0.2982  0.0898
 3065SOL    HW120828   2.558   2.255   9.109  0.0324  0.2870 -2.5372
 3065SOL    HW220829   2.418   2.209   9.106 -0.1401 -0.0175  3.8750
 3066SOL     OW20830   2.355   1.062   2.676 -0.6206  0.2747 -0.5645
 3066SOL    HW120831   2.396   1.006   2.741  0.6545 -1.5314 -2.9390
 3066SOL    HW220832   2.268   1.063   2.715  0.0154  0.2433  0.8611
 3067SOL     OW20833   3.117   0.002   6.958 -0.0502  0.5086 -0.2017
 3067SOL    HW120834   3.088   4.652   6.952 -1.3789  1.1557 -3.6118
 3067SOL    HW220835   3.206   4.717   6.982  0.4366  0.8796 -1.6052
 3068SOL     OW20836   1.032   4.256   6.143 -0.2784 -0.2366  0.8125
 3068SOL    HW120837   1.020   4.311   6.066  0.4437 -0.1045  0.7979
 3068SOL    HW220838   1.107   4.303   6.179 -0.0052 -0.4630  0.5389
 3069SOL     OW20839   4.255   3.682   0.584  0.0181  0.4766  0.2954
 3069SOL    HW120840   4.194   3.688   0.511  1.7859  0.3019 -1.1972
 3069SOL    HW220841   4.213   3.745   0.642 -0.7552  0.4350 -0.2223
 3070SOL     OW20842   4.663   2.508   6.529  0.4187 -0.1441  0.3138
 3070SOL    HW120843   4.653   2.529   6.436  0.7492 -1.2172  0.0387
 3070SOL    HW220844   4.727   2.577   6.552  1.4987 -0.4387 -1.8136
 3071SOL     OW20845   1.104   0.378  14.415  0.2202  0.2887 -0.3635
 3071SOL    HW120846   1.110   0.407  14.506  0.4153  0.5510 -0.4585
 3071SOL    HW220847   1.180   0.424  14.379  0.0646 -0.2908 -1.4463
 3072SOL     OW20848   3.305   4.605   8.298 -0.6523 -0.0970  0.3538
 3072SOL    HW120849   3.284   4.651   8.380  1.8358  0.1383  0.8543
 3072SOL    HW220850   3.326   4.679   8.242  2.5331 -0.5930  0.9077
 3073SOL     OW20851   2.267   2.617   3.564  0.1763 -0.3988  0.0741
 3073SOL    HW120852   2.340   2.655   3.612  0.7628  0.3048 -1.3752
 3073SOL    HW220853   2.203   2.688   3.558  0.5373  0.0058  1.1052
 3074SOL     OW20854   0.047   0.121  17.334  0.1099  0.2758  0.2644
 3074SOL    HW120855   0.000   0.204  17.337 -0.2385  0.0303  1.4292
 3074SOL    HW220856   0.133   0.132  17.374 -0.1288  0.2517  0.7836
 3075SOL     OW20857   0.634   3.064   7.999 -0.2091 -0.5645 -0.3068
 3075SOL    HW120858   0.612   3.129   8.066  2.2725 -0.2542  0.1864
 3075SOL    HW220859   0.552   3.017   7.982 -0.8907  0.2380  0.8143
 3076SOL     OW20860   1.459   0.177   0.787  0.6912 -0.1553  0.2581
 3076SOL    HW120861   1.476   0.095   0.834 -1.0678 -0.9885 -0.5282
 3076SOL    HW220862   1.420   0.223   0.861  0.1854  0.3597 -0.3250
 3077SOL     OW20863   2.302   3.883   3.535  0.3951  0.1791 -0.0473
 3077SOL    HW120864   2.274   3.940   3.607  1.3918  2.3691 -1.3719
 3077SOL    HW220865   2.370   3.942   3.501 -0.4263  1.4282  0.4546
 3078SOL     OW20866   2.855   3.658   8.201 -0.3041  0.2268 -0.1691
 3078SOL    HW120867   2.782   3.623   8.252  0.2451  2.0075  1.8242
 3078SOL    HW220868   2.911   3.590   8.240 -2.1356 -1.6064 -0.7298
 3079SOL     OW20869   3.736   0.243   6.777 -0.0952  0.0139 -0.9540
 3079SOL    HW120870   3.733   0.156   6.815 -0.4360  0.2850 -0.3543
 3079SOL    HW220871   3.644   0.270   6.777 -0.5401 -1.5455  1.1956
 3080SOL     OW20872   4.454   3.606   3.692 -0.6123 -0.3281  0.3355
 3080SOL    HW120873   4.431   3.615   3.600 -0.4390  0.3178  0.3592
 3080SOL    HW220874   4.384   3.550   3.725 -2.0025  0.2201 -1.6897
 3081SOL     OW20875   2.782   4.548   3.788 -0.7724 -0.4181  0.4469
 3081SOL    HW120876   2.773   4.453   3.777  1.1986 -0.5903  0.2204
 3081SOL    HW220877   2.876   4.549   3.769 -0.9405 -0.0296 -0.3471
 3082SOL     OW20878   2.224   0.135   2.644 -0.6222  0.2345  0.3215
 3082SOL    HW120879   2.218   0.230   2.634 -0.0350  0.1170 -1.2390
 3082SOL    HW220880   2.156   0.123   2.710 -0.1823 -2.2727  0.3477
 3083SOL     OW20881   3.340   3.947  12.057 -0.0532 -0.6406  0.1275
 3083SOL    HW120882   3.298   3.900  12.129 -0.4224 -1.1472 -0.4131
 3083SOL    HW220883   3.433   3.925  12.063  0.2873  0.5234 -0.8760
 3084SOL     OW20884   4.002   2.716   7.594 -0.1215  0.3496  0.2283
 3084SOL    HW120885   3.925   2.658   7.595 -1.0087  1.4981 -2.9702
 3084SOL    HW220886   3.979   2.781   7.528  0.0592 -1.3459 -1.5012
 3085SOL     OW20887   2.764   4.203   9.196  0.4201  0.5682  0.2621
 3085SOL    HW120888   2.836   4.159   9.241  0.7514  1.1814  0.3309
 3085SOL    HW220889   2.801   4.291   9.188 -0.5068  1.1428  2.1546
 3086SOL     OW20890   0.669   0.600   4.144 -0.4306  0.7821 -0.1332
 3086SOL    HW120891   0.635   0.526   4.195  0.9711  0.8727  0.9448
 3086SOL    HW220892   0.759   0.600   4.177 -0.7569  2.0032  0.7862
 3087SOL     OW20893   3.379   0.067   1.261  0.2138  0.0208 -0.1955
 3087SOL    HW120894   3.449   0.132   1.261  1.3091 -1.1705  1.9311
 3087SOL    HW220895   3.335   0.085   1.178 -0.1573  0.7204  0.1527
 3088SOL     OW20896   4.309   0.557  17.183 -0.3958 -0.2350  0.1839
 3088SOL    HW120897   4.397   0.555  17.146 -1.7521 -0.1831 -3.0705
 3088SOL    HW220898   4.331   0.587  17.271  1.4352 -2.3546  0.4392
 3089SOL     OW20899   4.056   0.364   6.933 -0.1784  0.1246  0.2555
 3089SOL    HW120900   3.995   0.414   6.878 -0.1176 -0.7223 -0.5897
 3089SOL    HW220901   4.014   0.390   7.015  0.0931 -1.2515  0.8298
 3090SOL     OW20902   1.178   1.304   5.596  0.5984 -0.1319 -0.1168
 3090SOL    HW120903   1.132   1.231   5.638  1.3772 -0.9864 -0.7413
 3090SOL    HW220904   1.197   1.271   5.507  2.2163 -1.5594  0.7507
 3091SOL     OW20905   4.261   0.767   8.551 -0.2207  0.1199  0.7259
 3091SOL    HW120906   4.171   0.783   8.524  0.2596  0.7722 -0.5165
 3091SOL    HW220907   4.280   0.700   8.485  0.2234  1.8540 -0.9056
 3092SOL     OW20908   1.132   3.819   2.285 -0.2326 -0.3232  0.6619
 3092SOL    HW120909   1.083   3.756   2.338 -1.4504  0.4008  0.3940
 3092SOL    HW220910   1.198   3.853   2.346  0.2942  0.6352 -0.4356
 3093SOL     OW20911   3.612   1.872   0.355 -0.2448  0.6039  0.1926
 3093SOL    HW120912   3.563   1.865   0.273  0.1769 -2.3513  0.1930
 3093SOL    HW220913   3.687   1.819   0.328 -1.1185  0.8607 -2.6817
 3094SOL     OW20914   4.100   0.586  12.016 -0.0807  0.6217 -0.3190
 3094SOL    HW120915   4.070   0.593  12.107  0.3139 -1.9905  0.0166
 3094SOL    HW220916   4.189   0.621  12.023  0.4222 -0.6564 -0.4338
 3095SOL     OW20917   2.673   3.765   3.393  0.6037  0.0745 -0.3107
 3095SOL    HW120918   2.760   3.732   3.417  0.9835  0.7407 -0.7392
 3095SOL    HW220919   2.648   3.805   3.476  1.6762 -1.6150  0.7998
 3096SOL     OW20920   0.093   4.453  15.252  0.1410  0.3270 -0.3653
 3096SOL    HW120921   4.739   4.456  15.238 -0.1085 -2.0218  0.8506
 3096SOL    HW220922   0.128   4.398  15.183  2.2178 -1.0549  1.8090
 3097SOL     OW20923   0.694   3.953   5.662  0.4595 -0.6343  0.1771
 3097SOL    HW120924   0.671   4.042   5.689  0.9724 -0.1477 -0.9554
 3097SOL    HW220925   0.779   3.952   5.706  0.3633  2.5375  0.4862
 3098SOL     OW20926   0.838   4.130   0.392  0.4914 -0.1353  0.5644
 3098SOL    HW120927   0.859   4.140   0.299 -0.7246  1.0686  0.4146
 3098SOL    HW220928   0.798   4.044   0.382  1.8927 -0.8298  0.9486
 3099SOL     OW20929   2.341   0.169  14.703  0.3959 -0.1058 -0.2676
 3099SOL    HW120930   2.392   0.246  14.729 -1.5872  0.9297  0.5942
 3099SOL    HW220931   2.390   0.101  14.749  1.9078  0.5288 -0.9431
 3100SOL     OW20932   1.791   2.516  13.737  0.4917 -0.4975 -1.0630
 3100SOL    HW120933   1.881   2.493  13.716  0.7568 -0.3270 -0.1091
 3100SOL    HW220934   1.761   2.501  13.647  0.5879 -2.1702 -0.8161
 3101SOL     OW20935   3.295   0.186   3.106 -0.4233 -0.4651  0.0732
 3101SOL    HW120936   3.230   0.240   3.152  0.5405  0.7995 -0.0697
 3101SOL    HW220937   3.378   0.195   3.152  0.0932  0.8118 -1.1333
 3102SOL     OW20938   2.609   0.797   4.554  0.0758 -0.9194  0.2720
 3102SOL    HW120939   2.533   0.741   4.535  1.0984 -1.5798 -1.9039
 3102SOL    HW220940   2.601   0.806   4.649  1.3803  1.6988  0.1125
 3103SOL     OW20941   0.261   0.558   4.604  0.2760  0.0662  0.8699
 3103SOL    HW120942   0.201   0.496   4.647  1.2499 -0.6587  1.1855
 3103SOL    HW220943   0.309   0.590   4.681  1.2179  0.1480  0.2433
 3104SOL     OW20944   0.988   4.454   8.611 -0.6878  0.1579  0.4579
 3104SOL    HW120945   0.897   4.433   8.629 -0.6050 -0.6222 -0.0645
 3104SOL    HW220946   1.035   4.373   8.593  0.0794  0.9374 -1.1128
 3105SOL     OW20947   1.918   4.024   3.735 -0.3694  0.2654  0.4576
 3105SOL    HW120948   1.971   4.039   3.813 -1.5040 -0.4212  1.3613
 3105SOL    HW220949   1.950   3.939   3.706  1.4288  0.7174  1.1425
 3106SOL     OW20950   4.694   0.866   2.871 -0.6238  0.1834  0.2604
 3106SOL    HW120951   0.045   0.839   2.865 -0.1814  1.7058  0.2914
 3106SOL    HW220952   4.697   0.947   2.922  1.7727  1.2685 -1.6115
 3107SOL     OW20953   3.473   0.507  13.268  0.0479 -0.0312 -0.2452
 3107SOL    HW120954   3.485   0.601  13.284 -1.0175 -0.4476  3.0931
 3107SOL    HW220955   3.432   0.517  13.182 -0.1628  0.2772 -0.1121
 3108SOL     OW20956   0.858   3.542   3.635  0.5823 -0.0267  0.2387
 3108SOL    HW120957   0.952   3.560   3.635  1.0156 -2.3710  0.1594
 3108SOL    HW220958   0.830   3.601   3.705  1.3176  2.3288 -1.4627
 3109SOL     OW20959   3.807   0.432   6.395 -0.5581 -0.7839  0.1813
 3109SOL    HW120960   3.775   0.368   6.331 -2.3701 -0.2620  0.5640
 3109SOL    HW220961   3.732   0.429   6.455 -2.2762  0.1775 -1.9245
 3110SOL     OW20962   2.001   2.942   8.729  0.7985  0.1061  0.3280
 3110SOL    HW120963   2.085   2.987   8.740  0.8226  0.0057  0.5623
 3110SOL    HW220964   2.028   2.861   8.774  1.1162 -0.4949 -0.9540
 3111SOL     OW20965   3.654   4.688  13.346  0.4125 -0.0050  0.2773
 3111SOL    HW120966   3.588   4.675  13.414  0.3477  1.1379  0.4375
 3111SOL    HW220967   3.612   0.005  13.282 -0.1105  2.9286  3.2783
 3112SOL     OW20968   2.210   1.623  16.791 -0.1904 -0.4422 -0.1834
 3112SOL    HW120969   2.300   1.602  16.766  0.2975 -0.7694  1.8181
 3112SOL    HW220970   2.179   1.695  16.737  1.1622  0.0999 -0.2351
 3113SOL     OW20971   2.341   2.179   3.447  0.0506 -0.0721 -0.1621
 3113SOL    HW120972   2.284   2.183   3.370 -0.1412  0.5275  0.0126
 3113SOL    HW220973   2.320   2.089   3.475 -2.3025  0.1145 -1.3526
 3114SOL     OW20974   2.609   2.426   8.573 -0.7006  0.0041  0.4544
 3114SOL    HW120975   2.515   2.408   8.572 -0.4870 -1.1932  1.6310
 3114SOL    HW220976   2.640   2.380   8.651 -0.8115  0.3566  0.7053
 3115SOL     OW20977   1.292   2.943   5.813  0.7076  0.4565  0.0423
 3115SOL    HW120978   1.208   2.987   5.795  0.0152 -1.3343 -1.1189
 3115SOL    HW220979   1.341   3.023   5.834  1.0704  0.2248  0.0591
 3116SOL     OW20980   3.958   2.069   3.868 -0.1902 -0.5905  0.3930
 3116SOL    HW120981   3.888   2.133   3.858  1.7876  1.8036  1.8220
 3116SOL    HW220982   3.927   1.982   3.842  1.3367 -0.5704 -1.4704
 3117SOL     OW20983   2.955   3.050   6.500  0.0723 -0.4268  0.7200
 3117SOL    HW120984   2.937   2.963   6.464  0.0261 -0.7148  1.4511
 3117SOL    HW220985   3.048   3.049   6.477 -0.0890 -0.8678  0.0992
 3118SOL     OW20986   4.586   3.648  17.589  0.0834  0.5178 -0.0092
 3118SOL    HW120987   4.571   3.676  17.499 -3.0168 -0.4144  0.1989
 3118SOL    HW220988   4.498   3.662  17.624  0.9213  0.0800  2.2510
 3119SOL     OW20989   4.064   3.324   7.013  0.5417 -0.2453 -0.2284
 3119SOL    HW120990   4.106   3.264   6.951  1.7944  2.2468 -1.7741
 3119SOL    HW220991   4.107   3.408   6.996  2.6059 -0.9837  1.3780
 3120SOL     OW20992   4.085   3.432  16.264 -0.2242  0.3222  0.2152
 3120SOL    HW120993   4.078   3.441  16.359  2.2216 -1.1360  0.5357
 3120SOL    HW220994   4.131   3.510  16.232  1.1432 -1.5358 -2.4109
 3121SOL     OW20995   1.309   0.435   6.060 -0.1926  0.3409 -0.9460
 3121SOL    HW120996   1.374   0.454   6.127 -1.4097  3.2505 -0.5771
 3121SOL    HW220997   1.339   0.499   5.995 -0.9647  1.3353 -0.3412
 3122SOL     OW20998   0.256   1.493  15.616 -0.4625 -0.3267 -0.5537
 3122SOL    HW120999   0.339   1.487  15.663 -0.7519 -1.6946 -0.1951
 3122SOL    HW221000   0.261   1.584  15.587 -0.9567 -0.3961 -0.8746
 3123SOL     OW21001   2.754   2.708   4.499 -0.2512 -0.6375 -0.1088
 3123SOL    HW121002   2.796   2.670   4.576 -1.4163 -1.0276  0.3262
 3123SOL    HW221003   2.703   2.779   4.537  0.1039 -0.2555 -0.3391
 3124SOL     OW21004   2.405   2.124  17.239 -0.1760 -0.3405 -0.3360
 3124SOL    HW121005   2.436   2.084  17.158 -1.0029 -0.6511 -0.4884
 3124SOL    HW221006   2.318   2.084  17.236 -0.7010  0.7748 -0.0016
 3125SOL     OW21007   0.013   1.992   0.647  0.2360  0.3478 -0.4789
 3125SOL    HW121008   4.693   2.006   0.574  0.2791 -0.3357 -0.6409
 3125SOL    HW221009   4.689   1.969   0.713  0.5752  1.7318  0.3233
 3126SOL     OW21010   4.103   4.579  13.000  0.1629  0.2186  0.8178
 3126SOL    HW121011   4.168   4.634  13.044  0.8193  0.0137  0.1059
 3126SOL    HW221012   4.139   4.586  12.912 -0.7672 -1.2726  0.3283
 3127SOL     OW21013   0.698   3.046   4.886  0.3567 -0.0017 -0.0072
 3127SOL    HW121014   0.698   3.063   4.980 -3.1198  1.9473 -0.3833
 3127SOL    HW221015   0.780   2.999   4.872  0.4081 -0.1644  0.8543
 3128SOL     OW21016   0.440   3.806   4.552 -0.1815  0.0713 -0.0961
 3128SOL    HW121017   0.500   3.731   4.552 -0.2689 -0.0004  1.4687
 3128SOL    HW221018   0.362   3.755   4.575  0.7816 -1.3433  0.0504
 3129SOL     OW21019   4.036   0.480   9.709 -0.1078 -0.1526 -0.1247
 3129SOL    HW121020   3.975   0.445   9.644 -1.4418 -0.1174  1.1309
 3129SOL    HW221021   4.095   0.521   9.645  0.4776 -0.0555  0.4796
 3130SOL     OW21022   2.485   4.524  15.966  0.8858 -0.4655  0.5950
 3130SOL    HW121023   2.528   4.444  15.996 -0.6316 -1.0698  1.1899
 3130SOL    HW221024   2.467   4.506  15.874 -1.5447  1.5802  0.6788
 3131SOL     OW21025   0.494   3.574  12.884  0.0725  0.2520 -0.0716
 3131SOL    HW121026   0.541   3.593  12.803 -0.4145 -0.6056 -0.5555
 3131SOL    HW221027   0.450   3.495  12.853 -1.3361  1.1264 -0.2863
 3132SOL     OW21028   0.860   0.800   6.085 -0.4024 -0.0382 -0.2308
 3132SOL    HW121029   0.844   0.870   6.149 -1.1307  1.9724 -2.6233
 3132SOL    HW221030   0.828   0.843   6.006  2.1727 -0.5526 -1.5383
 3133SOL     OW21031   1.176   3.113   2.835 -0.0905  0.2544  0.1817
 3133SOL    HW121032   1.138   3.096   2.749 -1.3817  0.0185  0.7876
 3133SOL    HW221033   1.126   3.192   2.858 -3.9527 -1.9970 -0.4189
 3134SOL     OW21034   1.713   0.858  11.603 -0.3409  0.1382  0.2847
 3134SOL    HW121035   1.708   0.896  11.516  0.8482 -2.1148 -0.7671
 3134SOL    HW221036   1.672   0.773  11.586  1.0932 -0.2375 -1.2547
 3135SOL     OW21037   1.049   1.864   2.736  0.2414  0.2642  0.2944
 3135SOL    HW121038   1.076   1.823   2.654 -2.1326 -1.8556  0.5490
 3135SOL    HW221039   0.962   1.823   2.739 -0.9150  2.6551  0.2646
 3136SOL     OW21040   3.028   0.842  11.880  0.1264  0.8028  0.3403
 3136SOL    HW121041   3.083   0.764  11.887  1.0775  1.3373 -1.2465
 3136SOL    HW221042   3.079   0.891  11.815 -0.2258  2.5935  1.4200
 3137SOL     OW21043   3.343   1.131   9.767 -0.2694  0.5019  0.3675
 3137SOL    HW121044   3.249   1.140   9.753 -0.6927 -1.2979  1.9557
 3137SOL    HW221045   3.362   1.054   9.822  0.0891 -0.1102 -0.6235
 3138SOL     OW21046   2.323   1.252   9.509 -0.7647 -0.0547 -0.1524
 3138SOL    HW121047   2.296   1.221   9.423 -0.0383 -0.9811 -0.0522
 3138SOL    HW221048   2.238   1.282   9.540  0.6335 -0.2301  3.8926
 3139SOL     OW21049   0.324   2.999   9.044  0.3133 -0.4935  0.2827
 3139SOL    HW121050   0.320   3.094   9.048  0.8047 -0.3878 -1.5421
 3139SOL    HW221051   0.411   2.980   9.078 -0.8302 -1.8343  2.4320
 3140SOL     OW21052   2.219   0.132   3.839 -0.5503 -0.0943 -0.1240
 3140SOL    HW121053   2.272   0.210   3.822 -1.4819  0.5902  0.0732
 3140SOL    HW221054   2.160   0.153   3.911 -0.3798  0.5480 -0.1689
 3141SOL     OW21055   1.943   2.791   6.909  0.1738  0.4456 -0.4537
 3141SOL    HW121056   1.918   2.787   7.001 -0.8101  1.9308 -0.6381
 3141SOL    HW221057   1.891   2.863   6.872  1.3150  1.4065 -0.1859
 3142SOL     OW21058   1.096   1.724   2.476 -0.3574 -0.1998 -0.3685
 3142SOL    HW121059   1.162   1.791   2.457 -1.8187  1.6786  1.2039
 3142SOL    HW221060   1.045   1.732   2.396 -1.2089 -1.9942  0.0157
 3143SOL     OW21061   2.313   3.446   3.164 -0.0249 -0.3662  0.4448
 3143SOL    HW121062   2.390   3.391   3.151 -0.5462 -0.5981 -1.7146
 3143SOL    HW221063   2.256   3.421   3.091 -1.5297 -0.8738  1.7972
 3144SOL     OW21064   2.152   1.569   1.377 -0.6119 -0.6062  0.2982
 3144SOL    HW121065   2.057   1.562   1.380 -0.5420 -0.4375  3.2221
 3144SOL    HW221066   2.184   1.485   1.342 -0.6841 -0.2602 -0.5710
 3145SOL     OW21067   3.823   3.130   4.745 -0.1046  0.2328 -0.0795
 3145SOL    HW121068   3.826   3.123   4.650  0.4784  3.1983 -0.2969
 3145SOL    HW221069   3.777   3.214   4.747 -0.9457 -0.2065 -1.4651
 3146SOL     OW21070   2.940   0.615   9.491  0.3586 -0.0640 -0.2211
 3146SOL    HW121071   2.943   0.526   9.525  2.8264  0.2654  0.4771
 3146SOL    HW221072   3.026   0.636   9.528  0.0735  0.3245  0.2169
 3147SOL     OW21073   2.689   1.651   9.292 -0.4552  0.3942  0.3856
 3147SOL    HW121074   2.610   1.600   9.273  0.3549 -1.2397  1.4213
 3147SOL    HW221075   2.735   1.582   9.341 -0.0266 -0.7410 -1.5897
 3148SOL     OW21076   2.004   2.298   8.946 -0.3760 -0.2081  0.2494
 3148SOL    HW121077   1.967   2.386   8.959 -0.4212 -0.3124  0.8187
 3148SOL    HW221078   2.018   2.263   9.034  0.1447 -0.8445 -0.0860
 3149SOL     OW21079   3.880   2.491  15.671 -0.2025  0.1713 -0.2030
 3149SOL    HW121080   3.956   2.534  15.631  1.5273 -1.9183  0.8074
 3149SOL    HW221081   3.842   2.456  15.590 -1.1874 -1.7325  1.0788
 3150SOL     OW21082   0.983   4.658  14.132 -0.6166  0.2635 -0.3338
 3150SOL    HW121083   0.954   4.732  14.079 -0.9314 -0.2830 -0.9306
 3150SOL    HW221084   0.937   4.586  14.088  0.1865 -1.7494  2.1094
 3151SOL     OW21085   0.586   4.390   1.741  0.8632 -0.2138  0.2662
 3151SOL    HW121086   0.681   4.387   1.728  0.5684 -0.3659 -1.9316
 3151SOL    HW221087   0.572   4.296   1.757  0.3984 -0.3742 -1.0521
 3152SOL     OW21088   3.727   2.616   2.827  0.3654  0.3195  0.7441
 3152SOL    HW121089   3.659   2.576   2.881  0.1533 -0.9768 -0.5229
 3152SOL    HW221090   3.680   2.683   2.778 -1.7371 -1.4828  0.3275
 3153SOL     OW21091   4.180   1.232   7.210  0.9648  0.1696 -0.1999
 3153SOL    HW121092   4.238   1.222   7.135 -1.4080  1.8191 -2.2424
 3153SOL    HW221093   4.220   1.172   7.273  0.3039 -0.6962 -0.6068
 3154SOL     OW21094   4.380   2.589   7.241  0.0494 -0.0930  0.0110
 3154SOL    HW121095   4.378   2.632   7.156 -3.2543  1.0199  0.6782
 3154SOL    HW221096   4.461   2.624   7.279  1.8026 -2.4801 -1.5322
 3155SOL     OW21097   0.199   2.696   2.048 -0.3558 -0.2090  0.4623
 3155SOL    HW121098   0.262   2.678   2.118  1.5711 -1.0587 -1.5116
 3155SOL    HW221099   0.123   2.704   2.106 -0.0412  1.4922  0.6160
 3156SOL     OW21100   4.577   1.158  14.799  0.3210 -0.6020  0.2595
 3156SOL    HW121101   4.482   1.149  14.807  0.6879  0.9413  5.8866
 3156SOL    HW221102   4.607   1.126  14.884 -0.5609  3.9568  2.2763
 3157SOL     OW21103   2.609   0.025  15.880 -0.2608  0.2715  0.1060
 3157SOL    HW121104   2.543   0.079  15.923 -1.5816  0.5761 -2.2866
 3157SOL    HW221105   2.607   4.684  15.929  1.1947  0.9918  1.3957
 3158SOL     OW21106   3.564   1.792  15.121 -0.2618  0.2135 -0.1145
 3158SOL    HW121107   3.605   1.839  15.049  1.8138  1.5403  1.9492
 3158SOL    HW221108   3.471   1.811  15.106 -0.9729 -2.4430  0.8158
 3159SOL     OW21109   4.558   1.928   7.618 -0.6461 -0.2336  0.3092
 3159SOL    HW121110   4.581   1.845   7.660  0.7293  0.0273  0.0705
 3159SOL    HW221111   4.562   1.981   7.698  1.2780  1.5536 -0.9504
 3160SOL     OW21112   4.705   0.613   5.292 -0.3435  0.1024 -0.1350
 3160SOL    HW121113   4.618   0.580   5.269  0.6898 -1.7094 -1.4415
 3160SOL    HW221114   4.705   0.579   5.382 -0.5738 -0.3009 -0.2886
 3161SOL     OW21115   2.165   1.505   6.836 -0.1278  0.0183 -0.6510
 3161SOL    HW121116   2.190   1.466   6.920 -0.6501 -1.5695 -1.2220
 3161SOL    HW221117   2.204   1.443   6.774 -0.1919 -1.2449  0.5741
 3162SOL     OW21118   3.444   2.131   3.579  0.5302  0.0582  0.0018
 3162SOL    HW121119   3.442   2.224   3.604  1.3361  0.7569 -2.4752
 3162SOL    HW221120   3.358   2.102   3.607  0.3820  0.3453 -0.1513
 3163SOL     OW21121   0.404   0.286   4.005  0.5082 -0.1928 -0.0745
 3163SOL    HW121122   0.368   0.217   4.061 -0.0343 -1.2686 -1.7445
 3163SOL    HW221123   0.326   0.333   3.976 -0.6202 -3.2489 -2.0693
 3164SOL     OW21124   3.793   4.026   8.646  0.2545  0.2520 -0.1880
 3164SOL    HW121125   3.850   4.092   8.685  1.7850 -1.2350  0.1172
 3164SOL    HW221126   3.826   4.026   8.556 -2.0389 -0.2857 -1.0264
 3165SOL     OW21127   3.166   0.512   3.311  0.0520  0.1218 -1.1200
 3165SOL    HW121128   3.215   0.533   3.232 -0.9126 -0.4853 -1.8765
 3165SOL    HW221129   3.108   0.443   3.280  0.7086 -0.7699 -0.3719
 3166SOL     OW21130   2.420   1.503  11.668  0.0371 -0.0544 -0.2549
 3166SOL    HW121131   2.434   1.594  11.642  2.0959 -0.0118  0.9879
 3166SOL    HW221132   2.379   1.525  11.752  0.9175  0.6523 -0.0124
 3167SOL     OW21133   3.422   0.295  15.102  0.2377 -0.3916 -0.1842
 3167SOL    HW121134   3.394   0.353  15.173  2.5719  0.3569  0.0980
 3167SOL    HW221135   3.345   0.249  15.067  0.6768 -0.5255 -0.9643
 3168SOL     OW21136   2.420   1.820   4.730 -0.0388 -0.0203 -0.6352
 3168SOL    HW121137   2.507   1.784   4.715 -0.8512 -1.3313 -2.1930
 3168SOL    HW221138   2.417   1.908   4.692  1.0218  1.4045  2.5516
 3169SOL     OW21139   4.614   2.380   3.019  0.6693  0.2162  0.4500
 3169SOL    HW121140   4.640   2.465   2.981  0.9113 -0.0084  0.1150
 3169SOL    HW221141   4.685   2.319   3.003  1.3151  0.9398  0.5287
 3170SOL     OW21142   3.329   1.327   5.073 -0.4760  0.7388  0.5957
 3170SOL    HW121143   3.337   1.232   5.070  1.4545  0.9730 -1.6491
 3170SOL    HW221144   3.395   1.362   5.014  0.7160  0.8034  1.9811
 3171SOL     OW21145   0.190   1.771   8.367  0.1305  0.0851  0.2914
 3171SOL    HW121146   0.253   1.789   8.437 -1.2346 -0.4032  1.6567
 3171SOL    HW221147   0.209   1.678   8.356 -0.9233 -0.1488  0.4397
 3172SOL     OW21148   3.088   3.557  14.963  0.3737  0.4977 -0.2856
 3172SOL    HW121149   3.140   3.481  14.986 -1.1566 -0.2438  0.6740
 3172SOL    HW221150   3.006   3.541  15.010  1.7233 -1.8078  1.2980
 3173SOL     OW21151   4.103   4.066   2.997  0.0474  0.7699  0.7205
 3173SOL    HW121152   4.055   4.081   2.916 -1.4208  1.5390  1.7358
 3173SOL    HW221153   4.137   4.150   3.028 -0.0098  0.4603  1.6440
 3174SOL     OW21154   1.979   0.236  11.814 -0.1183  0.2426  0.1964
 3174SOL    HW121155   1.985   0.309  11.752 -0.3720  1.4273  1.5695
 3174SOL    HW221156   1.938   0.271  11.893 -0.6445  1.2639 -0.5258
 3175SOL     OW21157   1.990   2.029   7.058  0.4157 -0.2961  0.2298
 3175SOL    HW121158   1.910   1.980   7.075  0.9348 -0.1218  3.2980
 3175SOL    HW221159   1.955   2.118   7.053  1.3626  0.1087  0.7623
 3176SOL     OW21160   3.610   2.479   3.850  0.3752 -0.2691  0.5117
 3176SOL    HW121161   3.551   2.501   3.922  1.1140 -1.1505  1.3800
 3176SOL    HW221162   3.550   2.477   3.775  2.5710  2.3352 -1.3286
 3177SOL     OW21163   1.761   2.601   8.726  0.1527 -0.4763  0.4049
 3177SOL    HW121164   1.808   2.617   8.808  1.3900 -0.3363 -0.3268
 3177SOL    HW221165   1.811   2.541   8.671 -1.0073 -0.7511 -0.3484
 3178SOL     OW21166   3.833   4.397   8.443 -0.2904 -0.1043  0.3624
 3178SOL    HW121167   3.784   4.339   8.502 -0.3072  0.9810  1.4366
 3178SOL    HW221168   3.762   4.456   8.416 -0.6848 -0.9164 -0.3804
 3179SOL     OW21169   1.729   0.858  14.768 -0.4304  0.2375  0.3226
 3179SOL    HW121170   1.641   0.840  14.734 -0.3352 -0.9005  0.6825
 3179SOL    HW221171   1.718   0.950  14.793 -1.0737  0.7343 -1.7685
 3180SOL     OW21172   0.369   4.633   6.347 -0.4026 -0.3874  0.2671
 3180SOL    HW121173   0.329   4.589   6.422 -3.6920 -0.0348 -1.2873
 3180SOL    HW221174   0.302   4.698   6.327  0.1618  0.8392  2.3482
 3181SOL     OW21175   0.918   1.522   7.882 -0.2157 -0.2108  0.0580
 3181SOL    HW121176   0.834   1.555   7.913  1.0178  0.5266  2.5606
 3181SOL    HW221177   0.955   1.607   7.860  0.1631 -0.4488 -0.2189
 3182SOL     OW21178   2.694   2.357  15.462  0.4161  0.6851 -0.0488
 3182SOL    HW121179   2.707   2.413  15.385  0.4020 -1.1521 -1.3790
 3182SOL    HW221180   2.781   2.319  15.464  0.4707  0.7027 -2.2523
 3183SOL     OW21181   2.495   2.987   1.647 -0.7611 -0.0449 -0.3129
 3183SOL    HW121182   2.584   2.952   1.641 -0.3431  0.6183  1.9608
 3183SOL    HW221183   2.466   2.985   1.556  1.1962 -2.3198 -0.9033
 3184SOL     OW21184   2.876   0.035   0.234  0.2064  0.7934  0.1699
 3184SOL    HW121185   2.940   0.092   0.277 -0.4421  0.6265  1.3794
 3184SOL    HW221186   2.934   4.702   0.216 -0.8440  0.4197 -1.6211
 3185SOL     OW21187   4.526   4.375   7.288  0.0814 -0.7564 -0.0540
 3185SOL    HW121188   4.534   4.412   7.376  0.7321 -0.7636 -0.1075
 3185SOL    HW221189   4.610   4.331   7.275  1.2640  1.8864 -1.4910
 3186SOL     OW21190   2.811   0.220   3.453 -0.4026 -0.2131 -0.2598
 3186SOL    HW121191   2.798   0.301   3.405 -1.3373 -0.2789 -0.1230
 3186SOL    HW221192   2.801   0.153   3.385 -0.5058 -1.1797  0.6980
 3187SOL     OW21193   1.184   4.305   2.780  0.4407 -0.2002 -0.6699
 3187SOL    HW121194   1.094   4.290   2.752 -0.2365  2.7526 -0.1471
 3187SOL    HW221195   1.155   4.358   2.855  0.3276 -3.0313  1.2881
 3188SOL     OW21196   0.863   3.484  15.830  0.1780 -0.3198  0.0293
 3188SOL    HW121197   0.794   3.453  15.772 -1.5180 -0.0523  1.8938
 3188SOL    HW221198   0.866   3.412  15.893 -1.2199 -0.1159  0.3346
 3189SOL     OW21199   0.420   2.636  10.074  0.1936  0.3409  0.0875
 3189SOL    HW121200   0.424   2.541  10.089 -2.6502  0.1138 -0.5218
 3189SOL    HW221201   0.443   2.646   9.982  0.6219 -1.6721 -0.0260
 3190SOL     OW21202   3.064   1.636   9.631 -0.4595 -0.7223 -0.0747
 3190SOL    HW121203   3.006   1.677   9.566 -1.2793 -2.8379 -0.6777
 3190SOL    HW221204   3.023   1.656   9.715 -0.5561 -0.3848 -0.2016
 3191SOL     OW21205   0.765   1.696   5.632 -0.3589  0.1922 -0.0172
 3191SOL    HW121206   0.814   1.710   5.551 -0.0444 -0.0267  0.1374
 3191SOL    HW221207   0.810   1.618   5.663  0.7290  0.2152 -1.5524
 3192SOL     OW21208   0.618   0.780   3.857 -0.1812  0.3465 -0.5127
 3192SOL    HW121209   0.617   0.781   3.761  2.3987  1.0237 -0.5363
 3192SOL    HW221210   0.579   0.693   3.861 -0.1888  0.3586 -0.3239
 3193SOL     OW21211   0.841   3.562  17.195  0.0533  0.2909 -0.1135
 3193SOL    HW121212   0.813   3.623  17.264 -1.7795 -0.6321 -0.0380
 3193SOL    HW221213   0.841   3.486  17.254 -0.9075  0.5475  0.2130
 3194SOL     OW21214   3.037   3.844  14.649 -0.6554 -0.9374  0.3135
 3194SOL    HW121215   3.094   3.920  14.664 -0.6137 -1.5515  3.3523
 3194SOL    HW221216   3.095   3.769  14.650 -0.5167 -0.8427 -1.0948
 3195SOL     OW21217   3.848   3.375   8.352  0.1043 -0.0111  0.4787
 3195SOL    HW121218   3.779   3.431   8.316 -1.3361 -2.4944 -0.6392
 3195SOL    HW221219   3.804   3.292   8.342  4.8168 -2.7146  1.9991
 3196SOL     OW21220   0.561   1.945  17.103  0.9179 -0.2176  0.4272
 3196SOL    HW121221   0.555   2.008  17.175  1.0925  2.2777 -1.7517
 3196SOL    HW221222   0.548   2.009  17.033 -0.4118 -0.0351  0.8465
 3197SOL     OW21223   4.046   4.167   7.818  0.4492 -0.0774  0.0503
 3197SOL    HW121224   4.062   4.099   7.884  2.7917 -1.6893 -2.1737
 3197SOL    HW221225   3.987   4.222   7.869  1.6860  1.4972 -0.2437
 3198SOL     OW21226   2.572   3.561   0.944  0.2687 -0.1859  0.5278
 3198SOL    HW121227   2.508   3.594   0.881 -0.6479 -3.0497 -0.0413
 3198SOL    HW221228   2.653   3.565   0.893 -1.3223  1.0984 -1.8943
 3199SOL     OW21229   4.723   0.815  12.736 -0.2575 -0.0365  0.2641
 3199SOL    HW121230   0.025   0.761  12.802 -0.8114 -2.2313 -1.1383
 3199SOL    HW221231   4.645   0.845  12.781 -0.1893  0.8752 -0.2298
 3200SOL     OW21232   2.891   2.471   4.996 -0.3060  0.4829 -0.2719
 3200SOL    HW121233   2.925   2.406   5.058 -0.1356  0.9871  0.1698
 3200SOL    HW221234   2.797   2.461   5.010 -0.9559  1.6926 -3.7420
 3201SOL     OW21235   4.036   4.487   8.807  0.1680 -0.2762  0.3887
 3201SOL    HW121236   4.060   4.500   8.715  2.1401  1.6801  1.1807
 3201SOL    HW221237   3.955   4.537   8.810  1.2106  1.4129  0.2364
 3202SOL     OW21238   4.218   0.055   0.928 -0.2831 -0.0047 -0.1624
 3202SOL    HW121239   4.270   4.721   0.955  0.4791  1.6013  2.8118
 3202SOL    HW221240   4.237   0.056   0.834  1.4092 -0.6229  0.1847
 3203SOL     OW21241   3.548   1.852   1.241  0.1220  0.1891  0.0512
 3203SOL    HW121242   3.615   1.912   1.271 -0.0275  0.7744 -0.7732
 3203SOL    HW221243   3.595   1.806   1.171  1.2908 -1.6502  2.0446
 3204SOL     OW21244   4.496   0.845   2.687 -0.2938 -0.1813  0.4940
 3204SOL    HW121245   4.562   0.813   2.749  1.8987  1.0920 -1.1643
 3204SOL    HW221246   4.455   0.912   2.741 -0.5354  1.1947 -1.3868
 3205SOL     OW21247   1.625   2.756  13.536  0.0449  0.0982  0.3051
 3205SOL    HW121248   1.705   2.726  13.580  0.1097  0.2458  0.2883
 3205SOL    HW221249   1.648   2.849  13.531  0.3812  0.0397  0.7067
 3206SOL     OW21250   1.778   2.673   0.240 -0.0538  0.2465  0.6726
 3206SOL    HW121251   1.777   2.581   0.265 -0.4908  0.0230 -0.1728
 3206SOL    HW221252   1.712   2.720   0.291 -0.6554 -0.5581  0.6294
 3207SOL     OW21253   3.762   1.527   7.640  0.0525 -0.4327 -0.6957
 3207SOL    HW121254   3.696   1.461   7.662 -0.4675 -0.6939 -2.9960
 3207SOL    HW221255   3.743   1.605   7.692 -3.7700 -1.7346 -0.2137
 3208SOL     OW21256   4.652   1.794   4.795  0.0858 -0.6198  0.3029
 3208SOL    HW121257   4.633   1.701   4.781  0.9901 -0.8399  0.5174
 3208SOL    HW221258   4.574   1.843   4.819  2.2789  3.5049 -0.8909
 3209SOL     OW21259   1.900   1.269  13.046 -0.3195  0.3903 -0.1950
 3209SOL    HW121260   1.925   1.185  13.009 -0.7120  1.1829 -2.2529
 3209SOL    HW221261   1.918   1.325  12.970 -0.7151 -0.5639 -0.9936
 3210SOL     OW21262   1.299   1.443   8.769 -0.0965  0.1438 -0.8919
 3210SOL    HW121263   1.338   1.449   8.856 -2.2750 -0.6045  0.1533
 3210SOL    HW221264   1.222   1.389   8.790  0.8366 -1.5177 -1.7826
 3211SOL     OW21265   0.136   1.079   4.846 -0.2464 -0.0773 -0.6106
 3211SOL    HW121266   0.076   1.022   4.799 -2.8582  2.4100 -0.2323
 3211SOL    HW221267   0.200   1.092   4.776  0.8965 -0.7880  0.2803
 3212SOL     OW21268   1.355   1.809   7.878  0.7150 -0.1175 -0.2603
 3212SOL    HW121269   1.325   1.722   7.853  0.1939  0.0141 -0.0883
 3212SOL    HW221270   1.328   1.858   7.800 -1.3602  1.4375  1.4432
 3213SOL     OW21271   2.692   0.206   2.781 -0.8174 -0.3594  0.0074
 3213SOL    HW121272   2.740   0.144   2.725  0.2821 -0.1754  0.7469
 3213SOL    HW221273   2.669   0.142   2.848  1.5109 -0.8690  0.3086
 3214SOL     OW21274   3.005   4.228   9.395 -0.3995  0.2307 -0.4049
 3214SOL    HW121275   3.080   4.223   9.336  1.9134  1.3210  2.4355
 3214SOL    HW221276   3.036   4.189   9.477  1.9470  1.9080 -0.5058
 3215SOL     OW21277   0.760   3.271  15.641  0.0086 -0.1320  0.7623
 3215SOL    HW121278   0.796   3.258  15.554  1.1727 -0.0787  1.2390
 3215SOL    HW221279   0.778   3.185  15.680 -0.4327 -0.4995  0.1474
 3216SOL     OW21280   3.525   0.496   1.164  0.0760 -0.0655 -0.6573
 3216SOL    HW121281   3.477   0.454   1.092 -1.5978 -0.5181  0.7203
 3216SOL    HW221282   3.518   0.589   1.145  1.0840 -0.0018 -0.7266
 3217SOL     OW21283   2.408   4.554   1.841  0.2519 -0.5713  0.4973
 3217SOL    HW121284   2.367   4.582   1.924 -0.7625 -1.2669  0.2307
 3217SOL    HW221285   2.365   4.469   1.831 -0.0275 -0.4560  0.7122
 3218SOL     OW21286   2.909   1.527  15.787 -0.2966  0.0860 -0.5130
 3218SOL    HW121287   2.843   1.571  15.841  0.8832  0.9745  0.2195
 3218SOL    HW221288   2.973   1.597  15.773  1.2590 -1.4104 -0.8410
 3219SOL     OW21289   4.333   2.606   7.749  0.6209 -0.1711  0.2353
 3219SOL    HW121290   4.315   2.661   7.673  1.4454  3.0271  2.3392
 3219SOL    HW221291   4.257   2.631   7.801 -0.5816  0.2033 -1.7189
 3220SOL     OW21292   2.481   1.218   5.009 -0.4530  0.0509 -0.7482
 3220SOL    HW121293   2.568   1.185   5.030 -0.3447  0.7596 -0.1050
 3220SOL    HW221294   2.477   1.297   5.062  0.3585 -0.0158 -0.5875
 3221SOL     OW21295   2.292   3.094   2.681  0.9086 -0.1585  0.2313
 3221SOL    HW121296   2.232   3.019   2.682  3.4222 -2.1761  0.0350
 3221SOL    HW221297   2.369   3.058   2.638  1.5263  2.0607 -0.5422
 3222SOL     OW21298   2.675   2.525   3.031  0.6315 -0.1994 -0.3859
 3222SOL    HW121299   2.677   2.447   2.975 -2.5333  0.5092 -1.4717
 3222SOL    HW221300   2.723   2.485   3.103 -0.3988 -1.1349 -0.2407
 3223SOL     OW21301   3.909   4.739   5.185  0.2197 -0.2021  0.3603
 3223SOL    HW121302   3.996   4.708   5.159  0.6942  0.2644  1.3869
 3223SOL    HW221303   3.849   4.706   5.119  0.6419 -1.5249  0.6457
 3224SOL     OW21304   3.133   4.207   3.384  0.3142  0.1711  0.5001
 3224SOL    HW121305   3.193   4.205   3.309  0.7422  2.0225  0.7959
 3224SOL    HW221306   3.126   4.300   3.402 -1.0402 -0.1286  1.4990
 3225SOL     OW21307   1.772   2.226  10.348  0.3130 -0.0103 -0.3807
 3225SOL    HW121308   1.679   2.234  10.367 -0.3158 -0.5057 -3.2705
 3225SOL    HW221309   1.764   2.133  10.326 -1.5587  0.0613 -0.0171
 3226SOL     OW21310   1.721   4.524   0.852 -0.4136  0.0509 -0.1896
 3226SOL    HW121311   1.754   4.438   0.828  1.3028 -0.1518  2.7664
 3226SOL    HW221312   1.787   4.582   0.814  1.0842 -1.2112  0.4804
 3227SOL     OW21313   2.222   2.033  12.066  0.3588 -0.1116 -0.3676
 3227SOL    HW121314   2.164   2.080  12.005 -0.0460 -0.7339 -0.4685
 3227SOL    HW221315   2.164   2.003  12.135 -0.2106 -3.4790 -2.2904
 3228SOL     OW21316   0.673   3.286   7.517  0.0164 -0.4645 -0.7536
 3228SOL    HW121317   0.584   3.251   7.517  0.3218 -1.2340 -1.1575
 3228SOL    HW221318   0.719   3.202   7.517  1.3130  0.2544  0.5668
 3229SOL     OW21319   1.415   0.431   2.987 -0.7781 -0.2750 -0.2652
 3229SOL    HW121320   1.339   0.374   2.995 -2.6697  2.1471 -0.7837
 3229SOL    HW221321   1.425   0.432   2.892  0.8314 -0.9637 -0.1000
 3230SOL     OW21322   3.278   2.507   8.196 -0.4486  0.4263  0.1717
 3230SOL    HW121323   3.192   2.547   8.183 -0.4178  0.4035 -0.0972
 3230SOL    HW221324   3.245   2.418   8.208  0.0950  0.3247  0.9181
 3231SOL     OW21325   4.479   1.128  13.351  0.1525 -0.5245  0.5439
 3231SOL    HW121326   4.444   1.065  13.414  0.8565 -1.8913 -0.4317
 3231SOL    HW221327   4.404   1.188  13.357 -1.7597 -2.8497 -0.1665
 3232SOL     OW21328   4.365   3.469   2.793 -0.1092  0.0039 -0.5572
 3232SOL    HW121329   4.320   3.385   2.781 -1.7365  0.6923  0.6879
 3232SOL    HW221330   4.448   3.450   2.749 -0.3969 -1.1437 -0.6111
 3233SOL     OW21331   0.521   2.951   6.217  0.4662  0.0670  0.4294
 3233SOL    HW121332   0.568   2.873   6.185  0.3793  0.4646 -0.6657
 3233SOL    HW221333   0.564   2.958   6.302  0.4536 -1.9407  0.6151
 3234SOL     OW21334   3.074   3.816   1.282 -0.0764  0.0247 -0.4356
 3234SOL    HW121335   3.107   3.727   1.269  1.2480  0.3716  0.5630
 3234SOL    HW221336   3.133   3.872   1.231  1.1377 -0.8446  0.0204
 3235SOL     OW21337   0.548   4.095   3.640 -0.0880 -0.3209  0.2440
 3235SOL    HW121338   0.455   4.083   3.663  0.0468  0.4466  1.2174
 3235SOL    HW221339   0.554   4.045   3.559 -1.0334  0.3986 -0.2739
 3236SOL     OW21340   2.349   0.047   5.533 -0.1126 -0.0642  0.0206
 3236SOL    HW121341   2.352   0.107   5.458 -1.3862  0.7709  0.6258
 3236SOL    HW221342   2.386   4.707   5.499 -2.6101 -0.5432 -1.5858
 3237SOL     OW21343   0.478   3.293  14.815 -0.3715  0.1787  0.4918
 3237SOL    HW121344   0.538   3.232  14.858 -1.4534 -0.4604  1.1020
 3237SOL    HW221345   0.481   3.274  14.721  0.6337 -0.8901  0.7338
 3238SOL     OW21346   4.326   2.147   1.488 -0.3801  0.3417 -0.4616
 3238SOL    HW121347   4.269   2.116   1.558  1.1385  1.0843  1.1009
 3238SOL    HW221348   4.276   2.136   1.407 -0.5525  0.6942 -0.4040
 3239SOL     OW21349   2.243   3.449   3.438  0.1257 -0.3363  0.3979
 3239SOL    HW121350   2.247   3.459   3.343  1.3450 -0.1659  0.4722
 3239SOL    HW221351   2.328   3.408   3.455 -1.1903 -3.4032 -0.3635
 3240SOL     OW21352   4.604   4.575   7.495  0.4789  0.3564  0.0599
 3240SOL    HW121353   4.562   4.661   7.489 -1.6413 -0.8292 -2.3009
 3240SOL    HW221354   4.558   4.535   7.568 -0.9250 -0.6951 -1.4089
 3241SOL     OW21355   3.051   1.050   5.464 -0.1733 -0.3595  0.5324
 3241SOL    HW121356   3.135   1.075   5.425 -0.1666 -4.0422 -1.8361
 3241SOL    HW221357   3.011   1.133   5.490  2.0048  1.5690 -2.2162
 3242SOL     OW21358   2.058   3.751   3.322 -0.8133 -0.4092  0.8766
 3242SOL    HW121359   2.091   3.738   3.234  0.5634  0.6867  1.2284
 3242SOL    HW221360   1.966   3.776   3.313  0.0985  2.1235 -1.2126
 3243SOL     OW21361   2.715   3.155   7.222  0.1029  0.3085  1.0865
 3243SOL    HW121362   2.661   3.171   7.299 -0.7799  0.1745  0.4988
 3243SOL    HW221363   2.692   3.063   7.210  1.4887  0.1676 -0.5569
 3244SOL     OW21364   3.180   0.115   2.060 -1.0538 -0.9825  0.5217
 3244SOL    HW121365   3.213   0.029   2.034 -2.4572 -1.1550 -0.6769
 3244SOL    HW221366   3.091   0.093   2.086 -0.9159 -0.0410  1.8048
 3245SOL     OW21367   1.721   3.654   6.877  0.0711 -0.6850 -0.6621
 3245SOL    HW121368   1.762   3.567   6.875 -1.0131 -1.1908 -0.5270
 3245SOL    HW221369   1.731   3.688   6.788 -0.4508  0.9614 -0.0863
 3246SOL     OW21370   1.281   1.242  10.260 -0.4507 -0.4740 -0.2285
 3246SOL    HW121371   1.214   1.205  10.203 -1.1345  0.9949 -0.3961
 3246SOL    HW221372   1.363   1.201  10.232 -1.6600 -2.7486 -0.4147
 3247SOL     OW21373   0.610   2.973   7.351  0.3553 -0.3635  0.7848
 3247SOL    HW121374   0.524   2.941   7.326  0.4643  0.2970 -0.4582
 3247SOL    HW221375   0.596   3.004   7.440 -1.2224 -2.0970  1.1545
 3248SOL     OW21376   1.700   3.371   6.708 -0.0610 -0.4382 -0.4530
 3248SOL    HW121377   1.745   3.389   6.791 -2.0600 -1.2545  0.7885
 3248SOL    HW221378   1.770   3.324   6.663  0.0998 -0.6164 -0.0185
 3249SOL     OW21379   3.771   1.293   6.557  0.6275  0.4908 -0.0770
 3249SOL    HW121380   3.817   1.358   6.504  0.8362 -0.6948 -1.3692
 3249SOL    HW221381   3.834   1.224   6.578  1.1545  1.7818  2.6112
 3250SOL     OW21382   0.957   2.930   0.328  0.1577 -0.5209 -0.0873
 3250SOL    HW121383   0.941   2.913   0.421 -1.2038  1.5597  0.0506
 3250SOL    HW221384   1.048   2.959   0.323  0.9369 -2.7182  1.1497
 3251SOL     OW21385   3.364   0.700   1.529  0.1607 -0.4369  0.1408
 3251SOL    HW121386   3.401   0.778   1.570 -2.6491  0.6932  0.5658
 3251SOL    HW221387   3.368   0.643   1.606 -1.4251 -0.9492 -0.1483
 3252SOL     OW21388   2.404   4.466   5.928  0.1654 -0.1159  0.0578
 3252SOL    HW121389   2.469   4.468   5.858  0.0335 -0.3427 -0.0708
 3252SOL    HW221390   2.343   4.536   5.905  0.2559  0.0290  0.2553
 3253SOL     OW21391   2.860   0.819  14.419  0.7787 -0.3985  0.0070
 3253SOL    HW121392   2.803   0.755  14.376 -0.2335  0.9451 -0.6223
 3253SOL    HW221393   2.798   0.854  14.484  1.7616 -1.2448  1.4107
 3254SOL     OW21394   2.224   0.190   7.514 -0.1671 -0.0718 -0.0192
 3254SOL    HW121395   2.180   0.271   7.542  0.2722  0.7356 -1.6441
 3254SOL    HW221396   2.310   0.208   7.552  0.7558  0.6961 -2.4702
 3255SOL     OW21397   1.609   2.844  11.062 -0.5104  0.3967 -0.0503
 3255SOL    HW121398   1.594   2.936  11.041  0.9994  0.4934 -0.7125
 3255SOL    HW221399   1.688   2.841  11.115 -0.5518  1.9975  0.0786
 3256SOL     OW21400   1.212   2.651   6.342  0.4524 -0.0049 -0.2264
 3256SOL    HW121401   1.208   2.663   6.247 -0.8353  0.7343 -0.0864
 3256SOL    HW221402   1.124   2.670   6.375  0.7415  1.0594 -0.0442
 3257SOL     OW21403   2.750   3.196   7.603 -0.3777  0.2908  0.2601
 3257SOL    HW121404   2.748   3.101   7.592 -1.2118  0.1214  1.8635
 3257SOL    HW221405   2.656   3.213   7.596 -0.0177  1.0288 -2.5892
 3258SOL     OW21406   1.439   0.516   4.646 -0.4688 -0.3553 -0.0152
 3258SOL    HW121407   1.370   0.574   4.612  1.9260  3.2211  1.2732
 3258SOL    HW221408   1.439   0.545   4.737 -0.6643  0.8917 -0.4016
 3259SOL     OW21409   2.293   4.398   8.321  0.4001 -0.3874  0.5586
 3259SOL    HW121410   2.318   4.473   8.375  0.6681  1.0602 -1.5806
 3259SOL    HW221411   2.330   4.327   8.374  0.4907 -2.3232 -2.0614
 3260SOL     OW21412   3.358   0.494   1.380  0.3223 -0.0824 -0.5459
 3260SOL    HW121413   3.365   0.581   1.420  2.1820 -0.7685  0.6513
 3260SOL    HW221414   3.418   0.496   1.306  0.0465 -1.9433 -0.8312
 3261SOL     OW21415   4.691   1.559   3.793  0.3659  0.0428  0.0464
 3261SOL    HW121416   4.725   1.591   3.709  1.6679  1.5780  1.1592
 3261SOL    HW221417   4.701   1.465   3.778 -0.0558 -0.3170  2.0737
 3262SOL     OW21418   4.294   1.392   2.919  0.2973  0.1529  0.0495
 3262SOL    HW121419   4.225   1.458   2.912  0.0997  0.0068  0.5964
 3262SOL    HW221420   4.365   1.436   2.872  0.1565 -0.1561 -0.4491
 3263SOL     OW21421   1.391   3.984   8.090  0.2906 -0.0829 -0.3541
 3263SOL    HW121422   1.357   4.000   8.179 -0.8434 -3.2042 -0.2372
 3263SOL    HW221423   1.377   3.890   8.090  1.1339 -0.1977 -3.2706
 3264SOL     OW21424   2.720   3.502   8.371 -0.4724 -0.2422  0.6018
 3264SOL    HW121425   2.722   3.418   8.325  1.2685 -0.3234  0.8323
 3264SOL    HW221426   2.702   3.479   8.462 -2.5430 -1.1678 -0.0286
 3265SOL     OW21427   2.653   0.068  17.064 -0.5016 -0.0675 -0.2065
 3265SOL    HW121428   2.688   0.018  16.990  1.3211  2.7580 -1.2605
 3265SOL    HW221429   2.675   0.009  17.137 -2.0002 -1.1741 -0.6503
 3266SOL     OW21430   0.988   2.872  15.708 -0.3904 -0.0259  0.0582
 3266SOL    HW121431   1.047   2.809  15.665  3.4505  3.6152 -0.0519
 3266SOL    HW221432   0.902   2.833  15.694  0.4966 -2.1186  0.4422
 3267SOL     OW21433   2.413   4.237  10.046  0.5913  0.1285  0.0944
 3267SOL    HW121434   2.354   4.242  10.121  1.1030 -0.4176  0.5402
 3267SOL    HW221435   2.373   4.164   9.998 -0.5051  1.1959 -0.5840
 3268SOL     OW21436   4.223   4.596   2.429 -0.0654  0.0602  0.3408
 3268SOL    HW121437   4.291   4.631   2.371 -0.3462 -0.6145 -0.3871
 3268SOL    HW221438   4.245   4.627   2.517  1.0865  0.2256  0.0051
 3269SOL     OW21439   0.600   1.063   8.501  0.2198 -0.7360 -0.0597
 3269SOL    HW121440   0.662   1.040   8.570 -0.5447  0.3663  0.9797
 3269SOL    HW221441   0.533   0.997   8.518  1.4533 -2.2855 -1.2343
 3270SOL     OW21442   3.329   4.158  10.551  0.0681 -0.3806  0.0755
 3270SOL    HW121443   3.252   4.211  10.531 -1.2765 -2.5134 -0.3478
 3270SOL    HW221444   3.307   4.069  10.524 -1.0861 -0.7646  2.2596
 3271SOL     OW21445   2.740   4.500   5.175  0.1997 -0.4719 -0.1624
 3271SOL    HW121446   2.826   4.480   5.138 -0.8965 -1.1335 -2.3461
 3271SOL    HW221447   2.731   4.416   5.221  0.1277  0.4920  1.5684
 3272SOL     OW21448   1.073   0.057   3.066  0.2129  0.4339  0.2627
 3272SOL    HW121449   1.111   0.095   3.145  0.5090  0.1760  0.2461
 3272SOL    HW221450   1.000   0.119   3.062  0.2320  0.3128 -1.8909
 3273SOL     OW21451   3.014   4.096   3.150  0.1442 -0.0741  0.1288
 3273SOL    HW121452   2.921   4.118   3.143  0.2888  0.6362  0.3957
 3273SOL    HW221453   3.023   4.141   3.234 -0.6131  1.6765 -0.7380
 3274SOL     OW21454   0.046   0.167   2.111 -0.5408 -0.6566 -0.4808
 3274SOL    HW121455   0.030   0.242   2.052  1.3278  1.2401  1.4194
 3274SOL    HW221456   4.695   0.160   2.137 -0.9130 -0.2850 -1.6799
 3275SOL     OW21457   1.298   0.972   7.457  0.7661  0.5703  0.2196
 3275SOL    HW121458   1.257   0.895   7.495  3.1321 -0.5366  0.5305
 3275SOL    HW221459   1.343   0.942   7.378 -0.9455 -2.8690  0.5629
 3276SOL     OW21460   4.352   1.239  16.352 -0.1869  0.1994 -0.9577
 3276SOL    HW121461   4.311   1.168  16.402  0.6542  0.9035  0.7484
 3276SOL    HW221462   4.439   1.206  16.331 -0.3450  1.0250 -2.8313
 3277SOL     OW21463   1.145   0.226   6.031  0.8918  0.3097  0.0806
 3277SOL    HW121464   1.107   0.292   5.973 -2.1578  1.3563  3.2739
 3277SOL    HW221465   1.220   0.272   6.067  1.9531 -2.9920  2.1233
 3278SOL     OW21466   2.689   4.246   5.287  0.1951 -0.6348  0.0302
 3278SOL    HW121467   2.664   4.265   5.378  1.7949 -1.5373  0.6522
 3278SOL    HW221468   2.753   4.175   5.295  0.3374 -0.5224 -0.1451
 3279SOL     OW21469   0.038   3.808   1.636 -0.2739 -0.2725  0.1422
 3279SOL    HW121470   4.688   3.784   1.620  0.3129 -1.7607 -0.9119
 3279SOL    HW221471   0.055   3.781   1.726 -0.0915 -1.6950 -0.3147
 3280SOL     OW21472   3.210   2.682  16.670  0.3758  0.2080  0.1278
 3280SOL    HW121473   3.226   2.761  16.722  0.8249 -0.0241  0.3438
 3280SOL    HW221474   3.128   2.646  16.705 -0.7881  2.8290  0.1158
 3281SOL     OW21475   4.106   3.315  13.152  1.1837 -0.0354 -0.0732
 3281SOL    HW121476   4.017   3.289  13.177 -0.1200  5.1489  0.5816
 3281SOL    HW221477   4.126   3.397  13.197  2.5188 -1.2468  1.5225
 3282SOL     OW21478   4.640   4.706  14.459  0.0987  0.1362  0.0865
 3282SOL    HW121479   4.713   4.648  14.479  1.5356  1.0610 -2.4297
 3282SOL    HW221480   4.670   0.039  14.511  1.1950 -1.4982  1.7645
 3283SOL     OW21481   3.679   1.300   4.240 -0.1768 -0.2346  0.0329
 3283SOL    HW121482   3.696   1.216   4.198 -0.4735 -0.5480  0.5357
 3283SOL    HW221483   3.620   1.332   4.172  0.6339 -0.5809 -0.8300
 3284SOL     OW21484   4.212   3.212   5.065 -0.3043 -0.2262  0.4455
 3284SOL    HW121485   4.174   3.288   5.020 -0.3558 -0.4594  0.0950
 3284SOL    HW221486   4.143   3.147   5.052 -1.1025  1.2682 -3.0156
 3285SOL     OW21487   4.201   0.136   8.011 -0.5020 -0.0702  0.0508
 3285SOL    HW121488   4.183   0.111   8.101 -0.9351 -2.1324 -0.5880
 3285SOL    HW221489   4.261   0.210   8.013 -0.5842 -0.1059  3.0619
 3286SOL     OW21490   1.228   1.284   5.324  0.4011  0.0127  0.0236
 3286SOL    HW121491   1.291   1.314   5.258 -0.0709  2.0665  0.5053
 3286SOL    HW221492   1.150   1.291   5.270  0.7828  0.4408 -0.4760
 3287SOL     OW21493   2.961   2.126   5.559 -0.2738 -0.1594 -0.3472
 3287SOL    HW121494   3.049   2.092   5.571  0.6249  2.2594 -0.0699
 3287SOL    HW221495   2.945   2.106   5.466  1.0598 -1.0070 -0.3870
 3288SOL     OW21496   0.087   1.692   6.735  0.1413  0.0042  0.3625
 3288SOL    HW121497   0.028   1.661   6.804 -0.0656 -1.6161 -0.5381
 3288SOL    HW221498   0.167   1.662   6.778  1.0128  1.6889 -0.0827
 3289SOL     OW21499   2.833   3.430  11.477 -0.4687  0.4258  0.6230
 3289SOL    HW121500   2.850   3.392  11.563  0.0527  0.2341  0.4308
 3289SOL    HW221501   2.816   3.517  11.514  1.8793  0.8423  0.7020
 3290SOL     OW21502   1.108   3.656   5.082  0.3718 -0.0553  0.0508
 3290SOL    HW121503   1.110   3.746   5.115 -0.6755  0.3351 -0.9518
 3290SOL    HW221504   1.155   3.608   5.150  0.9780  1.4272  0.6908
 3291SOL     OW21505   3.929   1.247   7.254  0.3515  0.2691  0.1021
 3291SOL    HW121506   3.878   1.320   7.290  1.1809  0.4915  0.8264
 3291SOL    HW221507   4.021   1.271   7.252  0.4941 -0.2758  0.1522
 3292SOL     OW21508   0.847   0.787   6.551 -0.2639  0.2958  0.3768
 3292SOL    HW121509   0.789   0.719   6.586 -1.1203  0.2499 -1.0987
 3292SOL    HW221510   0.893   0.731   6.490  0.7967  3.8469 -2.0803
 3293SOL     OW21511   1.652   2.371   5.982  0.1466 -0.5812  0.2732
 3293SOL    HW121512   1.743   2.347   6.002 -0.0734  0.0488  2.0179
 3293SOL    HW221513   1.602   2.320   6.045 -0.9987 -0.3761 -0.4844
 3294SOL     OW21514   3.893   0.363   3.247 -0.1187  0.0716  0.2817
 3294SOL    HW121515   3.810   0.403   3.273 -0.2338 -1.4685  2.2350
 3294SOL    HW221516   3.879   0.344   3.154  3.4906 -2.7150  0.3139
 3295SOL     OW21517   4.451   4.288  10.234 -0.1315 -0.5545 -0.4095
 3295SOL    HW121518   4.544   4.290  10.253 -0.0019 -2.8248 -0.7842
 3295SOL    HW221519   4.435   4.194  10.241  0.3760 -0.5206  1.1538
 3296SOL     OW21520   3.930   1.886   0.549  0.2390  0.0191  0.1610
 3296SOL    HW121521   3.997   1.909   0.486 -3.7611  1.4342 -3.5798
 3296SOL    HW221522   3.950   1.794   0.567  0.1217 -0.2183 -0.9489
 3297SOL     OW21523   2.386   3.953   7.495 -0.0449 -0.1569  0.1177
 3297SOL    HW121524   2.358   3.872   7.537 -0.6836 -0.4916 -0.9352
 3297SOL    HW221525   2.398   4.011   7.570 -1.4289  0.6713 -0.2932
 3298SOL     OW21526   1.908   0.345  12.052  0.2957  0.2220 -0.1655
 3298SOL    HW121527   1.879   0.434  12.033  2.7098  1.0211 -0.0775
 3298SOL    HW221528   1.855   0.322  12.129 -0.3286  0.3755 -0.5495
 3299SOL     OW21529   1.170   0.789   3.669  0.1171  0.4535 -0.1381
 3299SOL    HW121530   1.261   0.759   3.679 -0.2292  0.7573  3.8654
 3299SOL    HW221531   1.182   0.880   3.697  0.4896  0.8589 -1.6414
 3300SOL     OW21532   4.647   1.423   0.152 -0.5744 -0.4181 -0.2783
 3300SOL    HW121533   4.689   1.345   0.189 -0.3844  0.0937  0.5813
 3300SOL    HW221534   4.727   1.475   0.151 -0.3562 -0.8053 -1.8136
 3301SOL     OW21535   1.763   0.810   3.431 -0.5559 -0.4311  0.7248
 3301SOL    HW121536   1.707   0.886   3.446  0.7278  0.4696  1.0093
 3301SOL    HW221537   1.706   0.737   3.409 -0.0810 -0.3438 -0.8611
 3302SOL     OW21538   2.262   4.145  15.025  0.1003  0.1360  0.2965
 3302SOL    HW121539   2.308   4.089  15.088 -0.7900 -0.5104  0.3535
 3302SOL    HW221540   2.278   4.237  15.046 -0.4693 -0.3041  2.6041
 3303SOL     OW21541   1.190   0.168   1.915 -0.2382  0.6071 -0.0238
 3303SOL    HW121542   1.264   0.199   1.863 -0.9360 -0.5393 -1.7106
 3303SOL    HW221543   1.197   0.208   2.002  0.0497 -1.0991  0.7345
 3304SOL     OW21544   2.118   2.434   9.295  0.3903 -0.7183 -0.9323
 3304SOL    HW121545   2.086   2.410   9.382 -1.0816 -0.9495 -1.5376
 3304SOL    HW221546   2.056   2.385   9.241 -0.2429 -1.0500  0.0991
 3305SOL     OW21547   2.912   0.222   2.997  0.3816  0.4994  0.4313
 3305SOL    HW121548   2.968   0.300   2.995  1.3109 -0.1655  0.5519
 3305SOL    HW221549   2.942   0.179   2.917 -2.6041  0.9067 -0.9081
 3306SOL     OW21550   1.115   2.628   2.123  0.1152  0.0598  0.3188
 3306SOL    HW121551   1.078   2.691   2.061 -2.1945  0.5287  2.1507
 3306SOL    HW221552   1.047   2.637   2.190 -1.3008 -0.0341 -1.1107
 3307SOL     OW21553   1.906   2.827   9.595 -0.3461 -0.1870 -0.0396
 3307SOL    HW121554   1.887   2.869   9.679 -0.5196 -0.2269 -0.0592
 3307SOL    HW221555   1.938   2.896   9.537  0.7083  0.6823  1.5948
 3308SOL     OW21556   1.841   2.113   2.459  0.0712 -0.2495  0.8438
 3308SOL    HW121557   1.903   2.100   2.388 -2.8607  0.6834 -1.8633
 3308SOL    HW221558   1.900   2.131   2.533 -0.6939 -0.8774  1.6162
 3309SOL     OW21559   0.416   4.283   2.183  0.4600 -0.7291 -0.2978
 3309SOL    HW121560   0.442   4.363   2.228  2.2416 -0.9903 -0.8938
 3309SOL    HW221561   0.487   4.225   2.209  1.9571  1.4666  0.5209
 3310SOL     OW21562   4.227   4.253   7.659 -0.3256 -0.1381 -0.4004
 3310SOL    HW121563   4.157   4.259   7.595  1.0175 -0.7454 -1.9263
 3310SOL    HW221564   4.182   4.225   7.738 -1.8660 -0.9356 -1.5739
 3311SOL     OW21565   3.526   0.090   7.225 -0.3683  0.4378  0.4506
 3311SOL    HW121566   3.527   0.181   7.254  3.4789  0.4679  0.2801
 3311SOL    HW221567   3.619   0.075   7.206 -0.2844  1.3957  0.0913
 3312SOL     OW21568   0.870   0.187   9.656  0.3543  0.4022 -0.6509
 3312SOL    HW121569   0.791   0.196   9.709 -0.1727 -0.0640 -1.3455
 3312SOL    HW221570   0.928   0.222   9.723  1.5024  0.5402 -1.7263
 3313SOL     OW21571   0.981   3.906  15.139  0.3096 -0.5184 -0.8194
 3313SOL    HW121572   1.058   3.866  15.180 -0.8617 -0.5647  1.3388
 3313SOL    HW221573   0.989   3.858  15.057  0.5475 -0.3448 -0.8961
 3314SOL     OW21574   3.740   1.693   4.610  0.3783 -0.2334 -0.5558
 3314SOL    HW121575   3.703   1.669   4.525  0.2325  1.6791 -1.0286
 3314SOL    HW221576   3.672   1.661   4.669 -0.4396  1.1256 -0.7676
 3315SOL     OW21577   0.479   1.017   1.772 -0.1951 -0.0852  0.2005
 3315SOL    HW121578   0.442   1.019   1.684 -0.0645  2.1967  0.2009
 3315SOL    HW221579   0.538   0.943   1.754 -1.6199 -1.2866  0.4090
 3316SOL     OW21580   2.648   1.082   1.829 -0.1613  0.3378 -0.6754
 3316SOL    HW121581   2.591   1.089   1.753 -0.6239  0.9034 -0.2784
 3316SOL    HW221582   2.645   1.174   1.855  0.6984  0.1734  0.0261
 3317SOL     OW21583   2.062   2.669   5.507 -0.5169 -0.3102 -0.1590
 3317SOL    HW121584   2.007   2.738   5.544  1.1554  0.6444  0.5650
 3317SOL    HW221585   2.128   2.721   5.461  0.2241  0.3964  1.6936
 3318SOL     OW21586   2.969   2.592   3.327 -0.0236 -1.0739 -0.6685
 3318SOL    HW121587   2.929   2.673   3.358  2.8558  0.2722 -0.4657
 3318SOL    HW221588   2.891   2.559   3.283 -0.4838 -0.2729 -0.4387
 3319SOL     OW21589   1.830   4.047   7.384  0.1033 -0.5949  0.4920
 3319SOL    HW121590   1.906   4.067   7.439  0.7905 -0.9265 -0.3300
 3319SOL    HW221591   1.820   4.130   7.337 -1.6368  1.5663  4.6688
 3320SOL     OW21592   3.254   3.578   1.297 -0.0373  0.0012 -0.0292
 3320SOL    HW121593   3.286   3.519   1.365 -1.6071 -0.1380  0.6040
 3320SOL    HW221594   3.168   3.537   1.286 -0.1496 -0.0631  1.0809
 3321SOL     OW21595   3.828   0.880   8.281 -0.2571 -0.3607 -0.4381
 3321SOL    HW121596   3.893   0.949   8.267  0.1791 -0.4189  1.2658
 3321SOL    HW221597   3.815   0.854   8.190  2.2680 -1.7046 -0.4386
 3322SOL     OW21598   4.478   2.204   2.141  0.0757 -0.2458  0.0092
 3322SOL    HW121599   4.532   2.257   2.200 -0.0013 -1.0775  0.8429
 3322SOL    HW221600   4.505   2.114   2.162 -1.8690 -0.5977  1.0554
 3323SOL     OW21601   0.561   3.515  16.571  0.2128  0.1827  0.1475
 3323SOL    HW121602   0.478   3.488  16.610 -0.2162 -0.6756 -1.3369
 3323SOL    HW221603   0.628   3.526  16.638 -1.0599 -2.0795  1.7820
 3324SOL     OW21604   2.733   2.944  10.643  0.2950 -0.5090 -0.6525
 3324SOL    HW121605   2.668   2.985  10.585  2.4281  0.3547 -2.4359
 3324SOL    HW221606   2.803   3.006  10.622 -0.3358 -0.0255 -1.3637
 3325SOL     OW21607   0.607   3.070  13.966  0.3430 -0.3998 -0.3250
 3325SOL    HW121608   0.520   3.110  13.962 -0.3925 -1.9269  0.7230
 3325SOL    HW221609   0.636   3.082  13.875  1.2626 -1.9210 -0.2309
 3326SOL     OW21610   0.259   4.640   5.618 -1.0421 -0.2248 -0.4239
 3326SOL    HW121611   0.221   4.600   5.697  0.7801  0.5024  0.8290
 3326SOL    HW221612   0.184   4.639   5.559 -0.7542 -1.1501 -0.7606
 3327SOL     OW21613   0.765   4.125   6.749 -0.2741  0.3203  0.1762
 3327SOL    HW121614   0.720   4.157   6.670  1.0390 -0.1622 -0.7673
 3327SOL    HW221615   0.824   4.198   6.767 -0.6055  0.5515  0.3245
 3328SOL     OW21616   1.790   1.396   5.295 -0.0406 -0.1094  0.0242
 3328SOL    HW121617   1.798   1.361   5.207 -0.4715  1.8736 -0.8182
 3328SOL    HW221618   1.797   1.320   5.353  2.9491  0.3063  0.2073
 3329SOL     OW21619   2.731   3.831   1.015  0.0151 -0.1333 -0.2996
 3329SOL    HW121620   2.677   3.790   1.082 -1.3024 -0.3524 -1.4753
 3329SOL    HW221621   2.772   3.771   0.953  0.5330 -1.3600  1.2337
 3330SOL     OW21622   2.773   0.774   4.212  0.4794  0.2348  0.3272
 3330SOL    HW121623   2.834   0.771   4.285 -0.9380  0.4829  1.5149
 3330SOL    HW221624   2.700   0.816   4.257  0.8010 -0.7923  1.7991
 3331SOL     OW21625   0.931   1.445   8.895 -0.0308 -0.2532 -0.3919
 3331SOL    HW121626   0.877   1.461   8.817 -0.2763  0.1146 -0.1444
 3331SOL    HW221627   0.904   1.512   8.958  0.2945 -2.3286  1.8964
 3332SOL     OW21628   1.323   3.532   2.472  0.1460 -0.1153  0.2146
 3332SOL    HW121629   1.292   3.455   2.426  2.2012 -1.2205  0.7177
 3332SOL    HW221630   1.358   3.572   2.393  0.4692 -0.2320  0.3003
 3333SOL     OW21631   0.629   1.570   8.473  0.7114 -0.3764 -0.0697
 3333SOL    HW121632   0.709   1.528   8.504  1.1329  1.0720  0.8008
 3333SOL    HW221633   0.571   1.493   8.475  0.5938 -0.2685  0.6750
 3334SOL     OW21634   1.490   3.343   8.377  0.6760 -0.3169 -0.3370
 3334SOL    HW121635   1.502   3.435   8.400 -0.5590 -0.2251 -0.0733
 3334SOL    HW221636   1.576   3.325   8.340  2.3149  0.1333  3.2198
 3335SOL     OW21637   4.401   1.840  17.200 -0.3886 -0.1070  0.1256
 3335SOL    HW121638   4.367   1.858  17.288 -0.6780  0.4492 -0.0997
 3335SOL    HW221639   4.495   1.856  17.210 -0.3435 -0.5620  0.4001
 3336SOL     OW21640   0.989   0.695   5.331 -0.6702  0.0158  0.4458
 3336SOL    HW121641   0.906   0.665   5.293  0.6715 -1.3406 -1.4076
 3336SOL    HW221642   1.020   0.637   5.400  0.5711  0.3136  0.1421
 3337SOL     OW21643   0.856   3.233   0.427 -0.0814 -0.3123 -0.0133
 3337SOL    HW121644   0.822   3.295   0.490  0.9416  2.2526 -1.9717
 3337SOL    HW221645   0.775   3.204   0.383  0.3328  2.6362 -2.7308
 3338SOL     OW21646   4.136   0.167   3.905  0.4246 -0.7316  0.2242
 3338SOL    HW121647   4.172   0.091   3.950  0.3023 -0.4049  0.8816
 3338SOL    HW221648   4.088   0.125   3.834 -1.3380 -2.9466  2.7511
 3339SOL     OW21649   0.137   1.973   1.640  0.0035 -0.3994 -0.0803
 3339SOL    HW121650   0.157   1.931   1.556  1.6112 -1.3496  0.7845
 3339SOL    HW221651   0.049   1.936   1.642 -0.1840  0.1272  1.3378
 3340SOL     OW21652   0.616   4.104   7.556  0.1706 -0.4094  0.0594
 3340SOL    HW121653   0.690   4.048   7.580 -1.0283 -2.1508 -0.3587
 3340SOL    HW221654   0.581   4.065   7.476  3.7591 -2.3186 -0.5874
 3341SOL     OW21655   3.462   0.587   2.234  0.3155  0.2712  0.0984
 3341SOL    HW121656   3.512   0.512   2.202  0.5335  0.4483  0.0280
 3341SOL    HW221657   3.431   0.627   2.153  2.5075  0.7997 -0.4858
 3342SOL     OW21658   1.815   2.300   1.801  0.4991  0.0338  0.1886
 3342SOL    HW121659   1.783   2.380   1.761 -1.3386 -1.3308 -1.0595
 3342SOL    HW221660   1.886   2.336   1.855  1.0582  0.2488 -0.6931
 3343SOL     OW21661   0.135   1.587  10.467  0.2381  0.3016 -0.1180
 3343SOL    HW121662   0.053   1.636  10.465  0.6880  1.1198  1.4595
 3343SOL    HW221663   0.119   1.519  10.402  1.4160  1.7236 -1.8917
 3344SOL     OW21664   0.148   2.715   5.362  0.2713  0.0182 -0.1381
 3344SOL    HW121665   0.147   2.725   5.266 -1.1545 -0.1885 -0.1441
 3344SOL    HW221666   0.173   2.802   5.393 -1.9779  0.3627  0.7346
 3345SOL     OW21667   1.123   1.672   5.621  0.2144 -0.9513 -0.3436
 3345SOL    HW121668   1.110   1.706   5.533  3.0271 -1.3680 -0.9415
 3345SOL    HW221669   1.077   1.588   5.626 -1.6447  0.1302  0.8137
 3346SOL     OW21670   1.278   2.663   5.910 -0.2083 -0.6153 -0.3473
 3346SOL    HW121671   1.372   2.659   5.896 -0.3938  1.4947 -2.2332
 3346SOL    HW221672   1.262   2.744   5.862 -0.9720 -1.1897 -1.0684
 3347SOL     OW21673   1.206   1.809   2.961  0.0385  0.0437 -0.8565
 3347SOL    HW121674   1.194   1.877   3.027  0.5431 -1.1426  0.4550
 3347SOL    HW221675   1.165   1.846   2.882  0.5714  0.2392 -1.0431
 3348SOL     OW21676   1.185   3.238   8.767  0.2323  0.3646  0.1853
 3348SOL    HW121677   1.120   3.206   8.830 -2.0810  1.6921 -1.5296
 3348SOL    HW221678   1.132   3.250   8.688 -0.6945 -1.0505  0.5802
 3349SOL     OW21679   1.382   2.849  15.338 -0.8726  0.4137 -0.2873
 3349SOL    HW121680   1.461   2.794  15.333 -2.1892 -1.6530  1.8718
 3349SOL    HW221681   1.423   2.932  15.359 -0.6854 -0.4433  2.8060
 3350SOL     OW21682   4.349   0.930   9.316  0.2328  0.1164 -0.4708
 3350SOL    HW121683   4.362   0.993   9.386 -0.8064 -0.6897  0.4428
 3350SOL    HW221684   4.348   0.981   9.235  2.5200  1.4966  0.3806
 3351SOL     OW21685   0.402   2.915   2.226  0.1360 -0.3421 -0.6930
 3351SOL    HW121686   0.406   2.889   2.318  0.2745 -0.0894 -0.6281
 3351SOL    HW221687   0.357   2.999   2.219  0.4216 -0.0244  1.2257
 3352SOL     OW21688   1.186   1.000  12.958 -0.2610 -0.4502  0.3069
 3352SOL    HW121689   1.232   0.924  12.922 -1.2138 -1.4119  1.1217
 3352SOL    HW221690   1.099   0.986  12.919  0.7852 -0.1447 -2.1157
 3353SOL     OW21691   3.583   2.255   8.848 -0.1166  0.2718  0.2410
 3353SOL    HW121692   3.557   2.193   8.916  0.0375  0.6223  0.6153
 3353SOL    HW221693   3.632   2.317   8.901  0.3678  0.3415 -0.2887
 3354SOL     OW21694   3.175   3.867   5.669  0.0178  0.1865  0.3337
 3354SOL    HW121695   3.085   3.836   5.656  0.1883  0.0760 -0.5322
 3354SOL    HW221696   3.207   3.781   5.642 -2.0384 -0.6645  0.5296
 3355SOL     OW21697   1.179   1.329   7.685 -0.3633  0.3615  0.0271
 3355SOL    HW121698   1.143   1.275   7.614  0.2455  1.8797 -1.4324
 3355SOL    HW221699   1.241   1.267   7.724 -0.0810  1.3285  1.1030
 3356SOL     OW21700   0.885   3.278   3.668 -0.6652  0.2050 -0.3118
 3356SOL    HW121701   0.875   3.373   3.674 -0.3691  0.0565  2.4668
 3356SOL    HW221702   0.890   3.258   3.761  0.4805 -1.0671 -0.6605
 3357SOL     OW21703   1.224   0.051  11.865  0.2609 -0.4746  0.1941
 3357SOL    HW121704   1.266   0.134  11.841  4.0487 -1.8408  2.2750
 3357SOL    HW221705   1.158   0.079  11.928 -1.2162 -0.9648 -1.1217
 3358SOL     OW21706   3.907   0.684   5.141  0.0018 -0.2026  0.1202
 3358SOL    HW121707   3.852   0.624   5.192  0.2964 -1.4466 -1.0196
 3358SOL    HW221708   3.900   0.765   5.192 -0.7289 -1.7952  2.6017
 3359SOL     OW21709   0.856   3.567   2.340  0.5897  0.9757 -0.2092
 3359SOL    HW121710   0.886   3.480   2.311 -0.1572  0.3670  0.8296
 3359SOL    HW221711   0.831   3.557   2.432  0.1738 -0.3946 -0.4618
 3360SOL     OW21712   2.733   2.921   1.148 -0.2018 -0.2710  0.1144
 3360SOL    HW121713   2.763   2.873   1.225  0.3771  1.3899  0.9300
 3360SOL    HW221714   2.667   2.860   1.114 -2.3640  1.5858  1.0219
 3361SOL     OW21715   0.076   4.393  16.236 -0.1077  0.1352  0.4607
 3361SOL    HW121716   0.156   4.433  16.202 -0.9159  0.6640 -0.8063
 3361SOL    HW221717   0.018   4.468  16.248  0.6543  0.6477  0.9146
 3362SOL     OW21718   1.672   2.249   8.691 -0.3903  0.2488 -0.6920
 3362SOL    HW121719   1.639   2.308   8.624 -0.7831 -0.7220 -1.3535
 3362SOL    HW221720   1.643   2.163   8.660  0.6150 -0.1380 -0.5954
 3363SOL     OW21721   1.230   1.565   7.816 -0.5891  0.1221 -0.1677
 3363SOL    HW121722   1.227   1.480   7.772  0.9830 -0.9870  1.9003
 3363SOL    HW221723   1.208   1.536   7.904  1.2971  1.4260  0.7186
 3364SOL     OW21724   1.555   2.629   7.774  0.3693  0.5726 -0.3090
 3364SOL    HW121725   1.624   2.595   7.831 -0.6593 -1.0543 -0.0478
 3364SOL    HW221726   1.589   2.718   7.773  0.8054  0.3972 -0.8163
 3365SOL     OW21727   2.600   3.417   1.158  0.2766 -0.1783 -0.0041
 3365SOL    HW121728   2.577   3.460   1.076  1.7258 -0.7025 -0.6929
 3365SOL    HW221729   2.640   3.489   1.206 -1.6435  1.9675 -1.6521
 3366SOL     OW21730   3.509   1.320   9.623  0.7940  0.1448  0.0545
 3366SOL    HW121731   3.446   1.248   9.615  2.0659 -1.0927  0.9618
 3366SOL    HW221732   3.466   1.399   9.593  1.0860  0.5834  0.7960
 3367SOL     OW21733   0.389   2.944   7.995  0.4600  0.8260 -0.2843
 3367SOL    HW121734   0.347   2.970   8.076  1.3482  1.9834 -0.1875
 3367SOL    HW221735   0.416   2.853   8.008 -2.5479 -0.4015 -2.6152
 3368SOL     OW21736   3.379   0.665   2.969  0.3562  0.3923  0.1192
 3368SOL    HW121737   3.353   0.621   2.888 -2.3449 -0.5379  1.5008
 3368SOL    HW221738   3.415   0.748   2.935  2.2413  0.1547  1.5662
 3369SOL     OW21739   3.280   4.292   6.094 -0.0045  0.3878  0.2045
 3369SOL    HW121740   3.333   4.345   6.034 -0.5372  1.0594  0.3282
 3369SOL    HW221741   3.207   4.279   6.033  0.4201 -0.4979 -0.1158
 3370SOL     OW21742   2.618   0.609  16.277 -0.5985  0.5084  0.2483
 3370SOL    HW121743   2.542   0.666  16.269 -0.3601  1.0839  2.1222
 3370SOL    HW221744   2.686   0.673  16.252 -0.7757  0.7411  0.3688
 3371SOL     OW21745   4.623   2.326   3.628  0.3193 -0.2093 -0.1187
 3371SOL    HW121746   4.528   2.321   3.632  0.2616  0.2224 -0.9419
 3371SOL    HW221747   4.645   2.277   3.708  0.5312  1.0089  0.5644
 3372SOL     OW21748   3.389   4.016   7.981 -0.5472  0.4446  0.3333
 3372SOL    HW121749   3.455   3.953   8.010 -1.0903  0.0798  0.7525
 3372SOL    HW221750   3.406   4.006   7.887  1.5071  0.2497  0.7195
 3373SOL     OW21751   0.990   2.882   5.392 -0.3421 -0.1324 -0.1348
 3373SOL    HW121752   0.941   2.941   5.449  1.1083 -0.3236  1.2972
 3373SOL    HW221753   0.932   2.806   5.398  1.0625 -1.0107  2.0257
 3374SOL     OW21754   4.720   3.653  12.529 -0.1862 -0.0613  0.0483
 3374SOL    HW121755   4.730   3.582  12.593 -0.9132  0.1760  0.4188
 3374SOL    HW221756   0.052   3.641  12.468 -0.9896  2.6953 -1.4245
 3375SOL     OW21757   3.231   2.739   8.402 -0.3212  0.5598  0.1663
 3375SOL    HW121758   3.149   2.690   8.394 -0.1381  0.3647 -0.5658
 3375SOL    HW221759   3.256   2.705   8.487 -0.7067 -2.1815 -0.8334
 3376SOL     OW21760   1.418   1.558   9.019  0.3138  0.5023 -0.3005
 3376SOL    HW121761   1.399   1.617   9.092  0.3883  0.1027  0.0412
 3376SOL    HW221762   1.465   1.493   9.070  0.9607  0.3409 -1.1068
 3377SOL     OW21763   0.318   0.740  11.586 -0.5404  0.1385  0.2556
 3377SOL    HW121764   0.401   0.727  11.540 -1.1592 -0.0616 -0.7981
 3377SOL    HW221765   0.334   0.825  11.626  0.8111  0.7731 -1.5954
 3378SOL     OW21766   4.039   3.588   2.855 -0.1420 -0.1678  0.6321
 3378SOL    HW121767   4.023   3.639   2.775 -0.1541  0.8548  1.2925
 3378SOL    HW221768   3.986   3.634   2.920  0.7367 -0.8095  1.7940
 3379SOL     OW21769   3.354   0.343   1.757 -0.0895  0.3483 -0.0354
 3379SOL    HW121770   3.270   0.296   1.753  0.7758 -1.2589  0.6015
 3379SOL    HW221771   3.389   0.309   1.675 -1.2862  1.2440 -0.9172
 3380SOL     OW21772   3.147   0.686  13.148  0.7267 -0.4169  0.3483
 3380SOL    HW121773   3.082   0.755  13.131 -1.0593 -2.0605  0.4406
 3380SOL    HW221774   3.194   0.682  13.064  2.8437  0.7918  1.4753
 3381SOL     OW21775   4.012   2.505  15.888  0.6642 -0.4199  0.3244
 3381SOL    HW121776   3.954   2.494  15.814  1.4603  0.0186 -0.3675
 3381SOL    HW221777   3.964   2.572  15.937  0.8434 -0.7429  0.9456
 3382SOL     OW21778   3.052   2.719  17.616 -0.3114  0.0980 -0.0995
 3382SOL    HW121779   2.963   2.690  17.637 -0.0564 -1.2205 -0.8516
 3382SOL    HW221780   3.090   2.631  17.618 -0.5652  0.0100  0.8528
 3383SOL     OW21781   4.578   2.099   7.835 -0.5117  0.6399  0.0150
 3383SOL    HW121782   4.660   2.144   7.856 -0.4612 -0.2434  1.7261
 3383SOL    HW221783   4.517   2.166   7.866  1.1139  2.8646 -1.5865
 3384SOL     OW21784   2.547   1.389   5.747 -0.3271 -0.2557 -0.0010
 3384SOL    HW121785   2.618   1.340   5.789 -0.4439 -3.3724 -3.4383
 3384SOL    HW221786   2.473   1.363   5.801 -1.4732  2.7048 -0.1387
 3385SOL     OW21787   0.029   3.404  11.657 -0.5808 -0.0234  0.2795
 3385SOL    HW121788   4.698   3.402  11.593  0.9892  1.5438 -1.5242
 3385SOL    HW221789   0.106   3.412  11.601 -1.3390  2.5017 -0.3999
 3386SOL     OW21790   1.282   2.533   1.245  0.2895  0.2332  0.5503
 3386SOL    HW121791   1.239   2.524   1.160  2.7146  0.3029 -0.6890
 3386SOL    HW221792   1.235   2.467   1.295  1.6469 -0.3414  1.0622
 3387SOL     OW21793   2.481   0.345   8.899 -0.1976  0.0734 -0.5468
 3387SOL    HW121794   2.406   0.299   8.862  1.4987 -2.3449 -0.9950
 3387SOL    HW221795   2.497   0.288   8.974  0.4255  0.6593 -0.2318
 3388SOL     OW21796   2.127   3.645   9.622  0.5489 -0.8964  0.1405
 3388SOL    HW121797   2.055   3.660   9.561  0.7844 -0.9684 -0.1567
 3388SOL    HW221798   2.195   3.690   9.571  0.4186 -0.4066  0.4004
 3389SOL     OW21799   0.019   4.626   7.268  0.2581  0.2463  0.1181
 3389SOL    HW121800   0.110   4.648   7.286  0.4016  1.1541 -1.7367
 3389SOL    HW221801   4.729   4.606   7.357 -1.6195 -0.8388 -0.7712
 3390SOL     OW21802   3.512   3.720   2.443  0.7805  0.2522 -0.7312
 3390SOL    HW121803   3.541   3.631   2.421 -1.7573 -0.4661 -1.1509
 3390SOL    HW221804   3.518   3.714   2.538 -0.6343 -0.6057 -0.6877
 3391SOL     OW21805   2.195   4.533   1.212 -0.5445  0.6562 -0.3840
 3391SOL    HW121806   2.140   4.468   1.255 -1.3899 -0.3889 -3.0906
 3391SOL    HW221807   2.181   4.612   1.265 -1.4861  1.1629 -1.3824
 3392SOL     OW21808   2.686   3.827  15.196 -0.4889  0.4513  0.0944
 3392SOL    HW121809   2.724   3.798  15.113 -2.8059 -1.5449 -0.2783
 3392SOL    HW221810   2.595   3.820  15.166 -0.4895 -0.9718  0.4321
 3393SOL     OW21811   2.111   0.157   2.184 -0.5302 -0.1613  0.3725
 3393SOL    HW121812   2.128   0.096   2.256 -1.3537  0.1529  0.8368
 3393SOL    HW221813   2.179   0.221   2.202 -0.8793  0.3785 -0.2258
 3394SOL     OW21814   0.737   1.183  14.713 -0.1271 -0.5848  0.0137
 3394SOL    HW121815   0.818   1.201  14.761  0.6220  1.9960 -2.2539
 3394SOL    HW221816   0.680   1.164  14.787 -0.0767  0.3773  0.2935
 3395SOL     OW21817   0.106   2.358   6.641  0.0746 -1.0743 -0.1769
 3395SOL    HW121818   0.096   2.278   6.591 -1.3893  0.5607 -2.5073
 3395SOL    HW221819   0.037   2.414   6.605  2.5906  2.9613  1.2400
 3396SOL     OW21820   2.396   0.621  16.009 -0.1733  0.5263  0.1678
 3396SOL    HW121821   2.336   0.670  15.952 -2.6996 -0.2921  2.1198
 3396SOL    HW221822   2.399   0.679  16.085 -0.3537  1.0394 -0.2149
 3397SOL     OW21823   2.659   1.190   5.902  0.8909 -0.4565  0.7699
 3397SOL    HW121824   2.578   1.153   5.938 -0.4688 -0.5861 -2.4445
 3397SOL    HW221825   2.705   1.107   5.897  1.9436  0.0168  2.8690
 3398SOL     OW21826   1.625   0.082   3.552 -0.2620 -0.5304 -0.0065
 3398SOL    HW121827   1.557   0.018   3.574 -1.6302  0.2701 -1.8565
 3398SOL    HW221828   1.700   0.023   3.566  0.2340  0.1630  0.2254
 3399SOL     OW21829   3.045   2.684   1.121 -0.7401  0.4567 -0.2149
 3399SOL    HW121830   3.000   2.768   1.108 -1.0372  0.2275 -0.6634
 3399SOL    HW221831   3.067   2.686   1.214  0.8015 -0.0262 -0.5634
 3400SOL     OW21832   4.521   4.561  16.016  0.0681  0.2231 -0.4050
 3400SOL    HW121833   4.601   4.567  16.068 -0.3439  2.6645 -0.0468
 3400SOL    HW221834   4.468   4.494  16.059  1.2125 -0.9704 -0.8645
 3401SOL     OW21835   2.759   2.851   9.958 -0.2038 -0.3454  0.0155
 3401SOL    HW121836   2.679   2.883   9.917  0.2774  0.0012 -0.6619
 3401SOL    HW221837   2.772   2.770   9.908 -2.0572 -0.6662  0.0686
 3402SOL     OW21838   1.031   1.257   6.620 -0.0311  0.9185  0.1645
 3402SOL    HW121839   1.126   1.258   6.609  0.2552 -1.9533  2.2335
 3402SOL    HW221840   0.999   1.190   6.559  0.6460  2.6429 -2.0605
 3403SOL     OW21841   4.717   4.354   7.744  0.4280  0.1740 -0.1476
 3403SOL    HW121842   0.058   4.326   7.703  0.9592 -0.1132  1.0904
 3403SOL    HW221843   4.656   4.318   7.679  0.7868 -1.6147  0.5140
 3404SOL     OW21844   2.254   4.202  11.177  0.8557  0.3982 -0.7785
 3404SOL    HW121845   2.349   4.197  11.168  0.9783 -2.6695  2.2021
 3404SOL    HW221846   2.255   4.254  11.257  2.4906  1.3855 -1.4310
 3405SOL     OW21847   3.557   0.376   2.013  0.6985  0.4643  0.6410
 3405SOL    HW121848   3.620   0.447   2.026  1.1930 -0.0630  1.0737
 3405SOL    HW221849   3.557   0.356   1.920  1.3732  2.1092  0.2944
 3406SOL     OW21850   1.110   2.889   7.820 -0.0823 -0.5228 -0.1978
 3406SOL    HW121851   1.063   2.855   7.744 -1.2379 -0.5485  0.5252
 3406SOL    HW221852   1.032   2.899   7.875  0.0432  1.1904 -0.3102
 3407SOL     OW21853   1.415   0.650   3.696  0.5459  0.3156 -0.1863
 3407SOL    HW121854   1.468   0.711   3.748  0.1679  0.4224  0.0740
 3407SOL    HW221855   1.397   0.589   3.767 -1.4290  0.8460 -0.2315
 3408SOL     OW21856   1.123   4.521   1.928  0.2700  0.1414  0.0350
 3408SOL    HW121857   1.087   4.566   2.005 -1.6313  2.1156 -1.9928
 3408SOL    HW221858   1.042   4.480   1.899 -0.2184  1.4385 -0.4448
 3409SOL     OW21859   1.614   4.180   4.110  0.7263  0.0849 -0.0049
 3409SOL    HW121860   1.638   4.121   4.182 -0.8184  0.4911  0.8288
 3409SOL    HW221861   1.628   4.134   4.027 -0.9712 -1.3770  0.5149
 3410SOL     OW21862   1.951   4.520   4.531  0.3696 -0.4796 -0.4780
 3410SOL    HW121863   2.037   4.559   4.549 -0.1143  1.0037 -1.4226
 3410SOL    HW221864   1.971   4.481   4.446  0.0341  1.0218 -1.2398
 3411SOL     OW21865   2.219   3.091  10.216  0.1248  0.7104 -0.2364
 3411SOL    HW121866   2.155   3.094  10.145 -0.4640  1.9241  0.3348
 3411SOL    HW221867   2.170   3.132  10.288  0.6401 -1.3051  1.2413
 3412SOL     OW21868   2.677   4.321  12.493 -0.3257 -0.9362  0.7915
 3412SOL    HW121869   2.632   4.397  12.455 -0.6752 -0.9701  1.1386
 3412SOL    HW221870   2.767   4.346  12.513  0.2704 -1.5467 -1.1350
 3413SOL     OW21871   1.606   2.487  15.898 -0.4478 -0.2184 -0.1122
 3413SOL    HW121872   1.643   2.532  15.974 -0.2992  1.8904 -1.4570
 3413SOL    HW221873   1.577   2.410  15.948  1.3565 -1.0228 -0.2947
 3414SOL     OW21874   2.786   2.603  12.678  0.2237 -0.6711  0.2992
 3414SOL    HW121875   2.876   2.636  12.676  1.5651 -4.3417 -0.0730
 3414SOL    HW221876   2.757   2.616  12.768  2.6882 -1.2003  1.1830
 3415SOL     OW21877   2.425   0.650  16.755  0.5681 -0.6239 -0.0876
 3415SOL    HW121878   2.455   0.725  16.806  0.4114 -1.0039  0.5656
 3415SOL    HW221879   2.507   0.625  16.711  0.4355 -1.7669  0.3234
 3416SOL     OW21880   2.410   2.359   7.256 -0.3389 -0.2787  0.0942
 3416SOL    HW121881   2.504   2.376   7.245 -0.8498  0.9672 -2.4525
 3416SOL    HW221882   2.371   2.436   7.215  0.1902  1.1178  2.2249
 3417SOL     OW21883   4.422   2.590   1.716  0.3011  0.0382  0.2259
 3417SOL    HW121884   4.364   2.522   1.682 -1.7079  1.5044  0.6431
 3417SOL    HW221885   4.443   2.561   1.805  2.1015 -1.6975 -0.7913
 3418SOL     OW21886   2.088   0.544   6.134 -0.0330 -0.3289 -0.3754
 3418SOL    HW121887   2.088   0.500   6.049 -0.6061  0.0028 -0.5500
 3418SOL    HW221888   2.064   0.633   6.110  0.4130 -0.3662 -0.9414
 3419SOL     OW21889   0.325   1.223  15.774  0.4296 -0.0899  0.2489
 3419SOL    HW121890   0.277   1.243  15.854 -1.1573 -0.5876 -0.5636
 3419SOL    HW221891   0.417   1.244  15.787  1.1617 -2.7250 -0.4965
 3420SOL     OW21892   1.117   2.576   4.262 -0.6293 -0.8458 -0.0639
 3420SOL    HW121893   1.097   2.582   4.168 -2.2575  0.2721  0.3625
 3420SOL    HW221894   1.186   2.641   4.275  1.0117 -2.5461 -0.1924
 3421SOL     OW21895   3.350   0.255   3.397  0.2550 -0.3387  0.1754
 3421SOL    HW121896   3.358   0.347   3.370 -1.9744 -0.7711 -1.8534
 3421SOL    HW221897   3.390   0.262   3.484  0.0560 -0.1652  0.2525
 3422SOL     OW21898   1.225   1.568   8.111  0.0063 -0.0947 -0.1077
 3422SOL    HW121899   1.194   1.659   8.112  2.5165  0.7782 -1.1831
 3422SOL    HW221900   1.161   1.519   8.163 -0.0892  1.5345  1.3204
 3423SOL     OW21901   0.928   2.753   6.198  0.6201 -0.3842  0.1611
 3423SOL    HW121902   0.860   2.751   6.265  0.3847  0.6921 -0.0308
 3423SOL    HW221903   0.908   2.840   6.163  0.4564 -0.5574 -0.1734
 3424SOL     OW21904   0.068   2.838   1.275  0.3779 -0.7112  0.3246
 3424SOL    HW121905   0.058   2.924   1.316 -2.3609 -1.2317  0.7106
 3424SOL    HW221906   0.120   2.796   1.344  2.4329  2.0169  0.4484
 3425SOL     OW21907   1.062   3.499   3.406 -0.1285  0.8217  0.3381
 3425SOL    HW121908   1.127   3.431   3.390 -1.7399 -1.0042  1.5816
 3425SOL    HW221909   1.089   3.526   3.494  0.6816 -0.5139  0.4949
 3426SOL     OW21910   2.947   3.855   5.218 -0.4120 -0.3109  0.0253
 3426SOL    HW121911   2.854   3.851   5.194  0.2103 -0.4548 -2.3954
 3426SOL    HW221912   2.955   3.763   5.243 -2.4965 -0.5074 -0.0364
 3427SOL     OW21913   2.277   1.258   2.484  0.4718  0.2179 -0.2302
 3427SOL    HW121914   2.353   1.255   2.426  1.5554 -0.6447  1.2109
 3427SOL    HW221915   2.298   1.215   2.567  1.9463  1.0021 -0.1956
 3428SOL     OW21916   1.370   2.686   2.583 -0.2727  0.1064  0.5898
 3428SOL    HW121917   1.387   2.622   2.515 -2.4271 -1.6243  1.6911
 3428SOL    HW221918   1.457   2.728   2.581  0.0300 -0.4902  1.2222
 3429SOL     OW21919   0.616   3.090   5.401  0.0806 -0.0655  0.5978
 3429SOL    HW121920   0.543   3.069   5.342  0.6698 -2.7298  0.8460
 3429SOL    HW221921   0.584   3.175   5.431 -1.1703 -0.2020 -0.3233
 3430SOL     OW21922   3.945   4.523  12.610 -0.4321  0.4187 -0.4352
 3430SOL    HW121923   3.869   4.541  12.666 -0.4482  1.2785 -0.7268
 3430SOL    HW221924   4.013   4.507  12.676 -1.8179 -0.8840  0.6781
 3431SOL     OW21925   1.013   2.161   9.678 -0.2523 -0.0625  0.0511
 3431SOL    HW121926   0.956   2.092   9.646  1.4515 -0.8208 -1.3416
 3431SOL    HW221927   1.085   2.151   9.616 -1.7540 -2.1861 -1.3334
 3432SOL     OW21928   3.450   2.159   8.261  0.2587 -0.1421 -0.3222
 3432SOL    HW121929   3.375   2.191   8.311 -0.2476 -0.9960 -0.5414
 3432SOL    HW221930   3.524   2.209   8.298 -0.6152  1.5560 -0.8807
 3433SOL     OW21931   2.428   3.133   4.567 -1.1676 -0.3376  0.6214
 3433SOL    HW121932   2.406   3.136   4.660  2.1749 -0.7864  1.4157
 3433SOL    HW221933   2.378   3.207   4.533 -2.3230 -1.5780 -0.3749
 3434SOL     OW21934   0.793   3.643   9.730  0.3461  0.5382 -0.7775
 3434SOL    HW121935   0.768   3.553   9.748 -1.8873  1.2741 -0.1499
 3434SOL    HW221936   0.871   3.623   9.679  0.7818 -1.2617  0.5981
 3435SOL     OW21937   2.850   4.688   7.375 -0.5057 -0.3249  0.0732
 3435SOL    HW121938   2.801   0.025   7.347 -0.3921 -0.3310 -0.1486
 3435SOL    HW221939   2.920   4.697   7.311 -1.0968  1.4578 -0.3396
 3436SOL     OW21940   1.115   0.884  11.469 -0.6826 -0.2734 -0.5948
 3436SOL    HW121941   1.185   0.935  11.428  0.5870  0.3190  2.3468
 3436SOL    HW221942   1.160   0.830  11.534  0.8201 -1.5169 -2.6643
 3437SOL     OW21943   1.604   2.521  14.696 -0.4687  0.3622  0.5013
 3437SOL    HW121944   1.689   2.484  14.675 -0.5391 -0.0904  0.9981
 3437SOL    HW221945   1.561   2.437  14.712 -1.6422  0.6735 -0.9946
 3438SOL     OW21946   3.336   2.369   5.616  0.0132  0.3092  0.2091
 3438SOL    HW121947   3.413   2.422   5.638  0.2869  0.6906 -1.6324
 3438SOL    HW221948   3.324   2.321   5.698 -0.0339  0.2393  0.1606
 3439SOL     OW21949   4.028   3.691   7.989 -0.6046 -0.6649 -0.4230
 3439SOL    HW121950   4.076   3.657   7.914 -1.8707 -1.0965 -1.0242
 3439SOL    HW221951   3.938   3.665   7.969 -1.9793  0.6692  3.9127
 3440SOL     OW21952   3.743   1.879   5.532  0.3141 -0.1644  0.2589
 3440SOL    HW121953   3.760   1.814   5.463  0.8756  1.2043 -0.9090
 3440SOL    HW221954   3.833   1.906   5.550 -0.6885  2.7609  0.8299
 3441SOL     OW21955   4.712   2.427  15.514 -0.1043 -0.0650  0.5952
 3441SOL    HW121956   4.639   2.444  15.455  0.2030  2.5768  0.9937
 3441SOL    HW221957   4.677   2.353  15.565  2.2940 -0.6632  1.4257
 3442SOL     OW21958   2.567   2.085   3.629  0.8185  0.3072  0.1731
 3442SOL    HW121959   2.608   2.127   3.553 -0.8765 -0.5208 -1.2080
 3442SOL    HW221960   2.477   2.083   3.598  0.5130  2.0235  0.9197
 3443SOL     OW21961   4.182   4.510   7.264 -0.1202 -0.0176  0.1055
 3443SOL    HW121962   4.212   4.537   7.351  3.6751 -2.8817 -0.3444
 3443SOL    HW221963   4.258   4.467   7.227 -1.0482  0.4465 -2.3363
 3444SOL     OW21964   1.661   3.048  11.708 -0.5694  0.7249  0.5924
 3444SOL    HW121965   1.623   2.985  11.646 -2.2373  0.1748  2.1770
 3444SOL    HW221966   1.666   3.127  11.654  1.0854 -0.5782 -1.1851
 3445SOL     OW21967   3.948   4.053   1.563  0.0404  0.5226  0.3436
 3445SOL    HW121968   3.976   4.016   1.480 -1.5915 -0.3317  0.1770
 3445SOL    HW221969   3.900   3.981   1.605  0.8263  0.0473  0.4434
 3446SOL     OW21970   2.221   0.295  10.544  0.3112  0.2156  0.2525
 3446SOL    HW121971   2.194   0.353  10.473 -0.3672  0.1510  0.4505
 3446SOL    HW221972   2.316   0.305  10.539  0.1563  0.8136 -1.4763
 3447SOL     OW21973   1.035   0.171   8.416  0.1809  0.1880 -0.0486
 3447SOL    HW121974   1.047   0.235   8.487  1.7142 -0.9023  0.7028
 3447SOL    HW221975   1.122   0.131   8.407 -0.0964 -0.5497  0.5097
 3448SOL     OW21976   2.661   2.364   6.522 -0.3745 -0.0634  0.3999
 3448SOL    HW121977   2.682   2.273   6.542  0.8267  0.3166  0.8992
 3448SOL    HW221978   2.595   2.363   6.453 -0.2041 -1.5458  0.2639
 3449SOL     OW21979   3.440   4.076   2.957  0.0683  0.2605  0.7232
 3449SOL    HW121980   3.433   3.988   2.994 -0.3503  0.2445  0.6003
 3449SOL    HW221981   3.479   4.062   2.871  0.7133  0.0165  1.0510
 3450SOL     OW21982   1.176   0.802  10.723  0.3199 -0.0881  0.1106
 3450SOL    HW121983   1.176   0.892  10.757 -0.2584 -0.0955  0.1266
 3450SOL    HW221984   1.204   0.765  10.807  0.0724  0.3420  0.3811
 3451SOL     OW21985   1.616   1.173   6.024  0.0374  0.1287 -0.5956
 3451SOL    HW121986   1.667   1.225   6.086  3.6636 -3.3170 -0.6501
 3451SOL    HW221987   1.527   1.199   6.046  0.9035  2.3935  0.2055
 3452SOL     OW21988   4.154   0.865   3.749 -0.3671 -0.1847 -0.5751
 3452SOL    HW121989   4.073   0.902   3.713 -0.2760 -0.0736 -0.6652
 3452SOL    HW221990   4.189   0.820   3.673  1.3889  0.3621 -0.0886
 3453SOL     OW21991   2.382   3.134  10.659  0.6458 -0.0391 -0.5767
 3453SOL    HW121992   2.445   3.120  10.729  0.7239  0.0540 -0.6289
 3453SOL    HW221993   2.434   3.105  10.584  0.1287  1.6835 -1.5924
 3454SOL     OW21994   3.304   1.489   7.576  0.1556 -0.4483 -0.4303
 3454SOL    HW121995   3.311   1.460   7.667 -0.4572  2.3358  0.4805
 3454SOL    HW221996   3.218   1.530   7.581  0.7087  0.8505 -1.8396
 3455SOL     OW21997   3.752   0.367  14.606 -0.1575  0.1500  0.3044
 3455SOL    HW121998   3.704   0.420  14.542 -0.4523 -0.9141 -0.3525
 3455SOL    HW221999   3.757   0.282  14.564 -1.1874 -0.0369  0.5473
 3456SOL     OW22000   3.021   4.375   5.953 -0.1291 -0.4779  0.3751
 3456SOL    HW122001   2.941   4.423   5.974 -0.9144 -1.3478 -0.6213
 3456SOL    HW222002   3.085   4.441   5.924  0.8066 -1.1889  0.8123
 3457SOL     OW22003   1.053   3.707   2.975  0.7992 -0.2076 -0.5228
 3457SOL    HW122004   1.046   3.636   3.039 -1.7359  0.9170  0.4672
 3457SOL    HW222005   1.148   3.705   2.962  0.9423 -1.1631  0.5886
 3458SOL     OW22006   1.975   4.339   2.325 -0.3814 -0.2341 -0.7483
 3458SOL    HW122007   2.043   4.272   2.329 -2.3628 -2.3219 -1.9937
 3458SOL    HW222008   1.914   4.297   2.384 -0.0073  1.3787  0.7910
 3459SOL     OW22009   2.248   1.131   7.930  0.2805  0.0681  0.1372
 3459SOL    HW122010   2.285   1.099   8.012  2.0267  1.7927  0.0311
 3459SOL    HW222011   2.226   1.049   7.885  1.5196 -0.7937  1.1264
 3460SOL     OW22012   1.516   0.910   1.181  0.3262  0.5003 -0.1180
 3460SOL    HW122013   1.497   0.881   1.271 -0.0071  0.2287 -0.2766
 3460SOL    HW222014   1.489   0.835   1.127  1.2365 -0.3950  0.6605
 3461SOL     OW22015   0.771   1.980   8.693 -0.5244  0.5381  0.0096
 3461SOL    HW122016   0.684   2.004   8.661 -0.8889  1.6396  1.7925
 3461SOL    HW222017   0.828   2.014   8.624  0.3351 -1.2233 -0.1372
 3462SOL     OW22018   1.595   1.845   6.872  0.6246 -0.0949  0.3293
 3462SOL    HW122019   1.515   1.894   6.892  0.2202 -0.8604  0.5899
 3462SOL    HW222020   1.633   1.889   6.796  1.8605 -0.2891  0.8389
 3463SOL     OW22021   4.570   1.310   3.493 -0.1344  0.1622 -0.5377
 3463SOL    HW122022   4.600   1.396   3.463  0.2793  0.7166  1.4757
 3463SOL    HW222023   4.570   1.252   3.416 -1.9578 -0.6707  0.1075
 3464SOL     OW22024   1.711   1.968  14.184 -0.3482  0.2635 -0.2980
 3464SOL    HW122025   1.621   1.938  14.197  0.1674 -0.8886  0.6048
 3464SOL    HW222026   1.705   1.995  14.093  0.7889 -0.7125 -0.6588
 3465SOL     OW22027   4.034   4.167   4.223 -0.2939 -0.2157 -0.5292
 3465SOL    HW122028   3.970   4.187   4.291  0.4798  0.8477 -0.1214
 3465SOL    HW222029   4.106   4.135   4.278 -1.6989 -1.5903  0.5202
 3466SOL     OW22030   4.153   3.463   6.681 -0.3273  0.1328 -0.4717
 3466SOL    HW122031   4.116   3.376   6.669 -0.4447  0.1905 -0.5280
 3466SOL    HW222032   4.133   3.497   6.594 -2.6052 -1.0217 -0.4020
 3467SOL     OW22033   0.733   3.207  14.179 -0.2883 -0.3009 -0.3183
 3467SOL    HW122034   0.790   3.132  14.196 -0.7187 -0.6771 -0.5393
 3467SOL    HW222035   0.690   3.171  14.102 -2.2222  0.2277  0.5161
 3468SOL     OW22036   0.283   0.801   9.648  0.2974 -0.0770 -0.1095
 3468SOL    HW122037   0.308   0.757   9.729 -1.1294 -0.2546  0.2410
 3468SOL    HW222038   0.189   0.785   9.638  0.6618 -0.6728 -2.5628
 3469SOL     OW22039   2.176   3.626   9.883  0.3660 -0.4316 -0.2581
 3469SOL    HW122040   2.151   3.657   9.796  1.0617 -0.7409 -0.5665
 3469SOL    HW222041   2.259   3.672   9.892 -0.0537 -0.1247  1.8714
 3470SOL     OW22042   0.646   0.625   5.958 -0.5095  0.2608  0.6272
 3470SOL    HW122043   0.656   0.568   6.034 -0.4703 -2.1448 -1.1797
 3470SOL    HW222044   0.676   0.700   6.008 -2.1272  0.9265  0.5862
 3471SOL     OW22045   0.172   2.806   2.845  0.4779  0.2372 -0.3716
 3471SOL    HW122046   0.255   2.853   2.832  0.6367 -0.2795 -1.1870
 3471SOL    HW222047   0.108   2.876   2.853  0.0517 -0.0397 -1.3957
 3472SOL     OW22048   3.034   1.654   7.927 -0.2920  0.1759  0.4221
 3472SOL    HW122049   3.044   1.671   8.021  3.0823  1.7634 -0.2317
 3472SOL    HW222050   3.127   1.655   7.905 -0.2955  0.9835  0.4474
 3473SOL     OW22051   3.569   1.315   8.717  0.1243 -0.4649 -0.3267
 3473SOL    HW122052   3.525   1.259   8.653 -1.1509  0.2426 -0.0683
 3473SOL    HW222053   3.657   1.320   8.680  0.7663  2.2482  1.6053
 3474SOL     OW22054   4.476   1.294   8.523  0.1564 -0.5184 -0.2062
 3474SOL    HW122055   4.467   1.200   8.506  1.5354 -0.7011  0.0373
 3474SOL    HW222056   4.446   1.327   8.439 -2.2642 -1.7047  0.1942
 3475SOL     OW22057   0.643   2.653   3.051  0.2850 -0.2122 -0.3509
 3475SOL    HW122058   0.603   2.641   3.138  1.7129  1.4091  0.5252
 3475SOL    HW222059   0.643   2.748   3.038 -0.2611  0.0241  1.2971
 3476SOL     OW22060   0.576   0.372   3.362 -0.7430  0.3522 -0.1902
 3476SOL    HW122061   0.541   0.342   3.446 -0.7218 -3.2200 -1.4554
 3476SOL    HW222062   0.666   0.395   3.383  0.0875 -1.5755 -1.6440
 3477SOL     OW22063   3.432   0.684   7.461  0.3333 -0.3863 -0.1752
 3477SOL    HW122064   3.481   0.602   7.465 -0.7886 -1.0866 -0.7214
 3477SOL    HW222065   3.485   0.749   7.508 -0.4105  0.2122 -0.1633
 3478SOL     OW22066   0.302   1.907   6.026 -0.4567  0.4372 -0.3780
 3478SOL    HW122067   0.264   1.892   6.112  0.2601  0.5848 -0.0334
 3478SOL    HW222068   0.249   1.844   5.978 -2.8335  0.5251  2.1186
 3479SOL     OW22069   1.840   3.238  14.363  0.1494  0.4774  0.7696
 3479SOL    HW122070   1.766   3.298  14.374 -0.7226 -0.6076  0.8180
 3479SOL    HW222071   1.862   3.252  14.271 -0.0068  0.7438  0.7739
 3480SOL     OW22072   4.471   2.355   4.151 -0.4892 -0.8982  0.8829
 3480SOL    HW122073   4.493   2.403   4.230  0.7180  0.6109 -0.3691
 3480SOL    HW222074   4.541   2.393   4.098  0.1761 -1.3597  1.4399
 3481SOL     OW22075   3.674   4.193   0.528 -0.4604  0.8230 -0.3805
 3481SOL    HW122076   3.657   4.154   0.614 -0.4638 -0.5532 -1.0051
 3481SOL    HW222077   3.758   4.233   0.552 -0.1422 -0.0676 -0.0310
 3482SOL     OW22078   3.748   0.627  12.744  0.1592 -0.0713 -0.0887
 3482SOL    HW122079   3.684   0.559  12.722  0.1981  0.3992 -1.6676
 3482SOL    HW222080   3.743   0.644  12.838 -3.4495 -0.8498 -0.1306
 3483SOL     OW22081   4.596   1.350   1.479  0.2937 -0.1836 -0.2197
 3483SOL    HW122082   4.565   1.331   1.391 -1.4560  0.1825  0.3160
 3483SOL    HW222083   4.538   1.295   1.532  1.0126 -0.6734  0.0498
 3484SOL     OW22084   1.937   4.313   6.226 -0.3971 -0.2221 -0.4601
 3484SOL    HW122085   2.012   4.369   6.247 -0.3426 -0.6853  0.5620
 3484SOL    HW222086   1.885   4.367   6.166 -3.1181 -2.0121  0.2832
 3485SOL     OW22087   2.513   1.346   3.843  0.4440  0.1803  0.0302
 3485SOL    HW122088   2.523   1.251   3.836 -2.2435  0.0570 -2.0411
 3485SOL    HW222089   2.423   1.367   3.820  0.3887  0.4849  0.5186
 3486SOL     OW22090   2.322   4.394   7.111  0.0095  0.8285 -0.6989
 3486SOL    HW122091   2.362   4.351   7.187 -0.7411 -0.9124 -1.2888
 3486SOL    HW222092   2.396   4.443   7.076  2.1219 -0.1362  2.4219
 3487SOL     OW22093   4.350   4.478  12.548 -0.1225  0.3198  0.0813
 3487SOL    HW122094   4.360   4.390  12.512  0.5556  0.7045 -0.6909
 3487SOL    HW222095   4.411   4.532  12.496  0.1326 -1.6442 -1.6517
 3488SOL     OW22096   2.987   3.367   6.982 -0.5981 -0.3669 -1.1050
 3488SOL    HW122097   2.929   3.385   6.908 -0.9239 -2.0636 -1.2714
 3488SOL    HW222098   3.054   3.314   6.938  0.7320 -2.0215  2.9249
 3489SOL     OW22099   0.052   1.333  15.581 -0.1979 -0.0133  0.0318
 3489SOL    HW122100   0.128   1.387  15.605 -0.7505  0.3330  1.0028
 3489SOL    HW222101   0.023   1.310  15.669 -0.7302  1.4791  0.2545
 3490SOL     OW22102   0.582   2.570   6.475  0.3239  0.0498  0.4256
 3490SOL    HW122103   0.612   2.602   6.559  0.4042 -1.5004  0.9820
 3490SOL    HW222104   0.504   2.529   6.512  0.3338 -0.6312 -0.2949
 3491SOL     OW22105   2.664   2.368   5.516  0.1932  0.3914 -0.1100
 3491SOL    HW122106   2.648   2.298   5.452  0.0400 -0.1456  0.5151
 3491SOL    HW222107   2.748   2.332   5.543 -0.8165 -2.6250 -0.9944
 3492SOL     OW22108   0.609   1.713  12.179 -0.1693 -0.4104 -0.0650
 3492SOL    HW122109   0.606   1.720  12.084  2.0584 -0.1634 -0.1150
 3492SOL    HW222110   0.543   1.645  12.187  0.2480 -0.7031  1.0042
 3493SOL     OW22111   2.226   1.458   8.734 -0.2109 -0.1496  0.5384
 3493SOL    HW122112   2.252   1.548   8.758  2.6354 -0.6062 -0.8305
 3493SOL    HW222113   2.292   1.413   8.786  0.5149 -0.1999 -0.4267
 3494SOL     OW22114   4.641   2.777   7.660 -0.3324  0.4558 -0.1840
 3494SOL    HW122115   4.550   2.747   7.663 -0.5592  1.1915  0.2392
 3494SOL    HW222116   4.680   2.754   7.744  0.7641  1.5764 -0.3839
 3495SOL     OW22117   3.757   3.273   6.016  0.7071  0.2148 -0.3000
 3495SOL    HW122118   3.749   3.339   6.084 -0.1567 -2.9496  2.6874
 3495SOL    HW222119   3.702   3.201   6.048  1.4490 -0.3700 -0.3297
 3496SOL     OW22120   0.349   3.888   5.025  0.0992 -0.0946 -0.1638
 3496SOL    HW122121   0.287   3.818   5.005 -0.6776 -0.2370  2.7367
 3496SOL    HW222122   0.305   3.948   5.085  0.5751  0.2839 -0.1904
 3497SOL     OW22123   2.950   0.519   5.939 -0.0257 -0.3890  0.6868
 3497SOL    HW122124   2.927   0.441   5.888  0.5098 -0.1599  0.0929
 3497SOL    HW222125   3.027   0.487   5.987  0.0043  0.4538  1.2003
 3498SOL     OW22126   0.319   2.789   4.423 -0.1356 -0.1013  0.8067
 3498SOL    HW122127   0.412   2.770   4.427  0.1129  0.3313 -3.5184
 3498SOL    HW222128   0.326   2.878   4.458  1.9451 -0.0944  0.3790
 3499SOL     OW22129   1.690   3.925   1.733 -0.3471  0.2598 -0.1872
 3499SOL    HW122130   1.650   3.955   1.652 -0.0121  0.4197 -0.2956
 3499SOL    HW222131   1.615   3.926   1.792 -0.5063  2.2623 -0.4467
 3500SOL     OW22132   1.923   1.178   8.403  0.6171 -0.1392 -0.0487
 3500SOL    HW122133   1.985   1.222   8.461  1.0463 -0.4980 -0.2368
 3500SOL    HW222134   1.844   1.171   8.457  0.6467  0.4379  0.0700
 3501SOL     OW22135   1.730   0.611   4.583 -0.5352 -0.0276  0.2735
 3501SOL    HW122136   1.654   0.669   4.572  0.1464  0.9485  0.7419
 3501SOL    HW222137   1.710   0.543   4.519 -0.7134  0.6677 -0.4145
 3502SOL     OW22138   2.587   1.719  16.386  0.4688  0.9243 -0.2390
 3502SOL    HW122139   2.639   1.772  16.325  0.6246 -0.6552 -1.4816
 3502SOL    HW222140   2.644   1.728  16.462  1.1054  0.7168 -0.6956
 3503SOL     OW22141   4.297   0.315   0.715 -0.4808 -0.0680 -0.0863
 3503SOL    HW122142   4.275   0.372   0.788 -1.6293  1.6067 -1.7427
 3503SOL    HW222143   4.377   0.353   0.679 -0.1455 -0.4315  0.2648
 3504SOL     OW22144   2.964   1.602   8.441  0.1088  0.2748 -0.0219
 3504SOL    HW122145   2.918   1.521   8.462  1.4015 -0.2256  0.8740
 3504SOL    HW222146   3.054   1.571   8.446  0.6802  2.0551  0.7810
 3505SOL     OW22147   1.045   1.003   2.380 -0.3952 -0.3194  0.2737
 3505SOL    HW122148   1.100   0.925   2.390 -0.2947 -0.1386  1.1771
 3505SOL    HW222149   1.106   1.057   2.331 -0.1445  1.7335  2.8568
 3506SOL     OW22150   0.843   0.216   2.051  0.2071 -0.2296 -0.2359
 3506SOL    HW122151   0.749   0.200   2.061 -0.1000  0.5118 -1.9568
 3506SOL    HW222152   0.843   0.234   1.957 -0.2593 -0.0615 -0.2043
 3507SOL     OW22153   2.151   2.330   2.928  0.2224 -0.6971  0.3444
 3507SOL    HW122154   2.098   2.256   2.958  0.2244  0.1893  2.5547
 3507SOL    HW222155   2.142   2.321   2.833  0.5583  0.4711  0.1976
 3508SOL     OW22156   4.254   2.328   5.991  0.1387 -0.1021 -0.4686
 3508SOL    HW122157   4.305   2.360   5.916 -0.2640  1.0224 -0.2505
 3508SOL    HW222158   4.172   2.358   5.953 -0.8477 -0.5454  1.3500
 3509SOL     OW22159   1.497   0.440  11.052  0.4337 -0.0489 -0.0675
 3509SOL    HW122160   1.442   0.367  11.026  0.4399  0.0588 -0.3882
 3509SOL    HW222161   1.575   0.393  11.080 -0.6994 -1.6996  0.3150
 3510SOL     OW22162   3.428   1.190   5.941 -0.7111 -0.1860 -0.0785
 3510SOL    HW122163   3.456   1.099   5.933 -2.1475 -0.6771  0.5536
 3510SOL    HW222164   3.497   1.228   5.995 -0.9411  0.9503 -0.5694
 3511SOL     OW22165   1.250   3.916   3.606 -0.3907  0.3689 -0.0952
 3511SOL    HW122166   1.155   3.926   3.600 -0.8647 -2.0294  2.9735
 3511SOL    HW222167   1.265   3.875   3.691 -0.1030 -0.6137 -0.6200
 3512SOL     OW22168   3.209   0.485  12.594 -0.0395 -0.3376 -0.0842
 3512SOL    HW122169   3.138   0.493  12.531 -1.4544 -0.6688  1.4831
 3512SOL    HW222170   3.200   0.560  12.653  0.4694  0.3962 -0.9486
 3513SOL     OW22171   2.148   0.226   5.081  0.1150 -0.3546  0.4735
 3513SOL    HW122172   2.218   0.199   5.141  1.6917  0.2000 -1.1110
 3513SOL    HW222173   2.184   0.218   4.993 -3.2613  0.2021 -0.9576
 3514SOL     OW22174   3.047   4.703   3.785 -0.1294  0.3768 -0.3594
 3514SOL    HW122175   2.994   4.692   3.707  0.3717 -2.2016 -0.3331
 3514SOL    HW222176   3.071   0.054   3.771  0.5002  0.2198 -0.3256
 3515SOL     OW22177   4.147   0.916   2.629 -0.2006  0.4698  0.1657
 3515SOL    HW122178   4.121   0.934   2.539  2.4175  0.3674 -0.6157
 3515SOL    HW222179   4.228   0.967   2.635  0.4974 -0.4806 -1.1256
 3516SOL     OW22180   1.300   0.628   6.876  0.7463  0.3633 -0.4978
 3516SOL    HW122181   1.227   0.673   6.834 -2.1143 -1.6758  2.2595
 3516SOL    HW222182   1.264   0.592   6.957  2.0849  0.9681  0.3572
 3517SOL     OW22183   2.615   4.448   8.369 -0.5349  0.3056 -0.3330
 3517SOL    HW122184   2.705   4.417   8.362 -0.3827  0.6326  0.2324
 3517SOL    HW222185   2.620   4.542   8.381 -0.5901  0.2200  0.3226
 3518SOL     OW22186   2.908   2.069   1.686 -0.4262  0.3230  0.6814
 3518SOL    HW122187   2.894   2.085   1.593 -0.7444  0.3646  0.7354
 3518SOL    HW222188   2.879   1.977   1.689  0.1250  0.1027 -0.8109
 3519SOL     OW22189   0.456   3.386   0.621  0.4671  0.5475  0.2592
 3519SOL    HW122190   0.420   3.439   0.692  0.0602 -0.5550  0.8752
 3519SOL    HW222191   0.428   3.431   0.541 -0.0968  0.6674  0.5227
 3520SOL     OW22192   3.099   4.286   0.006 -0.4773 -0.2825  0.2894
 3520SOL    HW122193   3.013   4.295   0.046 -0.3581 -1.6590  0.8785
 3520SOL    HW222194   3.099   4.341  17.688  0.6122 -0.1531  0.3718
 3521SOL     OW22195   0.478   1.834   7.875 -0.2477  0.3278 -0.2524
 3521SOL    HW122196   0.426   1.767   7.831  0.4449 -0.4432  0.1193
 3521SOL    HW222197   0.455   1.807   7.964  1.0307  0.6230  0.1549
 3522SOL     OW22198   2.819   2.578  10.913  0.1593 -0.5722 -0.0705
 3522SOL    HW122199   2.783   2.546  10.996 -0.8846  0.1439 -0.2557
 3522SOL    HW222200   2.773   2.661  10.907  2.3157  0.6014 -0.1383
 3523SOL     OW22201   3.322   1.691   7.172 -0.2493  0.1229  0.0031
 3523SOL    HW122202   3.373   1.673   7.251 -0.8770  0.0066  0.3790
 3523SOL    HW222203   3.295   1.601   7.151 -0.3842 -0.4679  2.7507
 3524SOL     OW22204   2.401   3.486   9.129 -0.3954  0.1293 -0.5044
 3524SOL    HW122205   2.413   3.576   9.161 -2.7253  0.1011  0.4271
 3524SOL    HW222206   2.339   3.462   9.198  4.2892 -1.6382  3.1082
 3525SOL     OW22207   3.329   4.640  12.692 -0.0512 -0.3509 -0.4594
 3525SOL    HW122208   3.421   4.666  12.685 -0.2580  0.3243 -0.6240
 3525SOL    HW222209   3.330   4.546  12.675 -1.7409 -0.5885  0.8024
 3526SOL     OW22210   1.060   1.207   4.887  0.5991 -0.5181 -0.0984
 3526SOL    HW122211   1.041   1.151   4.963  3.2879 -0.7712  0.3690
 3526SOL    HW222212   1.073   1.134   4.827 -0.9523  0.9433 -2.2123
 3527SOL     OW22213   3.952   2.945   8.593  0.0785 -0.3053  0.7215
 3527SOL    HW122214   3.942   2.969   8.685  0.2865 -0.3497  0.7553
 3527SOL    HW222215   4.036   2.990   8.586  0.2525 -0.8384 -0.7141
 3528SOL     OW22216   2.094   3.406  11.707 -0.6223  0.1070  0.3196
 3528SOL    HW122217   2.037   3.352  11.762 -0.4678 -0.8984 -0.5196
 3528SOL    HW222218   2.044   3.402  11.626 -0.1746 -1.1349  0.1026
 3529SOL     OW22219   1.907   4.169   1.008 -0.4003  0.0711  0.4096
 3529SOL    HW122220   1.986   4.138   1.050  0.4147  0.0163 -1.1441
 3529SOL    HW222221   1.904   4.258   1.043  1.7130  0.7176 -1.0606
 3530SOL     OW22222   1.917   3.194   1.388 -0.0725 -0.5092  0.2604
 3530SOL    HW122223   1.847   3.214   1.326  1.3638  1.7763 -0.6585
 3530SOL    HW222224   1.988   3.167   1.329 -0.2752  2.0837 -1.1851
 3531SOL     OW22225   0.202   0.799   7.411 -0.7681  0.1091 -0.4666
 3531SOL    HW122226   0.202   0.810   7.316 -0.1252 -0.4150 -0.5263
 3531SOL    HW222227   0.280   0.747   7.430 -0.3499 -0.0092 -2.4939
 3532SOL     OW22228   0.071   0.715   2.589 -0.6127 -0.3603  0.2865
 3532SOL    HW122229   0.007   0.669   2.644  0.4120 -0.2342  1.5833
 3532SOL    HW222230   0.031   0.798   2.565  2.3256  1.2227  0.8405
 3533SOL     OW22231   0.413   4.738   7.178  0.0400 -0.1151  0.2642
 3533SOL    HW122232   0.444   4.696   7.097 -0.2438  1.2434 -0.5503
 3533SOL    HW222233   0.458   0.081   7.169 -0.2001  0.0371  0.4795
 3534SOL     OW22234   4.418   2.059   3.540 -0.7970  0.2454 -0.3985
 3534SOL    HW122235   4.465   2.081   3.460 -0.4632  1.1366  0.0324
 3534SOL    HW222236   4.405   2.143   3.584 -0.4994 -0.6781  1.4584
 3535SOL     OW22237   0.555   3.513   1.995 -0.6401  0.4122 -0.0054
 3535SOL    HW122238   0.650   3.523   1.985 -0.4561 -0.6049  0.7183
 3535SOL    HW222239   0.551   3.418   1.985 -0.5609  0.4113 -0.0335
 3536SOL     OW22240   1.558   3.042   9.946  0.0689  0.1008  0.1949
 3536SOL    HW122241   1.513   3.007   9.869  0.6773 -0.4709  0.1029
 3536SOL    HW222242   1.602   3.120   9.910  0.3901  1.1213  2.8474
 3537SOL     OW22243   4.304   0.515   7.841  0.1292  0.3093 -0.1007
 3537SOL    HW122244   4.228   0.545   7.890  0.7948  0.2722  0.9746
 3537SOL    HW222245   4.357   0.478   7.912  0.8909  0.8014 -0.4133
 3538SOL     OW22246   3.414   3.343  12.492  0.3092 -0.2703  0.0087
 3538SOL    HW122247   3.354   3.376  12.425  0.1846 -0.7705 -0.1270
 3538SOL    HW222248   3.494   3.351  12.439  0.6856 -4.4595 -0.0688
 3539SOL     OW22249   3.158   2.935   4.021  0.4760 -0.0313  0.3194
 3539SOL    HW122250   3.069   2.955   3.991  1.2365  0.3906 -1.7170
 3539SOL    HW222251   3.191   2.898   3.938  0.0760 -1.8019  0.9512
 3540SOL     OW22252   2.265   4.331  14.662 -0.7537  0.2609  0.4383
 3540SOL    HW122253   2.253   4.261  14.726  0.0085 -2.1171 -1.9861
 3540SOL    HW222254   2.277   4.273  14.587  3.0554  0.6006  0.7487
 3541SOL     OW22255   1.964   3.300   6.108  0.3045  0.2014  0.6834
 3541SOL    HW122256   1.885   3.267   6.065 -0.0026  1.2203  0.4608
 3541SOL    HW222257   1.996   3.212   6.130 -1.5775 -0.5358  0.4523
 3542SOL     OW22258   3.374   2.365   4.099 -0.2861 -0.5828  0.0155
 3542SOL    HW122259   3.370   2.318   4.183 -1.5692  0.4396  0.5367
 3542SOL    HW222260   3.445   2.318   4.056  0.6456  0.2223  0.6793
 3543SOL     OW22261   1.347   4.208   6.080  0.2202  0.7245  0.0480
 3543SOL    HW122262   1.314   4.235   6.166 -1.0174  2.0007 -0.8204
 3543SOL    HW222263   1.402   4.283   6.055  1.3177 -0.8135 -2.1092
 3544SOL     OW22264   1.713   0.459  12.980  0.5855  0.4326  0.1303
 3544SOL    HW122265   1.761   0.483  12.901  0.8605 -0.4693  0.0276
 3544SOL    HW222266   1.625   0.435  12.952  0.1966 -0.9194  2.4434
 3545SOL     OW22267   4.377   1.860  16.749  0.0151  0.1126  0.0074
 3545SOL    HW122268   4.339   1.794  16.808  2.5072 -0.4758  0.9369
 3545SOL    HW222269   4.456   1.823  16.710 -1.5712 -2.0572 -1.1664
 3546SOL     OW22270   3.351   1.929  12.381 -0.2431  0.1299 -0.2777
 3546SOL    HW122271   3.345   1.835  12.365  1.8117  0.1223 -1.0051
 3546SOL    HW222272   3.281   1.954  12.441 -0.5980 -2.7100  0.5020
 3547SOL     OW22273   1.666   4.181   5.945  0.1965 -0.3235 -0.5212
 3547SOL    HW122274   1.754   4.218   5.950 -1.0154  2.4967  0.0944
 3547SOL    HW222275   1.620   4.245   5.999 -0.7437 -0.8186 -0.7411
 3548SOL     OW22276   3.187   3.973   6.907 -0.2959  0.0427  0.1438
 3548SOL    HW122277   3.154   3.910   6.970  0.9827 -0.2421  0.5340
 3548SOL    HW222278   3.106   3.982   6.856  0.2400  1.6960 -0.4453
 3549SOL     OW22279   1.508   0.810   5.271 -0.4403 -0.1112  0.1921
 3549SOL    HW122280   1.551   0.847   5.194 -0.5702 -2.0423 -0.8158
 3549SOL    HW222281   1.564   0.738   5.300  1.9219  1.2317 -1.0811
 3550SOL     OW22282   1.780   2.152   7.324  0.1353 -0.5413  0.0382
 3550SOL    HW122283   1.687   2.148   7.302  0.2432  2.3807 -0.9152
 3550SOL    HW222284   1.821   2.082   7.274  0.7603  1.4920 -2.2876
 3551SOL     OW22285   0.603   4.241   5.591  0.2807  0.2603 -0.0769
 3551SOL    HW122286   0.577   4.169   5.532 -0.4573  0.6625 -0.2416
 3551SOL    HW222287   0.587   4.195   5.674  2.1650 -0.3937 -0.0635
 3552SOL     OW22288   3.888   4.341   7.959  0.0907 -0.0595 -0.0892
 3552SOL    HW122289   3.812   4.358   7.903 -0.8209 -0.4325  1.0579
 3552SOL    HW222290   3.847   4.317   8.042  3.0795 -0.8846  1.1406
 3553SOL     OW22291   3.270   2.743   1.914 -0.5035  0.3623 -0.0980
 3553SOL    HW122292   3.301   2.768   1.827  0.1876  0.7206  0.2511
 3553SOL    HW222293   3.346   2.773   1.963 -0.2810 -1.1237  0.4785
 3554SOL     OW22294   2.337   3.182   6.308  1.0337 -0.1017  0.1639
 3554SOL    HW122295   2.379   3.246   6.250  1.4478  0.1743  0.7738
 3554SOL    HW222296   2.415   3.147   6.350  0.1758 -0.5956  1.3227
 3555SOL     OW22297   0.893   2.470   3.166  0.1583  0.0033  0.7317
 3555SOL    HW122298   0.866   2.420   3.243  2.7779 -2.4813  0.0180
 3555SOL    HW222299   0.970   2.418   3.144 -0.4805 -0.5183 -0.2718
 3556SOL     OW22300   4.165   3.864  15.030 -0.1661 -0.2760 -0.3825
 3556SOL    HW122301   4.110   3.812  15.089 -0.9204  1.3348  0.3468
 3556SOL    HW222302   4.137   3.954  15.048 -0.8528 -0.6321  0.3328
 3557SOL     OW22303   4.396   2.084   4.167 -0.1487  0.3250  0.1835
 3557SOL    HW122304   4.383   2.074   4.262 -1.6546 -2.9578 -0.3665
 3557SOL    HW222305   4.425   2.175   4.162 -0.3060  0.4007  0.5859
 3558SOL     OW22306   2.567   1.550   1.119  0.1412 -0.6200  0.0520
 3558SOL    HW122307   2.643   1.566   1.063  1.0517  1.7703  2.0157
 3558SOL    HW222308   2.543   1.465   1.081 -0.8399 -1.4779  2.5948
 3559SOL     OW22309   4.133   2.066   8.698  0.1561 -0.7814  0.7370
 3559SOL    HW122310   4.168   1.990   8.651 -1.4112  0.2678 -2.1140
 3559SOL    HW222311   4.210   2.099   8.744 -1.4273  0.5937  2.3537
 3560SOL     OW22312   0.864   1.546   2.165 -0.6989  0.2137  0.7970
 3560SOL    HW122313   0.837   1.497   2.087  0.1289  1.4111 -0.2545
 3560SOL    HW222314   0.956   1.519   2.168  0.2022  2.9499 -2.0449
 3561SOL     OW22315   3.940   1.808   3.257  0.3179  0.7085  0.4037
 3561SOL    HW122316   3.954   1.902   3.263  1.1033  0.6187 -0.0678
 3561SOL    HW222317   3.887   1.787   3.334  0.1608 -1.3124 -0.2413
 3562SOL     OW22318   4.529   2.165  11.236 -0.0932  0.5317 -0.1561
 3562SOL    HW122319   4.448   2.114  11.229 -1.3132  2.1466  2.1204
 3562SOL    HW222320   4.524   2.199  11.325 -1.1169  0.7820 -0.3125
 3563SOL     OW22321   4.065   0.584   1.926  0.1274  0.5466 -0.4232
 3563SOL    HW122322   4.094   0.639   1.853 -0.6551 -2.8058 -3.2909
 3563SOL    HW222323   4.016   0.508   1.893 -0.7787  0.6339  0.7301
 3564SOL     OW22324   1.340   4.522   0.794 -0.0915 -0.4418  0.2833
 3564SOL    HW122325   1.259   4.473   0.777 -0.1023 -0.3293  0.0086
 3564SOL    HW222326   1.366   4.550   0.707 -0.6922  0.4826  0.3947
 3565SOL     OW22327   0.024   1.177   6.231  0.2853 -0.0698 -0.1931
 3565SOL    HW122328   0.007   1.089   6.265 -0.8561  0.6206  1.0006
 3565SOL    HW222329   0.040   1.231   6.309  0.9180  2.2212 -1.9347
 3566SOL     OW22330   0.172   0.747  11.019  0.5986 -0.1969 -0.2141
 3566SOL    HW122331   0.108   0.737  10.949  0.0724  1.1708  0.0655
 3566SOL    HW222332   0.113   0.778  11.087  2.3245  2.8744 -0.1325
 3567SOL     OW22333   2.554   0.769   5.742 -0.0043  0.1234  0.3750
 3567SOL    HW122334   2.634   0.800   5.785  0.8808 -0.6764 -0.6797
 3567SOL    HW222335   2.557   0.834   5.671  2.1512  1.1268  1.3902
 3568SOL     OW22336   0.512   0.234   7.121  0.3330 -0.2812  0.2899
 3568SOL    HW122337   0.581   0.232   7.188  0.3804  0.3258  0.2590
 3568SOL    HW222338   0.557   0.269   7.044  0.2980 -1.0160 -0.0632
 3569SOL     OW22339   0.963   0.362   7.688  0.1133  0.0334  0.5697
 3569SOL    HW122340   1.054   0.376   7.714  0.4562 -0.5561 -0.3071
 3569SOL    HW222341   0.921   0.366   7.774  0.0671 -0.5096  0.5720
 3570SOL     OW22342   1.776   3.273   7.246 -0.1180  0.3493  0.1249
 3570SOL    HW122343   1.803   3.256   7.155  0.0064  0.0400  0.2181
 3570SOL    HW222344   1.807   3.363   7.254 -0.3509  0.5962 -1.7383
 3571SOL     OW22345   0.599   4.316  17.352 -0.8966  0.2008 -0.3182
 3571SOL    HW122346   0.683   4.348  17.385 -1.4488  3.2520 -1.9252
 3571SOL    HW222347   0.631   4.260  17.281  0.7602  0.6727  0.0689
 3572SOL     OW22348   1.356   3.851   7.600  0.3098 -1.1728 -0.7002
 3572SOL    HW122349   1.426   3.794   7.630 -1.3665 -1.1150  3.3468
 3572SOL    HW222350   1.345   3.909   7.676 -1.2834 -1.2272 -0.8794
 3573SOL     OW22351   3.033   2.307   6.806 -0.5353 -0.1458 -0.2594
 3573SOL    HW122352   3.047   2.267   6.720 -0.9335  0.0945 -0.4352
 3573SOL    HW222353   2.947   2.274   6.831 -0.8573  0.9620  0.0781
 3574SOL     OW22354   1.115   0.523   5.479  0.2313 -0.2942 -0.4128
 3574SOL    HW122355   1.128   0.451   5.417 -1.2781 -0.6215 -0.3483
 3574SOL    HW222356   1.204   0.545   5.506 -0.4014  1.8879 -0.1593
 3575SOL     OW22357   4.544   0.828   9.559  0.0213  0.1290  0.2227
 3575SOL    HW122358   4.514   0.772   9.489 -3.1157  1.3417  0.5960
 3575SOL    HW222359   4.504   0.791   9.638  1.7298 -0.7468  0.6632
 3576SOL     OW22360   2.430   1.282   4.320 -0.2723 -0.3486  0.4063
 3576SOL    HW122361   2.436   1.189   4.344  1.0534 -0.3011  0.2936
 3576SOL    HW222362   2.510   1.293   4.268 -0.8206 -0.0039 -0.3612
 3577SOL     OW22363   2.305   2.911   8.707 -0.0102  0.4939 -0.1303
 3577SOL    HW122364   2.371   2.864   8.656 -1.3872 -0.5343 -0.9722
 3577SOL    HW222365   2.311   3.003   8.683  0.1794 -0.5488 -4.0314
 3578SOL     OW22366   1.566   1.487   5.549 -0.4633 -0.3770  0.3969
 3578SOL    HW122367   1.611   1.404   5.565 -0.0112 -0.2267 -0.1188
 3578SOL    HW222368   1.584   1.506   5.458 -1.1787 -0.4385  0.2418
 3579SOL     OW22369   2.253   0.415  16.096 -0.2635  0.1317 -0.3774
 3579SOL    HW122370   2.200   0.419  16.016 -0.0711  1.1105 -0.4566
 3579SOL    HW222371   2.309   0.492  16.086  1.0729 -0.8460 -0.3373
 3580SOL     OW22372   2.948   2.683   5.933 -0.5016  0.1384  0.6901
 3580SOL    HW122373   2.932   2.735   5.854  0.1909 -1.4274 -0.4664
 3580SOL    HW222374   2.886   2.611   5.920  1.5821 -1.4674 -0.3454
 3581SOL     OW22375   2.291   1.176  15.143 -0.2620  0.1768 -0.7240
 3581SOL    HW122376   2.259   1.148  15.057  2.0232 -0.8302 -1.2521
 3581SOL    HW222377   2.280   1.270  15.153 -0.5171 -0.0500  1.1557
 3582SOL     OW22378   2.030   3.678   6.019 -0.2078 -0.1627  0.0576
 3582SOL    HW122379   2.027   3.734   5.941 -0.7596 -1.0422 -0.5471
 3582SOL    HW222380   2.055   3.590   5.991 -0.0450 -0.3557  0.7985
 3583SOL     OW22381   1.525   3.852   5.908  0.2050 -0.1362  0.1768
 3583SOL    HW122382   1.551   3.918   5.973  0.3803  2.0652 -2.1139
 3583SOL    HW222383   1.532   3.777   5.967 -1.4692  1.0088  1.8347
 3584SOL     OW22384   1.977   2.020   2.716  0.0437 -1.0513  0.1796
 3584SOL    HW122385   1.887   1.991   2.731 -0.2059 -0.2617  0.1909
 3584SOL    HW222386   2.024   1.937   2.709  2.1491  0.2088 -0.6010
 3585SOL     OW22387   2.644   1.150   4.624 -0.6215 -0.3170  0.2211
 3585SOL    HW122388   2.597   1.107   4.552  4.4975 -2.9629 -1.5720
 3585SOL    HW222389   2.594   1.115   4.696  0.1605  0.9965  1.4105
 3586SOL     OW22390   2.753   3.175   5.994  0.1151 -0.2361 -0.1529
 3586SOL    HW122391   2.751   3.271   5.991  0.3191 -0.1936  1.0596
 3586SOL    HW222392   2.784   3.165   6.084 -0.1820  0.4031  0.0224
 3587SOL     OW22393   2.058   2.355   7.231  0.1401 -0.3512  0.3012
 3587SOL    HW122394   1.986   2.356   7.167  1.4275 -0.3465 -1.1559
 3587SOL    HW222395   2.130   2.308   7.189 -2.0101 -3.8133  0.3870
 3588SOL     OW22396   3.419   3.591   4.827 -0.2584 -0.0450  0.2902
 3588SOL    HW122397   3.436   3.592   4.733  1.1894  0.8728  0.5526
 3588SOL    HW222398   3.460   3.510   4.857  2.5734  1.2730  0.0649
 3589SOL     OW22399   3.974   3.435   1.238 -0.1478 -0.6488 -0.0440
 3589SOL    HW122400   3.951   3.382   1.315  0.9759 -1.1349 -0.0442
 3589SOL    HW222401   4.032   3.500   1.279  0.2423 -0.3594 -1.0482
 3590SOL     OW22402   3.853   2.175  16.348  0.2375  0.2147 -0.5951
 3590SOL    HW122403   3.881   2.166  16.257 -0.2238  0.0015 -0.7171
 3590SOL    HW222404   3.758   2.168  16.344  0.4050 -2.8106  1.1541
 3591SOL     OW22405   1.084   2.727   2.753  0.0769  0.1190 -0.1979
 3591SOL    HW122406   1.007   2.708   2.807  0.8848  0.6305  1.1407
 3591SOL    HW222407   1.149   2.664   2.783  0.0908 -0.0207 -0.5223
 3592SOL     OW22408   1.376   0.774   3.333  0.0248  0.1842 -0.3583
 3592SOL    HW122409   1.386   0.739   3.244  1.0711  1.2130 -0.6367
 3592SOL    HW222410   1.321   0.706   3.372  0.2841 -0.9540 -1.9721
 3593SOL     OW22411   3.109   2.444   4.828  0.4874  0.2844  0.5545
 3593SOL    HW122412   3.161   2.438   4.909  0.6690 -0.0351  0.4142
 3593SOL    HW222413   3.125   2.361   4.782  3.0842  0.5848  0.8955
 3594SOL     OW22414   2.268   4.396   9.385 -0.2366 -0.0199 -0.0942
 3594SOL    HW122415   2.182   4.395   9.344 -0.1278  2.2357 -0.3531
 3594SOL    HW222416   2.290   4.306   9.361  1.5893  0.3059  0.3562
 3595SOL     OW22417   1.993   2.403  13.595  0.1537  0.1103 -0.1932
 3595SOL    HW122418   1.915   2.423  13.543 -1.1163 -1.2656  1.1711
 3595SOL    HW222419   2.066   2.438  13.544 -0.1259  0.5547 -0.2935
 3596SOL     OW22420   4.141   0.411   4.024 -0.0893 -0.3527  0.0832
 3596SOL    HW122421   4.095   0.474   3.968  1.7460  0.9821  0.0730
 3596SOL    HW222422   4.155   0.338   3.964 -0.6879  1.2086 -1.9459
 3597SOL     OW22423   3.651   2.728  13.300 -0.5710 -0.1334  0.4683
 3597SOL    HW122424   3.612   2.642  13.316 -0.8917 -0.1661 -0.4581
 3597SOL    HW222425   3.719   2.693  13.243 -0.0880  0.4153  0.7029
 3598SOL     OW22426   3.184   2.799   7.393 -0.3276  0.0892 -0.2162
 3598SOL    HW122427   3.106   2.834   7.436 -0.7615 -1.0134 -0.1110
 3598SOL    HW222428   3.144   2.731   7.339 -0.4803  1.5243 -1.9077
 3599SOL     OW22429   4.103   4.115   3.779 -0.4781 -0.2128  1.0596
 3599SOL    HW122430   4.033   4.105   3.843 -0.1418  1.8287  1.7338
 3599SOL    HW222431   4.179   4.096   3.834  0.3170  1.6305  0.5890
 3600SOL     OW22432   0.825   4.446   3.849  0.2611 -0.5135 -0.1862
 3600SOL    HW122433   0.769   4.486   3.916 -0.2348  0.5254 -1.2423
 3600SOL    HW222434   0.759   4.410   3.790 -0.4163  1.9664 -0.9087
 3601SOL     OW22435   0.944   1.229   4.507  0.1981  0.0431  0.0312
 3601SOL    HW122436   0.979   1.171   4.574  0.5604  0.8731  0.5671
 3601SOL    HW222437   0.851   1.206   4.512 -0.3647  2.2144 -0.4349
 3602SOL     OW22438   1.299   3.080   4.284 -0.1040  0.0750  0.7257
 3602SOL    HW122439   1.300   3.129   4.366 -0.8506  1.2718  0.0183
 3602SOL    HW222440   1.375   3.118   4.240  0.2366 -1.0684  0.3334
 3603SOL     OW22441   0.904   0.522   6.060 -0.0922  0.3635  0.2508
 3603SOL    HW122442   0.971   0.511   5.992 -1.0115 -0.3839 -0.5433
 3603SOL    HW222443   0.915   0.615   6.078 -0.1048  0.3036  0.5626
 3604SOL     OW22444   3.000   2.978   3.127 -0.5454 -0.6004  0.1838
 3604SOL    HW122445   2.905   2.984   3.120 -0.5237 -1.8938 -1.0897
 3604SOL    HW222446   3.017   2.989   3.221 -0.3932 -2.7710  0.4064
 3605SOL     OW22447   2.409   0.975   5.378 -0.1041  0.0102 -0.1024
 3605SOL    HW122448   2.382   0.883   5.371  0.2036  0.0460 -1.7639
 3605SOL    HW222449   2.446   0.990   5.291  0.1938 -2.7143 -0.4367
 3606SOL     OW22450   0.231   1.816   5.636 -0.7448 -0.3262  0.2833
 3606SOL    HW122451   0.156   1.822   5.578 -1.8238  0.7782  1.7949
 3606SOL    HW222452   0.299   1.834   5.572 -0.2570 -2.4276  0.2126
 3607SOL     OW22453   1.688   4.042   4.367 -0.2282  0.1026 -0.3025
 3607SOL    HW122454   1.711   4.079   4.452 -1.3944  0.9852 -0.3659
 3607SOL    HW222455   1.704   3.951   4.392 -3.0388 -0.3279 -0.0730
 3608SOL     OW22456   3.217   1.860   2.197  0.3629  0.6730  0.1739
 3608SOL    HW122457   3.163   1.907   2.133 -0.5829  0.1098  0.5570
 3608SOL    HW222458   3.230   1.933   2.257  4.3374  1.8329 -2.1329
 3609SOL     OW22459   1.352   1.155   6.132 -0.1092 -0.1265  0.3386
 3609SOL    HW122460   1.289   1.178   6.064  0.4313 -1.4408 -0.6006
 3609SOL    HW222461   1.332   1.223   6.196 -0.0233 -0.5149  0.7781
 3610SOL     OW22462   1.056   0.988   0.079  0.4543  0.6189  0.4307
 3610SOL    HW122463   1.141   0.978   0.121 -0.1070 -0.9934  1.1693
 3610SOL    HW222464   1.081   1.016  17.751  1.3929 -0.3405  0.3930
 3611SOL     OW22465   2.779   4.233   6.508  0.1027  0.0254 -0.3313
 3611SOL    HW122466   2.697   4.277   6.532  0.0782  0.8647 -1.9618
 3611SOL    HW222467   2.750   4.209   6.420  2.2499  0.6605 -1.2160
 3612SOL     OW22468   4.704   2.977   5.469  0.2988 -0.1543 -0.3319
 3612SOL    HW122469   4.620   3.015   5.444 -0.7074 -2.4935 -0.5062
 3612SOL    HW222470   0.016   2.975   5.389  0.8826  3.0349 -0.0234
 3613SOL     OW22471   0.922   2.166   3.234  0.0325  0.3574 -0.2627
 3613SOL    HW122472   0.896   2.223   3.307  0.4424  0.1043  0.0825
 3613SOL    HW222473   0.855   2.182   3.168  0.1680  1.4843 -0.1311
 3614SOL     OW22474   4.145   3.609   3.522  0.6002 -0.1865  0.0331
 3614SOL    HW122475   4.127   3.535   3.580  0.2578 -0.7078 -0.7367
 3614SOL    HW222476   4.223   3.572   3.480  0.7683  0.0487  0.1403
 3615SOL     OW22477   0.796   1.893   7.558  0.0025  0.1688  0.0702
 3615SOL    HW122478   0.792   1.903   7.463 -1.0874 -0.9739 -0.0080
 3615SOL    HW222479   0.885   1.858   7.559 -0.4593 -0.9987  0.9728
 3616SOL     OW22480   3.233   2.359   3.645 -0.1084 -0.0179  0.4145
 3616SOL    HW122481   3.296   2.428   3.623 -0.7692  1.1959  2.3471
 3616SOL    HW222482   3.209   2.392   3.732  1.6263 -1.0120  1.2706
 3617SOL     OW22483   3.606   2.562   2.510  0.1897 -0.3297  0.2721
 3617SOL    HW122484   3.687   2.522   2.541 -0.2829 -1.3394  0.2053
 3617SOL    HW222485   3.623   2.569   2.416 -4.0491 -0.0391 -0.4652
 3618SOL     OW22486   4.503   0.938   7.560  0.0018  0.2416 -0.0494
 3618SOL    HW122487   4.503   0.970   7.650 -0.2583 -0.2438  0.1206
 3618SOL    HW222488   4.536   0.849   7.572 -0.0855 -0.0066 -1.6608
 3619SOL     OW22489   2.703   4.392   5.576  0.0360 -0.0377 -0.0439
 3619SOL    HW122490   2.777   4.393   5.515  0.7112  0.5447  0.7662
 3619SOL    HW222491   2.751   4.353   5.649  2.0605 -0.3266 -1.5335
 3620SOL     OW22492   3.991   2.410   7.747 -0.1428 -0.3077 -0.2369
 3620SOL    HW122493   3.925   2.433   7.682 -2.4435  2.2022  2.9927
 3620SOL    HW222494   4.054   2.366   7.690  0.4645  0.0182  0.1819
 3621SOL     OW22495   4.365   4.088  15.676  0.1710  0.6374  0.2453
 3621SOL    HW122496   4.334   4.051  15.758  0.8207  0.3707  0.3693
 3621SOL    HW222497   4.418   4.159  15.713 -0.6168  1.0784  0.5292
 3622SOL     OW22498   0.387   1.025   1.510 -0.3791 -0.2248 -0.3047
 3622SOL    HW122499   0.306   1.073   1.492  0.4991  1.9755  1.6073
 3622SOL    HW222500   0.440   1.083   1.456  0.9006 -3.1912 -2.2232
 3623SOL     OW22501   2.346   2.554   4.811 -0.1199  0.2779 -0.1974
 3623SOL    HW122502   2.315   2.481   4.756 -0.3478  0.8495 -0.8221
 3623SOL    HW222503   2.355   2.515   4.898  2.4861  1.5064  0.0909
 3624SOL     OW22504   2.121   3.106   7.983 -0.0170  0.3334  0.3381
 3624SOL    HW122505   2.159   3.021   7.960  0.2446 -0.2353  2.8807
 3624SOL    HW222506   2.056   3.084   8.050  2.0134 -1.1115  1.8839
 3625SOL     OW22507   1.299   3.157   0.643  0.5241  0.3070 -0.0653
 3625SOL    HW122508   1.292   3.238   0.693 -1.6979 -0.3590  0.6924
 3625SOL    HW222509   1.231   3.168   0.577 -2.0135 -1.7266  2.1899
 3626SOL     OW22510   0.465   0.849   2.245  0.2823  0.0421 -0.8600
 3626SOL    HW122511   0.397   0.846   2.312  1.7292  1.6162  0.6687
 3626SOL    HW222512   0.456   0.942   2.220 -0.5951  0.0250 -0.5976
 3627SOL     OW22513   3.005   0.729  16.746  0.0806 -0.0642  0.6264
 3627SOL    HW122514   2.983   0.637  16.762 -1.0112  0.0877 -0.0091
 3627SOL    HW222515   2.962   0.747  16.663 -2.8002 -1.2119  1.8506
 3628SOL     OW22516   1.051   3.672   1.771 -0.7148  0.2994 -0.0968
 3628SOL    HW122517   1.126   3.710   1.817 -0.2131  0.5394 -1.1111
 3628SOL    HW222518   1.030   3.605   1.836 -4.1009  1.0270 -0.4138
 3629SOL     OW22519   4.079   0.245   6.200  0.1876 -0.4791  1.1532
 3629SOL    HW122520   4.069   0.331   6.241 -2.3260  0.5909 -1.6837
 3629SOL    HW222521   4.001   0.203   6.237  0.6123 -1.5046  0.8587
 3630SOL     OW22522   0.414   2.853   4.962 -0.7313 -0.0494  0.1005
 3630SOL    HW122523   0.494   2.830   5.011 -0.0554 -0.1744 -1.0664
 3630SOL    HW222524   0.386   2.929   5.013  0.2073  0.4745 -0.1718
 3631SOL     OW22525   0.814   2.570   5.017 -0.2909  0.2266 -0.0810
 3631SOL    HW122526   0.824   2.546   4.925  1.1802  0.7077 -0.0520
 3631SOL    HW222527   0.886   2.518   5.054 -1.1872 -0.2010  1.0554
 3632SOL     OW22528   0.587   3.277   1.351 -0.5078  0.0942 -0.0959
 3632SOL    HW122529   0.555   3.249   1.265  1.8467 -0.3704 -0.8301
 3632SOL    HW222530   0.540   3.359   1.360 -0.2550  0.2900 -0.5979
 3633SOL     OW22531   0.123   2.125   6.433  0.3327  0.4773  0.1049
 3633SOL    HW122532   0.036   2.088   6.418  0.0890  1.3704 -0.6580
 3633SOL    HW222533   0.185   2.058   6.460 -1.0728 -0.0158  2.1304
 3634SOL     OW22534   2.379   3.744   2.393  0.0400  0.0366  0.5921
 3634SOL    HW122535   2.344   3.729   2.481  1.0191 -0.4687  0.9040
 3634SOL    HW222536   2.383   3.652   2.365 -2.6296 -0.0289  0.4242
 3635SOL     OW22537   2.372   3.059  16.743  0.5310  0.0637  0.3474
 3635SOL    HW122538   2.361   3.051  16.648  2.2339  1.6787  0.0288
 3635SOL    HW222539   2.295   3.116  16.749 -0.0374 -0.7624  1.0548
 3636SOL     OW22540   1.428   0.041  10.805  0.1045 -0.5442 -0.5184
 3636SOL    HW122541   1.461   4.693  10.795  1.1359 -0.3937  1.6135
 3636SOL    HW222542   1.360   0.035  10.737  0.3401  1.9969 -1.0000
 3637SOL     OW22543   0.616   3.159  13.627 -0.6491  0.1822 -0.8185
 3637SOL    HW122544   0.666   3.145  13.547 -0.3529  0.9366 -0.7629
 3637SOL    HW222545   0.624   3.254  13.630  0.5847  0.0579 -0.3223
 3638SOL     OW22546   0.196   0.124   6.608  0.1355  0.4705  0.5438
 3638SOL    HW122547   0.118   0.150   6.657 -0.5920  1.3513 -1.1194
 3638SOL    HW222548   0.224   0.039   6.643  0.6621  1.3194  2.2028
 3639SOL     OW22549   3.450   1.185  17.141  0.8549  0.3940  0.1005
 3639SOL    HW122550   3.406   1.210  17.222 -1.0176 -0.3429 -0.6680
 3639SOL    HW222551   3.383   1.140  17.090 -0.0520  0.3762  1.3029
 3640SOL     OW22552   3.622   1.800   2.625  0.1655 -0.8917  0.1969
 3640SOL    HW122553   3.597   1.727   2.682 -0.8749 -1.1967 -0.6643
 3640SOL    HW222554   3.548   1.809   2.566 -0.3697 -0.6020  0.9024
 3641SOL     OW22555   1.019   1.392   1.577  0.1068  0.4694 -0.8793
 3641SOL    HW122556   1.010   1.377   1.671 -1.7421  1.8940 -0.8147
 3641SOL    HW222557   0.933   1.430   1.556 -0.2776  1.3188  2.2245
 3642SOL     OW22558   0.922   1.203   3.412  0.2352  0.1281 -0.0859
 3642SOL    HW122559   0.932   1.128   3.470 -1.8538 -0.8912 -1.0587
 3642SOL    HW222560   0.955   1.161   3.332 -0.9803 -0.3374 -0.3485
 3643SOL     OW22561   1.395   2.762   7.075  0.0171  1.2399  0.2844
 3643SOL    HW122562   1.356   2.761   6.988 -0.0465  0.3383  0.3271
 3643SOL    HW222563   1.423   2.671   7.082 -0.2621  1.1805  0.6142
 3644SOL     OW22564   4.156   0.229   2.365  0.1080 -0.7627  0.3304
 3644SOL    HW122565   4.150   0.141   2.327  0.2439 -0.0105 -1.4045
 3644SOL    HW222566   4.066   0.255   2.348 -0.2999 -2.0064  0.5596
 3645SOL     OW22567   2.616   0.390  14.701 -0.3364 -0.2320 -0.5909
 3645SOL    HW122568   2.609   0.479  14.666  1.7870 -0.0192 -0.5118
 3645SOL    HW222569   2.670   0.402  14.779  0.2985 -0.2169 -1.0290
 3646SOL     OW22570   1.808   2.146   8.155 -0.2799  0.0249 -0.1231
 3646SOL    HW122571   1.807   2.176   8.064  0.2560  1.2495  0.2780
 3646SOL    HW222572   1.718   2.175   8.171 -0.1282  0.3162  0.1956
 3647SOL     OW22573   2.018   1.674   8.710  0.3262  0.2171 -0.1655
 3647SOL    HW122574   1.945   1.671   8.772  1.9454  0.5476  1.7292
 3647SOL    HW222575   2.090   1.697   8.768  2.1679 -3.5760 -0.9175
 3648SOL     OW22576   4.361   0.645  12.160  0.1269 -0.2396 -0.2922
 3648SOL    HW122577   4.319   0.719  12.204  0.5348 -0.4939  0.5170
 3648SOL    HW222578   4.454   0.662  12.176  0.1134  0.4120 -0.9276
 3649SOL     OW22579   1.968   0.766   2.065  0.1781 -0.0979  0.0032
 3649SOL    HW122580   1.899   0.832   2.068 -0.3686 -0.7507  2.0660
 3649SOL    HW222581   2.014   0.799   2.143  0.2917 -0.0653 -0.0786
 3650SOL     OW22582   1.487   2.384   7.633  0.3785 -0.3916 -0.5953
 3650SOL    HW122583   1.569   2.335   7.645 -0.7060 -1.9665  0.4780
 3650SOL    HW222584   1.521   2.468   7.663  0.9377 -1.4794  1.8902
 3651SOL     OW22585   1.192   4.567   7.515 -0.2278  0.0992 -0.1106
 3651SOL    HW122586   1.284   4.562   7.493 -0.3895 -1.8844 -0.3596
 3651SOL    HW222587   1.185   4.483   7.560 -2.5744  0.7508  0.7821
 3652SOL     OW22588   1.089   0.042  10.442 -0.6187 -0.6018 -0.1939
 3652SOL    HW122589   1.007   0.059  10.488  0.6095 -1.4540  2.3234
 3652SOL    HW222590   1.161   0.054  10.504  1.1456 -1.2945 -2.1029
 3653SOL     OW22591   3.221   4.591   1.955 -0.1455  0.2858  0.1216
 3653SOL    HW122592   3.127   4.588   1.939 -0.3321 -2.1544  1.5540
 3653SOL    HW222593   3.264   4.593   1.870 -0.5233 -0.1917 -0.0815
 3654SOL     OW22594   2.486   0.339   3.321 -0.5805 -0.0142  0.1298
 3654SOL    HW122595   2.431   0.261   3.322 -1.4649  0.5968 -2.4039
 3654SOL    HW222596   2.544   0.311   3.250 -1.7453  0.7500 -1.1215
 3655SOL     OW22597   4.691   1.976   9.397 -0.1405  0.2932 -0.0672
 3655SOL    HW122598   0.020   1.972   9.463  0.8996  1.4094 -1.0939
 3655SOL    HW222599   4.624   1.916   9.429  0.0541  0.8745  1.4394
 3656SOL     OW22600   2.273   2.356   4.627 -0.4567 -0.0089  0.6507
 3656SOL    HW122601   2.312   2.386   4.545 -0.7557 -0.0761  0.4810
 3656SOL    HW222602   2.181   2.356   4.600  0.5261  0.1676 -2.7695
 3657SOL     OW22603   4.708   0.213  10.000  0.1891  0.4432 -0.3423
 3657SOL    HW122604   4.696   0.119  10.015  0.0034  0.7346  1.4369
 3657SOL    HW222605   0.063   0.218  10.008  0.2450 -0.6855 -0.2544
 3658SOL     OW22606   1.911   1.235   7.326 -0.2852 -0.3667 -0.0281
 3658SOL    HW122607   1.891   1.294   7.253  1.9565 -0.8170 -1.0008
 3658SOL    HW222608   1.834   1.250   7.380  1.1745  0.7872  1.7322
 3659SOL     OW22609   1.357   2.268   3.577  0.0325 -0.1912 -0.7097
 3659SOL    HW122610   1.415   2.337   3.546 -0.4447  1.8525  2.8969
 3659SOL    HW222611   1.421   2.199   3.593  2.3451  2.3493  0.8297
 3660SOL     OW22612   0.258   1.513   2.317  0.3873  0.4048  0.4517
 3660SOL    HW122613   0.194   1.462   2.267 -0.6618  0.9422  1.2529
 3660SOL    HW222614   0.342   1.514   2.270  0.1150 -0.5982 -0.0638
 3661SOL     OW22615   2.772   1.834   8.960  0.0516 -0.3678  0.2004
 3661SOL    HW122616   2.777   1.925   8.989 -2.4547 -0.5271  1.1273
 3661SOL    HW222617   2.859   1.805   8.989  0.5221 -0.4829 -1.3224
 3662SOL     OW22618   1.143   2.003   1.826  0.4592  0.5270 -0.0032
 3662SOL    HW122619   1.208   2.010   1.896 -1.0882 -0.1958  1.5326
 3662SOL    HW222620   1.062   2.003   1.878 -0.8118 -0.8100 -1.9386
 3663SOL     OW22621   4.724   1.344   6.995  0.0150 -0.3882 -0.4157
 3663SOL    HW122622   4.690   1.266   7.039 -2.0954 -0.2256 -1.7612
 3663SOL    HW222623   0.038   1.301   6.929 -0.9366  1.3446 -2.3430
 3664SOL     OW22624   2.304   2.677   6.479 -0.3396  0.3234 -0.3340
 3664SOL    HW122625   2.325   2.584   6.486  0.0285  0.1823 -3.3751
 3664SOL    HW222626   2.219   2.688   6.437 -0.4828  0.2147 -0.0715
 3665SOL     OW22627   4.107   3.347   6.074 -0.4528 -0.6475  0.1075
 3665SOL    HW122628   4.173   3.378   6.012 -0.6444  1.8860  1.1816
 3665SOL    HW222629   4.035   3.408   6.059 -0.9021 -0.7882  1.7131
 3666SOL     OW22630   1.193   0.909   8.512  0.1868  0.2673 -0.2575
 3666SOL    HW122631   1.098   0.894   8.506  0.2949 -0.7288  0.4852
 3666SOL    HW222632   1.204   1.004   8.522 -1.3588  0.5112 -0.7574
 3667SOL     OW22633   3.315   3.683   3.309 -0.0138  0.1663 -0.2008
 3667SOL    HW122634   3.279   3.687   3.397  1.5507 -1.9290  0.5376
 3667SOL    HW222635   3.406   3.709   3.322 -0.6057  2.1237  0.1273
 3668SOL     OW22636   2.617   4.327   8.115  0.0486 -0.1294 -0.0114
 3668SOL    HW122637   2.582   4.247   8.155  0.5886 -1.5211 -2.2582
 3668SOL    HW222638   2.595   4.382   8.190 -0.2394 -1.7829  1.1177
 3669SOL     OW22639   0.009   1.547   0.851 -0.4094  0.0933  0.5696
 3669SOL    HW122640   0.017   1.632   0.895  2.8710 -0.9203  1.9382
 3669SOL    HW222641   4.734   1.570   0.760  0.9113  0.4728  0.4319
 3670SOL     OW22642   0.223   0.910   4.505  1.0155  0.2293 -0.4107
 3670SOL    HW122643   0.272   0.829   4.491 -0.8574 -0.7932 -1.0244
 3670SOL    HW222644   0.292   0.973   4.524  1.4597 -0.5352  0.5471
 3671SOL     OW22645   1.325   2.185   8.559  0.0258  0.1973  0.4678
 3671SOL    HW122646   1.348   2.170   8.467 -0.0720 -2.1831  0.8192
 3671SOL    HW222647   1.286   2.101   8.585 -0.4379  0.3429  0.2444
 3672SOL     OW22648   2.253   1.708   9.166 -0.1868 -0.4255  0.1880
 3672SOL    HW122649   2.183   1.760   9.204  0.9469 -0.2362  2.0221
 3672SOL    HW222650   2.309   1.781   9.138 -2.3467  0.9330 -0.6071
 3673SOL     OW22651   0.529   4.540  15.195  0.3510  0.4723  0.5369
 3673SOL    HW122652   0.615   4.581  15.186  0.1108  0.5062 -1.5392
 3673SOL    HW222653   0.477   4.617  15.171  1.1499  0.4413 -1.2761
 3674SOL     OW22654   4.711   2.736   2.238  0.3435 -0.1008 -0.4000
 3674SOL    HW122655   4.658   2.811   2.209  1.3721  1.1838  1.0425
 3674SOL    HW222656   0.022   2.786   2.301 -1.4647 -1.2930  2.0290
 3675SOL     OW22657   0.510   2.850  13.400  0.6567  0.0159 -0.3787
 3675SOL    HW122658   0.441   2.892  13.451  0.8618 -0.1695  0.0510
 3675SOL    HW222659   0.521   2.775  13.458  1.6343  1.0157  0.7478
 3676SOL     OW22660   3.608   4.189  13.637  0.4118  0.8129 -0.0712
 3676SOL    HW122661   3.629   4.196  13.544  1.6515 -1.7761  0.0098
 3676SOL    HW222662   3.647   4.104  13.657  0.3547  1.1413  1.4382
 3677SOL     OW22663   4.726   4.329   1.483 -0.5575  0.0475  0.2353
 3677SOL    HW122664   0.019   4.249   1.524  0.0687 -0.9944 -2.3556
 3677SOL    HW222665   4.650   4.332   1.542 -0.1813 -3.0372  0.8596
 3678SOL     OW22666   2.188   0.986  11.526  0.0748  0.0875  0.5555
 3678SOL    HW122667   2.268   0.952  11.487  0.3553  0.1028  1.1211
 3678SOL    HW222668   2.196   0.952  11.615 -0.8886 -0.6890  0.3443
 3679SOL     OW22669   0.006   1.712   6.423 -0.3295 -0.3206  0.2522
 3679SOL    HW122670   4.676   1.754   6.374 -0.5033 -1.3225 -0.3570
 3679SOL    HW222671   0.007   1.765   6.502 -0.9300  3.9464 -2.6031
 3680SOL     OW22672   0.756   3.765   5.185 -0.5282  0.0237  0.5727
 3680SOL    HW122673   0.729   3.824   5.115 -0.4810 -0.2730  0.3074
 3680SOL    HW222674   0.725   3.812   5.263 -0.8957  1.5406 -0.4990
 3681SOL     OW22675   1.088   0.613   8.355  0.6000 -0.1325 -0.4267
 3681SOL    HW122676   1.076   0.621   8.449  0.2367 -0.1781 -0.4701
 3681SOL    HW222677   1.017   0.551   8.340 -0.0419  0.7513 -1.0489
 3682SOL     OW22678   1.022   0.606   8.615 -0.0495  0.1812  0.2017
 3682SOL    HW122679   0.951   0.581   8.674  1.1099  0.0723  1.5392
 3682SOL    HW222680   1.075   0.653   8.680  0.4552 -0.1138  0.0034
 3683SOL     OW22681   3.720   4.509   2.098 -0.5903  0.7413 -0.0618
 3683SOL    HW122682   3.682   4.449   2.034  1.6265  1.6091 -2.1940
 3683SOL    HW222683   3.644   4.530   2.151 -2.1627 -0.3730 -1.8644
 3684SOL     OW22684   3.714   2.935   0.149  0.2859  0.1265 -0.1754
 3684SOL    HW122685   3.681   2.965   0.064  1.9026 -1.9543 -1.5312
 3684SOL    HW222686   3.637   2.893   0.187  0.8260 -1.5939 -0.9905
 3685SOL     OW22687   0.144   1.225   8.108  0.5711 -0.7755  0.3753
 3685SOL    HW122688   0.171   1.288   8.041 -1.8265  0.5225  0.6295
 3685SOL    HW222689   0.051   1.218   8.090  0.4311 -1.7851  1.4809
 3686SOL     OW22690   1.168   3.957   2.527  0.5762 -0.4970 -0.1875
 3686SOL    HW122691   1.149   4.049   2.507 -1.5915 -0.1913  3.3773
 3686SOL    HW222692   1.140   3.950   2.618 -0.3474  2.8237 -0.2278
 3687SOL     OW22693   0.381   0.925  12.517 -0.0433 -0.1504  0.1915
 3687SOL    HW122694   0.399   0.988  12.587  5.1532  0.3100 -1.5626
 3687SOL    HW222695   0.374   0.985  12.442 -2.3124 -2.3875 -1.4005
 3688SOL     OW22696   0.368   3.348   1.652  0.1078 -0.1804 -0.1115
 3688SOL    HW122697   0.407   3.397   1.580 -1.8850 -2.0088 -2.4245
 3688SOL    HW222698   0.349   3.269   1.601 -1.2119  0.7216 -0.9974
 3689SOL     OW22699   0.746   2.865  15.098 -0.0273 -0.0560  0.5738
 3689SOL    HW122700   0.815   2.804  15.126  1.6055  0.8075 -1.5566
 3689SOL    HW222701   0.748   2.925  15.172  4.2156  2.0189 -1.2112
 3690SOL     OW22702   0.469   4.295   8.192 -0.2122 -0.5189 -0.2691
 3690SOL    HW122703   0.419   4.214   8.206 -0.7834 -0.1250 -0.0514
 3690SOL    HW222704   0.514   4.266   8.113 -1.1216 -1.0305 -0.6062
 3691SOL     OW22705   4.656   0.580  13.045  0.3196  0.3461  0.1514
 3691SOL    HW122706   4.645   0.541  12.958 -0.2755 -0.6308  0.6800
 3691SOL    HW222707   0.011   0.573  13.052  0.4038 -1.5714 -3.0415
 3692SOL     OW22708   2.557   3.590   5.421 -0.0590  0.2650 -0.1270
 3692SOL    HW122709   2.552   3.681   5.451 -0.7245 -0.0830  0.8272
 3692SOL    HW222710   2.475   3.556   5.456  0.4180 -2.3691 -1.6112
 3693SOL     OW22711   1.989   2.809   6.577 -0.1678  0.2470 -0.2474
 3693SOL    HW122712   1.920   2.760   6.623 -0.2439 -1.3862 -2.1176
 3693SOL    HW222713   1.937   2.850   6.508 -0.6856  0.5899  0.3374
 3694SOL     OW22714   1.689   2.645   3.823 -0.5287  0.0598  0.6905
 3694SOL    HW122715   1.607   2.621   3.865 -0.2902 -1.0273  0.5345
 3694SOL    HW222716   1.747   2.583   3.867 -0.7648 -1.7997 -1.6214
 3695SOL     OW22717   1.936   0.327   1.244 -0.0707 -0.2456 -0.5427
 3695SOL    HW122718   1.919   0.261   1.177  0.4032 -0.1340 -0.7739
 3695SOL    HW222719   1.946   0.402   1.185  0.5066 -0.2335 -0.4351
 3696SOL     OW22720   2.308   3.835  13.802 -0.1527 -0.1431  0.1909
 3696SOL    HW122721   2.343   3.836  13.713 -0.3990  0.1644  0.0995
 3696SOL    HW222722   2.222   3.792  13.799  0.8332 -1.9087 -3.0691
 3697SOL     OW22723   2.288   1.494   3.451 -0.6181  0.4521  0.1441
 3697SOL    HW122724   2.354   1.431   3.422 -0.0334  0.6780  1.0218
 3697SOL    HW222725   2.332   1.574   3.424  1.2501 -0.8613 -0.6785
 3698SOL     OW22726   1.281   0.504   2.021 -0.8053  0.1484 -0.3446
 3698SOL    HW122727   1.193   0.479   1.993 -1.1913 -0.5284  1.4656
 3698SOL    HW222728   1.300   0.415   2.050 -0.0358  1.2010  2.3918
 3699SOL     OW22729   4.297   0.333  11.512  0.7548  0.0082 -0.0178
 3699SOL    HW122730   4.249   0.260  11.473  2.5048 -1.5301  0.7578
 3699SOL    HW222731   4.368   0.291  11.560 -0.4736 -0.0206  1.8005
 3700SOL     OW22732   3.855   4.184   1.247  0.0255  0.2702  0.1462
 3700SOL    HW122733   3.930   4.148   1.295  1.4439  0.9946 -1.5321
 3700SOL    HW222734   3.784   4.124   1.268 -0.2953  0.4759 -0.3425
 3701SOL     OW22735   4.651   1.699   7.252 -0.1345  0.5347  0.4311
 3701SOL    HW122736   4.698   1.780   7.232  4.5464 -2.2035  0.2378
 3701SOL    HW222737   4.587   1.735   7.312  0.7134  3.5409 -0.4844
 3702SOL     OW22738   2.017   2.596   0.564  0.1546 -0.4418  0.2891
 3702SOL    HW122739   2.027   2.563   0.653  1.3506  0.0463  0.3406
 3702SOL    HW222740   1.924   2.581   0.552  0.1824 -0.2339 -0.1910
 3703SOL     OW22741   4.602   0.653   0.360  0.2179 -0.3853 -0.4178
 3703SOL    HW122742   4.635   0.572   0.398  1.3815  0.2593 -0.0496
 3703SOL    HW222743   4.511   0.626   0.349 -0.8604  2.6926  0.8359
 3704SOL     OW22744   1.425   4.399   4.113 -0.0388  0.0353  0.0701
 3704SOL    HW122745   1.492   4.331   4.117  2.3896  2.2938 -2.7064
 3704SOL    HW222746   1.370   4.380   4.037 -0.5332  0.6071  0.2847
 3705SOL     OW22747   0.183   3.887   2.075 -0.1819 -0.0397  0.9021
 3705SOL    HW122748   0.188   3.927   2.162 -1.5673 -1.6386  1.7070
 3705SOL    HW222749   0.269   3.904   2.036 -0.1871 -2.3449 -0.1055
 3706SOL     OW22750   3.329   4.002   8.742  0.4212 -0.1267 -0.3612
 3706SOL    HW122751   3.372   4.014   8.657  1.3802  0.8102  0.2426
 3706SOL    HW222752   3.322   4.090   8.781  0.3093 -0.8740  1.2859
 3707SOL     OW22753   2.339   4.696   9.853  0.1730  0.4077  0.0195
 3707SOL    HW122754   2.356   4.602   9.861 -1.9913  0.1378  1.6479
 3707SOL    HW222755   2.294   4.713   9.936 -0.2832  1.6693 -0.4924
 3708SOL     OW22756   0.723   3.745   8.789 -0.3238  0.0540  0.4349
 3708SOL    HW122757   0.701   3.755   8.882 -0.8124  1.2624  0.1810
 3708SOL    HW222758   0.633   3.760   8.760  0.8031  0.4270 -2.8407
 3709SOL     OW22759   4.625   0.841   7.831 -0.6257  0.6758  0.0330
 3709SOL    HW122760   4.706   0.864   7.785 -0.2316 -0.4738  0.1376
 3709SOL    HW222761   4.643   0.748   7.848  1.3812  0.8645 -1.0088
 3710SOL     OW22762   1.623   3.968   3.543 -0.0521  0.5395  0.1819
 3710SOL    HW122763   1.545   4.005   3.502 -0.5937 -0.2784  0.4992
 3710SOL    HW222764   1.617   4.014   3.627  2.5068  1.6521 -0.2290
 3711SOL     OW22765   2.188   3.084   9.889 -0.0365 -0.2985  0.2399
 3711SOL    HW122766   2.192   3.011   9.827 -1.7514  1.0556 -1.5008
 3711SOL    HW222767   2.096   3.111   9.890  0.2604  0.7123  0.1710
 3712SOL     OW22768   3.818   2.371   5.039 -0.4506  1.0293  0.1248
 3712SOL    HW122769   3.737   2.331   5.071 -1.1347  0.4385 -2.3332
 3712SOL    HW222770   3.845   2.430   5.109  1.0639 -0.4631  0.8016
 3713SOL     OW22771   4.044   1.156   2.931 -0.2495  0.0690  0.3672
 3713SOL    HW122772   4.013   1.086   2.874  0.3720 -0.3689  0.5674
 3713SOL    HW222773   4.139   1.141   2.926 -0.2636  0.7887 -2.0479
 3714SOL     OW22774   2.825   1.700   8.726  0.0359 -0.0566  0.0246
 3714SOL    HW122775   2.734   1.693   8.697  1.0066 -1.6465 -2.6071
 3714SOL    HW222776   2.824   1.746   8.810 -2.3144  1.3116 -0.7587
 3715SOL     OW22777   4.202   4.301  12.283 -0.1921 -0.4756  0.1504
 3715SOL    HW122778   4.270   4.314  12.217  0.6264  0.4459  1.1841
 3715SOL    HW222779   4.161   4.387  12.270 -0.9347 -0.7280  0.7696
 3716SOL     OW22780   2.762   0.034   9.061  0.1008  0.4420 -0.2044
 3716SOL    HW122781   2.855   0.031   9.040  0.5269  1.4140  1.5759
 3716SOL    HW222782   2.725   0.026   8.973 -1.3074 -0.2046  0.4562
 3717SOL     OW22783   4.348   2.591   2.180  0.2319  1.0552  0.6355
 3717SOL    HW122784   4.373   2.572   2.270 -1.5900  0.8113  1.0869
 3717SOL    HW222785   4.318   2.502   2.159 -0.1037  1.4214 -0.4621
 3718SOL     OW22786   3.720   2.679  16.670 -0.2174 -0.8018 -0.1298
 3718SOL    HW122787   3.724   2.587  16.645 -0.3485 -0.7705 -0.2692
 3718SOL    HW222788   3.628   2.699  16.649  0.4430  0.2375 -2.0550
 3719SOL     OW22789   4.224   0.719   3.515  0.1412  0.1969  0.2342
 3719SOL    HW122790   4.165   0.666   3.461 -0.4707  4.0097 -2.8282
 3719SOL    HW222791   4.298   0.665   3.491 -0.8445 -1.3702  0.7340
 3720SOL     OW22792   4.076   0.293   9.414 -0.1218 -0.3221 -0.1392
 3720SOL    HW122793   4.150   0.347   9.388  0.1434 -1.0832 -0.9291
 3720SOL    HW222794   4.039   0.273   9.328  2.1263  1.4806 -1.5033
 3721SOL     OW22795   3.383   0.996  10.034 -0.5617 -0.3221 -0.1507
 3721SOL    HW122796   3.420   0.908  10.032  1.0795  0.3933 -0.9377
 3721SOL    HW222797   3.439   1.032  10.103 -1.8546  0.7124  0.3585
 3722SOL     OW22798   1.095   3.827   5.559  0.3142 -0.4373  0.3056
 3722SOL    HW122799   1.177   3.854   5.601  0.2099  0.1036  0.1651
 3722SOL    HW222800   1.071   3.909   5.516  0.5656 -0.5900 -0.1198
 3723SOL     OW22801   4.699   0.383   9.119  0.5553 -0.7948  0.2247
 3723SOL    HW122802   4.711   0.457   9.178  1.6673 -1.0122  0.2604
 3723SOL    HW222803   0.047   0.349   9.108  1.4414  1.2372  1.0217
 3724SOL     OW22804   4.573   1.596   9.093  0.4761  0.2155 -0.5589
 3724SOL    HW122805   4.578   1.624   9.002 -1.1311 -0.1797 -0.7608
 3724SOL    HW222806   4.611   1.674   9.133  0.1136  0.0506  0.1122
 3725SOL     OW22807   0.608   0.437   7.969  0.1015 -0.2996 -0.2040
 3725SOL    HW122808   0.545   0.480   8.026  0.5102  1.4254 -1.0467
 3725SOL    HW222809   0.688   0.486   7.985 -0.9603  0.8050  1.5852
 3726SOL     OW22810   0.629   0.277   3.853  0.0987  0.5179 -0.0705
 3726SOL    HW122811   0.694   0.274   3.922 -1.5848 -4.4509  1.2901
 3726SOL    HW222812   0.554   0.266   3.911 -0.5262 -0.2101 -1.0050
 3727SOL     OW22813   1.634   2.885   7.338 -0.6769  0.4887  0.0808
 3727SOL    HW122814   1.615   2.978   7.352 -0.8633  0.3153  0.9924
 3727SOL    HW222815   1.631   2.856   7.429  2.6416  0.0288  0.0485
 3728SOL     OW22816   4.247   0.321   4.857  0.2723  0.2893  0.3465
 3728SOL    HW122817   4.335   0.350   4.880  0.1560  1.8096 -1.1223
 3728SOL    HW222818   4.224   0.283   4.942 -1.3184  2.2131  0.7842
 3729SOL     OW22819   2.656   1.688   5.397 -0.5010 -0.1445 -0.6568
 3729SOL    HW122820   2.603   1.619   5.438  0.8398  0.8790  2.6938
 3729SOL    HW222821   2.584   1.744   5.367 -0.4801  1.7267  2.7988
 3730SOL     OW22822   4.187   0.578   3.798 -0.7013  0.1631 -0.5697
 3730SOL    HW122823   4.140   0.661   3.789  0.9077  1.0194 -0.9820
 3730SOL    HW222824   4.224   0.584   3.887 -1.3456  1.3226 -0.3774
 3731SOL     OW22825   3.615   1.126   0.852 -0.0252 -0.5527  0.7335
 3731SOL    HW122826   3.525   1.092   0.853 -0.5491  0.8168 -0.0148
 3731SOL    HW222827   3.655   1.078   0.924 -3.4688 -1.1630  2.2425
 3732SOL     OW22828   3.294   3.295   8.278 -0.3411 -0.1032  0.0693
 3732SOL    HW122829   3.322   3.311   8.188 -0.8911 -1.9840 -0.4489
 3732SOL    HW222830   3.327   3.361   8.338  0.1814  0.1278 -0.4746
 3733SOL     OW22831   0.580   1.466   1.306  0.3689 -0.0542  0.2069
 3733SOL    HW122832   0.553   1.523   1.234 -0.7763 -2.3103 -1.1671
 3733SOL    HW222833   0.649   1.419   1.259  0.6393  0.5735 -0.0149
 3734SOL     OW22834   2.204   3.374   5.017  0.0803  0.4409 -0.3690
 3734SOL    HW122835   2.165   3.342   5.098  1.5451 -0.1300  0.1159
 3734SOL    HW222836   2.209   3.470   5.024 -0.3862  0.3247  1.5211
 3735SOL     OW22837   3.149   2.286   8.258 -0.5336  0.2674  0.1153
 3735SOL    HW122838   3.127   2.236   8.337  0.8814 -0.1994  0.2249
 3735SOL    HW222839   3.080   2.259   8.198 -0.7765 -1.4469  1.1374
 3736SOL     OW22840   3.223   3.824  12.259  0.2092 -0.0946  0.3173
 3736SOL    HW122841   3.191   3.844  12.347  1.1280  3.2775 -0.1189
 3736SOL    HW222842   3.140   3.800  12.217 -0.2206 -0.3380  1.3071
 3737SOL     OW22843   2.405   1.327   8.156  0.0733 -0.0077  0.2836
 3737SOL    HW122844   2.482   1.381   8.137 -0.1278  0.5276  0.9647
 3737SOL    HW222845   2.328   1.383   8.146  0.7303  1.0625  1.0756
 3738SOL     OW22846   1.698   3.783  17.185 -0.3384  0.4843  0.1124
 3738SOL    HW122847   1.756   3.713  17.156  0.8121  1.0182  1.1337
 3738SOL    HW222848   1.713   3.847  17.115  2.3052 -0.7877 -0.4477
 3739SOL     OW22849   0.580   1.018   7.247 -0.2672  0.3766 -0.0302
 3739SOL    HW122850   0.661   1.012   7.298 -0.9204 -2.3495  0.6705
 3739SOL    HW222851   0.540   0.932   7.254 -0.8963  0.7639  1.0654
 3740SOL     OW22852   3.319   2.413   5.169  0.2715 -0.3017 -0.4255
 3740SOL    HW122853   3.250   2.416   5.235  1.1679 -1.3749  0.5498
 3740SOL    HW222854   3.292   2.329   5.132  1.4513  0.0730 -2.1337
 3741SOL     OW22855   0.606   1.733   5.250 -0.3207  0.5391 -0.4851
 3741SOL    HW122856   0.688   1.769   5.285  0.1189 -1.0847  0.1592
 3741SOL    HW222857   0.616   1.638   5.243 -0.7065  0.5785 -1.5646
 3742SOL     OW22858   0.091   1.341  11.371  0.4884 -0.0549  0.1810
 3742SOL    HW122859   0.157   1.273  11.380  0.8185 -0.0667 -2.5162
 3742SOL    HW222860   0.153   1.414  11.378 -0.9534  1.1005  1.1038
 3743SOL     OW22861   1.528   0.113   0.543  0.1438  0.3438 -0.6766
 3743SOL    HW122862   1.493   0.190   0.498  1.4277  0.9632 -0.6077
 3743SOL    HW222863   1.513   0.144   0.632 -0.3942 -0.7187 -0.3922
 3744SOL     OW22864   4.716   0.439  11.741 -0.4825  0.6813  0.3341
 3744SOL    HW122865   0.001   0.503  11.808 -0.5465  0.7400  0.3034
 3744SOL    HW222866   4.650   0.391  11.791  0.3633 -0.7906  0.0279
 3745SOL     OW22867   0.876   0.534   8.038 -0.0637 -0.2502 -0.1623
 3745SOL    HW122868   0.840   0.579   8.115 -3.2114  1.3840 -2.5721
 3745SOL    HW222869   0.942   0.472   8.066 -1.8622 -1.2007  2.0126
 3746SOL     OW22870   1.268   2.829   8.697  0.9960  0.2948 -0.1227
 3746SOL    HW122871   1.304   2.905   8.744 -0.3037  0.6135  0.3566
 3746SOL    HW222872   1.324   2.814   8.621 -0.6761 -2.3616 -0.8118
 3747SOL     OW22873   0.896   4.160   0.131 -0.8352 -0.0513 -0.0455
 3747SOL    HW122874   0.831   4.158   0.061  1.0078 -0.4284 -1.7256
 3747SOL    HW222875   0.923   4.252   0.132  1.5099 -0.7304 -1.0488
 3748SOL     OW22876   0.973   0.693  12.206 -0.3665  0.5803  0.4086
 3748SOL    HW122877   1.010   0.716  12.292 -1.3874  2.9039  0.2140
 3748SOL    HW222878   0.991   0.777  12.165  0.5574  0.7365  1.1141
 3749SOL     OW22879   3.618   0.900  13.004  0.1756 -0.0840  0.0298
 3749SOL    HW122880   3.572   0.853  12.935 -0.0708 -1.5244  1.1710
 3749SOL    HW222881   3.643   0.978  12.954 -0.0945  0.3018  0.4939
 3750SOL     OW22882   1.406   2.121   8.845 -0.3674  0.9358 -0.1397
 3750SOL    HW122883   1.415   2.150   8.754  1.0441  2.8489  0.5926
 3750SOL    HW222884   1.482   2.065   8.861  0.4998  1.9949 -0.5655
 3751SOL     OW22885   2.997   2.848   7.062 -0.0082  0.2775 -0.3087
 3751SOL    HW122886   3.091   2.863   7.070  0.2425 -2.0613  1.2620
 3751SOL    HW222887   2.970   2.894   7.141  2.1210  1.7266 -0.4367
 3752SOL     OW22888   0.962   3.231   3.167 -0.4874 -0.4788 -0.2923
 3752SOL    HW122889   0.907   3.213   3.243  1.4133 -2.7553  0.5316
 3752SOL    HW222890   0.977   3.141   3.137  1.5997 -0.5202  0.9455
 3753SOL     OW22891   3.638   3.547   1.778 -0.8033 -1.1651  0.2475
 3753SOL    HW122892   3.692   3.553   1.699  2.3718  3.2609  2.7709
 3753SOL    HW222893   3.628   3.453   1.791 -1.6885 -1.0816  0.2199
 3754SOL     OW22894   0.761   2.175   6.938 -0.0133  0.2917  0.6503
 3754SOL    HW122895   0.675   2.201   6.905 -0.5788 -1.5867  0.6317
 3754SOL    HW222896   0.740   2.083   6.952 -0.1642  0.5789  2.3811
 3755SOL     OW22897   4.257   4.475   5.352 -0.5947 -0.0293 -0.0261
 3755SOL    HW122898   4.282   4.383   5.350 -0.9853 -0.1424  0.1474
 3755SOL    HW222899   4.304   4.501   5.431  0.2642  0.1513 -0.6045
 3756SOL     OW22900   3.652   3.590   3.560  0.3676  0.1860 -0.5030
 3756SOL    HW122901   3.725   3.531   3.541 -1.3781 -1.9000 -0.7048
 3756SOL    HW222902   3.674   3.663   3.503  1.4483 -1.5186 -2.2832
 3757SOL     OW22903   0.890   1.456   6.758 -0.2780 -0.0684 -0.5080
 3757SOL    HW122904   0.942   1.382   6.725  1.2699  1.1904 -0.8948
 3757SOL    HW222905   0.828   1.421   6.822 -0.1251 -1.0537 -0.8819
 3758SOL     OW22906   2.625   1.782   4.439  0.0357 -0.6745  0.0178
 3758SOL    HW122907   2.615   1.872   4.471  1.4727 -0.5603  0.1492
 3758SOL    HW222908   2.618   1.802   4.346 -0.1135  0.0214  0.1763
 3759SOL     OW22909   2.861   2.994   4.772  0.2403 -0.6686 -0.4468
 3759SOL    HW122910   2.784   2.974   4.718 -0.9860 -0.1472  1.0948
 3759SOL    HW222911   2.816   2.973   4.854 -1.1553 -0.6182 -1.1887
 3760SOL     OW22912   1.741   1.900   2.745 -0.5151 -0.1623  0.8188
 3760SOL    HW122913   1.688   1.918   2.823  1.3365  1.0623  1.7780
 3760SOL    HW222914   1.675   1.851   2.695 -1.6985  3.0730 -0.8346
 3761SOL     OW22915   3.491   1.857  10.947  0.0251  0.4082 -0.7544
 3761SOL    HW122916   3.509   1.817  10.862 -1.2742  0.2839 -0.9739
 3761SOL    HW222917   3.577   1.854  10.989 -0.8833  1.9418  1.2481
 3762SOL     OW22918   1.109   2.373   1.351  0.0146  0.1042 -0.2892
 3762SOL    HW122919   1.046   2.317   1.397  1.5160  1.6422  3.6337
 3762SOL    HW222920   1.057   2.453   1.342  0.9461  0.5264 -1.9572
 3763SOL     OW22921   0.280   2.909  13.204 -0.1879  0.3347  0.3767
 3763SOL    HW122922   0.346   2.877  13.266 -0.1231 -0.8539 -0.2947
 3763SOL    HW222923   0.209   2.937  13.261 -1.5391 -0.4693 -0.9330
 3764SOL     OW22924   1.744   1.731   8.442 -0.0329  0.0632  0.4808
 3764SOL    HW122925   1.789   1.649   8.423 -1.3262 -0.9062  1.5875
 3764SOL    HW222926   1.768   1.795   8.375 -0.6736 -1.7643 -1.4852
 3765SOL     OW22927   1.784   3.000   6.826 -0.0208 -0.8442 -0.2353
 3765SOL    HW122928   1.710   2.978   6.882 -0.1182  0.4805  0.1679
 3765SOL    HW222929   1.741   3.005   6.741 -1.3659  1.3519  0.5871
 3766SOL     OW22930   3.347   1.940   5.175  0.1951 -0.4664 -0.3529
 3766SOL    HW122931   3.403   1.948   5.252  1.1227 -0.1319 -1.0632
 3766SOL    HW222932   3.265   1.919   5.220 -0.0638  1.2272 -0.0099
 3767SOL     OW22933   2.193   4.110  11.782 -0.7270 -0.0508  0.2868
 3767SOL    HW122934   2.112   4.072  11.748 -0.8279 -0.5353  1.0888
 3767SOL    HW222935   2.184   4.092  11.875 -0.9423  0.4212  0.3601
 3768SOL     OW22936   0.040   3.772   4.307  0.1072 -0.1416 -0.5512
 3768SOL    HW122937   0.088   3.852   4.286  0.5715 -0.2231  0.1921
 3768SOL    HW222938   0.008   3.747   4.221 -0.5500  0.3638 -0.4543
 3769SOL     OW22939   0.548   4.465   4.666 -0.1387  0.4838 -0.5585
 3769SOL    HW122940   0.458   4.444   4.689 -0.4192  1.0992 -1.0895
 3769SOL    HW222941   0.587   4.384   4.633  0.6490  0.7776 -0.3698
 3770SOL     OW22942   4.228   0.119   2.030 -0.3485 -0.4959  0.2708
 3770SOL    HW122943   4.304   0.142   2.084 -2.0117  0.3593  2.2264
 3770SOL    HW222944   4.272   0.131   1.945 -0.4724  2.1783  0.5777
 3771SOL     OW22945   0.789   3.454   6.190 -0.4111 -0.5240  0.1632
 3771SOL    HW122946   0.819   3.400   6.117 -1.6779 -1.5187  0.3726
 3771SOL    HW222947   0.851   3.527   6.179 -1.1947 -0.0661 -1.2814
 3772SOL     OW22948   3.671   4.055   2.152 -0.4217 -0.2952 -0.0128
 3772SOL    HW122949   3.639   4.133   2.196  0.3437  0.0188 -0.0059
 3772SOL    HW222950   3.600   3.992   2.164  0.7083 -1.4748  0.5508
 3773SOL     OW22951   1.834   0.683   8.512  0.0634  0.2833  0.4087
 3773SOL    HW122952   1.752   0.680   8.561  0.2359 -2.7211  0.4832
 3773SOL    HW222953   1.798   0.682   8.423 -1.0149 -2.4479  0.8727
 3774SOL     OW22954   4.219   2.079   9.054 -0.6824  0.2510 -0.3082
 3774SOL    HW122955   4.195   2.066   9.146  2.5521  2.0582  0.7782
 3774SOL    HW222956   4.263   1.996   9.035 -1.3476  0.0718 -1.0589
 3775SOL     OW22957   1.541   4.314  15.273  0.2392  0.5102  0.3973
 3775SOL    HW122958   1.570   4.289  15.185 -0.9973 -3.2066  1.0238
 3775SOL    HW222959   1.449   4.290  15.274 -0.2829  2.5612  1.6472
 3776SOL     OW22960   0.236   3.939   8.499  0.2266  0.6052 -0.1673
 3776SOL    HW122961   0.166   3.877   8.522  1.5378 -0.5067  0.7641
 3776SOL    HW222962   0.245   3.991   8.578 -0.3602  1.1004 -0.4189
 3777SOL     OW22963   0.347   0.985  15.360 -0.2064  0.3360 -0.9015
 3777SOL    HW122964   0.317   1.052  15.422  1.5916 -0.2179  0.5630
 3777SOL    HW222965   0.401   0.926  15.411 -1.1475  1.0618  0.9394
 3778SOL     OW22966   1.773   4.365   8.417  0.0977 -0.2427  0.3880
 3778SOL    HW122967   1.741   4.321   8.496  2.5202 -0.2133  1.3808
 3778SOL    HW222968   1.868   4.360   8.419  0.1269  0.3216  0.4771
 3779SOL     OW22969   2.328   2.083  14.908  0.3634  0.6554 -0.1199
 3779SOL    HW122970   2.388   2.014  14.938 -1.8266 -1.1923  0.0250
 3779SOL    HW222971   2.264   2.035  14.855  0.9822 -0.4569  0.1539
 3780SOL     OW22972   3.172   0.914  15.832 -0.6347 -0.7840 -0.5466
 3780SOL    HW122973   3.078   0.900  15.816 -0.6657 -0.5579 -0.5630
 3780SOL    HW222974   3.204   0.920  15.742  0.8225  0.4484  0.0676
 3781SOL     OW22975   3.229   0.258   9.010  0.0958 -0.7708 -0.5739
 3781SOL    HW122976   3.164   0.219   8.952 -1.0474  0.8939 -0.4324
 3781SOL    HW222977   3.194   0.253   9.099  2.7477  0.8643  0.5943
 3782SOL     OW22978   4.225   4.613   7.513 -0.1144 -0.3084 -0.0893
 3782SOL    HW122979   4.145   4.574   7.549 -1.0345  2.8293  1.2097
 3782SOL    HW222980   4.284   4.599   7.587  0.2799  0.5249 -0.2553
 3783SOL     OW22981   1.573   1.656   0.990  0.0388  0.3867 -0.4497
 3783SOL    HW122982   1.563   1.719   0.918 -0.7370  2.3312  1.3560
 3783SOL    HW222983   1.510   1.588   0.969  0.8769 -0.4984 -0.1023
 3784SOL     OW22984   3.250   1.509   5.995 -0.2411 -0.0584  0.6325
 3784SOL    HW122985   3.301   1.462   6.060 -1.7451 -1.7900  0.5833
 3784SOL    HW222986   3.210   1.577   6.049  0.6533 -0.1788  1.4303
 3785SOL     OW22987   1.361   2.663  10.781  0.1315 -0.2365 -0.5331
 3785SOL    HW122988   1.338   2.751  10.811 -0.8529 -0.7196  0.1276
 3785SOL    HW222989   1.323   2.607  10.848  1.9954 -1.0149 -0.1172
 3786SOL     OW22990   0.081   2.560  13.612 -0.3008  0.3074 -0.2818
 3786SOL    HW122991   0.016   2.534  13.547  1.2332 -2.5917 -0.6769
 3786SOL    HW222992   0.121   2.475  13.627 -0.4242  0.5014  1.1405
 3787SOL     OW22993   2.176   4.710   2.392  0.9423  0.0491  0.1061
 3787SOL    HW122994   2.195   0.023   2.469 -1.2435  1.8813 -0.6376
 3787SOL    HW222995   2.087   4.678   2.406  1.0345 -0.1176  0.3261
 3788SOL     OW22996   2.064   2.440   1.311  0.1215 -0.3317  0.2946
 3788SOL    HW122997   2.092   2.350   1.327 -1.3616 -0.9400 -0.5724
 3788SOL    HW222998   2.010   2.433   1.232 -2.3493 -2.8856  2.2180
 3789SOL     OW22999   2.557   3.184   6.928  0.2629 -0.6501 -0.4489
 3789SOL    HW123000   2.570   3.089   6.936  0.6234 -0.4112  1.8003
 3789SOL    HW223001   2.646   3.216   6.945  0.1503 -0.9293  0.6486
 3790SOL     OW23002   2.524   4.234  14.253 -0.3327  0.2533 -0.1269
 3790SOL    HW123003   2.571   4.284  14.185 -0.0297 -0.4337 -0.4180
 3790SOL    HW223004   2.524   4.287  14.333 -2.9369 -0.6602  0.4774
 3791SOL     OW23005   1.604   3.027   2.965  0.0061  0.5546  0.5483
 3791SOL    HW123006   1.525   3.077   2.985  0.2168  1.6576 -1.4107
 3791SOL    HW223007   1.588   2.992   2.877  2.9678 -0.3448  0.3473
 3792SOL     OW23008   2.786   2.362  15.761  0.6918 -0.4915  0.3254
 3792SOL    HW123009   2.790   2.379  15.667  0.3521 -0.5333  0.3045
 3792SOL    HW223010   2.799   2.267  15.754  0.5556 -0.6380  2.0997
 3793SOL     OW23011   1.859   0.450   2.882 -0.1122 -0.2032 -0.4885
 3793SOL    HW123012   1.872   0.422   2.791 -2.9557  2.1072 -1.5792
 3793SOL    HW223013   1.823   0.369   2.917 -0.3869  0.8635  1.6783
 3794SOL     OW23014   3.120   4.539   4.077 -0.5943 -0.1547  1.0058
 3794SOL    HW123015   3.047   4.503   4.025  0.0698 -0.9868  0.6523
 3794SOL    HW223016   3.177   4.462   4.076 -1.5018 -0.8105 -0.5946
 3795SOL     OW23017   1.980   1.003  11.241 -0.0428  0.0676  0.2057
 3795SOL    HW123018   2.069   0.987  11.209 -0.4754  0.1583 -1.0726
 3795SOL    HW223019   1.921   0.950  11.188  0.5794 -0.6402  0.2299
 3796SOL     OW23020   4.344   1.013   3.491  0.5919  0.4097 -0.2926
 3796SOL    HW123021   4.267   0.956   3.489  1.0449 -0.1768 -0.8849
 3796SOL    HW223022   4.348   1.055   3.404 -0.3958  0.4979 -0.2974
 3797SOL     OW23023   0.588   0.179   2.144  0.8023 -0.4588 -0.3079
 3797SOL    HW123024   0.591   0.224   2.228 -0.3481  0.9073 -0.9845
 3797SOL    HW223025   0.560   0.254   2.091 -2.0693 -1.5408 -0.2878
 3798SOL     OW23026   0.006   3.444  12.689 -0.0725 -0.1243 -0.3337
 3798SOL    HW123027   0.077   3.430  12.751 -0.5136 -1.6994 -0.1889
 3798SOL    HW223028   4.676   3.399  12.735 -1.1850  0.0940 -1.8358
 3799SOL     OW23029   2.570   2.322  10.481  0.3416  0.4185  0.1235
 3799SOL    HW123030   2.562   2.234  10.444 -0.8702  0.8002 -0.5174
 3799SOL    HW223031   2.663   2.340  10.494 -0.0037  0.5135  2.4341
 3800SOL     OW23032   2.434   1.175  16.968  0.0446  0.3424 -0.6783
 3800SOL    HW123033   2.448   1.265  16.998  2.7631 -0.6543  1.0556
 3800SOL    HW223034   2.357   1.174  16.912 -1.3729  1.7459  1.2444
 3801SOL     OW23035   1.452   0.440   3.506  0.1718  0.1380  0.2374
 3801SOL    HW123036   1.500   0.458   3.425  0.9747 -3.3111 -0.0444
 3801SOL    HW223037   1.493   0.507   3.561 -0.7604  1.4667 -0.6989
 3802SOL     OW23038   1.034   2.935   2.585 -0.4076 -0.4422  0.5980
 3802SOL    HW123039   0.959   2.915   2.529 -1.3242  0.1885  1.5975
 3802SOL    HW223040   1.062   2.857   2.633 -1.8681 -0.7164  0.9915
 3803SOL     OW23041   3.892   4.371  13.487 -0.1107 -0.6310  0.2198
 3803SOL    HW123042   3.902   4.456  13.443 -0.1545 -1.5482 -1.5750
 3803SOL    HW223043   3.973   4.323  13.469 -1.1780 -0.8255 -4.1951
 3804SOL     OW23044   2.130   1.094  12.617 -0.6342 -0.2096 -0.5170
 3804SOL    HW123045   2.221   1.120  12.633 -0.9315  0.7578 -0.4130
 3804SOL    HW223046   2.100   1.149  12.545 -3.6469 -1.8139 -0.4762
 3805SOL     OW23047   1.080   4.411   0.757  0.0576 -0.2149 -0.2957
 3805SOL    HW123048   1.116   4.325   0.778 -0.9650 -0.5800 -0.0337
 3805SOL    HW223049   1.047   4.376   0.674 -0.8904 -1.1368  0.4764
 3806SOL     OW23050   2.109   3.968  17.658  0.9022  0.1613  0.4197
 3806SOL    HW123051   2.114   3.953  17.753  0.8517 -0.3700  0.3401
 3806SOL    HW223052   2.080   3.884  17.622  0.2675 -0.0281  1.3667
 3807SOL     OW23053   1.608   1.745   8.695  0.2299 -0.0469 -0.6921
 3807SOL    HW123054   1.583   1.653   8.691  1.4172 -0.3425 -1.3605
 3807SOL    HW223055   1.647   1.751   8.608 -0.0109 -0.5176 -0.8313
 3808SOL     OW23056   1.302   4.471   3.131 -0.1580  0.2059  0.3448
 3808SOL    HW123057   1.292   4.537   3.199  0.5365  0.9043 -0.2414
 3808SOL    HW223058   1.365   4.403   3.156 -1.5625 -0.4301  2.2270
 3809SOL     OW23059   2.793   2.085   1.959  0.1413  0.2901  0.2673
 3809SOL    HW123060   2.808   2.078   1.865  1.8109 -2.7287  0.7811
 3809SOL    HW223061   2.711   2.037   1.967  0.2314  0.0889  0.0067
 3810SOL     OW23062   1.444   1.118   5.437 -0.2471  0.5536  0.1226
 3810SOL    HW123063   1.373   1.169   5.397 -1.0757  0.0183  0.8974
 3810SOL    HW223064   1.497   1.192   5.466 -0.5613  0.6465  0.4549
 3811SOL     OW23065   3.453   2.567   7.153  0.1617  0.7682 -0.3445
 3811SOL    HW123066   3.413   2.538   7.071  1.1366  0.8334 -0.8375
 3811SOL    HW223067   3.499   2.644   7.120  3.3683 -1.2687 -0.5937
 3812SOL     OW23068   2.951   3.686   6.491 -0.3584  0.3543 -0.6975
 3812SOL    HW123069   2.900   3.765   6.507  3.0104  2.5466 -0.6782
 3812SOL    HW223070   2.882   3.631   6.454 -1.6679  0.8677  1.0086
 3813SOL     OW23071   3.668   2.074  16.870 -0.1002  0.1630  0.2373
 3813SOL    HW123072   3.743   2.092  16.812 -1.0576 -0.2521 -1.1262
 3813SOL    HW223073   3.648   1.981  16.859  1.0178 -0.1393  0.7195
 3814SOL     OW23074   2.497   4.265   4.533  0.3117  0.4776 -0.2155
 3814SOL    HW123075   2.538   4.239   4.616  1.6652  3.7954  0.1406
 3814SOL    HW223076   2.541   4.214   4.465 -1.3382  0.4900 -1.2978
 3815SOL     OW23077   3.910   4.688   7.901  0.1433  0.4322 -0.2238
 3815SOL    HW123078   3.931   4.639   7.980 -0.1723 -1.3773 -1.2766
 3815SOL    HW223079   3.989   4.740   7.886  1.6339 -1.2288  2.0090
 3816SOL     OW23080   3.179   0.080   7.520 -1.2620 -0.0019  0.4184
 3816SOL    HW123081   3.189   0.172   7.494  0.7999 -0.9810 -2.2632
 3816SOL    HW223082   3.173   0.041   7.433  2.3573  1.4516 -0.5067
 3817SOL     OW23083   0.223   0.591  17.723  0.0966  0.1016  0.5377
 3817SOL    HW123084   0.308   0.548  17.720  0.1262  0.1023  1.2217
 3817SOL    HW223085   0.227   0.672   0.014 -0.2550  0.9841 -0.8313
 3818SOL     OW23086   1.110   3.283  16.689  0.7403 -0.4675  0.2950
 3818SOL    HW123087   1.015   3.277  16.696  0.4409  2.7778 -1.2092
 3818SOL    HW223088   1.125   3.293  16.595 -0.0526  1.1411  0.3479
 3819SOL     OW23089   0.964   3.724   4.262 -0.3286 -0.3717  0.1811
 3819SOL    HW123090   0.934   3.691   4.346 -1.7579 -3.2588 -1.4741
 3819SOL    HW223091   1.024   3.655   4.233 -0.4554 -0.3355 -0.1664
 3820SOL     OW23092   1.420   0.051   5.709  0.4350  0.5412 -1.0685
 3820SOL    HW123093   1.391   0.133   5.668 -0.6737  1.2615  1.1426
 3820SOL    HW223094   1.490   0.086   5.763  0.5806 -2.8156  0.9240
 3821SOL     OW23095   2.196   3.290   2.516 -0.3896  0.1172  0.4968
 3821SOL    HW123096   2.235   3.229   2.578  0.0927 -2.7029 -2.5470
 3821SOL    HW223097   2.156   3.357   2.571 -0.5174  0.7368 -0.3522
 3822SOL     OW23098   1.597   2.941   7.057 -0.1563  0.1582 -0.3484
 3822SOL    HW123099   1.622   2.973   7.144  1.9720 -2.2570 -0.1135
 3822SOL    HW223100   1.523   2.881   7.070 -0.4556  0.9937  1.8088
 3823SOL     OW23101   4.266   2.704   7.495 -0.4404 -0.1500 -0.1356
 3823SOL    HW123102   4.278   2.638   7.427  0.7713  0.6161 -0.6644
 3823SOL    HW223103   4.171   2.701   7.506 -0.3896  1.2480  0.6452
 3824SOL     OW23104   3.015   1.580   7.523 -0.1732 -0.2709  0.0747
 3824SOL    HW123105   2.996   1.632   7.602  0.2691  0.6676 -0.4285
 3824SOL    HW223106   2.963   1.629   7.459 -0.2930 -0.6063 -0.0826
 3825SOL     OW23107   4.689   0.934   2.484 -0.1647 -0.4593  0.2609
 3825SOL    HW123108   4.676   1.028   2.500 -1.0762 -0.4092 -0.7772
 3825SOL    HW223109   4.603   0.900   2.507 -0.6089  1.9714  2.1755
 3826SOL     OW23110   3.814   2.442   2.640  0.3323 -0.0991  0.0662
 3826SOL    HW123111   3.851   2.369   2.690 -2.0822 -1.0061  0.5068
 3826SOL    HW223112   3.761   2.490   2.703  2.5557 -1.0739  2.7083
 3827SOL     OW23113   2.228   0.390   1.679 -0.4546 -0.4500  0.3702
 3827SOL    HW123114   2.160   0.394   1.747 -0.4240  1.5659  0.2740
 3827SOL    HW223115   2.301   0.387   1.741  1.7099 -2.9877 -2.3002
 3828SOL     OW23116   4.420   3.808   8.124 -0.4416  0.0143 -0.1799
 3828SOL    HW123117   4.379   3.724   8.146 -0.6418 -0.3359 -1.8893
 3828SOL    HW223118   4.404   3.805   8.030 -1.6451 -1.0930  0.0563
 3829SOL     OW23119   2.343   0.071   6.770 -0.0163 -0.1484 -0.1462
 3829SOL    HW123120   2.351   0.127   6.693 -1.5275  0.5559  0.2089
 3829SOL    HW223121   2.305   0.138   6.827  3.1585 -1.0688  2.9975
 3830SOL     OW23122   0.983   1.647   3.505 -0.6630 -0.1995  0.1249
 3830SOL    HW123123   1.006   1.736   3.478 -1.1926 -0.7288 -2.1317
 3830SOL    HW223124   0.927   1.671   3.579  0.2014  0.3000  0.6125
 3831SOL     OW23125   1.719   1.022   7.535  0.4813 -0.6414 -0.0063
 3831SOL    HW123126   1.643   1.074   7.560 -0.5656 -0.8037 -2.8996
 3831SOL    HW223127   1.668   0.965   7.478  0.4871 -2.8098  2.1064
 3832SOL     OW23128   3.848   0.746   4.832 -0.2089 -0.3145  0.1482
 3832SOL    HW123129   3.766   0.794   4.832  0.7178  1.2508  0.2067
 3832SOL    HW223130   3.869   0.734   4.925 -1.1115 -0.5556  0.3246
 3833SOL     OW23131   3.473   1.617   2.350  0.2056 -0.2331  0.4861
 3833SOL    HW123132   3.383   1.620   2.383  1.3467 -1.1194  3.6947
 3833SOL    HW223133   3.487   1.699   2.304  3.0905 -1.1870 -0.3768
 3834SOL     OW23134   2.167   2.680   5.191 -0.0659  0.4663 -0.3401
 3834SOL    HW123135   2.135   2.618   5.125 -0.3798  0.1656  0.0993
 3834SOL    HW223136   2.144   2.760   5.143 -0.8538  0.5494  0.1865
 3835SOL     OW23137   1.053   1.009   8.839  0.2445 -0.5927 -0.0031
 3835SOL    HW123138   1.111   0.934   8.823 -0.7909 -1.4058 -0.0203
 3835SOL    HW223139   1.025   0.988   8.929  1.0697 -1.1800  0.1170
 3836SOL     OW23140   2.540   1.689  15.673  0.2067 -0.3594  0.0918
 3836SOL    HW123141   2.541   1.691  15.769 -1.9350 -2.5009  0.1502
 3836SOL    HW223142   2.634   1.697  15.657  0.1011  2.2170  0.7975
 3837SOL     OW23143   1.356   1.602   2.812  0.4066 -0.7738  0.5138
 3837SOL    HW123144   1.291   1.667   2.840  2.0033  1.5209 -1.0581
 3837SOL    HW223145   1.346   1.531   2.875  1.4344  0.4014  2.0087
 3838SOL     OW23146   0.896   3.240   1.147  0.3916 -0.1151  0.6144
 3838SOL    HW123147   0.885   3.207   1.236 -1.7503 -1.4286 -0.1486
 3838SOL    HW223148   0.816   3.289   1.127 -0.5674 -1.5638  0.8989
 3839SOL     OW23149   1.376   3.581   9.410  0.6403  0.3013  0.0781
 3839SOL    HW123150   1.387   3.608   9.320 -0.7365 -0.0433 -0.2025
 3839SOL    HW223151   1.291   3.536   9.409  2.3249 -2.8951  0.4558
 3840SOL     OW23152   2.967   1.137   5.769 -0.5301 -0.0672  0.5503
 3840SOL    HW123153   2.904   1.152   5.699 -0.0839 -0.3520  0.0840
 3840SOL    HW223154   2.999   1.226   5.780  0.5395 -0.4520  0.6082
 3841SOL     OW23155   1.291   3.379   1.314 -0.2836  0.0688 -0.0899
 3841SOL    HW123156   1.268   3.441   1.383 -0.3362  0.9339 -0.8790
 3841SOL    HW223157   1.371   3.340   1.349 -0.0711  0.7384  0.1730
 3842SOL     OW23158   4.166   1.623  13.077  1.2355 -0.3707 -0.5099
 3842SOL    HW123159   4.126   1.626  13.164 -1.4795 -1.9203 -1.6952
 3842SOL    HW223160   4.241   1.564  13.087 -0.4003 -2.2902  0.5077
 3843SOL     OW23161   2.229   4.731  12.264  0.6196 -0.3913 -0.1092
 3843SOL    HW123162   2.204   0.006  12.355  1.5291  2.8798 -0.4362
 3843SOL    HW223163   2.203   0.072  12.221 -0.3652 -1.1771 -0.9900
 3844SOL     OW23164   0.020   0.598   3.226 -0.3752 -0.4157 -0.3815
 3844SOL    HW123165   0.115   0.596   3.219 -0.2279  2.4951  0.4714
 3844SOL    HW223166   4.736   0.524   3.170  3.0072 -1.4179 -0.5439
 3845SOL     OW23167   4.022   3.150   5.596 -0.2735  0.4661 -0.1198
 3845SOL    HW123168   4.099   3.190   5.637  0.6238  1.1029 -2.4199
 3845SOL    HW223169   3.972   3.108   5.666  0.1136  0.5319  0.1961
 3846SOL     OW23170   1.963   1.088   0.559 -0.3268 -0.3308 -0.2786
 3846SOL    HW123171   1.982   0.996   0.543 -1.1321 -0.3165 -1.2813
 3846SOL    HW223172   1.889   1.086   0.620  0.3679  0.6724  0.6096
 3847SOL     OW23173   3.533   1.224   6.705  0.5653  0.3872 -0.0172
 3847SOL    HW123174   3.585   1.159   6.753 -0.7953 -0.8431 -0.2160
 3847SOL    HW223175   3.608   1.267   6.663 -0.6994  1.5854 -1.0171
 3848SOL     OW23176   3.317   3.304   2.263  0.1708  0.1594  0.2908
 3848SOL    HW123177   3.360   3.352   2.333 -0.2367  0.6069  0.2284
 3848SOL    HW223178   3.359   3.218   2.275  2.0033  1.0751  0.4075
 3849SOL     OW23179   2.533   2.738   6.772  0.3172 -0.0284 -0.5102
 3849SOL    HW123180   2.437   2.730   6.766  0.0505  2.0609  1.3003
 3849SOL    HW223181   2.561   2.647   6.765  0.0868 -0.2524  1.4423
 3850SOL     OW23182   3.491   0.237  13.265 -0.1171 -0.6341  0.1042
 3850SOL    HW123183   3.485   0.323  13.306 -0.4879 -0.7813  0.3585
 3850SOL    HW223184   3.403   0.228  13.230  0.0398  1.0533 -0.7503
 3851SOL     OW23185   1.850   3.072   5.732 -0.5468 -0.3278 -0.0491
 3851SOL    HW123186   1.860   3.026   5.815 -0.7028 -0.9534 -0.3837
 3851SOL    HW223187   1.924   3.046   5.678  0.7822  3.1452  0.0623
 3852SOL     OW23188   0.246   1.499   9.370 -0.8438  0.4624 -0.1356
 3852SOL    HW123189   0.212   1.550   9.444 -0.1005 -1.9120  1.8686
 3852SOL    HW223190   0.175   1.504   9.307 -1.6607 -1.6246  0.6165
 3853SOL     OW23191   0.359   3.760  16.701  0.2760  0.1751 -0.2083
 3853SOL    HW123192   0.377   3.797  16.615 -0.1981 -0.2777 -0.4966
 3853SOL    HW223193   0.446   3.737  16.735  0.1369 -0.8200 -0.5398
 3854SOL     OW23194   3.080   2.170   6.583  0.3999 -0.2129 -0.4359
 3854SOL    HW123195   3.033   2.141   6.504 -1.9822 -0.8657  1.2005
 3854SOL    HW223196   3.064   2.089   6.632  1.3632  1.1393  2.0797
 3855SOL     OW23197   3.695   0.634   1.992  0.2964 -0.1754 -0.1782
 3855SOL    HW123198   3.753   0.691   1.943 -1.8194  0.9722 -1.3411
 3855SOL    HW223199   3.731   0.660   2.077  2.5283 -0.8200 -0.9498
 3856SOL     OW23200   1.409   0.407   2.723  0.3215  0.1596 -0.3240
 3856SOL    HW123201   1.437   0.317   2.707 -0.0146  0.3677 -1.9855
 3856SOL    HW223202   1.333   0.411   2.665  0.2533 -0.1151 -0.2555
 3857SOL     OW23203   4.334   4.242   4.303  0.3357  0.0660  0.4119
 3857SOL    HW123204   4.361   4.331   4.329  1.7456  0.4654 -2.3858
 3857SOL    HW223205   4.419   4.208   4.275  1.7006  1.3398  2.9340
 3858SOL     OW23206   2.544   1.431   5.479 -0.8758  0.3863  0.0829
 3858SOL    HW123207   2.610   1.373   5.442 -0.3074  0.9336  0.2322
 3858SOL    HW223208   2.545   1.403   5.571  0.7720  1.9596  0.5444
 3859SOL     OW23209   1.965   0.596   7.178 -0.2775 -0.1931 -0.6631
 3859SOL    HW123210   1.939   0.613   7.269 -0.6938  1.4590 -1.0855
 3859SOL    HW223211   1.891   0.542   7.152  0.9183 -1.5047 -1.3288
 3860SOL     OW23212   4.085   3.241   3.407  0.0996 -0.0200  0.1494
 3860SOL    HW123213   4.084   3.150   3.436 -1.6012  0.2896  1.0746
 3860SOL    HW223214   4.178   3.254   3.390  0.1727 -1.3299 -0.4746
 3861SOL     OW23215   0.167   4.226  10.139  0.8347  0.2219 -0.2350
 3861SOL    HW123216   0.249   4.266  10.168  1.7589 -0.9290 -1.2923
 3861SOL    HW223217   0.191   4.134  10.139  2.7357  0.7104  1.5282
 3862SOL     OW23218   4.377   0.899   7.008  0.3323 -0.0408  0.4023
 3862SOL    HW123219   4.371   0.810   6.971 -1.5990 -0.1793  1.0394
 3862SOL    HW223220   4.387   0.936   6.920 -1.8503 -1.0880 -0.3207
 3863SOL     OW23221   4.547   1.193   2.901  0.4306  0.0075 -0.3549
 3863SOL    HW123222   4.635   1.174   2.932 -0.7082 -1.6565  1.8522
 3863SOL    HW223223   4.558   1.212   2.808  2.0453  1.5955  0.1552
 3864SOL     OW23224   3.475   4.602   6.651 -0.2637 -0.0382  0.3264
 3864SOL    HW123225   3.543   4.633   6.710 -0.5137  0.4810  0.3380
 3864SOL    HW223226   3.512   4.531   6.599  2.0381  1.3362  0.0961
 3865SOL     OW23227   1.892   1.884  14.343 -0.1305 -0.1993 -0.3437
 3865SOL    HW123228   1.955   1.856  14.276  0.8512  0.1782  0.4133
 3865SOL    HW223229   1.820   1.903  14.283  0.6792  1.6554 -0.7389
 3866SOL     OW23230   3.206   4.278   4.991  0.5317  0.1153  0.3652
 3866SOL    HW123231   3.282   4.227   5.017  0.9321  0.1662 -0.7049
 3866SOL    HW223232   3.143   4.212   5.020  2.5150 -1.6303  0.6952
 3867SOL     OW23233   2.097   2.788  16.034 -0.7462  0.3553 -0.0646
 3867SOL    HW123234   2.130   2.770  15.946  0.0847 -0.1898  0.3608
 3867SOL    HW223235   2.022   2.847  16.025  0.9542  2.2329 -2.3086
 3868SOL     OW23236   4.667   4.215   3.776  0.3915  0.4979  0.1849
 3868SOL    HW123237   4.712   4.144   3.731 -0.3902 -0.1520  0.4312
 3868SOL    HW223238   4.584   4.206   3.731  0.2338 -0.7548  0.7053
 3869SOL     OW23239   0.043   2.252   2.713  0.0091 -0.1938 -0.2807
 3869SOL    HW123240   0.129   2.216   2.736  1.0147  1.8843 -0.7696
 3869SOL    HW223241   0.002   2.173   2.679 -0.9242 -0.0355  0.4639
 3870SOL     OW23242   1.247   2.704   8.990 -0.0418  0.0751  0.0549
 3870SOL    HW123243   1.213   2.632   8.936 -0.0599  1.1274 -1.3443
 3870SOL    HW223244   1.322   2.722   8.934  0.3652 -1.8192  0.0051
 3871SOL     OW23245   1.720   3.004  13.534 -0.3197  0.3046  0.3591
 3871SOL    HW123246   1.743   3.041  13.619  2.2891 -1.5871  0.4558
 3871SOL    HW223247   1.743   3.072  13.470  1.7515 -1.0772 -0.3462
 3872SOL     OW23248   2.368   3.575  12.417 -0.3424  0.1030  0.0255
 3872SOL    HW123249   2.365   3.542  12.327  1.6229 -1.0708  0.4022
 3872SOL    HW223250   2.409   3.658  12.394 -1.4510  1.1100  1.6825
 3873SOL     OW23251   3.479   3.859   6.958  0.2137 -0.0267  0.1387
 3873SOL    HW123252   3.419   3.919   7.002  1.8895  0.1773  2.1178
 3873SOL    HW223253   3.476   3.782   7.015 -1.1709 -1.3666 -1.7376
 3874SOL     OW23254   2.985   2.280  12.152 -0.3520 -0.2371  0.1951
 3874SOL    HW123255   2.916   2.335  12.189 -1.3602 -1.5669  0.3235
 3874SOL    HW223256   2.961   2.280  12.059  1.6491 -1.2910 -0.3214
 3875SOL     OW23257   4.230   4.718   4.063  0.0478 -0.1142 -0.1927
 3875SOL    HW123258   4.229   4.629   4.028  0.1422 -0.2600  0.1784
 3875SOL    HW223259   4.323   4.724   4.083 -0.2065 -0.2040  1.0329
 3876SOL     OW23260   2.508   2.153   8.438 -0.2048  0.6851  0.3239
 3876SOL    HW123261   2.570   2.129   8.369 -0.1926  2.7342 -0.3744
 3876SOL    HW223262   2.464   2.228   8.397  0.3305  1.4231  1.1161
 3877SOL     OW23263   4.056   1.443   5.640 -0.3008  0.5579 -0.3926
 3877SOL    HW123264   4.077   1.516   5.698  0.9203  0.4145 -0.6510
 3877SOL    HW223265   4.045   1.363   5.691 -1.1730  0.6892 -0.3746
 3878SOL     OW23266   3.889   3.102  16.030 -0.1146 -0.3622  0.7992
 3878SOL    HW123267   3.898   3.130  16.121  0.2172 -0.8628  0.9209
 3878SOL    HW223268   3.974   3.059  16.020 -0.6430 -0.8069 -1.8836
 3879SOL     OW23269   1.773   3.991  17.015 -0.1127 -0.1237 -0.5311
 3879SOL    HW123270   1.804   4.058  17.075 -1.4752  0.3644 -0.3574
 3879SOL    HW223271   1.711   4.033  16.955 -1.5207 -0.3942  0.7307
 3880SOL     OW23272   0.284   1.697   3.321 -0.2924 -0.0937  0.0892
 3880SOL    HW123273   0.199   1.666   3.291 -0.0770 -1.3937  0.8375
 3880SOL    HW223274   0.291   1.782   3.277 -1.8895 -0.1797 -0.3347
 3881SOL     OW23275   3.354   0.842   0.935  0.4210 -0.0609  0.0409
 3881SOL    HW123276   3.351   0.747   0.941 -1.3207  0.0334  0.5053
 3881SOL    HW223277   3.347   0.862   1.028 -0.0423  1.5230 -0.3299
 3882SOL     OW23278   0.887   0.573  14.724 -0.4506  0.0274  0.3048
 3882SOL    HW123279   0.916   0.662  14.741  0.9566  0.0293 -2.2740
 3882SOL    HW223280   0.891   0.540  14.814 -0.3728 -0.5987  0.0703
 3883SOL     OW23281   4.293   1.349  15.910  0.4176  0.8500 -0.0706
 3883SOL    HW123282   4.251   1.392  15.984  0.4989  0.8163 -0.0056
 3883SOL    HW223283   4.341   1.275  15.946 -0.0757  0.6872  0.2440
 3884SOL     OW23284   4.419   3.380   6.643 -0.0836 -0.2101  0.6792
 3884SOL    HW123285   4.334   3.397   6.683  0.2839 -1.7463  2.1299
 3884SOL    HW223286   4.476   3.397   6.719 -1.0257  1.7908  0.9338
 3885SOL     OW23287   2.688   3.380   4.734 -0.3895  0.0984 -0.1386
 3885SOL    HW123288   2.779   3.372   4.762 -0.6978  0.0887  0.8709
 3885SOL    HW223289   2.674   3.472   4.758 -1.7021  0.4165 -2.1480
 3886SOL     OW23290   2.928   1.125  11.899  0.3570 -0.8103 -0.7831
 3886SOL    HW123291   2.867   1.141  11.828  1.9739  0.4724 -1.8651
 3886SOL    HW223292   2.964   1.039  11.874  1.9806 -0.3966  0.1195
 3887SOL     OW23293   3.880   1.434   2.583  0.1265 -0.1071  0.6598
 3887SOL    HW123294   3.829   1.354   2.595  1.6626 -0.9578  1.6328
 3887SOL    HW223295   3.824   1.482   2.523 -0.2053 -1.0058  0.2595
 3888SOL     OW23296   0.924   2.164   1.542  0.7711  0.0306  0.6183
 3888SOL    HW123297   0.844   2.196   1.499  0.5255 -0.3012  0.8265
 3888SOL    HW223298   0.927   2.221   1.619  0.7666  0.4158  0.3342
 3889SOL     OW23299   3.921   3.557   6.007  0.4359 -0.2380  0.6817
 3889SOL    HW123300   3.878   3.583   6.089 -2.5104  0.8597 -1.2281
 3889SOL    HW223301   3.946   3.643   5.975  0.6763 -1.4255 -2.2776
 3890SOL     OW23302   3.986   4.490   3.473  0.7296 -0.0978  0.2064
 3890SOL    HW123303   4.011   4.443   3.393  0.4326  0.0620  0.0214
 3890SOL    HW223304   3.920   4.429   3.507  2.0312  0.2239  3.3249
 3891SOL     OW23305   2.836   0.540   8.911 -0.5958  0.2351  0.2933
 3891SOL    HW123306   2.816   0.446   8.908  0.1537  0.0723  0.3958
 3891SOL    HW223307   2.897   0.551   8.983  0.0628 -2.1945  0.1254
 3892SOL     OW23308   0.849   3.277   2.603 -0.5612  0.2966  0.1967
 3892SOL    HW123309   0.815   3.366   2.611 -1.1214  0.0766  0.2668
 3892SOL    HW223310   0.778   3.224   2.565  0.5228 -2.6372  2.3285
 3893SOL     OW23311   2.373   2.734   9.014  0.5195 -0.6335 -0.2756
 3893SOL    HW123312   2.453   2.742   9.067 -0.9683 -2.5433  2.2692
 3893SOL    HW223313   2.391   2.655   8.964  1.2830 -0.9507  0.4920
 3894SOL     OW23314   2.159   1.808   7.138  0.2589  0.2568 -0.0516
 3894SOL    HW123315   2.234   1.814   7.079 -0.5007  3.1231 -0.6952
 3894SOL    HW223316   2.119   1.894   7.128  0.5811  0.2482 -1.4446
 3895SOL     OW23317   3.371   3.499   8.417 -0.3030  0.1808  0.2120
 3895SOL    HW123318   3.389   3.578   8.365 -3.5279  1.6800  1.3508
 3895SOL    HW223319   3.454   3.489   8.463 -0.0632  2.1751  0.2377
 3896SOL     OW23320   1.846   0.154   1.743  0.0422 -0.1885  0.1528
 3896SOL    HW123321   1.896   0.182   1.820  1.5478  0.5500 -1.1087
 3896SOL    HW223322   1.877   0.220   1.682 -2.7007  1.5014  0.5703
 3897SOL     OW23323   1.775   0.788  14.058 -0.6781 -0.0863 -0.0951
 3897SOL    HW123324   1.806   0.829  14.139  2.4315  1.9873 -2.3483
 3897SOL    HW223325   1.700   0.846  14.043 -1.5046 -1.2937 -0.6103
 3898SOL     OW23326   1.678   1.900   9.576  0.0707  0.1334  0.1502
 3898SOL    HW123327   1.727   1.983   9.574  2.9149 -1.4363  3.8144
 3898SOL    HW223328   1.726   1.845   9.514 -0.3813 -0.2428  0.1428
 3899SOL     OW23329   4.581   0.763   4.039 -0.0446 -0.0253 -0.0271
 3899SOL    HW123330   4.603   0.775   3.946  2.1775 -1.3077  0.3419
 3899SOL    HW223331   4.566   0.668   4.037 -0.9756  0.1624 -2.4320
 3900SOL     OW23332   1.051   2.092  15.786  0.4302 -0.1370  0.3708
 3900SOL    HW123333   1.140   2.109  15.755  0.4733 -4.1710 -1.6764
 3900SOL    HW223334   1.057   2.099  15.881  0.8409  2.4583  0.1485
 3901SOL     OW23335   4.129   0.179   3.418  0.2625 -0.3928  0.4777
 3901SOL    HW123336   4.141   0.230   3.498 -0.4809 -0.0496  0.3617
 3901SOL    HW223337   4.139   0.092   3.457 -0.8620 -0.5741  0.3610
 3902SOL     OW23338   0.504   0.718  11.389  0.3543  0.5529 -0.1102
 3902SOL    HW123339   0.474   0.781  11.323 -1.6682 -1.3176 -0.9829
 3902SOL    HW223340   0.589   0.695  11.352  0.3544  2.3400 -1.2193
 3903SOL     OW23341   4.000   2.272   4.239 -0.2681  0.1710 -0.2005
 3903SOL    HW123342   4.083   2.300   4.278 -0.0463  0.7338 -1.0731
 3903SOL    HW223343   3.984   2.335   4.168 -2.0055 -1.9884 -1.7080
 3904SOL     OW23344   1.141   2.669  15.625 -0.0876  0.3496 -0.5617
 3904SOL    HW123345   1.060   2.618  15.622 -1.4203  2.3192  1.6838
 3904SOL    HW223346   1.193   2.627  15.556  1.5009 -1.1154  1.5396
 3905SOL     OW23347   0.857   2.075   2.485  0.7454 -0.2293 -0.3504
 3905SOL    HW123348   0.834   2.157   2.442  1.4011  0.0746 -0.1176
 3905SOL    HW223349   0.953   2.072   2.479  0.8776  1.3856  1.1114
 3906SOL     OW23350   4.194   4.094   2.422 -0.1901  0.6390 -0.6057
 3906SOL    HW123351   4.118   4.113   2.366 -0.8390 -3.4911 -1.0808
 3906SOL    HW223352   4.220   4.185   2.436  0.2209  0.3848  0.2564
 3907SOL     OW23353   2.324   2.911   7.593 -0.5831  0.0672 -0.0546
 3907SOL    HW123354   2.334   2.910   7.689  0.9925 -2.2697 -0.2417
 3907SOL    HW223355   2.259   2.980   7.580 -0.0712  0.2624 -1.5368
 3908SOL     OW23356   2.866   0.024   1.314  0.0924 -0.1817  0.4126
 3908SOL    HW123357   2.771   0.030   1.318  0.1471  0.7785  0.3899
 3908SOL    HW223358   2.870   4.670   1.319  1.0367 -0.2270 -1.2266
 3909SOL     OW23359   4.675   0.944   4.722 -0.2456 -0.2874  0.6287
 3909SOL    HW123360   4.580   0.928   4.721 -0.1604 -0.7007 -0.1409
 3909SOL    HW223361   4.690   0.988   4.638 -0.1594 -1.8217 -0.1457
 3910SOL     OW23362   1.915   2.402   9.521 -0.1340  0.2967  0.4203
 3910SOL    HW123363   1.863   2.470   9.476 -0.6744 -1.3089 -1.3659
 3910SOL    HW223364   1.869   2.406   9.605  0.1759  1.9457  0.5231
 3911SOL     OW23365   0.491   2.317   1.198 -0.2494  0.0213 -0.4216
 3911SOL    HW123366   0.578   2.355   1.205 -0.2742  0.0456 -0.2413
 3911SOL    HW223367   0.476   2.320   1.103 -0.3912 -0.5583 -0.4211
 3912SOL     OW23368   2.528   0.882   4.254 -0.1750 -0.1560  0.2187
 3912SOL    HW123369   2.511   0.923   4.338 -0.6266 -1.3953  0.7222
 3912SOL    HW223370   2.451   0.826   4.248  0.2819 -0.3409 -3.9338
 3913SOL     OW23371   3.780   3.517   4.773 -0.2616  0.2861  0.0598
 3913SOL    HW123372   3.757   3.544   4.684 -0.3352  0.0824  0.0169
 3913SOL    HW223373   3.860   3.568   4.785  0.1992 -0.5126  0.3560
 3914SOL     OW23374   4.707   4.678  15.497 -0.0291  0.1244 -0.5652
 3914SOL    HW123375   4.708   4.641  15.585  2.6511 -0.7290 -0.9397
 3914SOL    HW223376   4.691   0.029  15.518  0.5081  0.0326  0.2002
 3915SOL     OW23377   3.140   3.054  16.683 -0.0436 -0.3357  0.2144
 3915SOL    HW123378   3.093   3.131  16.714  0.0491  0.2004 -0.9411
 3915SOL    HW223379   3.071   2.989  16.679  0.2471 -0.5949 -0.7746
 3916SOL     OW23380   4.005   3.882   6.336 -0.6052 -0.5206 -0.2899
 3916SOL    HW123381   4.066   3.927   6.278  0.7733 -0.5021  1.1731
 3916SOL    HW223382   3.967   3.961   6.374 -1.2645 -1.6294  1.3798
 3917SOL     OW23383   1.573   0.829   3.827 -0.2655  0.3099 -0.2060
 3917SOL    HW123384   1.645   0.891   3.815  1.7518 -2.4276 -2.3622
 3917SOL    HW223385   1.621   0.759   3.872 -1.2685 -0.3313 -0.1324
 3918SOL     OW23386   2.164   2.555  14.343  0.1537 -0.0492 -0.1317
 3918SOL    HW123387   2.134   2.561  14.252 -1.0381 -2.3857  0.0974
 3918SOL    HW223388   2.161   2.646  14.372 -1.0182  0.0029 -0.4216
 3919SOL     OW23389   1.483   4.203   3.172 -0.0358 -0.1352 -0.3314
 3919SOL    HW123390   1.442   4.132   3.122 -3.1755 -0.0793  2.1354
 3919SOL    HW223391   1.533   4.250   3.105 -2.3557  0.6211 -1.5294
 3920SOL     OW23392   2.713   0.728   9.407 -0.0200  0.3950  0.4190
 3920SOL    HW123393   2.643   0.688   9.459 -0.7056  0.7916 -0.2016
 3920SOL    HW223394   2.796   0.682   9.423  0.1620  0.7551  0.5002
 3921SOL     OW23395   1.565   1.823   2.190 -0.1439  0.7645  0.1532
 3921SOL    HW123396   1.633   1.815   2.256 -1.8126 -2.6509  1.4408
 3921SOL    HW223397   1.599   1.901   2.146  2.1960 -0.9236 -1.0257
 3922SOL     OW23398   2.247   0.841   8.542  0.2101  0.9360 -0.3275
 3922SOL    HW123399   2.230   0.843   8.448  0.8272  1.7294 -0.4249
 3922SOL    HW223400   2.213   0.927   8.568  2.3821  1.3073  1.2775
 3923SOL     OW23401   0.545   2.328   4.193  0.0121 -0.0604 -0.4770
 3923SOL    HW123402   0.627   2.363   4.159 -0.4983  1.8522  0.2640
 3923SOL    HW223403   0.526   2.401   4.253 -1.0400  0.6813 -1.7049
 3924SOL     OW23404   2.319   1.544   5.417  0.4711 -0.7540  0.4852
 3924SOL    HW123405   2.311   1.619   5.476 -1.6698 -1.5446  1.1611
 3924SOL    HW223406   2.403   1.503   5.438  1.8953  1.6266 -0.4692
 3925SOL     OW23407   2.315   0.551  11.527 -0.0372 -1.0566  0.4031
 3925SOL    HW123408   2.327   0.514  11.614 -0.9842 -2.6379 -0.1528
 3925SOL    HW223409   2.288   0.469  11.485 -1.2400 -0.4769  0.0375
 3926SOL     OW23410   4.095   2.740   7.855  0.1854 -0.1644 -0.4062
 3926SOL    HW123411   4.030   2.689   7.902  1.4585 -1.2564  0.1948
 3926SOL    HW223412   4.057   2.772   7.773  1.0812  1.8314 -0.0490
 3927SOL     OW23413   2.981   4.202  12.293  0.1919  0.0850 -0.1601
 3927SOL    HW123414   2.973   4.220  12.199  2.8915 -1.3346 -0.6519
 3927SOL    HW223415   2.932   4.122  12.307 -0.0436  0.0604 -1.1495
 3928SOL     OW23416   1.069   1.808   9.258 -0.2322  1.0749 -0.1017
 3928SOL    HW123417   1.028   1.724   9.239  0.6838  0.5560  0.1717
 3928SOL    HW223418   1.163   1.789   9.255 -0.7989 -1.6790 -0.7802
 3929SOL     OW23419   3.804   0.145   2.737 -0.6468 -0.1365 -0.2307
 3929SOL    HW123420   3.884   0.198   2.737  0.9144 -2.4861 -3.0529
 3929SOL    HW223421   3.824   0.085   2.665  0.6688  1.2879 -1.0442
 3930SOL     OW23422   2.391   0.347   3.572  0.1286  0.7576 -0.1975
 3930SOL    HW123423   2.431   0.321   3.490 -0.3096 -1.8689  0.4128
 3930SOL    HW223424   2.419   0.438   3.583 -2.3962  1.6467 -0.9479
 3931SOL     OW23425   3.611   4.695   4.547 -0.4589  0.3514 -0.3860
 3931SOL    HW123426   3.608   0.050   4.545 -1.2636  0.3586  1.1519
 3931SOL    HW223427   3.703   4.699   4.575 -0.5676 -1.2095  0.1748
 3932SOL     OW23428   4.094   0.373  14.654  0.3146  0.1221  0.5853
 3932SOL    HW123429   4.059   0.292  14.618  2.8601 -1.1156  0.9339
 3932SOL    HW223430   4.068   0.435  14.586 -1.1744 -2.6857 -1.3953
 3933SOL     OW23431   0.846   3.077  10.298  0.2406 -0.2742  0.1671
 3933SOL    HW123432   0.889   3.095  10.215  1.2466 -1.4716  0.4327
 3933SOL    HW223433   0.854   2.983  10.313  0.6873 -0.1058  0.9766
 3934SOL     OW23434   1.411   3.848   3.390 -0.4589 -0.5946  0.0632
 3934SOL    HW123435   1.351   3.872   3.461 -0.5500  0.8241 -0.4915
 3934SOL    HW223436   1.431   3.755   3.402  3.3386  0.0770 -1.0281
 3935SOL     OW23437   4.567   1.446   7.251 -0.7350 -0.0528 -0.1349
 3935SOL    HW123438   4.502   1.446   7.181  0.6795 -1.3375 -1.4413
 3935SOL    HW223439   4.601   1.536   7.248 -1.6365  0.3411  1.4772
 3936SOL     OW23440   4.442   1.161   9.137  0.1851 -0.1630  0.2625
 3936SOL    HW123441   4.494   1.113   9.073 -1.9493 -3.3358  0.9204
 3936SOL    HW223442   4.416   1.240   9.090 -2.1626 -0.0710  1.7526
 3937SOL     OW23443   2.512   2.233  16.100  0.4650 -0.0761 -0.2714
 3937SOL    HW123444   2.455   2.157  16.108 -0.9538  1.0300  0.1072
 3937SOL    HW223445   2.513   2.279  16.183  1.8641 -3.2678  1.4795
 3938SOL     OW23446   0.768   2.898   1.870  0.6032 -0.4965 -0.0308
 3938SOL    HW123447   0.708   2.873   1.800  1.4012 -0.1956 -0.8063
 3938SOL    HW223448   0.758   2.837   1.944 -0.6119  0.3678  0.5164
 3939SOL     OW23449   1.385   0.471   8.630  0.2680 -0.0907 -0.4113
 3939SOL    HW123450   1.456   0.412   8.655  0.0227 -0.1955  0.0424
 3939SOL    HW223451   1.383   0.438   8.540 -0.0751  1.0155 -0.8079
 3940SOL     OW23452   4.400   0.823   2.193 -0.0948  0.5759 -0.7514
 3940SOL    HW123453   4.495   0.813   2.198 -0.0649  0.5917 -1.2877
 3940SOL    HW223454   4.379   0.817   2.286 -0.5023  1.2950 -0.7952
 3941SOL     OW23455   4.364   3.704   4.527 -0.2070 -0.0087  0.6984
 3941SOL    HW123456   4.455   3.732   4.533 -1.1131  3.2815 -0.8513
 3941SOL    HW223457   4.371   3.616   4.490  0.2215 -0.2698  1.3977
 3942SOL     OW23458   0.381   0.614   7.531  0.4860  0.4262 -0.3990
 3942SOL    HW123459   0.451   0.557   7.564 -0.3172  0.4042  1.2555
 3942SOL    HW223460   0.318   0.598   7.601 -0.0102 -2.5817 -1.5013
 3943SOL     OW23461   0.912   3.660   4.544 -0.3768  0.8106  0.2408
 3943SOL    HW123462   0.822   3.690   4.548 -0.4208  0.7992 -0.7250
 3943SOL    HW223463   0.931   3.646   4.637  0.7409  0.4299 -0.0355
 3944SOL     OW23464   2.355   2.842   3.355 -0.1789 -0.0048  0.0524
 3944SOL    HW123465   2.326   2.838   3.264  0.2474 -2.1588 -0.0005
 3944SOL    HW223466   2.288   2.895   3.397  0.7263 -0.0097  1.4978
 3945SOL     OW23467   0.414   2.069   1.483 -0.1249 -0.5267 -0.1154
 3945SOL    HW123468   0.353   2.080   1.555 -0.1675  0.8269 -0.3436
 3945SOL    HW223469   0.390   1.979   1.462 -1.2611 -0.4490  0.8404
 3946SOL     OW23470   1.823   1.270  16.604 -0.0990  0.1950 -0.4635
 3946SOL    HW123471   1.778   1.353  16.594 -0.6472 -0.0863 -0.3464
 3946SOL    HW223472   1.913   1.296  16.588 -0.0763  0.2978 -0.1790
 3947SOL     OW23473   2.820   0.758   5.259  0.0393 -0.7031 -0.3508
 3947SOL    HW123474   2.814   0.794   5.347 -0.0582  1.6356 -1.3212
 3947SOL    HW223475   2.872   0.678   5.268  0.8949 -0.0748  0.3392
 3948SOL     OW23476   3.705   0.369  13.984 -0.1874 -0.2734 -0.6457
 3948SOL    HW123477   3.642   0.297  13.989 -0.0860 -0.3098  0.1119
 3948SOL    HW223478   3.650   0.446  13.992  1.4585  1.0056 -1.5042
 3949SOL     OW23479   3.566   3.729   7.986  0.6134  0.0480  0.8660
 3949SOL    HW123480   3.509   3.690   7.919  0.1046  0.3634  1.1096
 3949SOL    HW223481   3.652   3.694   7.962  0.9158  0.9222  0.6658
 3950SOL     OW23482   1.172   3.993  16.154  0.8996 -0.7819  0.0075
 3950SOL    HW123483   1.251   3.971  16.104 -0.1142  2.4923 -3.0112
 3950SOL    HW223484   1.104   3.967  16.092  0.2468  0.2467  0.3021
 3951SOL     OW23485   3.741   3.127  17.312 -0.7295 -0.4746  0.0589
 3951SOL    HW123486   3.672   3.124  17.245 -0.2383 -0.8208 -0.4302
 3951SOL    HW223487   3.760   3.220  17.320 -0.1344 -0.3871 -2.2902
 3952SOL     OW23488   3.357   1.183   2.434 -0.7170 -0.6893  0.8846
 3952SOL    HW123489   3.436   1.228   2.404  0.0013  0.8652  5.1373
 3952SOL    HW223490   3.397   1.104   2.471  1.1687 -0.9458 -1.7309
 3953SOL     OW23491   2.024   0.230   6.108  0.3625  0.1869 -0.6088
 3953SOL    HW123492   2.035   0.185   6.191 -1.0462  0.4553 -0.2792
 3953SOL    HW223493   1.939   0.272   6.121  1.6535  2.7304 -0.5584
 3954SOL     OW23494   4.263   0.079   7.749  0.9239  0.3339 -0.1080
 3954SOL    HW123495   4.241   0.116   7.835  1.2878  0.8394 -0.2296
 3954SOL    HW223496   4.184   0.087   7.695  0.6350  0.6853  0.3589
 3955SOL     OW23497   2.273   2.663   4.347  0.1889  0.7248 -0.6101
 3955SOL    HW123498   2.362   2.644   4.317  0.3081 -1.8754  1.3869
 3955SOL    HW223499   2.282   2.751   4.384 -0.1083  1.1311 -1.5204
 3956SOL     OW23500   0.525   2.630  13.569  0.3445 -0.4301 -0.1426
 3956SOL    HW123501   0.538   2.547  13.524  2.5053 -0.0837 -0.1471
 3956SOL    HW223502   0.558   2.609  13.657 -1.3730  2.2836  1.1746
 3957SOL     OW23503   4.064   4.739   2.196 -0.2364 -0.1398 -0.6257
 3957SOL    HW123504   4.125   0.048   2.142 -1.5611 -0.1237 -2.0922
 3957SOL    HW223505   3.981   0.036   2.167 -0.7063 -1.2502 -0.7324
 3958SOL     OW23506   2.971   1.611   3.408  0.2523 -0.1679 -0.3111
 3958SOL    HW123507   3.031   1.602   3.334  0.8820  0.3645  0.1378
 3958SOL    HW223508   3.010   1.688   3.450  1.3349 -1.4126  0.9965
 3959SOL     OW23509   2.883   0.089   9.444  0.0367 -0.1953  0.2719
 3959SOL    HW123510   2.926   0.071   9.360 -1.9264  0.5532 -0.8766
 3959SOL    HW223511   2.868   0.002   9.480  0.9694 -0.6839 -0.5078
 3960SOL     OW23512   3.940   2.332   3.356  0.1857 -0.2174 -0.3575
 3960SOL    HW123513   3.921   2.382   3.277  0.7944 -0.0264 -0.3757
 3960SOL    HW223514   3.952   2.406   3.416  3.0400 -0.7946 -0.2412
 3961SOL     OW23515   0.073   1.252   9.488  0.1714 -0.3857  0.2528
 3961SOL    HW123516   0.016   1.177   9.472 -3.5996  2.9060 -1.6045
 3961SOL    HW223517   0.160   1.212   9.477 -0.6090 -2.0584  0.2265
 3962SOL     OW23518   0.347   2.204  16.679 -0.3894 -0.3884  0.5208
 3962SOL    HW123519   0.407   2.200  16.605 -1.0748  0.2045 -0.0692
 3962SOL    HW223520   0.401   2.148  16.734  0.0641  1.5162  2.0406
 3963SOL     OW23521   4.639   3.769   4.905  0.6991 -0.0073  0.3090
 3963SOL    HW123522   4.563   3.728   4.947  0.2601 -0.7386 -1.1773
 3963SOL    HW223523   4.598   3.773   4.818 -0.2620  2.3707  0.8577
 3964SOL     OW23524   2.291   2.876   5.806  0.7942 -0.1402  0.9092
 3964SOL    HW123525   2.335   2.899   5.887  0.1798 -0.5068  1.3475
 3964SOL    HW223526   2.360   2.816   5.778  0.2610  0.4442 -1.6329
 3965SOL     OW23527   2.948   3.132   9.259  0.6771  0.2220  0.0967
 3965SOL    HW123528   2.930   3.210   9.312 -0.0518  0.8202 -1.0349
 3965SOL    HW223529   2.904   3.161   9.179 -0.4530 -1.3338  0.1349
 3966SOL     OW23530   2.166   0.143   7.257  0.0918  0.1891  0.0714
 3966SOL    HW123531   2.174   0.235   7.284  1.3100  0.0133  0.3069
 3966SOL    HW223532   2.167   0.100   7.343  2.5864  1.1766  0.5467
 3967SOL     OW23533   1.971   4.220   4.429 -0.7870  0.4483  0.2036
 3967SOL    HW123534   2.028   4.229   4.505  1.7277  3.9719 -2.1442
 3967SOL    HW223535   1.895   4.187   4.477 -0.7160 -2.2131 -1.5271
 3968SOL     OW23536   3.654   0.304   6.138  0.6032  0.3546 -0.1321
 3968SOL    HW123537   3.723   0.242   6.161 -0.8571 -1.1879  0.1351
 3968SOL    HW223538   3.578   0.249   6.116  1.3605 -0.5140 -0.5778
 3969SOL     OW23539   2.423   2.749  12.460  1.0096  0.5045 -0.3782
 3969SOL    HW123540   2.341   2.751  12.509  1.0415  0.4704 -0.3244
 3969SOL    HW223541   2.406   2.666  12.416 -0.8477  0.5397  0.2949
 3970SOL     OW23542   3.653   1.852   2.904  0.5408 -0.0820  0.0559
 3970SOL    HW123543   3.680   1.936   2.944  1.1775  0.2790 -1.1451
 3970SOL    HW223544   3.672   1.863   2.811 -0.9548  0.3787 -0.2005
 3971SOL     OW23545   0.910   4.706   5.091  0.4633 -0.3319 -0.2073
 3971SOL    HW123546   0.950   4.619   5.092  0.9813 -0.0824  1.6653
 3971SOL    HW223547   0.827   4.700   5.138  1.2605 -0.8777  1.1357
 3972SOL     OW23548   2.881   3.702  10.180  0.1497 -0.2594 -0.1581
 3972SOL    HW123549   2.804   3.670  10.133  0.4202 -0.4780 -0.4577
 3972SOL    HW223550   2.846   3.782  10.218  3.0110 -0.3348  2.6156
 3973SOL     OW23551   2.883   4.231   5.736 -0.4660  0.2210 -0.2083
 3973SOL    HW123552   2.950   4.267   5.795 -1.8842  1.6540  0.5209
 3973SOL    HW223553   2.929   4.173   5.675 -1.5544 -0.6616 -0.1823
 3974SOL     OW23554   4.353   2.403   0.425  0.2270 -0.2737 -0.7272
 3974SOL    HW123555   4.371   2.375   0.515 -1.5657 -2.0933 -0.9405
 3974SOL    HW223556   4.337   2.325   0.373  0.2892 -1.2775  0.7556
 3975SOL     OW23557   3.866   4.085  16.027 -0.3735 -0.0147  0.5217
 3975SOL    HW123558   3.799   4.017  16.032 -0.1527 -0.2717 -0.0034
 3975SOL    HW223559   3.883   4.070  15.934  1.4809  0.2585  0.8277
 3976SOL     OW23560   2.975   3.564   9.227  0.3801  0.2814  0.6477
 3976SOL    HW123561   3.064   3.582   9.198  0.1448  0.1236 -0.1800
 3976SOL    HW223562   2.986   3.587   9.319 -0.2423 -0.4099  0.8972
 3977SOL     OW23563   1.660   0.568   3.931  0.3915  0.1615  0.4818
 3977SOL    HW123564   1.579   0.517   3.938 -0.9273  2.5680  2.5358
 3977SOL    HW223565   1.700   0.528   3.853 -0.7943  1.7862 -0.9421
 3978SOL     OW23566   1.590   2.597   9.830 -0.3521 -0.5287 -0.7720
 3978SOL    HW123567   1.655   2.638   9.886 -0.4804 -1.1160 -0.1973
 3978SOL    HW223568   1.506   2.601   9.876  0.1245  0.1743  0.0293
 3979SOL     OW23569   3.887   1.263   0.384 -0.0127  0.0465 -0.6181
 3979SOL    HW123570   3.931   1.348   0.390  0.0503 -0.0468  0.3046
 3979SOL    HW223571   3.815   1.282   0.324 -0.0660 -0.7477 -0.8090
 3980SOL     OW23572   4.722   1.464   9.611  0.4650  0.3346 -0.1613
 3980SOL    HW123573   0.013   1.386   9.566 -0.6442  0.7526 -1.6843
 3980SOL    HW223574   4.669   1.501   9.540 -0.4737 -0.0945  0.3207
 3981SOL     OW23575   2.733   2.130   1.171  0.4004 -0.5599  0.4171
 3981SOL    HW123576   2.667   2.086   1.119  0.9514 -0.7479 -0.1261
 3981SOL    HW223577   2.732   2.217   1.132  2.7591 -1.1883 -1.0629
 3982SOL     OW23578   1.183   3.268  15.169  0.4218 -0.4255  0.3487
 3982SOL    HW123579   1.232   3.285  15.089 -2.1974  0.3401 -1.0806
 3982SOL    HW223580   1.158   3.356  15.195  1.6005  0.2296 -0.7765
 3983SOL     OW23581   1.418   1.154   7.661 -0.2049  0.0802 -0.3953
 3983SOL    HW123582   1.418   1.228   7.600 -1.2699 -0.5112 -1.1057
 3983SOL    HW223583   1.373   1.087   7.610 -1.0477  0.9799 -0.8373
 3984SOL     OW23584   1.065   3.654  17.503  0.7504 -0.5909 -0.4267
 3984SOL    HW123585   1.139   3.696  17.548  0.9628 -2.7217  1.1803
 3984SOL    HW223586   1.098   3.652  17.413 -1.4821  0.6536 -1.2780
 3985SOL     OW23587   1.925   1.262  14.449  0.3374 -0.6773  0.0372
 3985SOL    HW123588   1.902   1.272  14.357  0.8511 -1.9495 -0.2206
 3985SOL    HW223589   1.860   1.196  14.474 -0.4907 -0.6293 -1.9701
 3986SOL     OW23590   3.168   4.102   2.897  0.1963 -0.1984 -0.1413
 3986SOL    HW123591   3.122   4.130   2.976  1.7560  0.5098  0.5303
 3986SOL    HW223592   3.256   4.111   2.934  0.3776  1.6972 -1.0006
 3987SOL     OW23593   1.750   3.697   3.049 -0.4107 -0.3060  0.0528
 3987SOL    HW123594   1.767   3.745   2.968  0.5619  0.1093  0.5135
 3987SOL    HW223595   1.816   3.730   3.110  0.7466  0.8427 -1.8234
 3988SOL     OW23596   0.330   4.712   1.423 -0.5413 -0.4089  0.1193
 3988SOL    HW123597   0.348   0.028   1.498  0.2854 -1.1215  0.4501
 3988SOL    HW223598   0.369   4.629   1.450 -0.8856 -1.1553 -1.6739
 3989SOL     OW23599   0.662   4.246   6.535 -0.1145  0.5431 -0.4895
 3989SOL    HW123600   0.697   4.281   6.453 -0.9446  2.0004 -0.2054
 3989SOL    HW223601   0.568   4.235   6.516 -0.5097  0.9992  1.2193
 3990SOL     OW23602   3.347   0.146   8.250 -0.6807 -0.3367  0.2931
 3990SOL    HW123603   3.381   0.211   8.189 -2.0998  1.1332  1.0770
 3990SOL    HW223604   3.270   0.182   8.294  0.7772  1.2884  1.4756
 3991SOL     OW23605   2.140   3.875   8.904  0.2761  0.4028 -0.0488
 3991SOL    HW123606   2.208   3.862   8.970 -0.3234  0.4901  0.5805
 3991SOL    HW223607   2.184   3.829   8.832 -0.2625  0.7669 -0.6045
 3992SOL     OW23608   1.886   2.948   6.344 -0.1219  0.6583 -0.2719
 3992SOL    HW123609   1.906   2.865   6.300 -2.4601  0.3325 -0.7506
 3992SOL    HW223610   1.792   2.953   6.327 -0.3654  0.5324  1.0490
 3993SOL     OW23611   2.310   2.506   0.969  0.2877 -1.3490 -0.2997
 3993SOL    HW123612   2.227   2.549   0.949  0.4927 -0.9401 -0.2751
 3993SOL    HW223613   2.367   2.563   0.917  1.2901 -1.7485  0.3628
 3994SOL     OW23614   3.036   3.908  10.437  0.6497 -0.0539  0.1417
 3994SOL    HW123615   2.973   3.909  10.364  0.4105  1.7725  0.3781
 3994SOL    HW223616   2.996   3.969  10.500  1.2193  0.7302 -0.2559
 3995SOL     OW23617   3.250   3.945   2.282  0.0648  0.5879  0.4565
 3995SOL    HW123618   3.158   3.943   2.256  0.4600 -2.5821 -0.6825
 3995SOL    HW223619   3.248   4.011   2.351 -0.5254 -0.4068  1.3984
 3996SOL     OW23620   4.494   3.871  17.406 -0.5900 -0.3001  0.0590
 3996SOL    HW123621   4.558   3.886  17.475 -1.0362  1.5215  0.0693
 3996SOL    HW223622   4.494   3.956  17.363  1.8466 -0.2606  0.1893
 3997SOL     OW23623   1.770   4.161   4.607 -0.0777 -0.2737  0.3719
 3997SOL    HW123624   1.807   4.148   4.694  0.2458  0.5335  0.3555
 3997SOL    HW223625   1.743   4.253   4.608  0.7564  0.0169 -3.5452
 3998SOL     OW23626   3.162   2.044  12.533 -0.1521 -0.3828  0.5380
 3998SOL    HW123627   3.154   2.125  12.482 -2.4375 -0.6325  0.4903
 3998SOL    HW223628   3.069   2.021  12.541 -0.0918 -1.0625 -0.7462
 3999SOL     OW23629   1.789   4.110   2.067  0.2804 -0.3728  0.5227
 3999SOL    HW123630   1.844   4.037   2.037 -0.8791 -0.8576 -0.4252
 3999SOL    HW223631   1.743   4.068   2.139  1.5062 -1.3944  0.7076
 4000SOL     OW23632   2.868   1.431   5.744  0.1608  0.2027 -0.7542
 4000SOL    HW123633   2.886   1.523   5.726 -1.2453  0.5826 -0.1515
 4000SOL    HW223634   2.842   1.429   5.836  1.2817 -2.0102 -0.4680
 4001SOL     OW23635   3.421   0.118  15.457 -0.4344 -0.5356 -0.1256
 4001SOL    HW123636   3.394   0.158  15.540  0.5974  0.5848 -0.3264
 4001SOL    HW223637   3.388   0.029  15.470  0.6692 -1.1404 -1.5405
 4002SOL     OW23638   4.510   1.991   9.878  0.3694  0.2802  0.0449
 4002SOL    HW123639   4.576   1.922   9.883 -0.1870 -0.0109  3.3458
 4002SOL    HW223640   4.438   1.941   9.840  1.3790 -0.9532 -0.2326
 4003SOL     OW23641   1.749   4.449   8.753  0.1880 -0.0007 -0.4128
 4003SOL    HW123642   1.819   4.394   8.789 -0.4478 -2.2289 -2.6044
 4003SOL    HW223643   1.740   4.519   8.818  1.0299 -0.4589  0.2090
 4004SOL     OW23644   1.203   0.751  10.453 -0.5351 -0.3764  0.2191
 4004SOL    HW123645   1.207   0.785  10.543  1.5806  0.7197 -0.2667
 4004SOL    HW223646   1.296   0.742  10.433 -0.7674  0.0301 -1.0314
 4005SOL     OW23647   0.252   2.259   8.933 -0.1471 -0.4189 -0.0686
 4005SOL    HW123648   0.202   2.255   8.852 -2.1169  1.0213  1.0804
 4005SOL    HW223649   0.324   2.198   8.915  0.5006  0.4377 -0.3541
 4006SOL     OW23650   2.875   0.828   6.834 -0.1414 -0.3959  0.7239
 4006SOL    HW123651   2.906   0.740   6.811  2.1705  0.5755  0.1566
 4006SOL    HW223652   2.890   0.824   6.928  1.6546 -0.8353  0.4250
 4007SOL     OW23653   1.350   3.710   5.233 -0.3352  0.2338 -0.2325
 4007SOL    HW123654   1.310   3.765   5.301 -0.2828  1.8316 -1.4854
 4007SOL    HW223655   1.425   3.761   5.202 -1.3451  0.8580 -1.7019
 4008SOL     OW23656   2.498   1.588   8.709 -0.0184 -0.0199  0.3201
 4008SOL    HW123657   2.529   1.525   8.774 -1.1785 -1.4288 -0.5058
 4008SOL    HW223658   2.496   1.669   8.761  2.4261 -0.7190  1.5097
 4009SOL     OW23659   2.555   0.697   5.222  0.3834  0.0724 -0.9204
 4009SOL    HW123660   2.650   0.696   5.209  0.6385 -1.5907  0.9278
 4009SOL    HW223661   2.533   0.616   5.176  1.9441 -2.0265  1.9571
 4010SOL     OW23662   4.531   3.257   4.215 -0.3625  0.2972 -0.0610
 4010SOL    HW123663   4.603   3.298   4.264  1.3668 -0.8780 -1.6063
 4010SOL    HW223664   4.580   3.177   4.196 -1.9415 -0.3846 -1.2273
 4011SOL     OW23665   3.217   0.052   4.450  0.1419  0.0734 -0.1656
 4011SOL    HW123666   3.250   0.059   4.360  1.1881  0.4927  0.2500
 4011SOL    HW223667   3.151   0.121   4.443 -0.4531 -0.3203  1.6993
 4012SOL     OW23668   0.635   3.577  14.749 -0.4966  0.8218 -0.0522
 4012SOL    HW123669   0.707   3.559  14.689 -0.2444  0.5148  0.3435
 4012SOL    HW223670   0.566   3.515  14.725 -0.6726  1.6066 -1.5423
 4013SOL     OW23671   1.489   4.648  16.846 -0.3180 -0.2171 -0.3549
 4013SOL    HW123672   1.561   4.628  16.787 -0.3093 -0.1000 -0.3842
 4013SOL    HW223673   1.417   4.616  16.792 -1.0260 -2.6837  2.0564
 4014SOL     OW23674   3.413   2.342   7.653 -0.2510 -0.8301  0.1612
 4014SOL    HW123675   3.446   2.371   7.568 -0.8642 -1.6706 -0.3646
 4014SOL    HW223676   3.483   2.287   7.688  1.3879 -0.2510 -2.1969
 4015SOL     OW23677   4.312   0.264   6.041 -0.2751  0.6039  0.1541
 4015SOL    HW123678   4.236   0.317   6.065 -0.1214  0.6889  0.4567
 4015SOL    HW223679   4.381   0.294   6.101 -2.4447  0.8047  2.5712
 4016SOL     OW23680   1.785   1.830   4.177 -0.3300 -0.4565  0.6887
 4016SOL    HW123681   1.833   1.827   4.260  0.8109 -0.7542  0.0299
 4016SOL    HW223682   1.836   1.761   4.135 -2.7725 -1.0861 -1.2208
 4017SOL     OW23683   3.483   3.275   9.014 -0.4271  0.0327  0.1588
 4017SOL    HW123684   3.467   3.355   8.964  3.0312  2.2003  2.5606
 4017SOL    HW223685   3.397   3.245   9.041 -1.9090  2.4049 -1.9754
 4018SOL     OW23686   3.136   3.424   9.919  0.1796  0.5483 -0.2551
 4018SOL    HW123687   3.185   3.372   9.856  0.4048  0.6319 -0.1468
 4018SOL    HW223688   3.162   3.386  10.003 -1.6500  0.1073  0.1197
 4019SOL     OW23689   0.929   0.161  14.333  0.0386 -0.0681  0.3199
 4019SOL    HW123690   0.969   0.233  14.383 -0.9030  1.9181 -1.7786
 4019SOL    HW223691   0.870   0.131  14.403  0.2605  0.4903  0.7525
 4020SOL     OW23692   2.382   0.206   6.503  0.6924  0.3428  0.5833
 4020SOL    HW123693   2.340   0.270   6.561  1.1786  0.7174  0.5210
 4020SOL    HW223694   2.341   0.239   6.423  0.1853  0.9181  1.0717
 4021SOL     OW23695   4.456   3.480   4.399  0.5981 -0.2942 -0.3225
 4021SOL    HW123696   4.443   3.392   4.365 -0.1411  0.8722 -3.1296
 4021SOL    HW223697   4.548   3.497   4.380  0.8634  1.8042  2.7982
 4022SOL     OW23698   3.507   4.428   0.611 -0.3315  0.5388 -0.4030
 4022SOL    HW123699   3.440   4.362   0.630 -0.6807  0.5407 -1.5812
 4022SOL    HW223700   3.556   4.369   0.553 -1.3061 -0.4990 -0.1863
 4023SOL     OW23701   1.560   2.269  12.799  0.3328 -0.0797 -0.7155
 4023SOL    HW123702   1.507   2.238  12.726  0.2617  0.0244 -0.7078
 4023SOL    HW223703   1.495   2.319  12.848 -0.7135  1.8100 -4.0960
 4024SOL     OW23704   3.757   0.335   8.062  0.1603 -0.1252 -0.4959
 4024SOL    HW123705   3.817   0.289   8.004  0.5723 -1.2274  0.8291
 4024SOL    HW223706   3.735   0.404   7.999 -1.7125  0.5544  0.8814
 4025SOL     OW23707   3.094   3.614   7.978 -0.0582  0.5630 -0.2291
 4025SOL    HW123708   3.121   3.688   8.032 -0.7157  0.0571  0.7876
 4025SOL    HW223709   3.068   3.556   8.049  4.0623  2.0161  2.4476
 4026SOL     OW23710   1.072   2.630   6.741  0.0443 -0.9064  0.0320
 4026SOL    HW123711   1.074   2.553   6.798  2.5906  0.2094  1.4914
 4026SOL    HW223712   1.143   2.684   6.776  0.5977 -1.5363 -0.1119
 4027SOL     OW23713   0.035   1.003   3.423  0.3868 -0.3931  0.0261
 4027SOL    HW123714   4.706   0.983   3.486  0.6788 -1.2096  0.0914
 4027SOL    HW223715   4.731   1.049   3.352 -0.0572  0.8294  1.1078
 4028SOL     OW23716   1.625   4.689  11.540 -0.0439  0.6967  0.0917
 4028SOL    HW123717   1.547   4.667  11.590 -0.1240 -0.7798 -0.6896
 4028SOL    HW223718   1.650   0.034  11.575 -0.8948  1.0112 -0.0773
 4029SOL     OW23719   1.753   4.661   8.482  0.2358  0.0606  0.2849
 4029SOL    HW123720   1.693   4.672   8.556 -1.0522 -1.7804 -0.4724
 4029SOL    HW223721   1.754   4.565   8.478  1.3015  0.1520 -1.5929
 4030SOL     OW23722   4.553   4.473  15.309 -0.4468 -0.2004  0.3499
 4030SOL    HW123723   4.582   4.469  15.400 -1.2059  2.5034  0.7374
 4030SOL    HW223724   4.502   4.554  15.299 -0.3714 -0.3194 -0.9704
 4031SOL     OW23725   0.799   2.815  10.298  0.5374 -0.4165 -0.5108
 4031SOL    HW123726   0.747   2.759  10.355 -0.3102  0.9565  0.0607
 4031SOL    HW223727   0.867   2.749  10.284  0.9193 -0.3018  0.7722
 4032SOL     OW23728   3.567   0.670   2.492  0.2823  0.1410  0.3682
 4032SOL    HW123729   3.620   0.592   2.509  0.2580  0.5260  2.1778
 4032SOL    HW223730   3.535   0.654   2.403  0.2317 -3.6161  1.0481
 4033SOL     OW23731   2.037   3.758   4.283 -0.7046  0.3655 -0.0276
 4033SOL    HW123732   1.966   3.761   4.348  0.2290 -0.6656  1.0493
 4033SOL    HW223733   2.081   3.677   4.308  1.5683  1.2415 -1.1688
 4034SOL     OW23734   3.704   2.519   4.628  0.6190 -0.4016 -0.0635
 4034SOL    HW123735   3.787   2.475   4.612  1.1998 -0.0933  2.0035
 4034SOL    HW223736   3.658   2.435   4.630 -0.5498  0.2109 -0.8190
 4035SOL     OW23737   3.036   3.431   1.281 -0.1782  0.0000  0.1678
 4035SOL    HW123738   2.969   3.474   1.227  0.8721 -0.4977 -1.5479
 4035SOL    HW223739   2.999   3.343   1.273  0.0610 -0.1605  0.8692
 4036SOL     OW23740   0.982   4.629   3.725 -0.1271  0.2596  0.3214
 4036SOL    HW123741   0.932   4.558   3.766 -0.1977 -0.3953 -0.9074
 4036SOL    HW223742   1.008   4.672   3.806 -0.3994  0.5597  0.2462
 4037SOL     OW23743   2.663   1.626   6.052  0.8855 -0.2037  0.1442
 4037SOL    HW123744   2.593   1.580   6.097  0.6927 -1.8728 -1.8391
 4037SOL    HW223745   2.623   1.643   5.967 -0.7395 -0.2216  0.9119
 4038SOL     OW23746   2.181   4.228   2.661  0.2655 -0.8444 -0.2229
 4038SOL    HW123747   2.274   4.209   2.648  0.4110 -0.4574  0.2360
 4038SOL    HW223748   2.150   4.205   2.574  1.0034  0.3312 -0.7898
 4039SOL     OW23749   0.346   2.549  14.966 -0.2533  0.6609  0.6120
 4039SOL    HW123750   0.420   2.506  14.922 -1.6776 -2.3256  1.1298
 4039SOL    HW223751   0.387   2.577  15.049  1.8726  0.0748 -0.2382
 4040SOL     OW23752   4.051   1.521   6.042  0.7838  0.2946  0.7803
 4040SOL    HW123753   4.010   1.570   6.114  0.3070 -0.8147  1.2733
 4040SOL    HW223754   4.079   1.443   6.089 -1.1290 -1.3830 -0.8579
 4041SOL     OW23755   1.825   1.548   9.248  0.0657  0.1819  0.4347
 4041SOL    HW123756   1.815   1.642   9.265 -1.0430  0.2115 -0.4345
 4041SOL    HW223757   1.918   1.545   9.224  0.2998  1.1846  1.1938
 4042SOL     OW23758   4.522   3.997   6.769 -0.2069  0.0182  0.5337
 4042SOL    HW123759   4.522   3.902   6.771  0.6208 -0.0266 -1.3003
 4042SOL    HW223760   4.470   4.008   6.689  0.0601  0.0404  0.3618
 4043SOL     OW23761   2.878   2.891  13.631 -0.3010 -0.4064  0.2328
 4043SOL    HW123762   2.947   2.875  13.567 -0.6549 -0.5127 -0.1161
 4043SOL    HW223763   2.804   2.915  13.575  1.7354  2.6084 -1.1757
 4044SOL     OW23764   3.475   4.268   7.374  0.0313  0.4706 -0.0025
 4044SOL    HW123765   3.496   4.297   7.463  0.9862 -0.1047 -0.0348
 4044SOL    HW223766   3.563   4.245   7.345  0.4845 -0.0272  1.7682
 4045SOL     OW23767   0.252   2.797   3.581 -0.6797  0.4872 -0.4127
 4045SOL    HW123768   0.219   2.854   3.651 -0.8397  0.0091 -0.1027
 4045SOL    HW223769   0.208   2.714   3.596  0.2979  0.4198  2.1220
 4046SOL     OW23770   4.529   0.032  10.863 -0.3071  0.0248 -0.0110
 4046SOL    HW123771   4.453   0.038  10.805  0.3147  0.5077 -0.7855
 4046SOL    HW223772   4.526   4.679  10.880  0.8966 -0.3840 -2.1024
 4047SOL     OW23773   3.574   1.189   2.787 -0.1881 -0.2831 -0.1559
 4047SOL    HW123774   3.593   1.276   2.824  0.0199  0.2693 -1.5495
 4047SOL    HW223775   3.594   1.128   2.858 -2.5401  0.1981  0.9485
 4048SOL     OW23776   0.890   4.697   7.728 -0.1785 -0.3056 -0.6552
 4048SOL    HW123777   0.867   0.004   7.808  1.5454  0.9252 -0.8974
 4048SOL    HW223778   0.915   4.610   7.759 -0.1755 -0.6832 -1.7305
 4049SOL     OW23779   2.697   4.054  10.091 -0.1369  0.2755  0.2970
 4049SOL    HW123780   2.612   4.090  10.115 -1.5472 -1.3134 -2.3631
 4049SOL    HW223781   2.720   4.099  10.010  2.8077  0.6114  1.3301
 4050SOL     OW23782   3.238   2.302  12.743  0.3865  0.5605  0.8302
 4050SOL    HW123783   3.201   2.379  12.700 -0.8222 -0.4917 -0.0481
 4050SOL    HW223784   3.158   2.261  12.776 -0.5150  0.6340 -1.2138
 4051SOL     OW23785   0.244   4.475  11.373  1.3294 -0.0235 -0.1893
 4051SOL    HW123786   0.205   4.556  11.340  1.1299  0.1094  0.3837
 4051SOL    HW223787   0.248   4.422  11.293 -0.7593 -0.9564  0.3065
 4052SOL     OW23788   4.178   2.802   2.159  0.1369  0.3977 -0.2659
 4052SOL    HW123789   4.123   2.729   2.132  1.7642 -0.8184 -0.3440
 4052SOL    HW223790   4.259   2.751   2.171 -0.3405 -0.0339  1.1723
 4053SOL     OW23791   4.288   4.668   1.255 -0.2299  0.0433 -0.1580
 4053SOL    HW123792   4.221   4.603   1.234 -0.4948  1.7200 -4.5326
 4053SOL    HW223793   4.340   4.659   1.175 -0.0185  0.6809 -0.0897
 4054SOL     OW23794   4.632   4.369   6.651  0.1753 -0.5660 -0.3979
 4054SOL    HW123795   4.557   4.392   6.707  1.9925 -0.8111  2.0952
 4054SOL    HW223796   4.683   4.450   6.644 -1.3659  0.4920  0.4871
 4055SOL     OW23797   4.354   1.662   3.053 -0.0979  0.4202 -0.2955
 4055SOL    HW123798   4.399   1.580   3.076  1.5115  0.7984 -2.1506
 4055SOL    HW223799   4.407   1.725   3.103  1.3865 -0.5945 -0.5878
 4056SOL     OW23800   1.394   2.576  10.013  0.4548  0.0599  0.4136
 4056SOL    HW123801   1.373   2.483  10.013 -1.3199  0.4389  1.4891
 4056SOL    HW223802   1.364   2.595  10.102  2.1369 -2.3348  1.4923
 4057SOL     OW23803   2.358   4.739   1.591 -0.1788 -0.2898 -0.3692
 4057SOL    HW123804   2.314   4.741   1.675  0.6011  2.2924 -0.0055
 4057SOL    HW223805   2.423   4.672   1.613 -2.3654 -1.9513  0.9613
 4058SOL     OW23806   3.043   2.407   7.059  0.5674 -0.0878  0.0133
 4058SOL    HW123807   2.991   2.484   7.038 -0.1294 -1.2546 -2.6558
 4058SOL    HW223808   3.069   2.364   6.977  2.2525 -2.1677  1.6173
 4059SOL     OW23809   0.470   1.004   7.913  0.4795  0.0798  0.3399
 4059SOL    HW123810   0.510   0.929   7.870  0.7369 -0.5836  1.7121
 4059SOL    HW223811   0.494   1.076   7.855 -3.7948  0.2669 -1.1737
 4060SOL     OW23812   3.311   3.081   5.341  0.1136 -0.5689 -0.8322
 4060SOL    HW123813   3.366   3.003   5.350 -0.6709 -1.2784 -2.0784
 4060SOL    HW223814   3.260   3.065   5.262 -2.3600 -1.8144  1.0161
 4061SOL     OW23815   0.463   1.257   4.970 -0.3564 -0.2929 -0.2106
 4061SOL    HW123816   0.443   1.295   4.884 -0.9293  1.5715  0.7507
 4061SOL    HW223817   0.389   1.277   5.027 -0.8000  0.5645 -1.0902
 4062SOL     OW23818   0.931   0.180  14.876  0.0823 -0.6995  0.7068
 4062SOL    HW123819   0.871   0.254  14.880 -0.3319 -1.0899  1.6353
 4062SOL    HW223820   1.007   0.225  14.913  1.1668 -2.7351  0.9974
 4063SOL     OW23821   2.590   0.989   8.864 -0.1602 -0.1106  0.7404
 4063SOL    HW123822   2.630   0.905   8.841 -1.1188 -0.2952 -0.2527
 4063SOL    HW223823   2.535   1.008   8.788 -0.5477  0.5394  1.1830
 4064SOL     OW23824   0.272   3.438  10.593  0.1400 -0.1942 -0.1251
 4064SOL    HW123825   0.330   3.476  10.527  0.9614 -0.3826  0.4842
 4064SOL    HW223826   0.187   3.478  10.576  0.0656 -0.8286 -1.2301
 4065SOL     OW23827   3.534   1.039   7.076  0.1648  0.6086  0.0707
 4065SOL    HW123828   3.585   1.015   6.998 -0.6442  1.2533 -0.6578
 4065SOL    HW223829   3.458   1.075   7.030 -0.2674  1.0057  1.1119
 4066SOL     OW23830   2.347   0.004   6.033 -0.1534 -0.3728  0.6720
 4066SOL    HW123831   2.310   4.694   5.961 -0.9290  0.4419  0.4942
 4066SOL    HW223832   2.292   0.083   6.035 -1.1247 -0.9797 -2.5814
 4067SOL     OW23833   3.399   4.179   0.681 -0.1415 -0.3106  0.0842
 4067SOL    HW123834   3.318   4.167   0.730 -0.5977 -1.6425 -0.9804
 4067SOL    HW223835   3.461   4.129   0.734 -0.9543 -0.4928  0.8609
 4068SOL     OW23836   0.254   4.037  14.839  0.1352 -0.2392  0.9662
 4068SOL    HW123837   0.163   4.010  14.830  0.3769 -1.0764  1.0013
 4068SOL    HW223838   0.266   4.057  14.746 -0.2926 -1.7001  0.5996
 4069SOL     OW23839   2.543   3.745   7.267  1.1666 -0.3614 -0.0432
 4069SOL    HW123840   2.521   3.704   7.351 -0.5612  0.9517  0.1388
 4069SOL    HW223841   2.618   3.697   7.233  2.1663  1.8863 -0.9966
 4070SOL     OW23842   2.898   1.274   5.525 -0.3250  0.7851  0.0075
 4070SOL    HW123843   2.833   1.303   5.461 -3.3224 -0.6993  2.3826
 4070SOL    HW223844   2.887   1.330   5.602 -1.4107 -0.4366  0.7340
 4071SOL     OW23845   4.554   2.333  10.107 -0.4870 -0.2125  0.2702
 4071SOL    HW123846   4.598   2.382  10.178 -2.9496  0.8748  1.0417
 4071SOL    HW223847   4.627   2.284  10.070 -0.3119 -0.1633  0.5446
 4072SOL     OW23848   0.764   3.607   6.968 -0.0649 -0.2718 -0.1855
 4072SOL    HW123849   0.768   3.694   6.929 -0.2456 -0.5490 -0.8227
 4072SOL    HW223850   0.852   3.574   6.951  0.5919  1.5451 -0.2557
 4073SOL     OW23851   0.200   2.597   3.815  0.1666  0.4746  0.9067
 4073SOL    HW123852   0.135   2.661   3.844  1.0332  0.0834  3.7131
 4073SOL    HW223853   0.240   2.564   3.896 -1.0774  0.6952  1.6058
 4074SOL     OW23854   1.319   0.065   5.023 -0.5017  0.2945  0.2756
 4074SOL    HW123855   1.320   4.712   5.041 -0.6796  0.1117 -0.6991
 4074SOL    HW223856   1.246   0.091   5.079  1.2128  3.7065  0.9952
 4075SOL     OW23857   1.161   2.172   9.912 -0.4666 -0.4272  0.3154
 4075SOL    HW123858   1.125   2.190   9.825  1.5626 -0.5903 -0.5559
 4075SOL    HW223859   1.248   2.146   9.882 -1.6649 -1.6551 -2.1472
 4076SOL     OW23860   0.074   0.936  13.348 -0.3908  0.3200 -0.4253
 4076SOL    HW123861   0.126   1.016  13.357 -0.3558  0.2771 -0.2433
 4076SOL    HW223862   0.069   0.914  13.441  0.0487  0.6775 -0.3177
 4077SOL     OW23863   0.179   2.559   8.308 -0.1196  0.1250 -0.5009
 4077SOL    HW123864   0.153   2.480   8.355 -0.9188 -0.0736 -1.2783
 4077SOL    HW223865   0.098   2.610   8.306  0.3300  0.9323  1.5426
 4078SOL     OW23866   3.924   4.348   6.396 -0.0283 -0.2905  0.2062
 4078SOL    HW123867   3.862   4.277   6.411 -0.8433  0.5750  0.9353
 4078SOL    HW223868   3.884   4.419   6.447 -2.4481  0.3665 -2.6157
 4079SOL     OW23869   3.543   4.060   5.169  0.1340 -0.4802 -0.6205
 4079SOL    HW123870   3.597   4.139   5.172 -1.7690  0.7568  1.3978
 4079SOL    HW223871   3.533   4.066   5.074 -0.6751 -2.0539 -0.6321
 4080SOL     OW23872   0.409   2.378   7.818 -0.0133  0.4035  0.1206
 4080SOL    HW123873   0.409   2.285   7.794 -1.3087  0.9015 -1.8116
 4080SOL    HW223874   0.344   2.413   7.757 -0.1703 -1.0215 -0.5405
 4081SOL     OW23875   3.055   0.258   3.246 -0.1460 -0.0850  0.0548
 4081SOL    HW123876   3.085   0.200   3.316  1.5886  0.5148 -0.1953
 4081SOL    HW223877   2.979   0.215   3.206 -0.5276  0.5876  0.0675
 4082SOL     OW23878   4.614   3.191   5.849  0.0935  0.6464  0.5278
 4082SOL    HW123879   4.667   3.137   5.790  0.2514  0.9462  0.3919
 4082SOL    HW223880   4.662   3.176   5.931  0.3339  1.8814  0.6199
 4083SOL     OW23881   3.546   0.876   2.889  0.2040  0.2693 -0.2910
 4083SOL    HW123882   3.630   0.852   2.927 -0.5207 -2.2153 -0.2144
 4083SOL    HW223883   3.511   0.936   2.954 -1.6373  2.2559 -3.1338
 4084SOL     OW23884   1.832   3.048   2.033 -0.1368  0.1222  0.4411
 4084SOL    HW123885   1.857   2.969   2.081  3.0010  0.0370 -1.3045
 4084SOL    HW223886   1.775   3.008   1.967 -1.2152 -2.1127  2.7129
 4085SOL     OW23887   1.703   3.067   6.575 -0.3481 -0.8169 -0.3497
 4085SOL    HW123888   1.642   3.048   6.503 -0.5398  0.4235 -0.5050
 4085SOL    HW223889   1.774   3.111   6.529 -2.2029  2.5351  0.0437
 4086SOL     OW23890   2.420   3.028   8.149 -0.3593 -0.3904 -0.1975
 4086SOL    HW123891   2.507   3.033   8.188 -1.9035  0.6551  3.2009
 4086SOL    HW223892   2.400   3.122   8.148 -3.0368 -0.9980 -3.1038
 4087SOL     OW23893   2.996   1.105   5.136 -0.0196  0.1330 -0.6189
 4087SOL    HW123894   3.037   1.191   5.146  1.1748 -0.5318  0.2363
 4087SOL    HW223895   3.008   1.061   5.221  1.4933  0.1869 -0.8099
 4088SOL     OW23896   4.529   2.265  11.492 -0.1025 -0.6997 -0.3472
 4088SOL    HW123897   4.483   2.193  11.534 -1.6635  1.8335  2.2987
 4088SOL    HW223898   4.483   2.336  11.536  2.4456  0.0495  1.1719
 4089SOL     OW23899   0.256   4.353   5.820 -0.0607  0.1900 -0.6327
 4089SOL    HW123900   0.288   4.286   5.881  0.8652  1.2062  0.0076
 4089SOL    HW223901   0.333   4.409   5.822  0.9696 -1.2803  1.0894
 4090SOL     OW23902   1.309   1.596   1.535  0.2128 -0.2059  0.0315
 4090SOL    HW123903   1.336   1.578   1.445  0.4522  0.2218  0.0167
 4090SOL    HW223904   1.288   1.690   1.534  0.3490 -0.1987 -1.7704
 4091SOL     OW23905   3.649   1.953   4.900 -0.2108  0.2197 -0.1299
 4091SOL    HW123906   3.575   1.900   4.869 -0.6308  0.7777 -0.1005
 4091SOL    HW223907   3.671   1.909   4.982  0.5847  0.4482 -0.2219
 4092SOL     OW23908   2.382   2.235   2.712  0.1938  0.4391 -0.4167
 4092SOL    HW123909   2.348   2.307   2.766 -0.3299 -0.9747  1.1332
 4092SOL    HW223910   2.461   2.222   2.765  0.0864  1.6892  0.0515
 4093SOL     OW23911   0.784   1.911   5.956  0.1086 -0.0238 -0.1863
 4093SOL    HW123912   0.728   1.892   5.881 -3.4318  0.0793  2.4814
 4093SOL    HW223913   0.870   1.939   5.924  0.8307 -1.4424  0.4921
 4094SOL     OW23914   2.862   4.216  16.574  0.5769  0.2728  0.0578
 4094SOL    HW123915   2.929   4.204  16.642 -0.5972 -0.8877  0.9999
 4094SOL    HW223916   2.903   4.291  16.531 -1.5421  0.4920 -1.5399
 4095SOL     OW23917   0.039   4.230   5.693 -0.6447  0.1787 -0.0449
 4095SOL    HW123918   0.113   4.286   5.717 -0.2044 -0.5098  0.2323
 4095SOL    HW223919   0.011   4.279   5.616  0.1470  1.9857  0.8234
 4096SOL     OW23920   0.197   2.400   1.991  0.1409  0.4500  0.2889
 4096SOL    HW123921   0.226   2.489   2.008 -0.1065  0.9971 -2.1168
 4096SOL    HW223922   0.147   2.422   1.912 -0.3833 -2.4826 -0.1806
 4097SOL     OW23923   2.700   0.185   8.112 -0.2383 -0.1628 -0.6736
 4097SOL    HW123924   2.749   0.186   8.030 -1.7787  2.3020 -1.5918
 4097SOL    HW223925   2.661   0.273   8.113 -2.1059 -1.0147  0.4288
 4098SOL     OW23926   0.414   2.531  16.750 -0.2132 -0.2176 -0.7347
 4098SOL    HW123927   0.431   2.615  16.793  1.1315 -0.6953 -0.3415
 4098SOL    HW223928   0.449   2.470  16.815  1.4609  0.3217 -1.1344
 4099SOL     OW23929   1.433   1.308   5.741  0.0074  0.0300 -0.3320
 4099SOL    HW123930   1.340   1.299   5.721 -0.0884 -2.3615  1.1854
 4099SOL    HW223931   1.464   1.384   5.691 -2.4743  0.5647 -1.0734
 4100SOL     OW23932   2.337   4.644   9.281 -0.2424 -0.2696  0.0715
 4100SOL    HW123933   2.413   4.627   9.337 -1.0460 -1.3118  0.8415
 4100SOL    HW223934   2.293   4.562   9.304  0.1082  0.2370  2.4633
 4101SOL     OW23935   3.542   0.929   5.930 -0.0455 -0.3887 -0.8151
 4101SOL    HW123936   3.471   0.867   5.913 -1.9957  0.8123  3.0433
 4101SOL    HW223937   3.558   0.917   6.023 -1.0741 -1.5869 -0.7962
 4102SOL     OW23938   4.024   2.486   6.652 -0.4398  0.0012 -0.0659
 4102SOL    HW123939   4.062   2.540   6.721  2.0215 -0.9331 -0.6927
 4102SOL    HW223940   3.940   2.465   6.691 -0.6923  2.0439  0.4676
 4103SOL     OW23941   1.701   1.961   6.659 -0.2333  0.0348 -0.2450
 4103SOL    HW123942   1.636   1.939   6.593  0.9971 -0.5876 -1.2198
 4103SOL    HW223943   1.785   1.961   6.614  0.6074 -0.3888  1.3035
 4104SOL     OW23944   4.419   4.433   6.083 -0.0786 -0.1165  0.1667
 4104SOL    HW123945   4.348   4.473   6.034  0.1220 -1.2289 -1.0283
 4104SOL    HW223946   4.380   4.346   6.095  0.0650  0.0037  1.4681
 4105SOL     OW23947   1.985   3.461   4.623  0.0640 -0.2377  0.6411
 4105SOL    HW123948   1.917   3.503   4.676 -0.5626 -0.0561 -0.3038
 4105SOL    HW223949   2.017   3.392   4.681  1.1731 -1.3703 -1.3091
 4106SOL     OW23950   3.233   2.516   4.494 -0.0242  0.3898 -0.0405
 4106SOL    HW123951   3.259   2.466   4.572  0.3947  1.6743  0.6443
 4106SOL    HW223952   3.310   2.550   4.449 -1.2102  0.4369 -2.0262
 4107SOL     OW23953   2.769   3.490   5.028 -0.5581 -0.2104 -0.0031
 4107SOL    HW123954   2.770   3.458   5.118 -0.3881  1.1207  0.4816
 4107SOL    HW223955   2.691   3.545   5.035 -0.1979  0.6621 -2.5148
 4108SOL     OW23956   2.493   0.328   7.229 -0.2069 -0.5022  0.6087
 4108SOL    HW123957   2.466   0.262   7.165  0.0201  2.9748 -3.0526
 4108SOL    HW223958   2.472   0.281   7.309 -1.1848 -0.2359  0.5001
 4109SOL     OW23959   0.996   0.376   4.485 -0.3910 -0.1086  0.0530
 4109SOL    HW123960   0.979   0.422   4.568 -1.0873 -0.1631 -0.0564
 4109SOL    HW223961   1.077   0.327   4.499 -1.4634 -1.4159  1.7458
 4110SOL     OW23962   0.483   2.130  17.305 -0.2728  0.0967 -0.2909
 4110SOL    HW123963   0.435   2.190  17.248  1.8686  1.2155 -0.9056
 4110SOL    HW223964   0.507   2.188  17.377 -0.9376  0.6709 -0.5322
 4111SOL     OW23965   0.368   3.979   2.295  0.7245  0.7234 -0.0739
 4111SOL    HW123966   0.353   4.058   2.346 -0.4994  0.8856 -0.6774
 4111SOL    HW223967   0.450   3.994   2.248  0.8433  0.4215  0.0360
 4112SOL     OW23968   1.619   3.629   9.661  0.6665  0.4371 -0.5748
 4112SOL    HW123969   1.643   3.617   9.569 -0.4210  1.2286 -0.9624
 4112SOL    HW223970   1.578   3.546   9.683  0.4346  0.1846 -1.9318
 4113SOL     OW23971   0.983   4.291   4.384  0.3642 -0.7117  0.1530
 4113SOL    HW123972   0.926   4.341   4.326  1.0504  1.4234  1.3255
 4113SOL    HW223973   0.985   4.352   4.458 -1.2346  0.1915 -0.5500
 4114SOL     OW23974   3.221   2.085   2.363  0.1781 -0.4985 -0.4037
 4114SOL    HW123975   3.194   2.087   2.455  1.0627  2.5082 -0.2164
 4114SOL    HW223976   3.221   2.178   2.343  0.8753 -0.0480  1.6694
 4115SOL     OW23977   0.213   3.379   3.014 -0.3172 -0.2148  0.4541
 4115SOL    HW123978   0.121   3.356   3.027  0.0838 -1.4758  1.0912
 4115SOL    HW223979   0.222   3.335   2.930  4.4678  1.6645 -0.0312
 4116SOL     OW23980   0.415   1.251   3.316  0.2683  0.1645  0.0806
 4116SOL    HW123981   0.480   1.182   3.321  0.4226  0.2198 -1.2497
 4116SOL    HW223982   0.359   1.224   3.244  2.4857 -1.7109 -0.9101
 4117SOL     OW23983   4.206   2.588   2.851 -0.2441  0.5689  0.3055
 4117SOL    HW123984   4.225   2.512   2.906  0.5281  0.4463 -0.1257
 4117SOL    HW223985   4.187   2.537   2.773  0.2357 -0.4791  0.8755
 4118SOL     OW23986   4.319   1.631   2.613 -0.0755 -0.0086  0.3211
 4118SOL    HW123987   4.276   1.712   2.640  0.6362 -0.0040  1.4618
 4118SOL    HW223988   4.256   1.595   2.551  1.9739 -1.4746 -0.9212
 4119SOL     OW23989   3.252   1.720  17.530 -0.2926 -0.3588 -0.3550
 4119SOL    HW123990   3.262   1.691  17.439 -0.8866  1.6024 -1.0427
 4119SOL    HW223991   3.308   1.659  17.578  0.7615  2.2820  1.7411
 4120SOL     OW23992   2.454   3.104   3.027  0.5793 -0.2914 -0.3503
 4120SOL    HW123993   2.441   3.017   2.990 -0.9046 -1.5180  3.0567
 4120SOL    HW223994   2.438   3.161   2.952  0.6689  1.3012  0.8313
 4121SOL     OW23995   0.820   3.175   6.316  0.1582 -0.7505 -0.3787
 4121SOL    HW123996   0.752   3.243   6.315  0.8307 -0.0293  1.2030
 4121SOL    HW223997   0.789   3.116   6.385  1.1569 -1.3740 -0.4780
 4122SOL     OW23998   3.640   4.613   4.271 -0.6780  0.3042  0.6100
 4122SOL    HW123999   3.734   4.603   4.258 -1.1565 -0.9559 -1.8437
 4122SOL    HW224000   3.633   4.644   4.362 -0.2754  0.6491  0.5176
 4123SOL     OW24001   1.212   4.604  17.737  0.1850 -0.3631  0.0388
 4123SOL    HW124002   1.308   4.610  17.731 -0.0621  1.1292 -2.4484
 4123SOL    HW224003   1.211   4.587   0.070 -0.8895 -1.2692 -0.1436
 4124SOL     OW24004   0.034   0.089  14.663 -0.3622  0.3732  0.4300
 4124SOL    HW124005   4.738   0.146  14.730 -0.4136  0.8395  0.0036
 4124SOL    HW224006   0.126   0.112  14.677 -0.4398  1.3878 -0.7062
 4125SOL     OW24007   3.949   0.957  11.702  0.2305 -0.6353  0.2089
 4125SOL    HW124008   3.885   0.988  11.766  1.4351 -1.1114  1.6285
 4125SOL    HW224009   4.011   1.030  11.699  1.5054 -1.7313 -0.0787
 4126SOL     OW24010   0.319   2.618   7.455 -0.1604  0.4456  0.5235
 4126SOL    HW124011   0.261   2.688   7.424 -0.0242  1.7222  3.1722
 4126SOL    HW224012   0.405   2.654   7.430 -0.2265  0.6351  0.5678
 4127SOL     OW24013   3.314   0.772  13.382 -0.5061  0.2053  0.2546
 4127SOL    HW124014   3.372   0.826  13.328  1.0178 -0.4185  1.2988
 4127SOL    HW224015   3.242   0.752  13.322  0.9796 -1.1626 -1.0726
 4128SOL     OW24016   4.720   1.089   7.353 -0.6493  0.2847  0.4662
 4128SOL    HW124017   4.638   1.065   7.397 -0.4735  1.9603  1.6878
 4128SOL    HW224018   4.727   1.183   7.370  2.2022  0.2168 -0.2795
 4129SOL     OW24019   0.941   1.780   2.259  0.5874  0.0464  0.1271
 4129SOL    HW124020   0.978   1.813   2.178  0.4447 -0.1962 -0.0359
 4129SOL    HW224021   0.920   1.689   2.238  2.0067 -0.2734  0.0933
 4130SOL     OW24022   1.444   4.174   5.138 -0.2236  0.5300 -0.0826
 4130SOL    HW124023   1.457   4.219   5.222  0.1335  0.9794 -0.3847
 4130SOL    HW224024   1.522   4.211   5.098  0.5172 -0.4736  0.4268
 4131SOL     OW24025   0.758   1.952   6.444 -0.4847 -0.3951 -0.1933
 4131SOL    HW124026   0.687   2.005   6.407 -0.2844  0.3825  0.5371
 4131SOL    HW224027   0.787   1.905   6.366  1.4836  1.2527 -0.4452
 4132SOL     OW24028   1.290   0.265   8.129  0.8683  0.0883  0.8191
 4132SOL    HW124029   1.374   0.236   8.093  0.4146 -0.7158  0.3923
 4132SOL    HW224030   1.299   0.354   8.093 -0.5620  0.6695  1.9084
 4133SOL     OW24031   0.502   1.323   8.489  0.1992  0.0753  0.1377
 4133SOL    HW124032   0.532   1.236   8.517 -0.3001 -0.0642  0.2462
 4133SOL    HW224033   0.440   1.303   8.419  0.0591 -0.5777  0.4451
 4134SOL     OW24034   1.950   0.937   5.592  0.0509  0.6450  0.6751
 4134SOL    HW124035   1.859   0.959   5.570  0.5328  0.9791 -0.9813
 4134SOL    HW224036   2.003   0.960   5.516  1.9684  0.5987  2.0122
 4135SOL     OW24037   1.720   1.866   5.918  0.1957 -0.5468  0.1715
 4135SOL    HW124038   1.789   1.930   5.903  0.4007 -0.2102  2.4533
 4135SOL    HW224039   1.760   1.780   5.927 -2.5798 -1.9732 -0.8455
 4136SOL     OW24040   4.517   0.262   6.896  0.3431 -0.1905 -0.0062
 4136SOL    HW124041   4.582   0.215   6.949 -1.0773 -0.8482  1.1438
 4136SOL    HW224042   4.448   0.282   6.959 -0.5378 -0.7888 -0.7979
 4137SOL     OW24043   2.065   4.580   6.321 -0.3182 -0.2489  0.1023
 4137SOL    HW124044   2.004   4.601   6.250  1.7317 -0.7910 -1.8372
 4137SOL    HW224045   2.072   4.669   6.356 -0.6557 -0.7772  1.5229
 4138SOL     OW24046   3.429   1.927   5.890 -0.1025 -0.5732 -0.6259
 4138SOL    HW124047   3.392   1.953   5.974 -1.5776  2.6523 -2.2341
 4138SOL    HW224048   3.511   1.975   5.879  0.4434 -1.8356 -2.0427
 4139SOL     OW24049   3.678   1.986   8.786  1.0101  0.3311  0.4971
 4139SOL    HW124050   3.744   2.005   8.720  0.5713 -0.9939 -0.3222
 4139SOL    HW224051   3.644   2.075   8.784 -0.9643 -0.4162  0.6435
 4140SOL     OW24052   0.445   3.413   4.090 -0.8152 -0.2131  0.2454
 4140SOL    HW124053   0.538   3.428   4.107 -0.9782  0.9341  0.0780
 4140SOL    HW224054   0.452   3.368   4.006 -0.1669  1.1583 -0.4281
 4141SOL     OW24055   2.744   3.573  12.914  0.2645 -0.0486 -0.8495
 4141SOL    HW124056   2.655   3.555  12.944  1.3163 -2.5618  0.7941
 4141SOL    HW224057   2.740   3.546  12.822  0.3049  2.9507 -1.7139
 4142SOL     OW24058   1.183   0.734   5.689  0.3462  0.1181  0.0247
 4142SOL    HW124059   1.238   0.807   5.661 -1.9734  2.3297  1.1770
 4142SOL    HW224060   1.184   0.768   5.779  1.0918  1.3514 -0.4405
 4143SOL     OW24061   3.837   2.156   4.848  0.2395 -0.4614 -0.2008
 4143SOL    HW124062   3.766   2.104   4.886  0.0435  0.1281  0.2428
 4143SOL    HW224063   3.831   2.234   4.903  1.6087 -0.2266 -0.3999
 4144SOL     OW24064   4.521   1.708   7.757 -1.1018 -0.5010 -0.2469
 4144SOL    HW124065   4.433   1.678   7.734 -0.9730  0.7577 -2.3799
 4144SOL    HW224066   4.508   1.719   7.851  1.0880  1.0067 -0.1172
 4145SOL     OW24067   4.379   0.975  16.389  0.0038  0.4123 -0.0189
 4145SOL    HW124068   4.403   0.883  16.398 -0.9062  0.0666 -1.1733
 4145SOL    HW224069   4.332   0.980  16.306  0.0724  2.6247  0.0686
 4146SOL     OW24070   2.674   0.282   1.283  0.7288 -0.2941 -0.3690
 4146SOL    HW124071   2.609   0.312   1.347  1.3074 -0.1776  0.1732
 4146SOL    HW224072   2.652   0.189   1.280 -2.3895  0.4264 -0.2581
 4147SOL     OW24073   0.019   4.504   6.278  0.1665  0.1406  0.1388
 4147SOL    HW124074   4.724   4.492   6.190 -0.0535  2.2449 -0.0822
 4147SOL    HW224075   0.006   4.415   6.310 -0.1532  0.4663  0.9091
 4148SOL     OW24076   3.324   4.483  13.302  0.3790  0.1309 -0.4453
 4148SOL    HW124077   3.314   4.578  13.293  1.6090  0.3545  0.5718
 4148SOL    HW224078   3.239   4.457  13.266  0.7947  0.2918 -1.5397
 4149SOL     OW24079   1.837   1.624   6.044  0.0881 -0.1846 -0.1050
 4149SOL    HW124080   1.906   1.671   6.090  0.8088 -0.1106 -1.2654
 4149SOL    HW224081   1.883   1.598   5.964 -0.2428 -0.6036 -0.1581
 4150SOL     OW24082   3.654   3.269   2.098  0.1873 -0.3536 -0.5950
 4150SOL    HW124083   3.622   3.352   2.133  0.8821  0.7481 -2.5809
 4150SOL    HW224084   3.729   3.256   2.156 -0.1076  0.4220 -0.0359
 4151SOL     OW24085   2.980   2.357   8.759 -0.0145  0.6885 -0.0392
 4151SOL    HW124086   3.024   2.380   8.677  0.6905  0.9048  0.3990
 4151SOL    HW224087   3.041   2.388   8.826  0.1362 -1.8067  0.9908
 4152SOL     OW24088   1.220   0.116  17.383 -0.0690  0.2657  0.1288
 4152SOL    HW124089   1.273   0.125  17.463  0.5968 -3.3605  0.0949
 4152SOL    HW224090   1.190   0.207  17.379  1.5403  0.8566  1.0217
 4153SOL     OW24091   3.497   1.152  10.581  0.5128 -0.2220 -0.4452
 4153SOL    HW124092   3.527   1.206  10.508  0.0694  1.0608  0.3166
 4153SOL    HW224093   3.522   1.065  10.551  0.5306 -0.6396  0.7998
 4154SOL     OW24094   1.158   2.391   2.003 -0.3044  0.0442 -1.2140
 4154SOL    HW124095   1.163   2.469   2.058 -2.7020  0.7283 -1.9673
 4154SOL    HW224096   1.252   2.382   1.985 -0.2221 -0.7423 -0.3908
 4155SOL     OW24097   1.982   4.020  11.630 -0.4921  0.4672  0.4775
 4155SOL    HW124098   1.936   3.940  11.654  0.5158 -0.2607 -0.0255
 4155SOL    HW224099   1.968   4.031  11.536  0.1239 -1.5139  0.1717
 4156SOL     OW24100   3.460   4.461  13.995 -0.2687  0.3906 -0.0626
 4156SOL    HW124101   3.459   4.373  14.033 -0.8491  0.3210 -0.2272
 4156SOL    HW224102   3.554   4.474  13.989 -0.1677  0.3610  1.4518
 4157SOL     OW24103   3.980   4.537  16.400 -0.0469  0.3130 -0.7481
 4157SOL    HW124104   3.921   4.610  16.415  1.1992  1.5868 -1.9280
 4157SOL    HW224105   3.927   4.459  16.413 -1.8061  1.5109 -0.7985
 4158SOL     OW24106   3.074   2.059   8.095  0.1646 -0.1454 -0.0055
 4158SOL    HW124107   3.039   2.015   8.173 -2.2666  0.5162 -0.7351
 4158SOL    HW224108   3.070   1.987   8.032 -0.8311 -0.4605  0.4152
 4159SOL     OW24109   4.545   1.768   3.472 -0.3016 -0.2215 -0.2808
 4159SOL    HW124110   4.599   1.818   3.533 -1.6744  1.6767 -0.6316
 4159SOL    HW224111   4.465   1.820   3.482 -0.1103  0.5983 -3.1561
 4160SOL     OW24112   3.129   3.032   2.003 -0.1132 -0.8077 -0.6972
 4160SOL    HW124113   3.078   2.955   2.029 -0.7419 -0.8140 -1.9406
 4160SOL    HW224114   3.096   3.092   2.069 -0.5307 -0.9822 -0.7502
 4161SOL     OW24115   2.134   0.344  12.495  0.4134  0.1027 -0.2268
 4161SOL    HW124116   2.210   0.389  12.458 -1.1874  1.5865 -1.7351
 4161SOL    HW224117   2.127   0.392  12.577  3.3717 -0.9816  0.6323
 4162SOL     OW24118   3.253   3.986   1.104 -0.3883 -0.0213  0.0080
 4162SOL    HW124119   3.298   4.018   1.181 -0.9365  2.0604 -0.5478
 4162SOL    HW224120   3.320   3.930   1.065 -0.7297 -0.3483 -0.1141
 4163SOL     OW24121   3.051   3.777  13.562 -0.3870  0.6251 -0.4036
 4163SOL    HW124122   3.070   3.719  13.488 -1.0239 -1.1294  0.8265
 4163SOL    HW224123   2.988   3.833  13.516  0.0967  0.1172 -1.6891
 4164SOL     OW24124   3.466   4.507  13.537  0.2136  0.1642 -0.2625
 4164SOL    HW124125   3.490   4.417  13.561 -2.1584 -0.5738 -0.7285
 4164SOL    HW224126   3.402   4.486  13.470 -1.6945  4.0110  0.3638
 4165SOL     OW24127   3.178   1.014  17.660 -0.0917  0.5206  1.1879
 4165SOL    HW124128   3.099   0.985  17.614  0.7548  0.4509 -0.2362
 4165SOL    HW224129   3.228   0.932  17.666 -0.5844  0.2785  1.9529
 4166SOL     OW24130   3.683   2.032   5.211 -0.2865  0.2275 -0.2395
 4166SOL    HW124131   3.717   2.075   5.289 -1.8418  1.6623 -0.3572
 4166SOL    HW224132   3.648   2.108   5.163 -0.0291  0.8516  0.5587
 4167SOL     OW24133   2.045   3.764   3.604 -0.0132  0.0476  0.0048
 4167SOL    HW124134   2.131   3.776   3.564 -0.6180  1.3906 -0.9036
 4167SOL    HW224135   2.002   3.744   3.521 -1.0108 -0.0584  0.5497
 4168SOL     OW24136   2.315   1.001   6.947 -0.3797  0.1296 -0.2138
 4168SOL    HW124137   2.280   0.922   6.905  1.5317 -0.2941 -1.0087
 4168SOL    HW224138   2.373   1.036   6.880  1.0211 -0.8930  0.4776
 4169SOL     OW24139   2.290   3.649  11.556  0.2299  0.2182 -0.4205
 4169SOL    HW124140   2.250   3.668  11.640  2.4837 -0.4411  0.8033
 4169SOL    HW224141   2.343   3.571  11.572 -1.3843 -1.1537 -1.7730
 4170SOL     OW24142   0.456   1.393   9.237 -0.0879 -0.2738  0.2356
 4170SOL    HW124143   0.529   1.455   9.241 -0.9626  0.7224  0.9277
 4170SOL    HW224144   0.385   1.433   9.287 -0.3498 -0.7120  0.2157
 4171SOL     OW24145   1.797   3.063   1.598  0.7137  0.1783  0.1390
 4171SOL    HW124146   1.822   3.132   1.536  0.7859  0.4587  0.4839
 4171SOL    HW224147   1.872   3.066   1.657  0.9198 -0.4451 -0.0993
 4172SOL     OW24148   3.440   2.996   4.810 -0.3865  0.0284  0.1375
 4172SOL    HW124149   3.467   3.009   4.719 -1.2363 -2.9842 -0.5323
 4172SOL    HW224150   3.352   2.970   4.784 -0.0176 -0.6678 -0.4161
 4173SOL     OW24151   0.710   2.995  15.333 -0.3060  0.5484  0.2929
 4173SOL    HW124152   0.672   2.998  15.420  0.5192 -2.6303  0.7633
 4173SOL    HW224153   0.787   3.050  15.350 -0.9964  0.9564  2.0437
 4174SOL     OW24154   4.336   3.938   8.565  0.2519  0.4099 -0.5771
 4174SOL    HW124155   4.278   3.862   8.558  0.0256  0.4947  0.3825
 4174SOL    HW224156   4.364   3.961   8.476  2.8737  0.4440  0.2503
 4175SOL     OW24157   4.346   4.272  15.447  0.3782 -0.1985 -0.4058
 4175SOL    HW124158   4.348   4.226  15.532 -2.1633  0.6437  0.1075
 4175SOL    HW224159   4.312   4.201  15.392  0.5395 -0.9945  0.5157
 4176SOL     OW24160   4.610   3.644  15.133  0.3278  0.0879  0.0389
 4176SOL    HW124161   4.686   3.586  15.122  0.9696  1.0664 -0.6638
 4176SOL    HW224162   4.648   3.732  15.127 -1.4596  0.7874 -0.8181
 4177SOL     OW24163   1.130   4.532   7.188  0.3775 -0.2172  0.4624
 4177SOL    HW124164   1.190   4.607   7.192  0.0426  0.2539 -3.6545
 4177SOL    HW224165   1.168   4.480   7.258 -0.6794  0.2810  1.4090
 4178SOL     OW24166   2.551   4.696   2.577 -1.1245 -0.4907 -0.2427
 4178SOL    HW124167   2.538   4.647   2.495 -0.6405  0.8845 -1.1548
 4178SOL    HW224168   2.636   4.733   2.552 -0.7491 -0.8317  0.5265
 4179SOL     OW24169   0.140   2.162   4.803  0.0844  0.2859 -0.2367
 4179SOL    HW124170   0.118   2.229   4.868  1.9825  1.3646 -0.7224
 4179SOL    HW224171   0.129   2.086   4.861 -1.8126  1.4508  0.9419
 4180SOL     OW24172   2.713   1.762   2.549  0.4534  0.2350  0.2743
 4180SOL    HW124173   2.803   1.731   2.560  0.3790 -0.0400  0.1075
 4180SOL    HW224174   2.676   1.697   2.489  0.9185  0.9231 -0.7792
 4181SOL     OW24175   3.398   1.492  16.426  0.4819  0.2429  0.1040
 4181SOL    HW124176   3.411   1.548  16.349 -1.0801 -0.7963 -0.9334
 4181SOL    HW224177   3.481   1.444  16.422  0.8876  0.8920  0.8107
 4182SOL     OW24178   0.034   0.773   8.089 -0.3560 -0.0679  0.3682
 4182SOL    HW124179   0.092   0.697   8.100  0.0308  0.2338  0.4032
 4182SOL    HW224180   0.096   0.844   8.074 -1.3451  0.4287 -1.3981
 4183SOL     OW24181   3.058   1.304  12.046 -0.2951  0.8541  0.4016
 4183SOL    HW124182   3.026   1.232  11.993  0.1706  0.1490  1.0695
 4183SOL    HW224183   3.136   1.267  12.088 -0.6622  1.1613  1.3572
 4184SOL     OW24184   3.749   1.518   0.483  0.1459 -0.0345  0.4897
 4184SOL    HW124185   3.674   1.494   0.428  1.1706  0.0478 -0.9274
 4184SOL    HW224186   3.755   1.442   0.541  0.0426  0.3266  0.9692
 4185SOL     OW24187   0.488   1.924   4.836 -0.1901 -0.0464 -0.1094
 4185SOL    HW124188   0.437   1.879   4.769  0.7047  1.3259 -1.7178
 4185SOL    HW224189   0.416   1.932   4.897 -0.7977  1.3360 -1.0109
 4186SOL     OW24190   1.717   4.468   7.611 -0.4844  0.3372  0.4289
 4186SOL    HW124191   1.803   4.426   7.606 -0.7973 -0.0836 -1.3110
 4186SOL    HW224192   1.725   4.495   7.703 -0.6619 -1.6606  1.0379
 4187SOL     OW24193   4.715   3.177   8.724 -0.3012  0.5677  0.2716
 4187SOL    HW124194   0.005   3.155   8.812 -0.4773 -3.8185 -0.7518
 4187SOL    HW224195   4.700   3.089   8.690  0.8237 -1.3253  4.7446
 4188SOL     OW24196   2.368   1.366   4.807 -0.0541 -0.2121  0.0662
 4188SOL    HW124197   2.446   1.419   4.790  1.0041 -0.8213  3.0433
 4188SOL    HW224198   2.411   1.302   4.863  1.7856 -0.0440 -1.1236
 4189SOL     OW24199   2.317   3.334   9.953 -0.1542  0.3326 -0.1273
 4189SOL    HW124200   2.289   3.407   9.897  2.6702 -0.3753 -2.4698
 4189SOL    HW224201   2.265   3.264   9.915 -0.5425  0.4882  0.1209
 4190SOL     OW24202   2.399   2.262   1.002 -0.0463  0.1471  0.0887
 4190SOL    HW124203   2.331   2.220   0.948 -1.2277  1.4344  0.5645
 4190SOL    HW224204   2.362   2.349   1.016 -1.1645 -0.1427 -1.0360
 4191SOL     OW24205   0.252   0.682   7.839  0.4588  0.4495  0.0595
 4191SOL    HW124206   0.329   0.736   7.852  1.1705  0.2189 -3.1896
 4191SOL    HW224207   0.272   0.617   7.907  2.4443  1.8353  0.7608
 4192SOL     OW24208   0.983   1.835  10.995 -0.1095  0.5109  0.1315
 4192SOL    HW124209   1.058   1.832  10.935 -0.9728 -1.1607 -0.8391
 4192SOL    HW224210   1.026   1.778  11.060  0.0932  1.1270  0.5466
 4193SOL     OW24211   1.252   3.341   2.024 -0.0485 -0.1600  0.5579
 4193SOL    HW124212   1.188   3.327   1.955 -1.8184  3.2979  1.5247
 4193SOL    HW224213   1.329   3.315   1.973 -0.0751 -0.1469  0.5111
 4194SOL     OW24214   2.618   3.478   4.411  0.0491 -0.0636 -0.3663
 4194SOL    HW124215   2.610   3.455   4.318  0.9778  3.9623 -1.4591
 4194SOL    HW224216   2.647   3.569   4.403 -0.7050  0.1321 -0.8522
 4195SOL     OW24217   2.026   4.301   8.357 -0.2483  0.4715 -0.1967
 4195SOL    HW124218   2.050   4.254   8.277  1.2509  0.6513  0.1382
 4195SOL    HW224219   2.112   4.337   8.381 -1.5141  3.0714  0.4506
 4196SOL     OW24220   1.712   2.152   6.830 -0.0052 -0.0253 -0.0590
 4196SOL    HW124221   1.735   2.211   6.758  3.2155 -2.0212 -0.6635
 4196SOL    HW224222   1.689   2.074   6.779  0.5173 -1.5633  2.0763
 4197SOL     OW24223   0.809   1.919   9.945 -0.0905  0.4839  0.0470
 4197SOL    HW124224   0.756   1.893  10.020 -0.6136 -0.4463 -0.6490
 4197SOL    HW224225   0.850   1.835   9.926  0.1606  0.1068  2.2860
 4198SOL     OW24226   4.537   0.409  11.188 -0.1107  0.1095 -0.2654
 4198SOL    HW124227   4.534   0.504  11.177  2.3104  0.4553  2.0598
 4198SOL    HW224228   4.464   0.396  11.248 -0.5345  1.2852 -0.5298
 4199SOL     OW24229   3.360   3.233   6.109  0.1544  0.0778 -0.1834
 4199SOL    HW124230   3.297   3.229   6.180  0.3823 -0.7296 -0.0190
 4199SOL    HW224231   3.433   3.193   6.157 -0.0153 -0.8766 -0.7278
 4200SOL     OW24232   4.061   2.772   5.572  0.0717 -0.0186  0.0039
 4200SOL    HW124233   4.099   2.822   5.644 -0.4467 -0.0248  0.2747
 4200SOL    HW224234   4.143   2.755   5.525  0.5799 -0.5109  1.0745
 4201SOL     OW24235   1.159   0.784   2.494 -0.3027 -0.4450  0.4397
 4201SOL    HW124236   1.243   0.752   2.459  1.3279  1.6358  2.4487
 4201SOL    HW224237   1.142   0.712   2.554  1.9530 -0.7526  0.7250
 4202SOL     OW24238   3.849   1.801   4.041 -0.0351  0.4065 -0.3151
 4202SOL    HW124239   3.764   1.757   4.034 -0.7382  1.6804  0.1331
 4202SOL    HW224240   3.889   1.742   4.104 -0.7381  0.0647 -0.1841
 4203SOL     OW24241   2.902   0.393   9.636 -0.1731 -0.3655  0.3297
 4203SOL    HW124242   2.982   0.360   9.678 -0.5734 -0.5979  0.9225
 4203SOL    HW224243   2.843   0.318   9.651 -0.6131 -0.2163 -0.7212
 4204SOL     OW24244   3.894   0.991  15.462  0.3978  0.1980  0.0826
 4204SOL    HW124245   3.935   1.058  15.517  1.3052 -1.3655  1.2853
 4204SOL    HW224246   3.801   1.009  15.477 -0.3340 -2.0464 -1.7754
 4205SOL     OW24247   2.043   2.684   0.188 -0.2191 -0.0304  0.3534
 4205SOL    HW124248   2.045   2.635   0.105 -0.3368  1.5894 -0.6152
 4205SOL    HW224249   1.949   2.696   0.202 -0.2614  1.6996 -1.2851
 4206SOL     OW24250   1.397   3.363  14.981  0.3095 -0.2838 -0.4703
 4206SOL    HW124251   1.333   3.346  14.912 -0.6444  0.7184  0.1681
 4206SOL    HW224252   1.444   3.439  14.947  0.3038 -0.7943 -1.6420
 4207SOL     OW24253   1.368   0.334   1.797  0.5702  0.0948  0.2100
 4207SOL    HW124254   1.398   0.396   1.864  0.0723 -0.6763  1.1400
 4207SOL    HW224255   1.450   0.295   1.766  0.7289  0.6034 -0.0195
 4208SOL     OW24256   0.527   2.111  16.897  0.1368  0.0427  0.0989
 4208SOL    HW124257   0.549   2.204  16.896  0.4102 -0.0367 -0.7236
 4208SOL    HW224258   0.616   2.078  16.883  0.8096  1.5477  0.7740
 4209SOL     OW24259   0.371   0.227   7.444  0.2168  0.3154 -0.0525
 4209SOL    HW124260   0.378   0.282   7.522 -1.8258  1.7326 -0.8759
 4209SOL    HW224261   0.277   0.218   7.432  0.1551 -2.2924  2.3218
 4210SOL     OW24262   2.534   3.430   6.694  0.4263 -0.0996 -0.0575
 4210SOL    HW124263   2.510   3.482   6.617  1.3679 -0.8672 -0.8848
 4210SOL    HW224264   2.468   3.361   6.697 -0.1602  0.4959  0.3875
 4211SOL     OW24265   0.749   3.437  13.673 -0.4580 -0.4904  0.5745
 4211SOL    HW124266   0.782   3.394  13.594 -0.3859  0.4485  0.0976
 4211SOL    HW224267   0.805   3.393  13.737  0.2610 -1.2155 -0.5404
 4212SOL     OW24268   2.700   4.501   9.115  0.0532 -0.4894  0.2805
 4212SOL    HW124269   2.736   4.474   9.200 -0.3449  0.0107  0.6076
 4212SOL    HW224270   2.703   4.595   9.133  0.1587 -0.2057 -1.2774
 4213SOL     OW24271   4.566   1.054   6.051  0.0436 -0.2159  0.6452
 4213SOL    HW124272   4.643   1.100   6.086  0.5446 -1.8454  1.6727
 4213SOL    HW224273   4.596   1.049   5.961 -2.4652  3.7373 -0.3984
 4214SOL     OW24274   0.526   1.806   1.053 -0.0281 -0.0285  0.6116
 4214SOL    HW124275   0.578   1.802   1.133  1.6845  0.7193 -0.4513
 4214SOL    HW224276   0.526   1.712   1.035 -1.6815 -0.2195  1.6395
 4215SOL     OW24277   0.021   0.960   5.853  0.1059  0.1789 -0.3593
 4215SOL    HW124278   4.702   0.916   5.793 -0.8284 -0.7773  1.2683
 4215SOL    HW224279   0.087   0.891   5.861  1.4949  1.3338 -1.8646
 4216SOL     OW24280   1.109   3.014   9.763  0.1397  0.3316 -0.4433
 4216SOL    HW124281   1.036   2.998   9.703 -0.6578 -0.7304  0.8256
 4216SOL    HW224282   1.165   2.943   9.732  1.1146 -0.1351  2.3999
 4217SOL     OW24283   2.851   4.574   9.603  0.3804  0.1297  0.4154
 4217SOL    HW124284   2.825   4.548   9.691 -1.1113 -1.7098 -0.5763
 4217SOL    HW224285   2.942   4.600   9.616  0.9725 -0.8762 -1.6002
 4218SOL     OW24286   0.248   2.074   2.597  0.0889 -0.3249 -0.1467
 4218SOL    HW124287   0.221   2.036   2.514  1.2879  3.5157 -2.2548
 4218SOL    HW224288   0.304   2.002   2.628 -1.4088 -0.9755  1.0731
 4219SOL     OW24289   0.310   2.890   5.538 -0.3403  0.3461  0.2307
 4219SOL    HW124290   0.322   2.887   5.633  1.8809 -0.6584 -0.0839
 4219SOL    HW224291   0.298   2.984   5.526  2.3093  0.6212 -0.1596
 4220SOL     OW24292   1.893   3.898   9.022  0.2041 -0.3434 -0.1330
 4220SOL    HW124293   1.975   3.869   8.980 -0.0692  0.1713 -1.0219
 4220SOL    HW224294   1.835   3.887   8.947 -0.6200 -0.5237  0.5330
 4221SOL     OW24295   2.919   0.084   2.152  0.0520  0.0192 -0.2539
 4221SOL    HW124296   2.903   0.032   2.074 -1.2668  0.5607 -0.3534
 4221SOL    HW224297   2.832   0.110   2.183 -1.2052 -2.0848 -1.9866
 4222SOL     OW24298   3.081   1.471   2.264  0.1374 -0.1089 -0.4125
 4222SOL    HW124299   3.092   1.386   2.308 -0.6117 -0.3206 -0.6382
 4222SOL    HW224300   2.987   1.468   2.247  0.2323 -2.2871 -0.6448
 4223SOL     OW24301   3.716   3.582   4.520  0.2321 -0.3636  0.2117
 4223SOL    HW124302   3.633   3.542   4.492 -1.0177  1.4580  1.2507
 4223SOL    HW224303   3.777   3.538   4.462  0.5300  0.3994 -0.0590
 4224SOL     OW24304   2.476   2.322  14.987  0.0851  0.0854 -0.3883
 4224SOL    HW124305   2.439   2.407  14.965 -1.7261 -0.7765 -0.6443
 4224SOL    HW224306   2.400   2.267  14.969 -0.0688  0.0145  0.4976
 4225SOL     OW24307   0.101   0.946  12.529 -0.2444  0.2772 -0.0058
 4225SOL    HW124308   0.063   0.895  12.600 -3.4383 -1.4827 -2.9594
 4225SOL    HW224309   0.195   0.949  12.547 -1.0295  1.8010  3.7988
 4226SOL     OW24310   3.601   1.557   0.132 -0.0489 -0.1100 -0.3926
 4226SOL    HW124311   3.590   1.502   0.210 -0.2219 -0.0361 -0.3635
 4226SOL    HW224312   3.677   1.606   0.164  0.0878 -0.6399  0.0997
 4227SOL     OW24313   0.430   4.437   2.592 -0.4841 -0.1033 -0.3567
 4227SOL    HW124314   0.488   4.381   2.644 -1.4731 -0.3510  0.4822
 4227SOL    HW224315   0.405   4.507   2.652 -0.5713 -2.0418  1.8893
 4228SOL     OW24316   2.079   1.509   9.166  0.3334 -0.3331 -0.3625
 4228SOL    HW124317   2.150   1.565   9.134 -0.4286  1.0177  0.2909
 4228SOL    HW224318   2.096   1.424   9.126 -3.1567 -1.2146  0.0241
 4229SOL     OW24319   3.738   1.537   2.346 -0.3664 -0.0006  0.1761
 4229SOL    HW124320   3.748   1.457   2.294  2.0667  0.5119 -0.1097
 4229SOL    HW224321   3.642   1.533   2.356 -0.4625  1.1890 -0.3116
 4230SOL     OW24322   1.552   4.587  15.343 -0.4768  0.2640  0.1663
 4230SOL    HW124323   1.583   4.532  15.272  1.8437 -1.0037  2.1638
 4230SOL    HW224324   1.473   4.538  15.368  1.0666 -2.9443 -1.2575
 4231SOL     OW24325   3.426   1.619  17.688  0.1260 -0.1215 -0.0044
 4231SOL    HW124326   3.472   1.700  17.665 -1.2195  1.0271  1.3385
 4231SOL    HW224327   3.470   1.601   0.010  0.2459 -0.2629 -0.0991
 4232SOL     OW24328   0.773   0.472   3.697 -0.1578 -0.4342  0.0396
 4232SOL    HW124329   0.863   0.494   3.719  0.5611 -2.8137 -0.4221
 4232SOL    HW224330   0.751   0.407   3.764 -2.8907  0.9628  0.5119
 4233SOL     OW24331   2.055   0.351   7.664 -0.3229  0.2451 -0.5312
 4233SOL    HW124332   1.964   0.346   7.634 -0.2279  1.8269 -1.0776
 4233SOL    HW224333   2.033   0.360   7.757  0.3840 -0.1944 -0.3231
 4234SOL     OW24334   2.119   3.357   3.675 -0.0122 -0.1206 -1.2671
 4234SOL    HW124335   2.161   3.382   3.593  0.0823 -0.1098 -1.2141
 4234SOL    HW224336   2.053   3.426   3.684 -0.5787 -0.8740  0.3335
 4235SOL     OW24337   0.225   1.410   1.536  0.2895  0.2512  0.1165
 4235SOL    HW124338   0.290   1.456   1.590 -0.1209 -0.6287  1.3609
 4235SOL    HW224339   0.148   1.461   1.560  1.3376  2.2345 -0.7444
 4236SOL     OW24340   4.465   1.966  16.408 -0.0961 -0.6821  0.4686
 4236SOL    HW124341   4.462   1.989  16.315 -0.1880  1.9256  1.1400
 4236SOL    HW224342   4.543   2.016  16.430 -0.4211 -0.5656  1.3813
 4237SOL     OW24343   2.694   3.696   8.603  0.3558 -0.6499 -0.0890
 4237SOL    HW124344   2.633   3.642   8.652  2.2757 -2.3267  0.4564
 4237SOL    HW224345   2.644   3.773   8.577 -1.5092 -2.4625 -1.9064
 4238SOL     OW24346   1.410   1.390   1.036  0.4533  0.3134 -0.3473
 4238SOL    HW124347   1.329   1.342   1.016 -0.0160  1.4729 -1.1953
 4238SOL    HW224348   1.379   1.433   1.116 -0.5155 -0.6711 -0.1948
 4239SOL     OW24349   1.717   3.261   5.416 -0.2338  0.0833 -0.1686
 4239SOL    HW124350   1.667   3.224   5.489 -0.3349 -1.2544 -0.9215
 4239SOL    HW224351   1.662   3.336   5.395  0.7150  0.5262 -1.0716
 4240SOL     OW24352   1.985   3.835   7.015 -0.0778  0.5649 -0.5219
 4240SOL    HW124353   2.043   3.833   7.091 -0.7018 -0.1276 -0.0762
 4240SOL    HW224354   2.032   3.888   6.950  0.5599 -1.7634 -1.9641
 4241SOL     OW24355   1.044   2.044   5.537 -0.4914 -0.3248  0.1126
 4241SOL    HW124356   1.066   2.117   5.479  0.7590 -0.0349  0.9660
 4241SOL    HW224357   1.067   1.980   5.470 -0.4505 -0.4267  0.2237
 4242SOL     OW24358   1.424   0.044   6.905 -0.0370 -1.0115 -0.0238
 4242SOL    HW124359   1.425   0.045   6.810 -1.1454  2.7356 -0.0060
 4242SOL    HW224360   1.487   0.113   6.922 -0.4926 -0.5759 -0.1032
 4243SOL     OW24361   2.829   4.501  11.350  0.5643 -0.3146 -0.1495
 4243SOL    HW124362   2.733   4.498  11.352  0.4335  1.7090 -2.8296
 4243SOL    HW224363   2.853   4.413  11.322  2.1052  0.2370 -0.5857
 4244SOL     OW24364   3.092   0.659   1.717  0.1720 -0.0260 -0.1061
 4244SOL    HW124365   3.178   0.684   1.752  0.7704  0.2281 -1.7946
 4244SOL    HW224366   3.073   0.591   1.782  1.7130  0.5977  1.0078
 4245SOL     OW24367   2.334   3.268   1.884  0.0937  0.3601 -0.2010
 4245SOL    HW124368   2.274   3.196   1.901 -1.3180  0.9521 -2.7155
 4245SOL    HW224369   2.312   3.298   1.796  2.0001  1.5585 -0.2723
 4246SOL     OW24370   4.569   1.231  12.206  0.0829  0.5083  0.0451
 4246SOL    HW124371   4.534   1.149  12.242  1.2205 -0.2184 -0.5280
 4246SOL    HW224372   4.661   1.208  12.194  0.1805  0.1714  1.3509
 4247SOL     OW24373   0.888   2.002  12.315 -0.3590 -0.2689 -0.2878
 4247SOL    HW124374   0.952   2.030  12.249  0.5298  1.7413  1.4213
 4247SOL    HW224375   0.924   1.927  12.364  0.1438  1.3670  1.8536
 4248SOL     OW24376   1.428   2.610   3.907 -0.1988  0.0622  0.0440
 4248SOL    HW124377   1.358   2.639   3.849 -0.3817  0.8858  0.6743
 4248SOL    HW224378   1.420   2.516   3.891  0.2652  0.0278 -0.0070
 4249SOL     OW24379   2.057   1.775   2.795  0.3097 -0.5412  0.7959
 4249SOL    HW124380   2.107   1.704   2.755  2.4799  1.2013  0.4023
 4249SOL    HW224381   2.083   1.754   2.885  0.8837 -1.4791  0.4172
 4250SOL     OW24382   2.842   1.184   6.351 -0.1679 -0.0439 -0.0676
 4250SOL    HW124383   2.933   1.212   6.362 -0.1341  0.3936 -1.4582
 4250SOL    HW224384   2.855   1.093   6.323 -1.8125 -0.2941 -0.0320
 4251SOL     OW24385   4.543   3.869   6.433 -0.0885  0.6345  0.5858
 4251SOL    HW124386   4.628   3.884   6.473  0.4433 -1.9400  0.3805
 4251SOL    HW224387   4.520   3.778   6.452 -1.4093  1.1589  1.5181
 4252SOL     OW24388   0.225   2.129   0.796 -0.0619  0.1226 -0.0573
 4252SOL    HW124389   0.301   2.071   0.787 -0.1107  0.3732 -2.0792
 4252SOL    HW224390   0.156   2.082   0.748 -1.3609  2.0818 -0.0903
 4253SOL     OW24391   0.888   3.009   6.095 -0.9990  0.1367 -0.0474
 4253SOL    HW124392   0.916   3.026   6.005 -2.2142 -0.3916 -0.5213
 4253SOL    HW224393   0.842   3.088   6.125 -0.0968  0.7567 -0.2938
 4254SOL     OW24394   4.598   1.249   2.644  0.1590 -0.5044  0.0026
 4254SOL    HW124395   4.600   1.241   2.549  0.4767 -0.2418 -0.0118
 4254SOL    HW224396   4.691   1.266   2.659 -0.6677  3.1188  0.9812
 4255SOL     OW24397   0.382   3.154  15.623 -0.0924 -0.6949  0.5474
 4255SOL    HW124398   0.397   3.238  15.580  2.3148 -1.6674 -0.5078
 4255SOL    HW224399   0.314   3.173  15.688 -0.8989  1.4858 -0.9426
 4256SOL     OW24400   2.172   2.330   1.802  0.0001 -0.3617  0.5635
 4256SOL    HW124401   2.205   2.319   1.713 -0.5209  0.3694  0.2832
 4256SOL    HW224402   2.107   2.399   1.792 -0.2630 -0.7990 -0.6711
 4257SOL     OW24403   0.284   0.500  11.049  0.0486  0.6885 -0.4654
 4257SOL    HW124404   0.261   0.593  11.048 -1.6657  0.3161  2.9959
 4257SOL    HW224405   0.210   0.470  11.102  1.0474 -0.9097  0.0071
 4258SOL     OW24406   0.229   2.567  16.526  0.3770 -0.3770  0.2028
 4258SOL    HW124407   0.309   2.543  16.480  1.3070 -0.1643  1.7320
 4258SOL    HW224408   0.253   2.553  16.617  1.1997  1.2278  0.2300
 4259SOL     OW24409   2.461   3.566   2.644  0.3260 -0.3397  0.7594
 4259SOL    HW124410   2.526   3.635   2.627 -0.6058 -0.0375 -1.6269
 4259SOL    HW224411   2.505   3.499   2.591 -0.6831  1.2623 -2.1462
 4260SOL     OW24412   4.516   3.649   9.164 -0.4383 -0.2487 -0.3165
 4260SOL    HW124413   4.425   3.656   9.136 -0.4029  1.2927 -0.0146
 4260SOL    HW224414   4.561   3.601   9.095 -2.8127 -0.2647 -1.8366
 4261SOL     OW24415   1.372   2.916   7.750  0.4664  0.5485 -0.0701
 4261SOL    HW124416   1.278   2.904   7.764  0.6837 -2.8050 -1.4159
 4261SOL    HW224417   1.372   2.946   7.659  1.6060 -0.4376 -0.3945
 4262SOL     OW24418   0.383   4.520   3.963 -0.3732  0.4167 -0.3924
 4262SOL    HW124419   0.367   4.508   3.870 -0.2247  1.8644 -0.6035
 4262SOL    HW224420   0.310   4.577   3.986  0.5800  1.7409 -0.6376
 4263SOL     OW24421   1.951   3.095   2.971 -0.1615 -0.6356 -0.2764
 4263SOL    HW124422   1.992   3.018   3.010 -1.3541 -0.8628  0.5291
 4263SOL    HW224423   2.018   3.161   2.989  0.5817 -1.1929 -1.0376
 4264SOL     OW24424   1.707   4.059   5.618  0.3415 -0.3054 -0.0048
 4264SOL    HW124425   1.641   3.992   5.604 -0.5311  0.2820  1.2648
 4264SOL    HW224426   1.656   4.120   5.672  0.5320 -0.7339  0.6606
 4265SOL     OW24427   3.759   4.441   5.831 -0.5207  0.8084  0.5400
 4265SOL    HW124428   3.747   4.493   5.751 -1.2442  2.4466  1.7194
 4265SOL    HW224429   3.709   4.361   5.815  0.6101  0.5300 -1.5959
 4266SOL     OW24430   2.572   4.561   2.334  0.1214  0.0692 -0.2937
 4266SOL    HW124431   2.629   4.563   2.257  0.7518 -1.0065  0.1392
 4266SOL    HW224432   2.491   4.532   2.292  0.8700 -0.2732 -1.5243
 4267SOL     OW24433   2.323   1.634   1.593 -0.0367 -0.0139  0.1688
 4267SOL    HW124434   2.380   1.601   1.523  0.5123  0.0559  0.5783
 4267SOL    HW224435   2.245   1.643   1.538 -0.4764  1.9645  1.1198
 4268SOL     OW24436   2.698   3.271   6.524 -0.9461 -0.2582  0.4072
 4268SOL    HW124437   2.777   3.250   6.574 -0.0986  0.6084 -0.5467
 4268SOL    HW224438   2.645   3.272   6.603 -0.7307 -2.0716  0.5644
 4269SOL     OW24439   1.363   0.561   5.595  0.3857 -0.1049 -0.4714
 4269SOL    HW124440   1.304   0.615   5.649  0.1067 -1.6509  0.8031
 4269SOL    HW224441   1.445   0.604   5.618 -0.0288  0.9496 -0.9607
 4270SOL     OW24442   1.020   0.334   8.138 -0.0559 -0.2218 -0.4849
 4270SOL    HW124443   0.975   0.278   8.202  0.6648  2.4708  2.3622
 4270SOL    HW224444   1.109   0.299   8.148 -0.5224 -1.2933 -0.0394
 4271SOL     OW24445   4.328   3.192  13.037 -0.3122 -0.1376  0.0410
 4271SOL    HW124446   4.245   3.234  13.060  0.5093  1.4419  0.1897
 4271SOL    HW224447   4.379   3.205  13.117 -1.2515  1.1531  0.4209
 4272SOL     OW24448   1.437   3.876   5.511 -0.3322  0.0100 -0.0830
 4272SOL    HW124449   1.403   3.880   5.600 -2.8095 -1.0625 -0.9858
 4272SOL    HW224450   1.377   3.930   5.460 -0.7770  0.1263  0.5553
 4273SOL     OW24451   3.822   0.059  17.509  0.3795 -0.0630 -0.0685
 4273SOL    HW124452   3.736   0.061  17.467 -0.8174  1.0511  2.4716
 4273SOL    HW224453   3.859   4.734  17.450  1.4318  0.2037  0.3061
 4274SOL     OW24454   3.311   1.997  13.132  0.3546  0.2359  0.1613
 4274SOL    HW124455   3.284   1.939  13.061  0.1897  1.1659 -0.5434
 4274SOL    HW224456   3.244   2.066  13.129 -0.7432 -0.8649 -0.7058
 4275SOL     OW24457   4.397   2.883   5.226  0.1809  0.0091  0.2165
 4275SOL    HW124458   4.461   2.903   5.158  2.3668  1.7540  2.7863
 4275SOL    HW224459   4.347   2.964   5.220  0.7099  0.4254  1.5244
 4276SOL     OW24460   4.438   2.542  12.154  0.0446 -0.2184 -0.2737
 4276SOL    HW124461   4.398   2.475  12.210 -0.6599  2.9627  3.0233
 4276SOL    HW224462   4.498   2.577  12.219 -0.7714  0.6330  0.0121
 4277SOL     OW24463   3.212   1.162   7.570  0.4817 -1.0768 -0.3823
 4277SOL    HW124464   3.271   1.158   7.495  1.8096 -2.6461  0.7690
 4277SOL    HW224465   3.140   1.222   7.550  0.5701 -0.8027  0.1188
 4278SOL     OW24466   1.252   0.954   3.071 -0.3100 -0.0116 -0.4313
 4278SOL    HW124467   1.310   0.878   3.076 -3.9343 -2.9672 -3.1152
 4278SOL    HW224468   1.287   1.005   2.998 -0.9703  0.6526 -0.2797
 4279SOL     OW24469   1.117   3.256  10.896  0.1515  0.0715  0.2036
 4279SOL    HW124470   1.075   3.244  10.981 -0.5548  0.9377 -0.0259
 4279SOL    HW224471   1.041   3.252  10.838 -2.3304  0.2356  3.4411
 4280SOL     OW24472   0.152   1.754   9.538 -0.2689  0.0163 -0.0261
 4280SOL    HW124473   0.198   1.710   9.610  2.0359 -0.7547 -1.9880
 4280SOL    HW224474   0.060   1.740   9.558  0.0131 -2.2976 -0.4377
 4281SOL     OW24475   1.478   1.354   2.303 -0.8715 -0.3624 -0.3466
 4281SOL    HW124476   1.568   1.381   2.289 -0.5660 -1.4923 -0.5785
 4281SOL    HW224477   1.435   1.439   2.301 -2.1384 -0.9796  0.3157
 4282SOL     OW24478   1.059   4.564   5.804 -0.0476  1.0389 -0.3943
 4282SOL    HW124479   1.154   4.559   5.815  0.2408  2.8903 -1.9886
 4282SOL    HW224480   1.058   4.582   5.710 -1.0407 -2.1527 -1.0111
 4283SOL     OW24481   1.487   2.079   9.370 -0.0155 -0.0034  0.0012
 4283SOL    HW124482   1.435   2.112   9.296  1.2829  0.4643 -0.7039
 4283SOL    HW224483   1.552   2.030   9.320  1.6758  0.6840  1.5277
 4284SOL     OW24484   1.546   3.797   0.620  0.4207 -0.4733 -0.3540
 4284SOL    HW124485   1.460   3.787   0.660  1.0627 -2.3440  0.5687
 4284SOL    HW224486   1.576   3.885   0.645  1.6151 -1.0653  0.3281
 4285SOL     OW24487   2.787   0.861   4.987  0.5919 -0.0565  0.4597
 4285SOL    HW124488   2.810   0.826   5.073 -1.9351  2.7786  2.3162
 4285SOL    HW224489   2.868   0.855   4.937  0.2351  1.4456 -0.3098
 4286SOL     OW24490   1.848   3.949   4.057  0.3249  0.0618 -0.9295
 4286SOL    HW124491   1.923   3.893   4.078 -0.2158 -0.4165 -0.2482
 4286SOL    HW224492   1.872   4.029   4.103  0.4882  0.4972 -1.7734
 4287SOL     OW24493   1.044   2.317   6.533  0.0815 -0.2008  0.3509
 4287SOL    HW124494   0.959   2.358   6.523 -0.5854 -1.5627  0.4332
 4287SOL    HW224495   1.041   2.232   6.488  3.6101 -1.5972  2.7453
 4288SOL     OW24496   2.359   4.202   5.948 -0.0910  0.8207 -0.5019
 4288SOL    HW124497   2.351   4.192   6.043  0.7689  2.5378 -0.2457
 4288SOL    HW224498   2.373   4.296   5.947  0.0733  0.7948 -0.7111
 4289SOL     OW24499   1.184   2.906   3.002  0.1928  0.7540  0.1765
 4289SOL    HW124500   1.181   2.958   2.922  1.6286 -0.0525 -0.3824
 4289SOL    HW224501   1.093   2.877   3.008  0.8940 -1.9074 -2.5371
 4290SOL     OW24502   0.453   3.062   3.684 -0.4510 -0.0219 -0.0010
 4290SOL    HW124503   0.445   3.068   3.589 -0.5992 -1.6222 -0.0790
 4290SOL    HW224504   0.546   3.040   3.680 -0.2656  0.6663  0.4505
 4291SOL     OW24505   0.939   4.313   9.401  0.7446 -0.2295  0.2857
 4291SOL    HW124506   0.871   4.341   9.462 -0.2665 -0.0630 -0.9045
 4291SOL    HW224507   0.987   4.252   9.457  0.7514 -1.8510 -1.4659
 4292SOL     OW24508   4.568   2.782   3.087 -0.1478 -0.1034 -0.3757
 4292SOL    HW124509   4.484   2.772   3.130  0.6620  0.3128  1.3121
 4292SOL    HW224510   4.563   2.877   3.082 -0.3995 -0.1216 -0.4559
 4293SOL     OW24511   2.165   2.256   7.837  0.1996 -0.1218 -0.2234
 4293SOL    HW124512   2.230   2.265   7.768  1.4994  0.5474  1.0874
 4293SOL    HW224513   2.231   2.264   7.906 -1.0632 -0.0238  0.9684
 4294SOL     OW24514   4.472   0.665  11.101  0.0432  0.2877  0.1959
 4294SOL    HW124515   4.516   0.747  11.123  1.2634  0.1812 -1.8950
 4294SOL    HW224516   4.516   0.644  11.019 -0.1843  0.4489  0.0327
 4295SOL     OW24517   2.590   1.700  14.139 -0.0323  0.5426 -0.5528
 4295SOL    HW124518   2.626   1.750  14.213  0.4725  1.3980 -1.3817
 4295SOL    HW224519   2.600   1.610  14.171  1.7712  0.3382 -1.7241
 4296SOL     OW24520   3.625   4.088   4.474 -0.3960 -0.0395 -0.2962
 4296SOL    HW124521   3.619   4.107   4.568 -1.6267 -1.2773 -0.1235
 4296SOL    HW224522   3.654   3.999   4.492  0.3418  0.5605  1.5861
 4297SOL     OW24523   0.031   1.318   5.684  0.1890  0.6167  0.2024
 4297SOL    HW124524   0.033   1.251   5.615 -1.1489  0.5340  0.2400
 4297SOL    HW224525   0.101   1.290   5.742 -0.1275  0.3059  0.4344
 4298SOL     OW24526   0.191   1.864   3.856 -0.1695  0.3545  0.6757
 4298SOL    HW124527   0.244   1.786   3.838  0.3589  1.0446 -0.7744
 4298SOL    HW224528   0.115   1.824   3.898 -0.0499 -2.3872 -1.7587
 4299SOL     OW24529   0.895   4.306   8.065  0.1753 -0.1991  0.1259
 4299SOL    HW124530   0.829   4.242   8.042 -0.5743  1.0612 -1.1879
 4299SOL    HW224531   0.882   4.308   8.160  0.4537 -0.7608  0.1769
 4300SOL     OW24532   0.579   3.719  17.618 -0.2362 -0.7666  0.0380
 4300SOL    HW124533   0.615   3.807  17.611 -0.2917 -0.7476 -0.0119
 4300SOL    HW224534   0.520   3.735  17.692  0.2510  1.7464 -0.0966
 4301SOL     OW24535   4.424   2.820   8.474 -0.3113  0.2847 -0.1799
 4301SOL    HW124536   4.363   2.775   8.416  0.0459  1.6820 -1.6336
 4301SOL    HW224537   4.452   2.759   8.543  1.6336 -0.2397 -1.4023
 4302SOL     OW24538   1.399   2.532   2.352  0.4422  0.0963  0.3684
 4302SOL    HW124539   1.416   2.596   2.283  0.1493 -1.1329 -0.8351
 4302SOL    HW224540   1.437   2.458   2.307 -1.0710 -0.5154  0.0847
 4303SOL     OW24541   4.593   1.603   8.521  0.5076 -0.1337  0.1715
 4303SOL    HW124542   4.535   1.561   8.585 -2.4834  1.7818 -1.2409
 4303SOL    HW224543   4.653   1.536   8.489  2.3620  1.5054  0.2040
 4304SOL     OW24544   3.055   4.067   3.978 -0.1765 -0.1076 -0.2455
 4304SOL    HW124545   3.094   4.137   3.926 -1.1603 -0.5048 -1.5501
 4304SOL    HW224546   3.130   4.016   4.008 -0.6704 -1.4992 -1.3759
 4305SOL     OW24547   3.775   0.268   1.689  0.3173 -0.1121  0.0401
 4305SOL    HW124548   3.711   0.203   1.718  0.5715 -0.7612 -0.8328
 4305SOL    HW224549   3.798   0.223   1.608 -0.9015 -0.2852 -0.2149
 4306SOL     OW24550   3.181   2.062  10.256 -0.2513  0.1415  0.5685
 4306SOL    HW124551   3.160   2.149  10.291 -0.4748  0.4778 -0.3957
 4306SOL    HW224552   3.115   2.008  10.300  0.5278  0.5204  2.2018
 4307SOL     OW24553   2.561   3.716  14.221 -0.2907  0.3057 -0.0606
 4307SOL    HW124554   2.643   3.679  14.253 -2.1414  0.2496  4.5131
 4307SOL    HW224555   2.576   3.811  14.215 -0.6189  0.5023  2.5440
 4308SOL     OW24556   2.354   2.802   4.676 -0.0980  1.3946  0.1765
 4308SOL    HW124557   2.349   2.714   4.714 -0.8292  1.3869  0.0438
 4308SOL    HW224558   2.349   2.849   4.759 -0.2225 -0.0187  0.9652
 4309SOL     OW24559   4.523   0.429   0.644  0.3320 -0.4209  0.2685
 4309SOL    HW124560   4.582   0.428   0.569  1.0455 -2.2242  0.8585
 4309SOL    HW224561   4.513   0.522   0.665  1.9517  0.0958 -1.2186
 4310SOL     OW24562   0.985   4.179   7.030 -0.4640  0.2644  0.0398
 4310SOL    HW124563   0.950   4.091   7.018 -3.3708  1.3942  0.1939
 4310SOL    HW224564   1.060   4.155   7.084 -0.4403 -1.7372 -0.8928
 4311SOL     OW24565   1.943   0.967   6.483  0.2167 -0.3221 -0.3757
 4311SOL    HW124566   1.882   0.910   6.436  0.4629  1.1945 -2.4989
 4311SOL    HW224567   1.882   1.041   6.489  0.9651  0.0915  2.0257
 4312SOL     OW24568   0.535   0.761  14.613 -0.0646 -0.4605  0.0305
 4312SOL    HW124569   0.460   0.736  14.667 -0.7333  0.3169 -0.5410
 4312SOL    HW224570   0.489   0.760  14.530 -0.3583 -1.1853  0.1980
 4313SOL     OW24571   2.322   3.258   8.986  0.6170  0.4336  0.4398
 4313SOL    HW124572   2.361   3.336   9.026 -0.5636  0.3641  1.7364
 4313SOL    HW224573   2.328   3.197   9.060 -0.8877  0.5837  0.6865
 4314SOL     OW24574   3.417   0.840   8.638  0.4593 -0.5659 -0.1414
 4314SOL    HW124575   3.458   0.926   8.645 -1.1935  0.0556  1.7722
 4314SOL    HW224576   3.470   0.794   8.703  0.9117  0.3028  0.0969
 4315SOL     OW24577   4.568   0.081   8.845  0.0062  0.3134  0.4416
 4315SOL    HW124578   4.661   0.077   8.869  0.7490  0.7526 -2.4004
 4315SOL    HW224579   4.556   0.002   8.792 -1.8245 -0.3520  1.8618
 4316SOL     OW24580   3.407   2.458  12.266  0.1296  0.1542 -0.5321
 4316SOL    HW124581   3.354   2.533  12.238  0.1368  0.3417 -0.0402
 4316SOL    HW224582   3.494   2.491  12.288  0.6496 -0.7176 -1.3072
 4317SOL     OW24583   3.059   2.799  16.440 -0.1835 -0.1565 -0.0410
 4317SOL    HW124584   3.133   2.751  16.478 -0.6061  0.1559  1.1634
 4317SOL    HW224585   3.004   2.827  16.513 -2.3177 -0.9988 -1.3037
 4318SOL     OW24586   2.589   2.646   0.934  0.3890  0.2544 -0.3828
 4318SOL    HW124587   2.626   2.674   0.851  0.1044  0.8749 -0.2981
 4318SOL    HW224588   2.633   2.561   0.944  3.3866  1.8438 -0.0733
 4319SOL     OW24589   0.066   4.646   7.709  0.3575 -0.5959 -0.1648
 4319SOL    HW124590   0.031   4.558   7.725 -1.2417  0.0442 -0.2260
 4319SOL    HW224591   0.150   4.635   7.663  0.2945 -0.1188 -0.3875
 4320SOL     OW24592   1.186   4.721   5.458  0.6362 -0.4572 -0.1396
 4320SOL    HW124593   1.101   4.686   5.482 -0.0099  0.0716 -1.6294
 4320SOL    HW224594   1.168   0.072   5.475 -0.2845 -0.3908 -1.4383
 4321SOL     OW24595   0.938   1.568   9.283 -0.1606 -0.7289  0.1068
 4321SOL    HW124596   0.976   1.612   9.359  0.1136  0.6929 -0.8587
 4321SOL    HW224597   0.875   1.513   9.330  0.8370  0.5333  2.9400
 4322SOL     OW24598   0.257   1.155   4.132  0.1158  0.2413  0.0905
 4322SOL    HW124599   0.281   1.234   4.083 -1.7677  0.7777  0.0260
 4322SOL    HW224600   0.179   1.186   4.180  0.0028  0.9096 -0.5270
 4323SOL     OW24601   1.203   4.355   5.748  0.0133  0.2737  0.2452
 4323SOL    HW124602   1.269   4.421   5.767 -0.5204  0.4372  1.5525
 4323SOL    HW224603   1.123   4.407   5.757 -2.2526 -3.4748  1.8572
 4324SOL     OW24604   2.502   3.165   7.396 -0.0411  0.1177 -0.7798
 4324SOL    HW124605   2.472   3.105   7.465  0.8995  2.3319  1.5537
 4324SOL    HW224606   2.416   3.198   7.370 -0.6781 -0.5943  0.4164
 4325SOL     OW24607   3.542   1.593   8.251 -0.0900  0.1587 -0.1321
 4325SOL    HW124608   3.563   1.506   8.286  0.0650 -0.3131 -1.3917
 4325SOL    HW224609   3.582   1.637   8.326  0.0632  1.3268 -0.9049
 4326SOL     OW24610   1.411   3.644   6.114  0.1454  0.1107  0.4034
 4326SOL    HW124611   1.339   3.693   6.153 -1.3507 -1.4510 -0.3624
 4326SOL    HW224612   1.435   3.582   6.183  0.4527 -0.5499 -0.2943
 4327SOL     OW24613   3.415   1.824   4.744 -0.0312  0.3279 -0.0116
 4327SOL    HW124614   3.394   1.757   4.679  1.4389  1.2442 -1.4257
 4327SOL    HW224615   3.371   1.784   4.820  0.1410  1.6953  0.8009
 4328SOL     OW24616   1.046   1.210   4.265  0.1362  0.5832  0.1726
 4328SOL    HW124617   1.012   1.243   4.348 -1.8331 -2.3335  0.5308
 4328SOL    HW224618   0.978   1.148   4.238 -0.2194 -0.4294  3.3998
 4329SOL     OW24619   2.554   4.464  11.338 -0.4481  0.0033  0.3497
 4329SOL    HW124620   2.538   4.486  11.429  0.6139 -0.5226  0.6717
 4329SOL    HW224621   2.503   4.383  11.341 -1.1189  0.5097  2.2725
 4330SOL     OW24622   4.419   0.845   7.262 -0.2759 -0.2397 -0.1101
 4330SOL    HW124623   4.405   0.885   7.176 -2.7734  0.5671  0.6773
 4330SOL    HW224624   4.370   0.764   7.247 -3.5207  1.3791  1.7179
 4331SOL     OW24625   1.584   4.529   3.240 -0.1139  0.1689 -0.2021
 4331SOL    HW124626   1.679   4.541   3.232  0.0709 -0.7576  0.5843
 4331SOL    HW224627   1.581   4.435   3.220 -0.1569  0.1997 -0.3447
 4332SOL     OW24628   1.420   3.445   5.239  0.3205 -0.0214  0.3510
 4332SOL    HW124629   1.506   3.469   5.203 -0.0702  1.6640  0.5411
 4332SOL    HW224630   1.380   3.531   5.252  0.2096 -0.4718  2.9552
 4333SOL     OW24631   3.433   1.585   5.216 -0.0392  0.5078  0.7531
 4333SOL    HW124632   3.440   1.494   5.187  3.3967  1.0005  0.0355
 4333SOL    HW224633   3.367   1.587   5.285 -1.7139  0.8798 -0.8552
 4334SOL     OW24634   2.844   4.399   0.042  0.3576  0.2556 -0.1485
 4334SOL    HW124635   2.863   4.489   0.015  0.6370  0.0714 -0.5728
 4334SOL    HW224636   2.823   4.424   0.132 -3.7318 -0.8910 -0.7788
 4335SOL     OW24637   4.586   3.496   7.974  0.0931  0.0346  0.3952
 4335SOL    HW124638   4.660   3.452   7.933  0.8429 -1.2650  3.1047
 4335SOL    HW224639   4.622   3.581   7.996  1.4929 -0.6438  0.7007
 4336SOL     OW24640   0.899   2.963   3.745 -0.0095  0.2084 -0.0639
 4336SOL    HW124641   0.859   2.876   3.737  0.8492 -0.3419  1.6917
 4336SOL    HW224642   0.928   2.970   3.654  1.0827  1.7856  0.4020
 4337SOL     OW24643   4.506   2.251   6.655 -0.5890 -0.0444 -0.5338
 4337SOL    HW124644   4.436   2.296   6.607 -0.4415  0.3597 -0.3717
 4337SOL    HW224645   4.565   2.321   6.683 -1.9192  2.1403 -3.2839
 4338SOL     OW24646   1.714   0.610   5.808 -0.4760 -0.0805 -0.0032
 4338SOL    HW124647   1.663   0.682   5.772  0.2369  0.8418  0.8181
 4338SOL    HW224648   1.792   0.614   5.752 -0.3708 -0.5403  0.1047
 4339SOL     OW24649   0.457   1.821   3.562  0.2781 -0.1715  0.2984
 4339SOL    HW124650   0.395   1.752   3.536 -0.8463  1.4437 -1.2738
 4339SOL    HW224651   0.416   1.903   3.535  1.3755  0.7804  1.5413
 4340SOL     OW24652   3.577   4.531   4.832 -0.0831  0.3148 -0.1410
 4340SOL    HW124653   3.518   4.572   4.769  2.3251  4.6451  0.4975
 4340SOL    HW224654   3.570   4.441   4.800 -0.3888  0.4339 -0.4010
 4341SOL     OW24655   1.284   4.089   4.931  0.0008  0.0497 -0.0867
 4341SOL    HW124656   1.379   4.075   4.934 -0.0409 -0.7713 -3.0750
 4341SOL    HW224657   1.265   4.119   5.020 -0.4551 -1.3747  0.2882
 4342SOL     OW24658   2.333   2.922   6.071 -0.0522 -0.0046 -0.1224
 4342SOL    HW124659   2.352   3.015   6.064 -0.3396  0.1051  0.4863
 4342SOL    HW224660   2.418   2.911   6.114  0.7312 -2.1890 -2.2713
 4343SOL     OW24661   1.470   3.404   4.622 -0.3398 -0.0821 -0.0067
 4343SOL    HW124662   1.434   3.475   4.569 -0.8100  0.0721  0.5238
 4343SOL    HW224663   1.469   3.335   4.556  1.2566 -1.1480  1.0772
 4344SOL     OW24664   1.958   3.587   5.183  0.4353 -0.5481 -0.2450
 4344SOL    HW124665   2.037   3.533   5.185  1.8296  1.4818 -0.1557
 4344SOL    HW224666   1.952   3.609   5.090  0.2056  0.6740  0.0664
 4345SOL     OW24667   4.413   0.320   8.011  0.0509 -0.0409  0.0432
 4345SOL    HW124668   4.404   0.350   8.102 -1.8774  1.3478 -0.6084
 4345SOL    HW224669   4.457   0.237   8.027  1.3100  0.4595 -0.7889
 4346SOL     OW24670   0.215   2.149  14.450 -0.0852  1.0283 -0.0508
 4346SOL    HW124671   0.270   2.126  14.375 -0.2216 -0.9892  0.4433
 4346SOL    HW224672   0.281   2.196  14.502 -1.4230  1.1774  1.5015
 4347SOL     OW24673   0.938   3.203   5.206 -0.3223 -0.3514 -0.1277
 4347SOL    HW124674   0.891   3.259   5.145  2.6508  0.3913 -1.7261
 4347SOL    HW224675   1.006   3.263   5.237 -0.4490 -0.5496  0.5465
 4348SOL     OW24676   3.462   1.367   4.114 -0.3755  0.8053 -0.0341
 4348SOL    HW124677   3.430   1.336   4.030 -0.6876  2.9703 -0.7008
 4348SOL    HW224678   3.384   1.370   4.169 -1.4825 -1.9302 -1.4494
 4349SOL     OW24679   2.736   2.609   4.101 -0.1296 -0.0850 -0.3545
 4349SOL    HW124680   2.693   2.689   4.073  0.2291  0.0425 -0.5476
 4349SOL    HW224681   2.827   2.618   4.071 -0.4344  1.7042 -0.6977
 4350SOL     OW24682   3.868   1.375   2.978 -0.3244 -0.2269  0.2347
 4350SOL    HW124683   3.928   1.410   2.912 -2.6175  0.5177 -1.4474
 4350SOL    HW224684   3.905   1.293   3.010 -2.1813 -1.2551 -0.2845
 4351SOL     OW24685   3.545   2.184  16.331  0.1696  0.3425  0.4749
 4351SOL    HW124686   3.473   2.198  16.392  0.6907  0.2169  1.1168
 4351SOL    HW224687   3.543   2.092  16.305 -1.0692  0.6891 -0.6428
 4352SOL     OW24688   1.888   1.377   3.333  0.2462  0.0005  0.6011
 4352SOL    HW124689   1.840   1.417   3.406 -0.9805 -1.5819  0.6450
 4352SOL    HW224690   1.924   1.449   3.281 -0.4171 -0.7448 -0.8868
 4353SOL     OW24691   0.939   2.140   3.852  0.5974  0.3965  0.4267
 4353SOL    HW124692   0.946   2.192   3.772  0.0752  0.9627  0.7463
 4353SOL    HW224693   0.854   2.170   3.886  0.2307  0.2868 -0.3926
 4354SOL     OW24694   4.053   3.769   5.612  0.7124  0.0035  0.3402
 4354SOL    HW124695   4.043   3.864   5.601  0.1298 -0.0923 -0.0156
 4354SOL    HW224696   4.022   3.736   5.527  1.0298  1.5035 -0.3760
 4355SOL     OW24697   0.227   2.793  13.599 -0.0508 -0.0962  0.6789
 4355SOL    HW124698   0.164   2.723  13.587 -0.2125 -0.0681  1.3556
 4355SOL    HW224699   0.310   2.746  13.605 -0.9706 -1.8063 -0.2533
 4356SOL     OW24700   0.605   1.177   3.027 -0.0210 -0.2255  0.3853
 4356SOL    HW124701   0.692   1.146   3.002 -0.0386 -0.0159  0.0547
 4356SOL    HW224702   0.610   1.272   3.041 -0.7379 -0.3451  1.4213
 4357SOL     OW24703   3.437   2.854   9.696  0.4195  0.3533 -0.5193
 4357SOL    HW124704   3.413   2.904   9.774  2.1915 -0.1569  0.3452
 4357SOL    HW224705   3.373   2.783   9.700  1.3385 -0.4096  0.7649
 4358SOL     OW24706   1.381   0.857   6.101 -0.1915 -0.2998 -0.5134
 4358SOL    HW124707   1.360   0.814   6.184  0.6979  0.6653  0.1998
 4358SOL    HW224708   1.392   0.949   6.122  0.1336 -0.2717 -0.8093
 4359SOL     OW24709   3.111   2.656   8.949  0.0831  0.3015 -0.1491
 4359SOL    HW124710   3.121   2.574   8.901 -2.0217 -0.6805  1.0805
 4359SOL    HW224711   3.021   2.649   8.983  0.1246 -1.3149 -0.3751
 4360SOL     OW24712   0.959   2.300  15.471 -0.1332 -0.4814  0.1232
 4360SOL    HW124713   0.951   2.346  15.387 -1.2152  0.6719  0.8565
 4360SOL    HW224714   0.949   2.368  15.537  0.3065 -0.4765  0.1874
 4361SOL     OW24715   4.400   3.942   2.556 -0.4881 -0.2787  0.0315
 4361SOL    HW124716   4.327   3.991   2.519 -0.6039 -0.7120 -0.3198
 4361SOL    HW224717   4.367   3.898   2.634 -0.0909 -1.0603 -0.2413
 4362SOL     OW24718   2.904   0.899  12.451 -0.7935  0.1781 -0.1960
 4362SOL    HW124719   2.962   0.955  12.401 -1.2585 -0.6644 -1.6808
 4362SOL    HW224720   2.911   0.821  12.396 -0.0743  0.8311 -1.0247
 4363SOL     OW24721   0.393   3.471  12.189 -0.7765 -0.0730 -0.0792
 4363SOL    HW124722   0.331   3.399  12.201  1.9629 -2.3770  0.5104
 4363SOL    HW224723   0.390   3.467  12.093  0.5299  1.7188 -0.2011
 4364SOL     OW24724   1.147   2.349   6.814  0.4646  0.0454 -0.6268
 4364SOL    HW124725   1.105   2.340   6.728  0.7648  2.5617 -1.0425
 4364SOL    HW224726   1.132   2.259   6.841 -0.6927  0.5745  0.4792
 4365SOL     OW24727   4.014   0.225   0.976 -0.1861  0.0631 -0.2190
 4365SOL    HW124728   4.099   0.182   0.990  1.1489  2.8415  0.2826
 4365SOL    HW224729   4.017   0.223   0.881  1.2154  0.4554 -0.1840
 4366SOL     OW24730   1.788   4.283   5.090 -0.8578  0.4129  0.4286
 4366SOL    HW124731   1.856   4.345   5.063 -0.8226 -0.2481 -1.0440
 4366SOL    HW224732   1.809   4.277   5.183 -0.9836  1.6423  0.5333
 4367SOL     OW24733   3.908   3.238  11.865 -0.2863 -0.0842  0.0588
 4367SOL    HW124734   3.860   3.171  11.817 -1.2558  0.8906 -0.3047
 4367SOL    HW224735   3.863   3.316  11.835  1.2649  0.5997 -0.4890
 4368SOL     OW24736   2.608   1.360   1.835  1.1262 -0.1683 -0.5136
 4368SOL    HW124737   2.614   1.407   1.918 -0.3038  2.2470 -1.7642
 4368SOL    HW224738   2.518   1.375   1.804  0.4570 -1.5203  0.7680
 4369SOL     OW24739   4.654   1.519   4.757 -0.6460 -0.0339  0.4277
 4369SOL    HW124740   0.006   1.536   4.773 -1.1770  2.3332  1.0059
 4369SOL    HW224741   4.645   1.451   4.690 -0.3367 -1.0996  1.4650
 4370SOL     OW24742   2.978   2.997   1.042 -0.0596  0.1986 -0.2305
 4370SOL    HW124743   2.886   3.012   1.065  0.3279  0.9095  0.8465
 4370SOL    HW224744   3.025   2.991   1.125 -0.4140  2.5282  0.1367
 4371SOL     OW24745   0.628   3.456   3.766 -0.0931  0.1263 -0.1896
 4371SOL    HW124746   0.655   3.528   3.823  1.1145 -1.3670  1.1246
 4371SOL    HW224747   0.693   3.476   3.698  2.0492  0.4462  1.9590
 4372SOL     OW24748   2.056   0.255  10.726 -0.2352  0.0520  0.0201
 4372SOL    HW124749   2.085   0.301  10.805  1.3996  0.9349 -1.0963
 4372SOL    HW224750   2.132   0.267  10.669 -0.2724  0.5815  0.0869
 4373SOL     OW24751   3.193   1.968   1.776  0.3125  0.1097 -0.4459
 4373SOL    HW124752   3.098   1.985   1.782 -0.0482 -2.1666  0.2904
 4373SOL    HW224753   3.222   2.009   1.858  1.6108 -2.0697  0.1748
 4374SOL     OW24754   3.832   4.554   6.531 -0.1301 -0.3037  0.3369
 4374SOL    HW124755   3.849   4.597   6.615  2.0929  1.8299 -1.2263
 4374SOL    HW224756   3.738   4.566   6.537 -0.2333 -1.6241  1.4138
 4375SOL     OW24757   4.367   4.492   4.419 -0.2037  0.5255 -0.3694
 4375SOL    HW124758   4.446   4.532   4.457 -0.2746 -1.1965  1.5811
 4375SOL    HW224759   4.313   4.481   4.498  0.5594 -0.1488  0.0584
 4376SOL     OW24760   0.637   1.506  10.191 -0.3017  0.1056  0.2060
 4376SOL    HW124761   0.626   1.429  10.247 -3.0090  1.0734  1.0088
 4376SOL    HW224762   0.554   1.488  10.146  0.4038  0.0499 -1.0472
 4377SOL     OW24763   3.822   4.720   1.928 -0.8311  0.1698 -0.1123
 4377SOL    HW124764   3.752   0.013   1.872  1.0174  2.0142 -1.2990
 4377SOL    HW224765   3.776   4.652   1.978  1.0435 -1.1032 -0.1224
 4378SOL     OW24766   0.612   0.080   4.778  0.2120  0.0545  0.3135
 4378SOL    HW124767   0.692   0.113   4.821 -0.2175  1.1229  0.2965
 4378SOL    HW224768   0.562   0.159   4.759 -0.4568 -0.6732 -0.8848
 4379SOL     OW24769   1.338   4.028   7.804  0.2221 -0.5018 -0.1274
 4379SOL    HW124770   1.383   4.022   7.888  1.5217  0.6584 -0.7568
 4379SOL    HW224771   1.368   4.114   7.776  1.2538 -0.4815  1.0583
 4380SOL     OW24772   0.784   2.697   3.670  0.5531  0.5289  0.5382
 4380SOL    HW124773   0.790   2.602   3.678  0.5757  0.6260  1.6675
 4380SOL    HW224774   0.693   2.717   3.693  0.6810 -1.1084  2.4578
 4381SOL     OW24775   4.468   2.437   8.208  0.0024 -0.3346 -0.5104
 4381SOL    HW124776   4.530   2.436   8.136  2.3540 -1.8082  1.5535
 4381SOL    HW224777   4.413   2.362   8.186 -0.6817  0.0595 -0.1546
 4382SOL     OW24778   1.023   0.542   3.229  0.5865 -0.1949  0.2421
 4382SOL    HW124779   1.076   0.566   3.306  2.1416 -0.2669 -0.8215
 4382SOL    HW224780   0.955   0.610   3.228  1.0502  0.2509 -1.2617
 4383SOL     OW24781   1.256   3.473   7.732 -1.0670  0.2934  0.1476
 4383SOL    HW124782   1.227   3.397   7.782 -1.1275  1.9878  2.6675
 4383SOL    HW224783   1.330   3.494   7.789 -0.4477  2.3285 -1.4097
 4384SOL     OW24784   2.945   3.141   9.831  0.1083  0.3224 -0.3523
 4384SOL    HW124785   3.028   3.168   9.870  0.7266 -0.5965 -1.0204
 4384SOL    HW224786   2.958   3.048   9.845  2.2792  0.5002 -1.2315
 4385SOL     OW24787   0.633   4.572   6.340 -0.2930  0.1343 -0.7038
 4385SOL    HW124788   0.542   4.600   6.333 -0.9859 -1.8889  0.1235
 4385SOL    HW224789   0.634   4.477   6.330 -0.7452  0.0497  0.0494
 4386SOL     OW24790   0.523   1.293  10.383  0.2934  0.0217 -0.0466
 4386SOL    HW124791   0.597   1.302  10.442  0.7457 -0.2837 -0.5654
 4386SOL    HW224792   0.465   1.368  10.396  2.5740  1.8472 -0.4553
 4387SOL     OW24793   1.295   1.850   4.357  0.0546 -0.2329 -0.0640
 4387SOL    HW124794   1.259   1.812   4.437  3.8222 -0.0671  1.7249
 4387SOL    HW224795   1.242   1.930   4.358 -0.3988 -0.5145 -1.2605
 4388SOL     OW24796   3.450   2.807   7.893 -0.5056  0.3598 -0.1456
 4388SOL    HW124797   3.429   2.801   7.800  0.5336 -1.6542 -0.2622
 4388SOL    HW224798   3.439   2.900   7.909 -0.6029  0.5077 -1.0538
 4389SOL     OW24799   2.926   3.692   4.497  0.3691  0.3841 -0.2169
 4389SOL    HW124800   2.977   3.611   4.496  1.8643  1.3563 -1.7001
 4389SOL    HW224801   2.955   3.731   4.580  2.8582  0.0063 -0.9154
 4390SOL     OW24802   3.575   2.530   1.797  0.5575 -0.1347  0.4262
 4390SOL    HW124803   3.544   2.475   1.869  0.1665  2.1015  1.9787
 4390SOL    HW224804   3.495   2.543   1.745  0.6896  2.0430  0.7746
 4391SOL     OW24805   2.944   3.243   8.675 -0.4525 -0.1876  0.3309
 4391SOL    HW124806   2.980   3.226   8.763 -0.5567  0.3506  0.4761
 4391SOL    HW224807   3.015   3.285   8.626 -0.9552 -0.7052 -0.8336
 4392SOL     OW24808   4.528   2.329  15.115  0.1866  0.3533 -0.0730
 4392SOL    HW124809   4.579   2.396  15.069 -1.0921  0.9573 -0.6068
 4392SOL    HW224810   4.506   2.386  15.189 -0.3196  0.1671 -0.0765
 4393SOL     OW24811   3.331   2.037   6.142  0.6370  0.7639  0.3264
 4393SOL    HW124812   3.237   2.020   6.137  0.6772  0.5417  0.3323
 4393SOL    HW224813   3.356   2.028   6.234 -0.7787 -1.0860  0.5359
 4394SOL     OW24814   4.154   4.499   6.953 -0.4684  0.0425 -0.1286
 4394SOL    HW124815   4.168   4.590   6.979 -0.5716 -0.5887  2.1776
 4394SOL    HW224816   4.173   4.451   7.034 -3.8910 -0.9259  0.1003
 4395SOL     OW24817   3.190   0.659   5.093  0.3490  0.2317 -0.0378
 4395SOL    HW124818   3.145   0.678   5.011  2.1949  0.4179 -1.0123
 4395SOL    HW224819   3.138   0.695   5.165 -2.7541 -1.2641 -1.5852
 4396SOL     OW24820   0.513   2.018  10.007  0.1650  0.3665  0.2507
 4396SOL    HW124821   0.447   2.088  10.006  0.1295  0.3217 -0.8342
 4396SOL    HW224822   0.577   2.057  10.066  1.1926 -0.5728 -0.2476
 4397SOL     OW24823   0.128   1.891  16.179 -0.7630 -0.3545  0.1209
 4397SOL    HW124824   0.036   1.872  16.160 -0.6323 -0.5439 -0.3138
 4397SOL    HW224825   0.135   1.974  16.132  0.3105 -2.0484 -2.7181
 4398SOL     OW24826   1.560   3.895   0.266  0.1731 -0.5315  0.6354
 4398SOL    HW124827   1.604   3.833   0.324  0.3136  0.8338  1.9997
 4398SOL    HW224828   1.528   3.967   0.320  0.9936  1.0735 -1.0164
 4399SOL     OW24829   3.287   1.664   8.915 -0.0432  0.1189  0.4872
 4399SOL    HW124830   3.328   1.577   8.909  0.0997  0.3057 -1.0921
 4399SOL    HW224831   3.348   1.716   8.863 -2.1170 -0.1008 -2.1442
 4400SOL     OW24832   2.922   2.217   7.194  0.0692 -0.5256 -0.4248
 4400SOL    HW124833   2.991   2.272   7.157 -0.0500 -0.1382 -0.0737
 4400SOL    HW224834   2.955   2.217   7.284  0.8644  2.1658 -0.7381
 4401SOL     OW24835   4.265   4.251  16.449 -0.0443  0.0287 -0.7315
 4401SOL    HW124836   4.180   4.214  16.473  1.2403 -0.4905  3.0281
 4401SOL    HW224837   4.303   4.269  16.535 -1.8184 -2.6974  0.6213
 4402SOL     OW24838   0.007   3.838   3.312  0.1452  0.3324  0.3182
 4402SOL    HW124839   4.680   3.793   3.261  1.5259 -1.3969  0.0011
 4402SOL    HW224840   4.710   3.841   3.400 -0.2791 -1.3780  0.1865
 4403SOL     OW24841   2.428   3.396  13.505 -0.6317 -0.1955 -0.2282
 4403SOL    HW124842   2.391   3.464  13.448  0.5184 -1.2775 -2.2599
 4403SOL    HW224843   2.433   3.445  13.587 -1.5808  0.8099 -0.7631
 4404SOL     OW24844   0.350   3.746  14.640 -0.4969 -0.1918 -0.1007
 4404SOL    HW124845   0.358   3.751  14.736 -2.2904  0.3093  0.0196
 4404SOL    HW224846   0.389   3.659  14.626 -1.1072 -0.2615 -1.3115
 4405SOL     OW24847   1.534   2.214   2.901 -0.0634  0.3928 -0.6614
 4405SOL    HW124848   1.553   2.127   2.867  0.2307 -0.4481  1.6076
 4405SOL    HW224849   1.496   2.188   2.985  0.2964 -0.4320 -0.7524
 4406SOL     OW24850   3.044   0.203  10.776  0.4781 -0.3203  0.1212
 4406SOL    HW124851   3.056   0.141  10.704  0.3217 -1.7942  1.3680
 4406SOL    HW224852   3.094   0.165  10.848 -0.3744 -0.0306  0.8729
 4407SOL     OW24853   3.953   3.616   5.416 -0.1009  0.1031  0.0331
 4407SOL    HW124854   4.000   3.589   5.337  0.4914 -0.3376  0.5315
 4407SOL    HW224855   3.922   3.532   5.450  0.0076  1.0243  2.4761
 4408SOL     OW24856   1.476   2.039  16.925  0.4301 -0.2403 -0.3589
 4408SOL    HW124857   1.531   2.110  16.957  1.2648 -1.3821  0.7605
 4408SOL    HW224858   1.414   2.085  16.868 -0.6580 -1.6420 -0.3078
 4409SOL     OW24859   0.966   0.502   2.040  0.1762 -0.6927 -0.4483
 4409SOL    HW124860   0.900   0.466   1.982 -1.2123 -0.2850  0.8761
 4409SOL    HW224861   0.956   0.471   2.130  0.4989 -0.4328 -0.3229
 4410SOL     OW24862   4.314   0.051   3.258  0.1285 -0.1316 -0.1972
 4410SOL    HW124863   4.266   4.710   3.248 -1.0031  0.3117  1.4774
 4410SOL    HW224864   4.246   0.112   3.287 -2.0748 -2.3655 -0.7534
 4411SOL     OW24865   2.149   1.092   2.853  0.2615 -0.7652 -0.1314
 4411SOL    HW124866   2.117   1.182   2.843  0.3848 -0.8522 -1.3198
 4411SOL    HW224867   2.187   1.101   2.940 -1.2926 -1.1121  0.5835
 4412SOL     OW24868   2.838   1.098  14.343  0.3145  0.8612  0.0989
 4412SOL    HW124869   2.795   1.123  14.424  1.0553  0.9708  0.4589
 4412SOL    HW224870   2.877   1.014  14.370 -0.4958 -0.5331 -3.0637
 4413SOL     OW24871   3.236   0.850   2.237  0.0416 -0.0420  0.3548
 4413SOL    HW124872   3.245   0.887   2.325  1.2313 -0.8436  0.5674
 4413SOL    HW224873   3.181   0.914   2.192 -0.2509  0.6895  1.7493
 4414SOL     OW24874   2.764   0.376   9.975  0.1113  0.2015 -0.4151
 4414SOL    HW124875   2.746   0.465   9.944 -3.1323 -0.2354  0.2367
 4414SOL    HW224876   2.813   0.341   9.901 -2.0123 -2.9867 -0.2931
 4415SOL     OW24877   1.816   3.955   7.897 -0.1771  0.2520 -0.2825
 4415SOL    HW124878   1.764   4.027   7.860 -1.4257 -0.2173  0.5476
 4415SOL    HW224879   1.899   4.000   7.882 -0.4859  0.1428 -2.4335
 4416SOL     OW24880   3.391   4.163   1.630 -0.0175  0.4163 -0.0833
 4416SOL    HW124881   3.397   4.071   1.603 -0.3087  0.3568  0.0460
 4416SOL    HW224882   3.320   4.146   1.692 -1.4732  0.4270 -1.7410
 4417SOL     OW24883   0.414   2.565   1.640 -0.1865 -0.1820  0.2428
 4417SOL    HW124884   0.490   2.553   1.697  0.6863  1.1889 -0.6291
 4417SOL    HW224885   0.401   2.475   1.608  1.1767 -0.0361 -0.7336
 4418SOL     OW24886   0.342   3.745   2.942  0.6747 -0.2751  0.5246
 4418SOL    HW124887   0.328   3.690   3.019 -0.3815 -1.1714 -0.3251
 4418SOL    HW224888   0.410   3.693   2.901  1.1622  0.8295 -0.0733
 4419SOL     OW24889   2.560   3.536   7.966 -0.4331 -0.0071  0.6100
 4419SOL    HW124890   2.510   3.514   7.887 -0.4525 -1.6256  1.0831
 4419SOL    HW224891   2.643   3.569   7.932 -1.6389  0.5983 -1.8089
 4420SOL     OW24892   1.543   4.378   9.169 -0.1597 -0.9284  0.6683
 4420SOL    HW124893   1.452   4.396   9.145  0.1723 -0.3913 -0.2068
 4420SOL    HW224894   1.580   4.462   9.196  1.1722 -0.9682 -1.0363
 4421SOL     OW24895   1.556   1.584   5.799  0.1015  0.7517 -0.2430
 4421SOL    HW124896   1.548   1.549   5.710  1.2483 -1.0420  0.3429
 4421SOL    HW224897   1.631   1.533   5.831  1.3839  2.1953 -0.9924
 4422SOL     OW24898   0.964   3.828   1.531 -0.1226  0.4939 -0.3967
 4422SOL    HW124899   0.914   3.766   1.479 -0.3147 -0.8046  1.3313
 4422SOL    HW224900   1.002   3.771   1.598 -0.1638 -0.3361 -1.0812
 4423SOL     OW24901   3.050   0.074   2.793 -0.5333 -0.3050 -0.0689
 4423SOL    HW124902   3.133   0.105   2.830 -0.0360 -0.2561 -1.2231
 4423SOL    HW224903   3.077   0.015   2.723 -2.1993 -2.8297  1.3850
 4424SOL     OW24904   2.600   0.841  11.836 -0.0860  0.0142  0.3244
 4424SOL    HW124905   2.638   0.806  11.756  0.2312  1.1348 -0.0147
 4424SOL    HW224906   2.562   0.921  11.800  1.7416  1.0520  0.6844
 4425SOL     OW24907   0.910   0.249  10.283  0.0307  0.0043  0.2361
 4425SOL    HW124908   0.988   0.301  10.302 -1.2615  1.7662  0.6479
 4425SOL    HW224909   0.947   0.162  10.268  2.2817  0.9627  0.2112
 4426SOL     OW24910   1.710   3.950   1.009  0.1887 -0.7837 -0.5517
 4426SOL    HW124911   1.795   3.978   0.975 -0.5911  1.2264 -0.8184
 4426SOL    HW224912   1.731   3.902   1.089 -0.0371  2.7006  1.6087
 4427SOL     OW24913   4.694   3.550   2.700  0.2490 -0.0508 -0.7913
 4427SOL    HW124914   4.739   3.624   2.742 -0.4013  1.1905 -2.2963
 4427SOL    HW224915   4.696   3.580   2.609 -1.4732  1.9134 -0.1814
 4428SOL     OW24916   0.988   4.336   4.846  0.2021 -0.3339  0.0942
 4428SOL    HW124917   0.973   4.381   4.763 -0.1949  0.2513  0.4846
 4428SOL    HW224918   1.041   4.265   4.811  1.1951  1.1476 -1.4401
 4429SOL     OW24919   3.845   3.105  13.470 -0.2791 -0.4529 -0.4683
 4429SOL    HW124920   3.835   3.180  13.411  0.0217 -0.3142 -0.3414
 4429SOL    HW224921   3.761   3.090  13.514  0.0394 -0.8407  0.0008
 4430SOL     OW24922   1.584   3.555   6.569  0.0787  1.0000  0.2324
 4430SOL    HW124923   1.625   3.490   6.627 -0.8801  0.0501 -0.1392
 4430SOL    HW224924   1.613   3.642   6.597 -1.0080  1.8541 -1.3018
 4431SOL     OW24925   2.428   4.188  11.476  0.0565 -0.1012  0.1144
 4431SOL    HW124926   2.341   4.221  11.498  0.3809 -1.3254  3.2304
 4431SOL    HW224927   2.418   4.095  11.495 -0.2507  0.2318  1.6379
 4432SOL     OW24928   0.322   1.373  12.516  0.4673 -0.8523 -0.1141
 4432SOL    HW124929   0.409   1.377  12.477  0.0376 -0.9584 -1.0795
 4432SOL    HW224930   0.312   1.280  12.494 -0.0990 -0.2295 -2.4916
 4433SOL     OW24931   3.043   4.148   4.699 -0.3679  0.2769  0.0400
 4433SOL    HW124932   3.001   4.216   4.645  3.3348  0.8080 -2.1946
 4433SOL    HW224933   2.988   4.158   4.776 -0.9544  1.1335 -0.4809
 4434SOL     OW24934   0.728   0.078   6.097  0.1475  0.3934  0.4653
 4434SOL    HW124935   0.683   4.737   6.078 -0.9183  0.6039  2.1247
 4434SOL    HW224936   0.662   0.127   6.145  1.1414  0.1400  2.1083
 4435SOL     OW24937   2.924   1.001   2.502  0.1932 -0.2761  0.7576
 4435SOL    HW124938   2.916   1.021   2.595  1.0564  0.4993  0.6627
 4435SOL    HW224939   2.979   1.077   2.480  2.3207 -2.0411 -0.0879
 4436SOL     OW24940   3.042   4.368   1.358 -0.4285  0.0786  0.1045
 4436SOL    HW124941   3.055   4.274   1.346  1.7568  0.2909  0.8452
 4436SOL    HW224942   3.127   4.397   1.325 -0.8458  0.1266 -0.9276
 4437SOL     OW24943   1.233   1.209   2.250  0.2830  0.2110  0.3142
 4437SOL    HW124944   1.210   1.301   2.266 -1.3917 -0.3964  1.3561
 4437SOL    HW224945   1.323   1.211   2.282  0.8266  1.7288 -1.2552
 4438SOL     OW24946   1.038   1.295   0.728  0.3615 -0.0113 -0.0503
 4438SOL    HW124947   1.038   1.269   0.636  0.4163  1.2725 -0.4121
 4438SOL    HW224948   1.004   1.385   0.730 -0.1482 -0.2109  0.3464
 4439SOL     OW24949   3.892   1.063   7.441 -0.1385  0.3133  0.2166
 4439SOL    HW124950   3.914   1.119   7.367  0.8172  1.5446  1.4355
 4439SOL    HW224951   3.796   1.066   7.439 -0.1668  0.9248  2.5126
 4440SOL     OW24952   0.085   3.064  12.001 -0.1610  0.6656 -0.0897
 4440SOL    HW124953   0.117   2.988  11.953  1.0110 -0.3576  2.2837
 4440SOL    HW224954   4.740   3.024  12.017  1.5374 -2.9816  0.0059
 4441SOL     OW24955   2.304   3.886   8.435  0.2392  0.3062  0.2389
 4441SOL    HW124956   2.398   3.875   8.421  0.3754  2.0225 -0.2573
 4441SOL    HW224957   2.270   3.853   8.352 -1.0363 -2.0678  1.7338
 4442SOL     OW24958   2.119   0.075   8.894  0.4889 -0.0305 -0.2625
 4442SOL    HW124959   2.110   0.169   8.882  0.5123  0.1427  1.0465
 4442SOL    HW224960   2.184   0.073   8.964  0.2493 -1.7136 -0.0826
 4443SOL     OW24961   4.333   3.305  16.215  0.0140 -0.6378 -0.0829
 4443SOL    HW124962   4.244   3.335  16.230  0.9417  2.3251 -0.5173
 4443SOL    HW224963   4.330   3.235  16.281 -1.1814  0.0710  0.6216
 4444SOL     OW24964   0.723   3.118   1.712  0.1505 -0.6600 -0.0808
 4444SOL    HW124965   0.683   3.062   1.646 -0.5912 -0.9997  0.6557
 4444SOL    HW224966   0.731   3.052   1.781  0.7950 -1.0338 -0.5050
 4445SOL     OW24967   3.091   4.220   5.268 -0.3495 -0.3055  0.3118
 4445SOL    HW124968   3.112   4.313   5.255 -0.0051 -0.5532 -0.8809
 4445SOL    HW224969   3.169   4.190   5.315 -0.5041 -0.7480  0.2810
 4446SOL     OW24970   1.387   3.175   3.943  0.2486 -0.0703 -0.0805
 4446SOL    HW124971   1.419   3.139   3.860  1.2032  0.9241 -0.1374
 4446SOL    HW224972   1.428   3.113   4.005  1.8079 -0.4551 -1.4868
 4447SOL     OW24973   1.369   3.694   6.965 -0.2453  0.3187 -0.6077
 4447SOL    HW124974   1.430   3.740   6.907  1.1455  0.4253  0.9302
 4447SOL    HW224975   1.395   3.745   7.041  3.7918 -0.5854 -1.3823
 4448SOL     OW24976   4.144   3.944   7.464 -0.2546  0.0844  0.1865
 4448SOL    HW124977   4.058   3.921   7.497  0.1647 -1.5180  0.1700
 4448SOL    HW224978   4.114   4.026   7.424  0.7619  1.1168  1.5474
 4449SOL     OW24979   1.097   3.154   9.403  0.3153 -0.1726  0.3043
 4449SOL    HW124980   1.070   3.140   9.312 -2.3517  0.9568  0.9475
 4449SOL    HW224981   1.034   3.110   9.459 -0.5755  1.8557  0.8621
 4450SOL     OW24982   4.526   3.662   5.128  0.2238 -0.3179  0.2952
 4450SOL    HW124983   4.455   3.613   5.170  0.2025  0.3078  0.9900
 4450SOL    HW224984   4.575   3.590   5.088 -0.2864  0.0299 -0.9699
 4451SOL     OW24985   3.867   0.203   4.930 -0.3882  0.6163  0.2189
 4451SOL    HW124986   3.827   0.261   4.865 -0.2025 -3.8263 -3.8869
 4451SOL    HW224987   3.923   0.263   4.980 -1.2930  0.8462  0.9573
 4452SOL     OW24988   1.191   3.344   2.320 -0.7002 -0.3519  0.0555
 4452SOL    HW124989   1.102   3.350   2.286 -0.1610  2.9715 -0.8306
 4452SOL    HW224990   1.176   3.292   2.398  2.1792  0.0716  0.9142
 4453SOL     OW24991   1.315   0.694  16.569 -0.1124 -0.0821  0.6396
 4453SOL    HW124992   1.373   0.722  16.498  2.2078 -1.5356  1.9362
 4453SOL    HW224993   1.279   0.772  16.612 -1.6818 -1.4617  1.7928
 4454SOL     OW24994   1.084   3.282  13.363  0.0568  0.2184 -0.3880
 4454SOL    HW124995   1.012   3.325  13.316  1.6866  1.3965 -1.7750
 4454SOL    HW224996   1.145   3.259  13.293 -0.6488 -1.7945 -0.3487
 4455SOL     OW24997   0.924   1.019  13.413  0.2066 -0.1324 -0.2022
 4455SOL    HW124998   0.989   1.088  13.398 -1.3049  1.6302  1.4344
 4455SOL    HW224999   0.976   0.939  13.409  0.2147 -0.0974 -0.7921
 4456SOL     OW25000   1.084   0.008  10.899 -0.0064 -0.1176 -0.0108
 4456SOL    HW125001   1.115   0.098  10.908  0.4198 -0.2456 -0.1761
 4456SOL    HW225002   1.054   0.002  10.808  0.0813 -0.5271 -0.0143
 4457SOL     OW25003   0.944   1.248   8.369 -0.0148  0.5112  0.1490
 4457SOL    HW125004   0.915   1.177   8.311  0.0170 -1.3719  2.4405
 4457SOL    HW225005   0.900   1.322   8.326  2.0377  0.4133 -2.0724
 4458SOL     OW25006   1.173   2.462   3.767 -0.0346 -1.1225  0.3819
 4458SOL    HW125007   1.216   2.467   3.682 -0.1982 -3.2414  0.1767
 4458SOL    HW225008   1.211   2.384   3.808  0.5699 -1.5883 -1.0524
 4459SOL     OW25009   4.684   2.710   8.283 -0.3089 -0.3940 -0.1600
 4459SOL    HW125010   4.690   2.781   8.220 -1.5786 -0.7130 -0.6247
 4459SOL    HW225011   4.593   2.686   8.268  0.6423 -3.8964 -0.3918
 4460SOL     OW25012   0.226   0.237   9.124  0.2293  0.1225 -0.3579
 4460SOL    HW125013   0.262   0.310   9.074 -0.5601 -0.7722 -2.2653
 4460SOL    HW225014   0.304   0.206   9.170  0.0844  0.1564 -0.0914
 4461SOL     OW25015   4.489   3.496   7.400  0.0133  0.5060 -0.1063
 4461SOL    HW125016   4.447   3.546   7.329  2.7817  0.3634 -1.8469
 4461SOL    HW225017   4.412   3.446   7.428  0.2610 -0.1146 -0.5422
 4462SOL     OW25018   0.618   4.510   6.916  0.2662 -0.2211 -0.5793
 4462SOL    HW125019   0.662   4.595   6.910 -1.5338  1.0021  3.6429
 4462SOL    HW225020   0.690   4.446   6.914 -0.1835 -0.7444  0.0242
 4463SOL     OW25021   1.302   0.978   4.770  0.4842 -0.4086 -0.2620
 4463SOL    HW125022   1.250   1.038   4.717  0.2770  0.3500  0.7857
 4463SOL    HW225023   1.379   1.030   4.794 -0.0382  0.2317  0.0301
 4464SOL     OW25024   4.311   1.718  16.973  0.0054 -0.4807 -0.7195
 4464SOL    HW125025   4.354   1.636  16.996  2.4094  0.3590 -2.1776
 4464SOL    HW225026   4.329   1.754  17.060  0.4403 -0.3438 -0.8647
 4465SOL     OW25027   1.400   3.719   8.050  0.0433 -0.3464 -0.1305
 4465SOL    HW125028   1.462   3.715   7.977 -0.1292  1.2920 -0.3586
 4465SOL    HW225029   1.406   3.628   8.078  0.5562  0.4870  2.4739
 4466SOL     OW25030   3.282   0.200   2.828 -0.4425 -0.0244  0.3712
 4466SOL    HW125031   3.366   0.222   2.788 -0.2762 -0.3602  0.5380
 4466SOL    HW225032   3.310   0.214   2.919 -1.0862  1.7526  0.3020
 4467SOL     OW25033   2.317   1.310   1.827  0.0267 -0.2877  0.1504
 4467SOL    HW125034   2.257   1.270   1.765  1.9351  0.1485 -1.9998
 4467SOL    HW225035   2.281   1.399   1.826 -0.0610 -0.3338 -1.1952
 4468SOL     OW25036   2.150   0.075  10.287  0.9480  0.4532  0.6788
 4468SOL    HW125037   2.240   0.074  10.254  0.8095 -0.5443  0.3142
 4468SOL    HW225038   2.165   0.065  10.381  0.5656 -0.9211  0.6054
 4469SOL     OW25039   4.722   2.601  16.338 -0.1108 -0.1253 -0.0478
 4469SOL    HW125040   0.054   2.573  16.393  0.3208  2.5745  0.7533
 4469SOL    HW225041   4.662   2.638  16.402 -0.8493 -2.3102  0.5326
 4470SOL     OW25042   0.051   3.378   9.860  0.4024  0.5907 -0.2160
 4470SOL    HW125043   0.057   3.473   9.846 -0.2824  0.8854  1.4774
 4470SOL    HW225044   0.113   3.350   9.792  0.8061  2.3186 -0.5594
 4471SOL     OW25045   2.403   3.223   8.724  0.2180  0.1868 -0.2353
 4471SOL    HW125046   2.470   3.290   8.739 -0.2204  0.7667 -0.8620
 4471SOL    HW225047   2.362   3.215   8.810  2.6358  1.1374  0.9979
 4472SOL     OW25048   3.695   0.214   4.555 -0.2185  0.3075 -0.2863
 4472SOL    HW125049   3.763   0.246   4.614 -0.6971  0.5330  0.1435
 4472SOL    HW225050   3.620   0.260   4.593  0.3500  1.7194 -0.9018
 4473SOL     OW25051   1.444   2.414   5.305  0.5782  0.1462  0.6540
 4473SOL    HW125052   1.521   2.357   5.310  1.3063  1.0706  0.1216
 4473SOL    HW225053   1.388   2.347   5.267  4.5293 -2.0445 -1.3117
 4474SOL     OW25054   0.456   4.377   3.473  0.4391  0.1011 -0.0438
 4474SOL    HW125055   0.408   4.435   3.413 -1.0992  0.6976  1.7531
 4474SOL    HW225056   0.389   4.326   3.519  0.7992  1.4732  2.0269
 4475SOL     OW25057   0.074   1.345   7.328  0.4221 -0.0682  0.7448
 4475SOL    HW125058   4.736   1.370   7.280 -0.7191 -2.5824  1.2970
 4475SOL    HW225059   0.105   1.429   7.363  1.2023  0.2017 -0.6004
 4476SOL     OW25060   0.390   1.766  10.020  0.1332 -0.3203  0.0614
 4476SOL    HW125061   0.433   1.849  10.043  1.3583 -0.5264 -1.4954
 4476SOL    HW225062   0.393   1.764   9.924 -1.5548  2.7742 -0.0725
 4477SOL     OW25063   2.260   3.296   4.139 -0.0672  0.5532 -0.1958
 4477SOL    HW125064   2.193   3.325   4.077 -1.8446 -4.0349 -0.4137
 4477SOL    HW225065   2.242   3.202   4.147  0.8015  0.5952  2.2818
 4478SOL     OW25066   2.074   3.303   9.350 -0.0526 -0.0118 -0.3055
 4478SOL    HW125067   2.006   3.330   9.411  1.5042  2.7609  0.1983
 4478SOL    HW225068   2.151   3.291   9.405 -0.7074 -1.7968  0.2180
 4479SOL     OW25069   3.726   0.231   9.210 -0.4389  0.3989  0.6481
 4479SOL    HW125070   3.817   0.237   9.241  0.0133 -1.6039 -0.2895
 4479SOL    HW225071   3.709   0.315   9.168  0.0620  0.6220  0.8865
 4480SOL     OW25072   3.180   4.351   5.610  0.4006  0.3947 -0.0069
 4480SOL    HW125073   3.193   4.414   5.681  0.4553  1.6583 -1.1429
 4480SOL    HW225074   3.266   4.348   5.566  0.5342  1.6676  0.1662
 4481SOL     OW25075   3.264   4.175   2.436  0.2371 -0.0425 -0.4381
 4481SOL    HW125076   3.237   4.247   2.379  1.4151 -1.4267 -2.7331
 4481SOL    HW225077   3.223   4.203   2.518 -0.5001 -1.5639 -0.2811
 4482SOL     OW25078   0.683   1.225   5.794 -0.6743  0.2437 -0.0055
 4482SOL    HW125079   0.651   1.206   5.706 -0.8735 -1.5126  0.4393
 4482SOL    HW225080   0.599   1.248   5.834  1.1111  1.6081  2.9678
 4483SOL     OW25081   1.945   0.820   1.562 -0.0427 -0.2612 -0.1570
 4483SOL    HW125082   1.886   0.893   1.544  1.3048  0.7782 -0.3830
 4483SOL    HW225083   1.906   0.748   1.513 -1.2485 -0.9372  1.7997
 4484SOL     OW25084   2.131   0.355   7.948 -0.3865 -0.3215  0.6475
 4484SOL    HW125085   2.154   0.314   8.031 -2.7618  0.1198  1.5333
 4484SOL    HW225086   2.215   0.391   7.919 -0.8192 -0.3237 -0.6091
 4485SOL     OW25087   1.042   0.748  14.913  0.7205 -0.1745  0.0633
 4485SOL    HW125088   1.050   0.837  14.948  1.2672 -0.2660  0.1702
 4485SOL    HW225089   1.117   0.744  14.854  1.6807  1.1648  1.2048
 4486SOL     OW25090   1.952   1.409  15.809 -0.4364 -0.4207  0.6146
 4486SOL    HW125091   1.934   1.499  15.837  1.2294  0.5075 -1.3035
 4486SOL    HW225092   2.004   1.438  15.734 -1.8700  2.7275  0.8139
 4487SOL     OW25093   3.993   4.166  11.518 -0.4778 -0.0183  0.1456
 4487SOL    HW125094   3.911   4.163  11.568  1.4017 -1.5997  3.1240
 4487SOL    HW225095   4.047   4.115  11.578 -1.0563  0.0030  0.6852
 4488SOL     OW25096   2.400   2.252   7.682  0.1257 -0.1070  0.0581
 4488SOL    HW125097   2.407   2.158   7.702 -0.0453 -0.1752 -0.2025
 4488SOL    HW225098   2.454   2.257   7.603 -0.9149  0.7738 -0.5820
 4489SOL     OW25099   3.305   1.175   0.717 -0.4883  0.2743 -0.3893
 4489SOL    HW125100   3.336   1.262   0.693  0.1762 -0.6004 -2.6352
 4489SOL    HW225101   3.288   1.139   0.630 -1.2847 -0.3471  0.0209
 4490SOL     OW25102   4.167   1.896   7.609  0.2818  0.2450 -0.1433
 4490SOL    HW125103   4.211   1.904   7.524  1.1954 -1.2599  0.1855
 4490SOL    HW225104   4.235   1.862   7.666 -1.3990 -1.5457  0.8133
 4491SOL     OW25105   0.105   2.170   3.049  0.5913 -0.8179 -0.4894
 4491SOL    HW125106   0.099   2.121   2.967  2.1469 -0.5168 -0.7826
 4491SOL    HW225107   0.064   2.106   3.108  0.3852 -0.4085 -0.1905
 4492SOL     OW25108   1.898   3.763   5.801  0.3063 -0.0902 -0.2963
 4492SOL    HW125109   1.851   3.796   5.877  0.1377 -2.3325  0.5816
 4492SOL    HW225110   1.863   3.821   5.733 -0.4515  2.1802  2.0469
 4493SOL     OW25111   2.134   3.370   6.854 -0.1512 -0.3381 -0.1483
 4493SOL    HW125112   2.164   3.392   6.766 -1.1088  2.8015  0.3307
 4493SOL    HW225113   2.205   3.312   6.883  0.0964 -0.0514 -0.1756
 4494SOL     OW25114   0.645   4.577   4.003  0.1979  0.0875  0.4841
 4494SOL    HW125115   0.552   4.554   4.005  0.5007 -1.0576  1.2422
 4494SOL    HW225116   0.642   4.657   4.056  2.5151  1.0414 -0.8272
 4495SOL     OW25117   1.273   3.346   4.411  0.3270 -0.2294 -0.5173
 4495SOL    HW125118   1.226   3.424   4.442 -0.5223 -1.4050  1.1656
 4495SOL    HW225119   1.345   3.391   4.367  1.3442 -1.7565 -0.4071
 4496SOL     OW25120   0.022   1.236  17.715 -0.5478 -0.2936 -0.2003
 4496SOL    HW125121   0.033   1.189   0.037  0.8438 -0.2329 -0.3576
 4496SOL    HW225122   4.682   1.283  17.734 -1.1553 -1.5694  0.3369
 4497SOL     OW25123   0.300   0.841   0.096  0.0117  0.0184 -0.6941
 4497SOL    HW125124   0.376   0.899   0.090  0.9388 -1.2165 -0.7100
 4497SOL    HW225125   0.301   0.826   0.190 -1.2769 -5.1459 -1.5282
 4498SOL     OW25126   1.412   3.319   3.486  0.4604  0.3199  0.6395
 4498SOL    HW125127   1.367   3.310   3.402  0.5879  3.1148  0.2625
 4498SOL    HW225128   1.484   3.369   3.445  0.2410  1.2043  1.3268
 4499SOL     OW25129   2.867   0.087   7.039 -0.5454 -0.7865  0.3838
 4499SOL    HW125130   2.960   0.067   7.030 -0.4109  0.3217 -0.7027
 4499SOL    HW225131   2.849   0.073   6.946  0.7832  1.3933 -0.1973
 4500SOL     OW25132   1.805   4.371   4.252 -0.6637  0.0916  0.7225
 4500SOL    HW125133   1.842   4.305   4.311  0.5735  1.1080  1.0606
 4500SOL    HW225134   1.737   4.315   4.214 -0.4407 -1.6619  2.8613
 4501SOL     OW25135   1.707   3.006   4.644 -0.3522  0.2116  0.6204
 4501SOL    HW125136   1.656   2.975   4.719  0.8773 -1.8423  0.6095
 4501SOL    HW225137   1.743   3.090   4.672  1.1829 -0.6309  1.1720
 4502SOL     OW25138   1.743   2.767   9.994  0.0953  0.5157  0.1877
 4502SOL    HW125139   1.750   2.775  10.089 -2.8400  3.0444  0.1550
 4502SOL    HW225140   1.693   2.845   9.971 -0.4880  0.2719  0.6470
 4503SOL     OW25141   3.842   4.672   8.803 -0.2671  0.2201 -0.1714
 4503SOL    HW125142   3.813   4.704   8.888 -0.1854  0.4031 -0.2132
 4503SOL    HW225143   3.805   4.736   8.742  1.4798  0.1853 -1.2750
 4504SOL     OW25144   2.614   3.972   1.902 -0.1834  0.1127  0.6595
 4504SOL    HW125145   2.595   3.946   1.992  0.3263 -0.0373  0.7246
 4504SOL    HW225146   2.531   3.949   1.860 -0.4995  0.4060  1.1264
 4505SOL     OW25147   3.448   0.196  13.612  0.1538 -0.0079 -0.5265
 4505SOL    HW125148   3.493   0.118  13.641 -1.7706 -0.3662  1.5174
 4505SOL    HW225149   3.360   0.166  13.587  1.4072 -2.8688 -1.4668
 4506SOL     OW25150   0.880   4.379   2.101 -0.5355 -0.7575  0.0116
 4506SOL    HW125151   0.811   4.436   2.068  0.8730  0.5396 -0.6953
 4506SOL    HW225152   0.888   4.316   2.029 -0.5313 -2.6598  1.6769
 4507SOL     OW25153   4.090   4.475   8.553  0.0509  0.3616 -0.7491
 4507SOL    HW125154   4.167   4.425   8.527  0.3712  0.1724  0.5846
 4507SOL    HW225155   4.022   4.425   8.508  0.5367 -0.8163 -0.1449
 4508SOL     OW25156   2.776   0.385   6.952  0.2019 -0.0350  0.0871
 4508SOL    HW125157   2.869   0.406   6.944  0.1778  0.2122  0.4714
 4508SOL    HW225158   2.766   0.316   6.886  0.7530 -0.3109  0.2874
 4509SOL     OW25159   1.804   0.204   8.160 -0.2149 -0.3859  0.1503
 4509SOL    HW125160   1.791   0.220   8.067  1.3540 -0.8719 -0.1492
 4509SOL    HW225161   1.814   0.109   8.151  0.0445 -0.6400  2.9968
 4510SOL     OW25162   4.414   0.209   1.832 -0.2909  0.4364 -0.1533
 4510SOL    HW125163   4.417   0.304   1.837  0.8759  0.2366  3.1744
 4510SOL    HW225164   4.501   0.193   1.795  0.5393 -1.0828  2.4563
 4511SOL     OW25165   0.136   4.156   8.629 -0.2130  0.1468  0.0664
 4511SOL    HW125166   0.122   4.196   8.543  1.9569  0.3978 -0.1612
 4511SOL    HW225167   0.052   4.172   8.674 -0.0635  1.6916 -0.2147
 4512SOL     OW25168   0.263   1.787   2.736  0.1138 -0.0861 -0.0195
 4512SOL    HW125169   0.319   1.749   2.804 -0.7330 -0.9134  0.2198
 4512SOL    HW225170   0.281   1.723   2.667  0.1216  1.3689 -1.3490
 4513SOL     OW25171   1.958   2.823   1.394 -0.3964  0.0250 -0.3617
 4513SOL    HW125172   1.988   2.733   1.404 -4.2545 -1.3019 -1.0308
 4513SOL    HW225173   2.039   2.875   1.391  0.4572 -1.3025 -0.0730
 4514SOL     OW25174   2.139   3.121   7.617  0.1107 -0.4496 -0.1815
 4514SOL    HW125175   2.096   3.081   7.693 -0.4130 -0.2389 -0.3649
 4514SOL    HW225176   2.062   3.161   7.577  0.7827  1.1489  0.1113
 4515SOL     OW25177   3.127   2.444  10.571 -0.6169 -0.0327  1.3147
 4515SOL    HW125178   3.145   2.538  10.566  0.5053 -0.3020  0.0164
 4515SOL    HW225179   3.097   2.429  10.660 -0.0004  0.5590  1.6281
 4516SOL     OW25180   0.003   1.483   3.255 -0.1438  0.1025 -0.4249
 4516SOL    HW125181   4.687   1.454   3.185 -0.0745  0.6153 -0.6966
 4516SOL    HW225182   0.086   1.446   3.224 -0.6052 -0.5547 -0.8609
 4517SOL     OW25183   2.856   2.599   7.036  0.5021  0.0928 -0.0015
 4517SOL    HW125184   2.777   2.613   6.984  0.5411  1.9689  0.4202
 4517SOL    HW225185   2.896   2.683   7.015  1.0526 -0.2927 -0.4560
 4518SOL     OW25186   2.844   4.077  17.632 -0.1270 -0.0202  0.2812
 4518SOL    HW125187   2.817   4.049  17.719 -2.8031 -0.0381 -0.5424
 4518SOL    HW225188   2.932   4.114  17.633  1.1178 -3.0027  0.6551
 4519SOL     OW25189   0.527   1.197  16.855 -0.5014  0.3624 -0.0834
 4519SOL    HW125190   0.594   1.129  16.865 -1.5458 -0.2618  2.5541
 4519SOL    HW225191   0.547   1.254  16.928  0.3088  1.0745 -0.8635
 4520SOL     OW25192   1.458   2.578   8.801  0.7830  0.3937 -0.0934
 4520SOL    HW125193   1.515   2.647   8.767  0.3483  0.4567 -0.7086
 4520SOL    HW225194   1.419   2.541   8.722 -1.2874  1.9310  0.2061
 4521SOL     OW25195   1.355   1.964   4.927 -0.1833  0.2818 -0.7815
 4521SOL    HW125196   1.388   1.954   5.017 -3.1504 -2.2421  0.0287
 4521SOL    HW225197   1.266   1.929   4.922 -0.5580  1.0715  0.1716
 4522SOL     OW25198   2.296   2.583   7.109 -0.6484 -0.5809  0.5104
 4522SOL    HW125199   2.271   2.626   7.027 -2.5996 -0.9885  0.9014
 4522SOL    HW225200   2.343   2.656   7.149  2.2971 -0.5583 -2.9840
 4523SOL     OW25201   0.906   0.982   1.677  0.5641 -0.2194 -0.4342
 4523SOL    HW125202   0.839   1.019   1.734  0.5341 -0.5852 -0.2330
 4523SOL    HW225203   0.985   0.996   1.729  1.1154  0.3555 -1.4173
 4524SOL     OW25204   2.988   4.103   5.047  0.0625  0.0823 -0.2162
 4524SOL    HW125205   2.993   4.140   5.135  2.0104  0.0176 -0.3129
 4524SOL    HW225206   2.994   4.008   5.057 -0.9444 -0.1695 -2.0862
 4525SOL     OW25207   2.364   4.689  17.246  0.1264 -0.2118  0.2523
 4525SOL    HW125208   2.273   4.717  17.260 -0.1353 -0.3651 -1.1480
 4525SOL    HW225209   2.377   4.697  17.152 -1.4965 -1.2871 -0.0831
 4526SOL     OW25210   4.485   3.219   4.595 -0.0800 -0.0736  0.7155
 4526SOL    HW125211   4.573   3.199   4.565 -0.8616 -1.9403 -0.3329
 4526SOL    HW225212   4.464   3.126   4.603  0.7328 -0.3947 -0.8346
 4527SOL     OW25213   3.430   4.386  12.663 -0.1914  0.6148 -0.6816
 4527SOL    HW125214   3.490   4.312  12.667  0.1354  0.7770 -2.3842
 4527SOL    HW225215   3.365   4.353  12.725  0.1583 -0.5255 -0.9262
 4528SOL     OW25216   4.258   2.302   8.613 -0.6555 -0.3715 -0.1231
 4528SOL    HW125217   4.224   2.252   8.538 -1.2804  1.1643 -0.8538
 4528SOL    HW225218   4.348   2.270   8.610 -0.5932 -0.3785  2.0306
 4529SOL     OW25219   1.122   1.930   3.713  0.1187 -0.1790  0.3997
 4529SOL    HW125220   1.087   2.006   3.760 -1.0595 -0.9760  0.7951
 4529SOL    HW225221   1.082   1.932   3.626  1.0096  2.1041  0.0251
 4530SOL     OW25222   0.657   4.337   3.660 -0.6118 -0.2982 -0.1369
 4530SOL    HW125223   0.608   4.370   3.584 -0.5851  1.7408  0.7199
 4530SOL    HW225224   0.621   4.249   3.664  1.1196 -0.9701  0.3542
 4531SOL     OW25225   4.466   0.093   3.666  0.1668  0.0018  0.2247
 4531SOL    HW125226   4.402   0.039   3.620  0.2588  0.4451 -0.4167
 4531SOL    HW225227   4.518   0.024   3.707  0.4556  1.6712  2.7237
 4532SOL     OW25228   2.661   1.031   2.386  0.3137  0.1889  0.8801
 4532SOL    HW125229   2.741   0.982   2.403 -0.6563 -1.7523 -0.1490
 4532SOL    HW225230   2.649   1.035   2.291 -0.8208  1.1183  1.0539
 4533SOL     OW25231   1.919   4.674   7.026 -0.0161  0.0116  0.5620
 4533SOL    HW125232   2.011   4.675   7.054  0.4443 -0.4726 -0.9406
 4533SOL    HW225233   1.883   4.600   7.074  0.7423 -1.4367 -1.1267
 4534SOL     OW25234   2.913   3.643   5.410 -1.2402  0.2988  0.5854
 4534SOL    HW125235   2.992   3.589   5.410 -1.4001  0.0624  1.2123
 4534SOL    HW225236   2.908   3.678   5.499  0.9814 -1.7773  1.5261
 4535SOL     OW25237   3.201   1.461   7.073  0.1791 -0.4903  0.1209
 4535SOL    HW125238   3.204   1.427   6.984  2.2507  0.2132 -0.0911
 4535SOL    HW225239   3.125   1.518   7.066 -0.9240 -1.7901  1.5525
 4536SOL     OW25240   0.759   2.732   7.011 -0.7272  0.5777 -0.1375
 4536SOL    HW125241   0.771   2.745   6.917 -1.0913 -1.1358 -0.4232
 4536SOL    HW225242   0.717   2.817   7.022 -3.3548 -1.1032  2.7559
 4537SOL     OW25243   4.290   0.276   2.737 -0.1675 -0.0392 -0.1154
 4537SOL    HW125244   4.323   0.274   2.827 -2.1434  0.6995  0.6234
 4537SOL    HW225245   4.331   0.360   2.716 -0.1503 -0.4463 -1.7179
 4538SOL     OW25246   2.060   3.575   8.481  0.3252  0.4174 -0.1610
 4538SOL    HW125247   2.033   3.492   8.521 -0.7044  1.0300  0.4199
 4538SOL    HW225248   2.141   3.554   8.434 -0.7320 -1.4071 -1.1463
 4539SOL     OW25249   3.172   3.255   1.587 -0.2955  0.0160  0.2991
 4539SOL    HW125250   3.259   3.256   1.627  0.5605 -1.2484 -1.5433
 4539SOL    HW225251   3.165   3.349   1.569 -0.0577 -0.0335 -0.0583
 4540SOL     OW25252   3.479   3.500   9.739  0.9149 -0.9225  0.3488
 4540SOL    HW125253   3.500   3.561   9.669  2.0632 -3.6088 -1.6384
 4540SOL    HW225254   3.472   3.557   9.816  0.3254 -1.3728  0.6297
 4541SOL     OW25255   1.384   2.371   7.333 -0.6059  0.1832  0.3592
 4541SOL    HW125256   1.382   2.360   7.428 -0.0735 -0.0923  0.3390
 4541SOL    HW225257   1.441   2.448   7.325 -0.2499 -0.4520 -3.2382
 4542SOL     OW25258   0.771   4.199  12.102  0.6054 -0.0422 -0.0119
 4542SOL    HW125259   0.763   4.174  12.194  0.5547 -1.4355 -0.3986
 4542SOL    HW225260   0.739   4.288  12.116 -0.1419 -0.8513  3.4274
 4543SOL     OW25261   0.577   1.665   9.362  0.1479  0.5397  0.1534
 4543SOL    HW125262   0.484   1.671   9.382 -0.1453 -0.9801 -0.7931
 4543SOL    HW225263   0.599   1.656   9.455  0.1666 -1.7011 -0.0825
 4544SOL     OW25264   4.351   4.057   6.553  0.0394 -0.6561 -0.6575
 4544SOL    HW125265   4.277   4.054   6.614 -0.4476 -0.8420 -1.2569
 4544SOL    HW225266   4.352   3.966   6.523  1.1253 -1.1858  0.9902
 4545SOL     OW25267   2.325   1.435   5.128  0.4884  0.6623 -0.1075
 4545SOL    HW125268   2.344   1.506   5.189 -1.0212  2.6719 -1.9771
 4545SOL    HW225269   2.340   1.484   5.047 -2.1486 -1.7961 -2.0931
 4546SOL     OW25270   0.328   1.649   2.037 -0.0347 -0.1227 -0.1198
 4546SOL    HW125271   0.255   1.604   1.994 -2.0868  2.0511  1.1093
 4546SOL    HW225272   0.406   1.611   1.996  1.1405  1.8236  0.2987
 4547SOL     OW25273   2.654   2.854   2.694 -0.4245 -0.9912 -0.4281
 4547SOL    HW125274   2.645   2.845   2.788 -0.8937  2.3623 -0.1767
 4547SOL    HW225275   2.655   2.764   2.659  2.3247 -0.6900 -1.1134
 4548SOL     OW25276   1.492   4.623   4.785 -0.3402 -0.2125 -0.2841
 4548SOL    HW125277   1.446   4.574   4.853  1.3421 -0.0853  0.9616
 4548SOL    HW225278   1.582   4.638   4.815 -0.4374  1.3844 -0.7818
 4549SOL     OW25279   3.291   1.932  14.715 -0.1846 -0.1300  0.5190
 4549SOL    HW125280   3.257   1.988  14.784 -1.4861 -2.7240  1.9857
 4549SOL    HW225281   3.335   2.001  14.664  0.2043 -1.8973 -1.5675
 4550SOL     OW25282   1.518   4.002   6.154 -0.1857  0.1608  0.1467
 4550SOL    HW125283   1.471   4.065   6.099  0.9508 -1.0873 -2.2334
 4550SOL    HW225284   1.462   3.985   6.230 -0.6146 -1.8423 -0.6192
 4551SOL     OW25285   4.459   4.634   4.207 -0.3316  0.8256  0.1400
 4551SOL    HW125286   4.522   4.655   4.276 -1.0809  0.0893  1.0502
 4551SOL    HW225287   4.398   4.581   4.260 -0.1482 -1.6561 -2.1242
 4552SOL     OW25288   1.441   2.190   6.558  0.0363 -0.0464 -0.5437
 4552SOL    HW125289   1.462   2.227   6.473  1.3754  2.1742  0.7462
 4552SOL    HW225290   1.404   2.268   6.600 -1.1236 -2.2824  2.6225
 4553SOL     OW25291   2.939   2.896   5.452  0.6978 -0.1397  0.1706
 4553SOL    HW125292   3.020   2.845   5.454 -0.1959 -1.5852 -0.0746
 4553SOL    HW225293   2.969   2.986   5.460  2.6657 -0.7754 -0.1665
 4554SOL     OW25294   1.686   3.343   8.621 -0.3001 -0.1830 -0.6463
 4554SOL    HW125295   1.664   3.422   8.570  1.3246  0.8752  0.3046
 4554SOL    HW225296   1.605   3.338   8.671  1.5500 -0.0884  2.3402
 4555SOL     OW25297   3.601   1.341   8.340 -0.0452  0.1120  0.0323
 4555SOL    HW125298   3.689   1.333   8.376 -0.3772  0.8236  1.0311
 4555SOL    HW225299   3.555   1.284   8.402 -0.4620 -1.1331 -1.4289
 4556SOL     OW25300   2.138   3.995   6.835 -0.1885 -0.0024 -0.0849
 4556SOL    HW125301   2.074   4.027   6.772 -1.1004 -1.8381 -0.0877
 4556SOL    HW225302   2.157   4.077   6.882  0.8979 -0.6631  0.6382
 4557SOL     OW25303   1.361   2.122   9.150 -0.2809 -0.5825  0.1020
 4557SOL    HW125304   1.354   2.070   9.070 -0.5511  1.2122 -1.0414
 4557SOL    HW225305   1.375   2.212   9.119 -1.9225 -0.5556 -0.5687
 4558SOL     OW25306   2.218   0.256   8.620 -0.6454 -0.1773  0.2276
 4558SOL    HW125307   2.213   0.320   8.549  1.5297 -2.0062 -1.5789
 4558SOL    HW225308   2.137   0.286   8.661 -0.4257 -1.4817  1.6157
 4559SOL     OW25309   2.263   2.304   2.065  0.0901 -0.1998 -0.0238
 4559SOL    HW125310   2.327   2.374   2.076  1.2859 -1.3086  0.1215
 4559SOL    HW225311   2.256   2.307   1.970 -2.7232 -1.2814  0.1433
 4560SOL     OW25312   2.202   0.774   3.317  0.3304  0.3202 -0.3831
 4560SOL    HW125313   2.148   0.777   3.396  2.1181  3.2267  0.7205
 4560SOL    HW225314   2.285   0.804   3.353  0.5267  0.0711 -0.6307
 4561SOL     OW25315   0.668   4.502   6.631  0.0892 -0.1602 -0.1131
 4561SOL    HW125316   0.647   4.498   6.724  0.1129  0.2117 -0.0924
 4561SOL    HW225317   0.666   4.407   6.620 -1.1762 -0.3261  1.7752
 4562SOL     OW25318   0.771   4.716   6.870  0.0297  0.7837  0.1585
 4562SOL    HW125319   0.793   0.066   6.850  1.1390  0.1084 -1.6998
 4562SOL    HW225320   0.862   4.686   6.881 -0.3864  0.2545  2.1712
 4563SOL     OW25321   1.935   3.871  17.405  0.1332 -0.0124  0.5360
 4563SOL    HW125322   1.927   3.966  17.393 -0.6548 -0.0393  0.8976
 4563SOL    HW225323   1.844   3.848  17.390 -0.6410  2.7691  0.9703
 4564SOL     OW25324   3.485   0.747  12.801 -0.2114  0.4858 -0.0620
 4564SOL    HW125325   3.424   0.689  12.756 -1.4683  2.5738 -1.0189
 4564SOL    HW225326   3.530   0.776  12.722  0.9743  0.3387  0.5648
 4565SOL     OW25327   2.434   1.073  13.655  0.3608 -0.0121 -0.6511
 4565SOL    HW125328   2.450   1.015  13.729  0.5718  0.8737 -0.0095
 4565SOL    HW225329   2.417   1.002  13.592  0.9134 -0.3710 -0.3876
 4566SOL     OW25330   0.075   3.704   1.888  0.8507 -0.0872 -0.5535
 4566SOL    HW125331   0.135   3.636   1.856  1.0989  0.1893 -0.6761
 4566SOL    HW225332   0.125   3.761   1.946  0.9683  0.0184 -0.7630
 4567SOL     OW25333   1.618   3.662  12.415 -0.1906 -0.1781  0.0397
 4567SOL    HW125334   1.535   3.704  12.394  1.0523  2.1158 -0.2325
 4567SOL    HW225335   1.623   3.576  12.372 -0.4650 -0.2042  0.0609
 4568SOL     OW25336   2.479   3.229  11.603  0.6762  0.1659  0.5881
 4568SOL    HW125337   2.488   3.259  11.512  2.7212  0.7902  0.9958
 4568SOL    HW225338   2.492   3.312  11.649  0.4692  0.0490  0.8476
 4569SOL     OW25339   1.258   3.602   9.149  0.1046  0.2395  0.0313
 4569SOL    HW125340   1.282   3.659   9.076  2.1566 -0.5945  0.0599
 4569SOL    HW225341   1.172   3.635   9.175 -0.1596  0.1428 -0.7033
 4570SOL     OW25342   3.308   2.512   7.846 -0.1503  0.2543 -0.1306
 4570SOL    HW125343   3.351   2.445   7.792 -0.1532 -0.8017  1.1884
 4570SOL    HW225344   3.330   2.484   7.935  0.7862  1.8228  0.1245
 4571SOL     OW25345   1.857   4.549   0.469  0.2210  0.0303 -0.0184
 4571SOL    HW125346   1.921   4.488   0.505  0.8873  1.7983  1.8503
 4571SOL    HW225347   1.885   4.630   0.513  0.0865  0.0139  0.0968
 4572SOL     OW25348   2.105   3.500   4.394  0.2414 -0.0386  0.7451
 4572SOL    HW125349   2.053   3.478   4.472 -0.8373  2.9725  0.8667
 4572SOL    HW225350   2.188   3.456   4.413 -0.2699 -1.2954  0.0936
 4573SOL     OW25351   4.696   1.003  16.770  0.3711 -0.4186 -0.1477
 4573SOL    HW125352   4.708   1.029  16.862  0.5613 -2.0354  0.2799
 4573SOL    HW225353   0.028   1.049  16.728 -1.6372  1.9761 -1.0011
 4574SOL     OW25354   3.592   2.195   7.447  0.1204 -0.1036  0.6566
 4574SOL    HW125355   3.644   2.210   7.526  0.4666 -1.4160  0.6708
 4574SOL    HW225356   3.536   2.119   7.467  0.1838 -0.8212 -1.9167
 4575SOL     OW25357   0.896   4.375   6.845 -0.0341 -0.6323 -0.1460
 4575SOL    HW125358   0.965   4.321   6.807  0.4251 -0.7043  0.7720
 4575SOL    HW225359   0.896   4.343   6.936 -0.9580  2.8703  1.0885
 4576SOL     OW25360   4.018   1.495   0.239 -0.4382  0.2772 -0.1611
 4576SOL    HW125361   3.993   1.433   0.170  3.5186  1.5667 -2.8149
 4576SOL    HW225362   4.112   1.506   0.220 -1.0045  2.5155 -1.7112
 4577SOL     OW25363   4.690   0.699   7.361 -0.0759 -0.8350 -0.6221
 4577SOL    HW125364   0.036   0.727   7.392 -0.0309 -0.0872 -1.4192
 4577SOL    HW225365   4.654   0.776   7.317 -0.6598 -1.4785 -1.2640
 4578SOL     OW25366   1.192   1.846   5.819 -0.1619  0.8112  0.6451
 4578SOL    HW125367   1.270   1.819   5.868  0.7505  2.9487  0.3678
 4578SOL    HW225368   1.190   1.789   5.743 -2.2679  2.8970 -0.8804
 4579SOL     OW25369   0.716   2.047  10.764  0.6823 -0.4112  0.1603
 4579SOL    HW125370   0.751   2.072  10.849 -2.1443  0.3386  1.0956
 4579SOL    HW225371   0.635   2.000  10.786 -0.7349  0.8895 -2.3029
 4580SOL     OW25372   3.652   2.931   9.195  0.3135  0.3544 -0.2873
 4580SOL    HW125373   3.620   3.021   9.202  1.9869  0.9907 -0.8927
 4580SOL    HW225374   3.676   2.924   9.103  0.1043 -1.0457 -0.2270
 4581SOL     OW25375   3.964   2.643   2.999 -0.2957 -0.0883  0.4617
 4581SOL    HW125376   3.907   2.672   2.928  0.9910  2.8590  0.6754
 4581SOL    HW225377   4.048   2.638   2.955 -0.2881 -0.0527  0.4726
 4582SOL     OW25378   0.742   3.488   8.385 -0.3921  0.1975  0.7339
 4582SOL    HW125379   0.703   3.446   8.462 -0.6246  1.8484  1.5069
 4582SOL    HW225380   0.803   3.551   8.424  0.5134 -0.8735  1.0458
 4583SOL     OW25381   0.422   0.294   1.420 -0.1841 -0.0758 -0.3994
 4583SOL    HW125382   0.326   0.299   1.425 -0.4111 -2.3586 -2.4315
 4583SOL    HW225383   0.444   0.248   1.502  0.0471 -0.9693 -0.9587
 4584SOL     OW25384   0.041   1.397   6.443  0.6673 -0.6194  0.1221
 4584SOL    HW125385   0.030   1.492   6.439  0.6968 -0.6277 -0.2178
 4584SOL    HW225386   0.030   1.383   6.537  0.8409 -2.3649 -0.1305
 4585SOL     OW25387   3.028   3.552   9.546 -0.5412  0.2217  0.1907
 4585SOL    HW125388   3.115   3.579   9.517 -1.2364  1.0615 -1.1122
 4585SOL    HW225389   3.037   3.458   9.562 -1.0559  0.1978  0.3249
 4586SOL     OW25390   1.782   0.019  11.316 -0.1467 -0.7860  0.0834
 4586SOL    HW125391   1.845   4.696  11.349  1.1073  1.1253  1.4219
 4586SOL    HW225392   1.718   0.014  11.387 -1.3216 -1.5677 -1.0296
 4587SOL     OW25393   3.108   4.633   2.587  0.3820  0.1571  0.2460
 4587SOL    HW125394   3.117   4.696   2.516  1.2138  0.0788  0.2918
 4587SOL    HW225395   3.062   4.563   2.540 -1.7392  0.6594  1.5605
 4588SOL     OW25396   4.705   0.774   4.912 -0.0501 -0.0479  0.0028
 4588SOL    HW125397   4.705   0.842   4.844 -1.6363 -2.4082 -2.3367
 4588SOL    HW225398   4.612   0.755   4.925 -0.0912  0.0592 -0.1332
 4589SOL     OW25399   2.646   3.580   7.574 -0.2024 -0.1874 -0.0580
 4589SOL    HW125400   2.586   3.568   7.648  1.2232  2.1497  1.4832
 4589SOL    HW225401   2.591   3.555   7.500 -0.7672  0.1196  0.2610
 4590SOL     OW25402   4.583   2.226   9.520  0.0285 -0.0430  0.5055
 4590SOL    HW125403   4.606   2.162   9.453 -0.0765  1.3051 -0.8043
 4590SOL    HW225404   4.490   2.208   9.536  0.3348 -1.3240  0.8306
 4591SOL     OW25405   3.644   4.527  10.165 -0.4502  0.5794 -0.1631
 4591SOL    HW125406   3.589   4.484  10.099 -1.9764 -1.3955  2.4108
 4591SOL    HW225407   3.704   4.562  10.099  0.6209 -1.7175 -0.4234
 4592SOL     OW25408   3.778   2.258   3.803 -0.6860  0.6725 -0.8572
 4592SOL    HW125409   3.740   2.336   3.844 -0.8201  0.2341 -0.1620
 4592SOL    HW225410   3.699   2.204   3.809  0.7236 -1.1524  1.0149
 4593SOL     OW25411   4.581   0.835  12.960  0.4288 -0.1072 -0.4558
 4593SOL    HW125412   4.591   0.899  13.031 -1.1000 -0.7351  0.3289
 4593SOL    HW225413   4.602   0.750  12.998  0.4716  0.8331  1.6480
 4594SOL     OW25414   3.574   3.793  10.451 -0.7216  0.1988  0.4718
 4594SOL    HW125415   3.597   3.834  10.368  0.0296  0.1389  0.6479
 4594SOL    HW225416   3.581   3.860  10.519  0.4990  0.0939  0.4645
 4595SOL     OW25417   2.920   1.710   0.704  0.4906  0.1711 -0.2540
 4595SOL    HW125418   2.982   1.780   0.684  1.0505 -0.4658 -0.7280
 4595SOL    HW225419   2.880   1.738   0.787  2.1743 -2.4031  1.4258
 4596SOL     OW25420   1.327   2.606   5.108 -0.1929 -0.4718 -0.0584
 4596SOL    HW125421   1.307   2.536   5.169 -0.5738 -1.1406 -0.9500
 4596SOL    HW225422   1.418   2.583   5.090  0.0836  0.3845  0.2514
 4597SOL     OW25423   3.318   1.528   6.570 -0.3576 -0.3906 -0.0277
 4597SOL    HW125424   3.241   1.583   6.555  0.0728  0.2736  0.2170
 4597SOL    HW225425   3.365   1.565   6.496 -0.5076  3.8176  2.0104
 4598SOL     OW25426   2.427   3.499   9.685 -0.3352  0.3654 -0.3836
 4598SOL    HW125427   2.392   3.586   9.705 -0.0671  0.5933 -0.9025
 4598SOL    HW225428   2.519   3.524   9.678 -0.8465  2.5495  0.7693
 4599SOL     OW25429   3.065   3.696   2.540  0.5710  0.0986  0.0925
 4599SOL    HW125430   3.112   3.777   2.559  1.3667 -0.7203  1.6086
 4599SOL    HW225431   3.076   3.678   2.446  1.3247  0.4109  0.1151
 4600SOL     OW25432   3.760   4.208   0.984 -0.8808  0.2154  0.1404
 4600SOL    HW125433   3.688   4.270   0.974 -3.0536 -2.4294 -0.6462
 4600SOL    HW225434   3.786   4.203   1.076 -1.9648  1.2583  0.4987
 4601SOL     OW25435   3.841   3.308   2.281 -0.3172 -0.0300  0.1755
 4601SOL    HW125436   3.918   3.357   2.311  1.6142 -2.8391 -0.1666
 4601SOL    HW225437   3.801   3.280   2.363 -0.9136 -1.2389 -0.5232
 4602SOL     OW25438   1.093   3.765   4.803  0.0901 -0.1049  0.1903
 4602SOL    HW125439   1.181   3.776   4.766 -0.7060  1.8907 -1.1348
 4602SOL    HW225440   1.111   3.704   4.875  0.7937  0.6665  0.6693
 4603SOL     OW25441   1.494   3.301  13.516  0.3233  0.1357 -0.1431
 4603SOL    HW125442   1.558   3.298  13.587  0.0611  0.3408  0.1065
 4603SOL    HW225443   1.415   3.285  13.568 -0.2058 -0.0576 -1.0095
 4604SOL     OW25444   3.554   2.533   3.005  0.1520 -0.0025 -0.1606
 4604SOL    HW125445   3.546   2.589   3.081  1.2078 -1.3509  0.9401
 4604SOL    HW225446   3.465   2.545   2.971 -1.1297 -0.5041  2.9910
 4605SOL     OW25447   1.570   2.909   1.258  0.1911 -0.6017  0.0795
 4605SOL    HW125448   1.662   2.929   1.240 -0.4273  1.9778 -0.1433
 4605SOL    HW225449   1.552   2.951   1.342 -2.5130  1.7163 -1.6566
 4606SOL     OW25450   2.759   1.861   3.607 -0.6549  0.3301  0.0371
 4606SOL    HW125451   2.710   1.935   3.571  0.2156  0.9807  0.1989
 4606SOL    HW225452   2.833   1.863   3.546 -0.0054 -0.7419  0.7997
 4607SOL     OW25453   2.411   2.403  13.731  0.1510  0.4159  0.4080
 4607SOL    HW125454   2.447   2.467  13.669  0.0611  1.1618  1.1273
 4607SOL    HW225455   2.412   2.461  13.807 -0.6572  0.2431  0.5438
 4608SOL     OW25456   3.628   3.169   7.211  0.0360  0.2665 -0.7880
 4608SOL    HW125457   3.670   3.254   7.224 -1.0883  0.6337  0.5391
 4608SOL    HW225458   3.535   3.194   7.212 -0.1096 -0.4292  2.4526
 4609SOL     OW25459   3.802   2.592   2.319  0.9973  0.0528  0.1901
 4609SOL    HW125460   3.847   2.507   2.327 -0.3079 -0.7350 -0.7986
 4609SOL    HW225461   3.808   2.607   2.225 -0.9441 -0.0958  0.0401
 4610SOL     OW25462   4.049   4.540   8.098 -0.0323  0.0230 -0.4330
 4610SOL    HW125463   3.986   4.469   8.090 -0.0002  0.2276 -2.5918
 4610SOL    HW225464   4.121   4.495   8.143 -2.9196 -2.6362  1.5165
 4611SOL     OW25465   2.472   0.883   6.312 -0.2296  0.3579  0.2333
 4611SOL    HW125466   2.471   0.815   6.379 -0.4335  1.3107  1.1966
 4611SOL    HW225467   2.382   0.869   6.281 -0.2243 -1.3970  1.0394
 4612SOL     OW25468   3.701   0.249  15.341  0.0925  0.2221 -0.0118
 4612SOL    HW125469   3.621   0.196  15.343 -0.5558  1.2677  1.2065
 4612SOL    HW225470   3.693   0.284  15.252  2.7572  1.6209  0.2959
 4613SOL     OW25471   1.355   2.802  15.741 -0.5473 -0.1950 -0.6960
 4613SOL    HW125472   1.428   2.749  15.710 -0.6782 -0.2723 -0.8680
 4613SOL    HW225473   1.288   2.777  15.677 -0.7941 -0.1643 -0.4517
 4614SOL     OW25474   2.748   2.765  11.138  0.3730  0.1018 -0.1450
 4614SOL    HW125475   2.833   2.806  11.120  0.8936 -0.9682 -0.1616
 4614SOL    HW225476   2.693   2.779  11.062  0.1163  0.1668  0.0546
 4615SOL     OW25477   1.359   1.109   2.879 -0.0179 -0.0395  0.2726
 4615SOL    HW125478   1.379   1.043   2.813 -0.3005  1.0727 -0.9284
 4615SOL    HW225479   1.327   1.183   2.828 -0.4989 -2.7065 -3.2854
 4616SOL     OW25480   3.251   0.138   4.806  0.0967  0.3610 -0.2408
 4616SOL    HW125481   3.328   0.180   4.845  1.1559 -0.2087 -1.7107
 4616SOL    HW225482   3.285   0.068   4.749  0.0335 -0.1361  0.3263
 4617SOL     OW25483   2.388   2.499   7.966  0.7353  0.0664 -0.5355
 4617SOL    HW125484   2.433   2.573   8.006 -1.3849  0.3010  1.4356
 4617SOL    HW225485   2.305   2.499   8.015  1.2658  1.4591  0.3782
 4618SOL     OW25486   2.243   2.180   0.810  0.0462 -0.0519  0.1926
 4618SOL    HW125487   2.179   2.109   0.806  0.8524 -0.6906 -1.3541
 4618SOL    HW225488   2.253   2.214   0.722 -2.6821 -1.5367 -0.7226
 4619SOL     OW25489   4.067   0.506   0.310 -0.2677 -0.4350 -0.2157
 4619SOL    HW125490   4.059   0.599   0.290  2.8175 -0.4795 -1.5826
 4619SOL    HW225491   3.986   0.484   0.356 -0.6053 -0.8262 -0.9931
 4620SOL     OW25492   0.304   4.283   1.429 -0.2259 -0.1564  0.3994
 4620SOL    HW125493   0.392   4.250   1.410  0.1238  0.2683  1.2757
 4620SOL    HW225494   0.281   4.219   1.496  0.4601 -0.8724 -0.0481
 4621SOL     OW25495   0.878   0.333   1.804  0.4812 -0.7528  0.3034
 4621SOL    HW125496   0.826   0.410   1.783 -0.2077 -1.0127  1.0646
 4621SOL    HW225497   0.933   0.328   1.726 -0.4988 -1.2350 -0.3549
 4622SOL     OW25498   0.297   2.771   8.879  0.2152  0.5533  0.4529
 4622SOL    HW125499   0.237   2.709   8.922  0.0582 -0.0405 -0.6300
 4622SOL    HW225500   0.295   2.839   8.947  1.2519  2.0630 -1.0460
 4623SOL     OW25501   1.879   4.411  16.994  0.3425 -0.4048 -0.1830
 4623SOL    HW125502   1.888   4.335  17.051 -0.1761 -0.9709 -0.8506
 4623SOL    HW225503   1.876   4.370  16.907 -0.9369 -0.3323 -0.1755
 4624SOL     OW25504   2.859   4.060   7.188 -0.3983  0.4384  0.0239
 4624SOL    HW125505   2.830   4.036   7.100 -0.0659 -0.5737  0.1856
 4624SOL    HW225506   2.781   4.097   7.229 -0.1443 -0.8588  1.6847
 4625SOL     OW25507   4.708   2.973   2.832  0.3656 -0.5495 -0.1751
 4625SOL    HW125508   4.648   2.989   2.759  0.6843 -0.0665 -0.3339
 4625SOL    HW225509   4.660   3.005   2.909  0.3726  0.8877 -0.7538
 4626SOL     OW25510   3.444   4.730  12.986 -0.4263 -0.0781 -0.4473
 4626SOL    HW125511   3.537   0.011  12.989 -0.6399  0.8377 -0.5262
 4626SOL    HW225512   3.439   4.640  12.952 -2.1432 -0.7300  1.4875
 4627SOL     OW25513   1.329   1.553   1.225  0.3711 -0.7015 -0.4556
 4627SOL    HW125514   1.313   1.590   1.139 -0.2844 -0.5118 -0.2477
 4627SOL    HW225515   1.239   1.542   1.255  1.4744 -4.0393  1.7196
 4628SOL     OW25516   0.105   2.060   1.030  0.2483  0.1179  0.6245
 4628SOL    HW125517   0.179   2.056   1.090  0.9458  0.6460 -0.2059
 4628SOL    HW225518   0.144   2.103   0.954 -1.1032  0.0365 -0.1078
 4629SOL     OW25519   0.330   4.317  11.180 -0.0624  0.1505  0.3999
 4629SOL    HW125520   0.328   4.226  11.150  1.2008  0.6763 -1.2539
 4629SOL    HW225521   0.422   4.337  11.199  0.7276 -1.0153 -2.2598
 4630SOL     OW25522   1.004   3.333   5.710  0.3335  0.4534  0.2752
 4630SOL    HW125523   1.042   3.252   5.676 -0.3175  0.2962 -0.0805
 4630SOL    HW225524   1.082   3.384   5.734 -0.4381  0.8597  1.9153
 4631SOL     OW25525   4.528   4.098   5.739 -0.4721  0.9112 -0.2998
 4631SOL    HW125526   4.606   4.146   5.711  0.4657  0.1251  0.9571
 4631SOL    HW225527   4.563   4.020   5.782  1.0183  1.1885 -1.0392
 4632SOL     OW25528   3.758   3.433   7.261  0.0045 -0.2698 -0.2964
 4632SOL    HW125529   3.756   3.448   7.167  1.1363  0.0736 -0.2700
 4632SOL    HW225530   3.708   3.507   7.296  2.8150  1.6045 -0.2172
 4633SOL     OW25531   1.104   1.302   3.131  0.6654  0.1912  0.0064
 4633SOL    HW125532   1.073   1.212   3.121 -1.3510  0.5232  3.1434
 4633SOL    HW225533   1.027   1.355   3.115 -0.5758 -2.0541 -1.5317
 4634SOL     OW25534   0.284   1.828  15.784 -0.0106 -0.1466  0.0431
 4634SOL    HW125535   0.276   1.788  15.697  0.1278 -1.0956  0.4583
 4634SOL    HW225536   0.351   1.894  15.769 -0.6990  1.1777  2.8595
 4635SOL     OW25537   1.880   0.996   2.412 -0.0517  0.5566  0.1783
 4635SOL    HW125538   1.926   0.912   2.410 -2.5543 -0.8288  1.0779
 4635SOL    HW225539   1.891   1.002   2.507  2.4535  2.3509 -0.2302
 4636SOL     OW25540   0.281   0.987   2.735  0.1056 -0.3226 -0.2465
 4636SOL    HW125541   0.275   0.896   2.762 -0.6887  0.0708  0.8821
 4636SOL    HW225542   0.359   1.013   2.784  0.5300  1.5728 -1.8863
 4637SOL     OW25543   4.540   4.261   8.499  0.3992 -0.4466  0.4127
 4637SOL    HW125544   4.511   4.189   8.443  0.5672 -0.8487  0.8426
 4637SOL    HW225545   4.579   4.315   8.431  1.4487 -0.9021  0.6409
 4638SOL     OW25546   2.969   1.151   8.635  0.1962  0.1226  0.0877
 4638SOL    HW125547   2.887   1.123   8.595 -0.2186  1.9245 -0.3105
 4638SOL    HW225548   2.951   1.223   8.695  1.5494 -0.9530  1.8106
 4639SOL     OW25549   0.855   1.438   8.552  0.1470 -0.0889 -0.4485
 4639SOL    HW125550   0.884   1.354   8.518 -0.0762 -1.1302  1.8972
 4639SOL    HW225551   0.925   1.502   8.541  1.1970 -0.8485  1.8494
 4640SOL     OW25552   0.804   4.448  17.447  0.2390 -0.1989 -0.0136
 4640SOL    HW125553   0.853   4.520  17.408  0.3640 -0.3264 -0.0950
 4640SOL    HW225554   0.760   4.479  17.526  1.1431  0.0635  0.3827
 4641SOL     OW25555   2.753   4.186   7.916 -0.0132  0.3445 -0.1397
 4641SOL    HW125556   2.720   4.249   7.980  0.9008  0.1690  0.5159
 4641SOL    HW225557   2.843   4.221   7.910 -0.1455  0.6399 -0.3961
 4642SOL     OW25558   4.124   3.921   4.837  0.4731  0.0694 -0.1416
 4642SOL    HW125559   4.108   3.967   4.919 -0.2528 -0.4789  0.0193
 4642SOL    HW225560   4.150   3.997   4.784  1.8434  0.6377  1.3323
 4643SOL     OW25561   2.415   3.980   0.560  0.8535  0.0182 -0.6465
 4643SOL    HW125562   2.441   3.927   0.485  2.3010  0.1334 -0.2226
 4643SOL    HW225563   2.460   3.928   0.626  2.0874  0.3622 -1.2169
 4644SOL     OW25564   0.022   1.314   3.706 -0.1374  0.0819 -0.5196
 4644SOL    HW125565   4.723   1.308   3.619 -0.0153  2.5342 -0.7454
 4644SOL    HW225566   0.008   1.231   3.752 -2.6936 -0.3668 -2.1195
 4645SOL     OW25567   3.135   1.962   4.897 -0.2710  0.3088  0.2296
 4645SOL    HW125568   3.211   1.917   4.862 -1.7869 -0.5521 -1.9479
 4645SOL    HW225569   3.074   1.893   4.924 -1.9740  1.9793  0.7210
 4646SOL     OW25570   3.223   0.133  13.765 -0.1310  0.3528 -0.2253
 4646SOL    HW125571   3.296   0.071  13.774 -0.7833 -0.2411  0.9234
 4646SOL    HW225572   3.170   0.095  13.835  0.1394 -0.3830 -0.4205
 4647SOL     OW25573   0.428   4.726   5.010 -0.1717 -0.0537  0.5993
 4647SOL    HW125574   0.334   0.001   4.999 -0.2448  0.0274  1.3464
 4647SOL    HW225575   0.474   4.699   4.931  1.4528  2.1827  0.7851
 4648SOL     OW25576   1.090   1.476   2.565 -0.2303 -0.0002  0.3979
 4648SOL    HW125577   1.010   1.444   2.523 -0.4061 -1.4902  1.8626
 4648SOL    HW225578   1.095   1.566   2.532 -1.6429 -1.0062 -2.5767
 4649SOL     OW25579   1.783   0.336   6.132 -0.1757  0.0602 -0.2186
 4649SOL    HW125580   1.714   0.292   6.182  1.2563 -1.5966  0.3027
 4649SOL    HW225581   1.745   0.422   6.114 -0.3474 -0.1533 -0.8590
 4650SOL     OW25582   2.796   1.106   7.221  0.0832  0.6456  0.2028
 4650SOL    HW125583   2.753   1.116   7.306  1.3394  2.9562  0.5731
 4650SOL    HW225584   2.720   1.096   7.164  0.5578 -1.8039  0.0272
 4651SOL     OW25585   3.696   2.402  17.451 -0.5692  0.8456  0.2483
 4651SOL    HW125586   3.653   2.380  17.368 -0.5863 -0.6423  0.6485
 4651SOL    HW225587   3.785   2.420  17.421  0.5310 -0.0932  2.9240
 4652SOL     OW25588   2.282   3.808   9.466  0.1140  0.5314  0.3663
 4652SOL    HW125589   2.323   3.853   9.540 -1.5481  0.4967  1.3052
 4652SOL    HW225590   2.358   3.775   9.418 -0.3024 -0.4473  0.3818
 4653SOL     OW25591   2.656   2.862   4.055 -0.2237  0.0834 -0.0038
 4653SOL    HW125592   2.641   2.938   4.112 -1.5801 -0.3103  0.1774
 4653SOL    HW225593   2.578   2.873   4.000 -0.1990  2.5399  0.4350
 4654SOL     OW25594   4.539   0.702   0.715 -0.3085 -0.5486  0.7539
 4654SOL    HW125595   4.533   0.797   0.723  0.6650 -0.5597  1.6589
 4654SOL    HW225596   4.619   0.685   0.766  0.4478 -0.0144 -0.2517
 4655SOL     OW25597   2.285   0.189  14.153  0.4983  0.2271 -0.6283
 4655SOL    HW125598   2.315   0.142  14.230  4.3132  1.3507 -1.4649
 4655SOL    HW225599   2.248   0.269  14.191  1.8434  0.6663 -0.2657
 4656SOL     OW25600   1.729   3.535   4.743 -0.2237 -0.6290 -0.4102
 4656SOL    HW125601   1.662   3.493   4.690  0.1903  0.5013 -1.8376
 4656SOL    HW225602   1.683   3.615   4.769  1.7345  0.3053  0.2343
 4657SOL     OW25603   1.517   4.637   3.893  0.0841 -0.2393 -0.1257
 4657SOL    HW125604   1.585   4.571   3.912 -1.1501 -1.2966  0.6329
 4657SOL    HW225605   1.455   4.632   3.965  1.9369  0.1249  1.4993
 4658SOL     OW25606   2.116   3.362  16.424 -0.0703 -0.1570  0.0337
 4658SOL    HW125607   2.073   3.317  16.351  1.9957  0.7001 -1.7147
 4658SOL    HW225608   2.135   3.446  16.381  1.5837 -0.8502 -0.5590
 4659SOL     OW25609   2.775   1.156  12.469 -0.0534  0.1008  0.3649
 4659SOL    HW125610   2.795   1.113  12.386 -0.2336  1.3691 -0.3308
 4659SOL    HW225611   2.819   1.088  12.521 -0.4922  0.4910  1.2394
 4660SOL     OW25612   4.093   3.807   4.481  0.0547  0.0860 -0.0700
 4660SOL    HW125613   4.175   3.764   4.505 -1.5184 -1.1751  3.1576
 4660SOL    HW225614   4.133   3.894   4.472 -0.7438  0.2715 -1.8220
 4661SOL     OW25615   0.247   1.393   4.785 -0.5766  0.3327 -0.5167
 4661SOL    HW125616   0.271   1.480   4.817 -1.2947 -0.2415  1.5440
 4661SOL    HW225617   0.285   1.396   4.697  0.6099 -0.9815 -0.0471
 4662SOL     OW25618   1.175   4.666   6.406 -0.0714 -0.1384  0.5254
 4662SOL    HW125619   1.086   4.690   6.381  0.1368 -0.2103 -0.2613
 4662SOL    HW225620   1.163   4.658   6.501  0.8734  0.1463  0.6794
 4663SOL     OW25621   4.276   4.607   6.617 -0.0900  0.3439  0.2726
 4663SOL    HW125622   4.242   4.521   6.643 -2.5711  1.5815  1.1000
 4663SOL    HW225623   4.349   4.623   6.677  0.0192  0.8273  0.0112
 4664SOL     OW25624   0.646   4.072   1.864  0.1609 -0.3131  0.0351
 4664SOL    HW125625   0.671   4.046   1.775 -2.8832 -0.4997 -0.7632
 4664SOL    HW225626   0.731   4.104   1.895  0.1696  2.0922 -2.4654
 4665SOL     OW25627   2.468   3.436  13.795 -0.5003  0.2168 -0.2516
 4665SOL    HW125628   2.535   3.503  13.808 -1.1442  0.8653 -0.2787
 4665SOL    HW225629   2.389   3.490  13.805 -1.4181 -1.0327 -0.7578
 4666SOL     OW25630   3.179   3.362  14.593  0.2630 -0.4637 -0.3096
 4666SOL    HW125631   3.153   3.351  14.502  0.7579  0.5240 -0.5750
 4666SOL    HW225632   3.249   3.297  14.596  0.7648  0.0325 -1.5097
 4667SOL     OW25633   1.868   0.141   8.589  0.3697 -0.1332  0.1749
 4667SOL    HW125634   1.816   0.073   8.546  1.5375 -1.4863  0.9277
 4667SOL    HW225635   1.809   0.152   8.664 -2.6076  0.5738 -2.2310
 4668SOL     OW25636   4.124   4.390  11.723  0.0817  0.3268 -0.0312
 4668SOL    HW125637   4.033   4.385  11.751  0.5305 -1.8475  1.1316
 4668SOL    HW225638   4.157   4.307  11.759 -2.3274 -1.1377 -1.2153
 4669SOL     OW25639   0.435   2.132  12.483 -0.7507  0.1520  0.1354
 4669SOL    HW125640   0.510   2.172  12.527 -0.3447 -0.2580 -0.1936
 4669SOL    HW225641   0.462   2.041  12.469  1.1751  0.8820 -0.8271
 4670SOL     OW25642   1.079   0.874   4.028  0.1056  0.6638  0.0426
 4670SOL    HW125643   1.016   0.946   4.036 -0.0137  0.5470  0.1803
 4670SOL    HW225644   1.023   0.798   4.048  0.0245  1.0450  1.2775
 4671SOL     OW25645   3.655   0.494   5.655  0.6565  0.0224 -0.3405
 4671SOL    HW125646   3.710   0.416   5.651 -0.5275 -1.0010  2.7302
 4671SOL    HW225647   3.652   0.506   5.750 -0.9168  0.2985 -0.4096
 4672SOL     OW25648   0.312   2.854   6.506 -0.9141 -0.3404 -0.1425
 4672SOL    HW125649   0.334   2.946   6.495  1.2335 -0.9729 -1.2077
 4672SOL    HW225650   0.388   2.806   6.474 -0.3761 -0.2530  0.9772
 4673SOL     OW25651   2.738   2.841   9.435  0.2754 -0.2740 -0.1676
 4673SOL    HW125652   2.774   2.868   9.520  0.4390 -0.7365 -0.0840
 4673SOL    HW225653   2.724   2.748   9.456  1.8763 -0.7311 -1.0650
 4674SOL     OW25654   0.694   0.909  14.771  0.3663  0.3949 -0.4222
 4674SOL    HW125655   0.704   0.974  14.702 -1.6236  1.3786  0.2155
 4674SOL    HW225656   0.625   0.859  14.727  0.8959 -0.3244 -0.4379
 4675SOL     OW25657   2.170   2.395   2.348 -0.8410  0.1253 -0.0598
 4675SOL    HW125658   2.160   2.301   2.366  0.0740 -0.2465 -1.4343
 4675SOL    HW225659   2.224   2.394   2.269  0.5789  0.7080  0.9129
 4676SOL     OW25660   2.120   4.440   2.818 -0.1840 -0.3104 -0.7783
 4676SOL    HW125661   2.135   4.356   2.774 -0.3567  0.2529 -1.9294
 4676SOL    HW225662   2.197   4.495   2.802 -0.9175  1.2229  0.8931
 4677SOL     OW25663   3.708   3.307   1.370 -0.4104  0.2920  0.5323
 4677SOL    HW125664   3.671   3.319   1.283 -1.3676  1.5463  1.1161
 4677SOL    HW225665   3.640   3.259   1.418 -1.2033  0.0650 -0.8226
 4678SOL     OW25666   0.454   0.795   4.377  0.2608  0.1709  0.4915
 4678SOL    HW125667   0.421   0.760   4.295  2.2937  0.4840 -0.4432
 4678SOL    HW225668   0.453   0.886   4.348  1.0842  0.8950  2.6594
 4679SOL     OW25669   0.067   4.607  10.652  0.2534 -0.0593  0.0675
 4679SOL    HW125670   4.717   4.592  10.675  1.0027 -3.9415  0.4965
 4679SOL    HW225671   0.103   4.521  10.674 -0.1761 -0.1326  0.4671
 4680SOL     OW25672   4.004   0.034   1.725  0.6891  0.0683  0.4467
 4680SOL    HW125673   3.964   4.688   1.712  0.9842  0.2539 -1.6923
 4680SOL    HW225674   3.965   0.055   1.809  1.7611  1.0058  0.7092
 4681SOL     OW25675   4.568   4.304   2.554  0.1352 -0.2426 -0.4400
 4681SOL    HW125676   4.548   4.247   2.628  0.5042 -0.5199 -0.5595
 4681SOL    HW225677   4.489   4.293   2.502  0.2929 -0.7453 -0.5668
 4682SOL     OW25678   1.850   0.645  16.712 -0.4385  0.3239  0.2524
 4682SOL    HW125679   1.773   0.683  16.671  1.2722 -0.2030 -3.4116
 4682SOL    HW225680   1.811   0.588  16.779 -1.1962 -2.6157 -2.6925
 4683SOL     OW25681   0.753   1.809   8.446  0.0093 -0.1520 -0.3491
 4683SOL    HW125682   0.707   1.734   8.484  0.1209  0.6446  1.3310
 4683SOL    HW225683   0.682   1.873   8.442 -0.4164 -0.6814 -1.2674
 4684SOL     OW25684   2.482   1.677   3.372 -0.5786  0.7339 -0.4975
 4684SOL    HW125685   2.501   1.665   3.279 -1.1518 -0.9085 -0.3971
 4684SOL    HW225686   2.551   1.622   3.408  0.1406  0.5385 -2.1534
 4685SOL     OW25687   3.436   4.494   2.866 -0.1322 -0.1151  0.5015
 4685SOL    HW125688   3.412   4.563   2.805 -2.1515 -0.8324  0.4951
 4685SOL    HW225689   3.521   4.530   2.895  0.4845  0.3385 -1.9280
 4686SOL     OW25690   1.748   2.438   7.294  0.8642  0.0645 -0.1502
 4686SOL    HW125691   1.792   2.359   7.263 -0.8717 -1.7941  2.1784
 4686SOL    HW225692   1.772   2.424   7.386  0.3090  2.5996  0.3815
 4687SOL     OW25693   3.703   3.801   4.962  0.3598 -0.1884  0.1669
 4687SOL    HW125694   3.644   3.727   4.946  1.2217 -1.0918  1.1785
 4687SOL    HW225695   3.766   3.761   5.022 -0.7449 -0.4360  1.1689
 4688SOL     OW25696   3.762   3.975   0.380 -0.0468  1.1004  0.2038
 4688SOL    HW125697   3.714   4.023   0.448 -2.0479  1.2554 -1.2923
 4688SOL    HW225698   3.803   4.050   0.337  2.1853  1.2941  2.6570
 4689SOL     OW25699   2.021   1.002   4.483  0.2501  0.5242 -0.0159
 4689SOL    HW125700   2.040   0.926   4.428 -3.9774  0.4771 -1.3702
 4689SOL    HW225701   1.963   1.059   4.433 -0.2596  1.5344  1.7156
 4690SOL     OW25702   3.844   1.281   8.468  0.1880 -0.8365  0.2897
 4690SOL    HW125703   3.836   1.331   8.549  0.2249  2.0391 -1.4605
 4690SOL    HW225704   3.935   1.254   8.476 -0.0841 -0.9547  2.9282
 4691SOL     OW25705   4.181   2.907   4.816  0.3598  0.9154  0.1683
 4691SOL    HW125706   4.112   2.910   4.750 -0.1484  0.7707  0.6907
 4691SOL    HW225707   4.139   2.933   4.899  0.9984 -2.0367  1.4513
 4692SOL     OW25708   1.203   1.782  16.285  0.0880  0.1916 -0.0236
 4692SOL    HW125709   1.153   1.740  16.355  0.4907  1.3574  0.9580
 4692SOL    HW225710   1.237   1.702  16.244 -1.9823 -0.1415 -1.0952
 4693SOL     OW25711   2.594   3.758   9.512 -0.6755  0.2732  0.1441
 4693SOL    HW125712   2.593   3.681   9.569 -0.8855  2.0483  2.5766
 4693SOL    HW225713   2.608   3.830   9.574 -0.2046 -0.2397  0.6350
 4694SOL     OW25714   1.751   2.520   0.541  0.0207 -0.1791  0.2016
 4694SOL    HW125715   1.680   2.531   0.477  0.8925 -1.3139 -0.9483
 4694SOL    HW225716   1.795   2.443   0.505  1.9005 -0.0491  2.2166
 4695SOL     OW25717   3.737   0.631  13.004  0.3486  0.6529  0.4012
 4695SOL    HW125718   3.787   0.589  13.074  0.0019 -0.4149  0.0236
 4695SOL    HW225719   3.749   0.725  13.014  1.7443  0.6003 -0.7803
 4696SOL     OW25720   3.970   1.627   8.125 -0.2848 -0.1620  0.4616
 4696SOL    HW125721   3.906   1.698   8.132  1.4903  1.4168  0.5912
 4696SOL    HW225722   3.993   1.640   8.033 -2.1660 -0.4899 -0.0529
 4697SOL     OW25723   0.579   3.219   2.206 -0.8331  0.0797 -0.0109
 4697SOL    HW125724   0.492   3.242   2.239 -0.6961  1.3777 -0.5521
 4697SOL    HW225725   0.557   3.163   2.131 -0.5680 -0.0680  0.0230
 4698SOL     OW25726   2.163   2.546   5.750 -0.5472 -0.8148  0.3134
 4698SOL    HW125727   2.156   2.586   5.664  0.7215  1.1276  1.1344
 4698SOL    HW225728   2.252   2.514   5.740 -1.1653 -1.5351 -2.8224
 4699SOL     OW25729   0.351   0.599   6.046  0.3366 -0.3963  0.0907
 4699SOL    HW125730   0.431   0.627   6.092  0.1022 -0.1315  0.3374
 4699SOL    HW225731   0.369   0.505   6.050  4.2389  0.2590 -1.5195
 4700SOL     OW25732   2.106   1.968   1.508 -0.1646  0.0973  0.3679
 4700SOL    HW125733   2.103   1.902   1.440 -0.9849 -0.2394  0.7322
 4700SOL    HW225734   2.013   1.985   1.521  0.1638  0.5953  2.1251
 4701SOL     OW25735   4.618   2.084   5.391  0.0015  0.1523  0.7812
 4701SOL    HW125736   4.647   2.172   5.370 -0.4538  0.3014  0.7689
 4701SOL    HW225737   4.565   2.099   5.469  0.8862 -1.1853  1.6411
 4702SOL     OW25738   2.138   3.566   7.851  0.2110 -0.2411 -0.2963
 4702SOL    HW125739   2.084   3.589   7.775 -0.6551 -0.7364  0.1638
 4702SOL    HW225740   2.202   3.637   7.851  0.5902 -0.5911  0.0555
 4703SOL     OW25741   1.504   3.053  16.802 -0.5988  0.6747 -0.2058
 4703SOL    HW125742   1.439   3.053  16.731  1.0958 -2.0435 -1.7744
 4703SOL    HW225743   1.525   3.146  16.791 -0.6810  0.8744  1.3235
 4704SOL     OW25744   3.817   4.025   2.945  0.2891 -0.0797 -0.0321
 4704SOL    HW125745   3.818   4.121   2.948  2.8060 -0.0427 -2.3488
 4704SOL    HW225746   3.843   4.017   3.037  0.0651  2.1816  0.2330
 4705SOL     OW25747   3.669   3.985  17.137 -0.2748 -0.0969  0.2454
 4705SOL    HW125748   3.610   3.977  17.062  0.3538 -1.2080 -0.1370
 4705SOL    HW225749   3.660   4.076  17.164 -0.8327 -0.5531  1.6161
 4706SOL     OW25750   2.289   3.514   5.365  0.3002 -1.1493 -0.0983
 4706SOL    HW125751   2.351   3.504   5.292 -1.0449 -1.9843 -1.1341
 4706SOL    HW225752   2.214   3.463   5.333 -0.4720 -0.7329  1.0515
 4707SOL     OW25753   4.473   2.214  16.160  0.8377 -0.3021  0.5133
 4707SOL    HW125754   4.501   2.305  16.171 -0.7344  0.2069  0.3319
 4707SOL    HW225755   4.389   2.210  16.206  0.3372  2.2725 -0.1789
 4708SOL     OW25756   3.372   0.262  12.649 -0.1691 -0.1724  0.3079
 4708SOL    HW125757   3.293   0.212  12.667 -0.2643  0.6226  2.0827
 4708SOL    HW225758   3.339   0.347  12.619 -0.7412 -0.8272 -0.9259
 4709SOL     OW25759   4.413   3.910   0.389 -0.7390  0.4309  0.5224
 4709SOL    HW125760   4.427   3.985   0.331  1.7244 -0.0291  0.5021
 4709SOL    HW225761   4.353   3.939   0.457 -2.7218  0.9543 -1.4568
 4710SOL     OW25762   4.429   3.452   2.500  0.9023  0.5433  0.6197
 4710SOL    HW125763   4.389   3.528   2.541  0.2998  0.2115  0.6506
 4710SOL    HW225764   4.362   3.429   2.436  3.1347  1.7139 -2.0897
 4711SOL     OW25765   3.937   4.293   2.745  0.4449 -0.1649 -0.0759
 4711SOL    HW125766   3.959   4.323   2.657  1.5772 -0.4658  0.1056
 4711SOL    HW225767   3.890   4.373   2.771  1.3045 -0.0697  1.2404
 4712SOL     OW25768   1.895   1.503  11.361 -0.6345 -0.5220  0.1382
 4712SOL    HW125769   1.860   1.468  11.444 -0.7219 -1.3300 -0.2340
 4712SOL    HW225770   1.940   1.427  11.323 -0.5625  0.5962 -1.9549
 4713SOL     OW25771   4.130   0.033  13.483 -0.0857 -0.3503 -0.3080
 4713SOL    HW125772   4.180   0.077  13.414 -0.9370 -0.0012 -0.7015
 4713SOL    HW225773   4.071   0.104  13.510 -0.9676 -1.4195  0.5408
 4714SOL     OW25774   1.795   4.544   5.712  0.0143  0.2376  0.7653
 4714SOL    HW125775   1.885   4.550   5.679 -0.2675 -2.0339 -0.3818
 4714SOL    HW225776   1.797   4.624   5.764  1.9565  0.4459  0.3731
 4715SOL     OW25777   2.139   0.545  12.716  0.7107  0.4682 -0.5589
 4715SOL    HW125778   2.093   0.609  12.769  0.4483 -1.8106  1.9662
 4715SOL    HW225779   2.200   0.505  12.778  1.5354  1.6772 -0.5877
 4716SOL     OW25780   1.404   2.670  17.531 -0.2137 -0.2109 -0.1653
 4716SOL    HW125781   1.359   2.595  17.491 -0.9519 -0.4301  1.0569
 4716SOL    HW225782   1.380   2.737  17.467 -2.4563 -0.3150  0.5552
 4717SOL     OW25783   1.165   4.079   7.208  0.3081 -0.1791  0.0883
 4717SOL    HW125784   1.200   4.149   7.263 -0.3966  0.4473 -0.2598
 4717SOL    HW225785   1.155   4.007   7.269 -2.1418  0.8953  0.9555
 4718SOL     OW25786   3.602   2.570   7.854  0.1154 -0.4676 -0.0616
 4718SOL    HW125787   3.614   2.530   7.940 -0.6127  0.3926  0.4464
 4718SOL    HW225788   3.545   2.646   7.869  0.1976 -0.5106  0.4775
 4719SOL     OW25789   2.707   3.690   3.052  0.5552 -0.0782 -0.0270
 4719SOL    HW125790   2.672   3.645   2.976 -0.5777 -0.4296  0.7052
 4719SOL    HW225791   2.665   3.632   3.115  2.3974 -2.5392 -1.0563
 4720SOL     OW25792   2.810   3.644   0.777 -0.1352  0.3467 -0.2726
 4720SOL    HW125793   2.896   3.637   0.817 -0.7576 -0.1558  0.9505
 4720SOL    HW225794   2.838   3.685   0.695  0.9551 -0.1029 -0.1254
 4721SOL     OW25795   0.394   0.260   6.466  0.3230 -0.0893 -0.4885
 4721SOL    HW125796   0.344   0.321   6.412 -0.3487  0.2226  0.4807
 4721SOL    HW225797   0.319   0.211   6.502  0.0120  1.2365  0.6739
 4722SOL     OW25798   1.675   1.263   5.600 -0.5112  0.0789 -0.1246
 4722SOL    HW125799   1.639   1.189   5.650  0.7999  0.4389  1.3612
 4722SOL    HW225800   1.745   1.231   5.542 -1.3507 -0.2707 -0.9462
 4723SOL     OW25801   2.802   3.509   6.373  0.3518 -0.1436  0.2979
 4723SOL    HW125802   2.808   3.515   6.278  0.1308  1.9590  0.4244
 4723SOL    HW225803   2.738   3.441   6.396 -1.3174  1.5090  0.5588
 4724SOL     OW25804   2.045   2.341   4.442 -0.3411  0.0355 -0.0819
 4724SOL    HW125805   2.009   2.429   4.430  1.0196  0.4564 -0.9494
 4724SOL    HW225806   2.016   2.294   4.363  2.0050  0.9876 -1.5047
 4725SOL     OW25807   2.534   3.642   1.775  0.0283  0.6477  0.7079
 4725SOL    HW125808   2.515   3.581   1.704  0.0018  0.6210  0.7383
 4725SOL    HW225809   2.474   3.612   1.842  0.7141 -2.0504  0.1172
 4726SOL     OW25810   2.544   2.755   5.769 -0.6282 -0.4936  0.1463
 4726SOL    HW125811   2.568   2.848   5.768 -1.3728 -0.3076 -0.7194
 4726SOL    HW225812   2.570   2.725   5.682 -1.8910 -0.9977 -0.0467
 4727SOL     OW25813   2.539   0.472  15.823  0.1160  0.2795  0.2693
 4727SOL    HW125814   2.487   0.508  15.895  0.0950  1.3374 -0.2647
 4727SOL    HW225815   2.527   0.535  15.752 -0.5429  0.3958  0.4802
 4728SOL     OW25816   3.865   4.570   4.087  0.0212 -0.3581 -0.0098
 4728SOL    HW125817   3.948   4.547   4.129  1.1024  1.0388 -1.3987
 4728SOL    HW225818   3.869   4.665   4.082 -1.5040 -0.4457 -2.9654
 4729SOL     OW25819   3.032   0.139   5.597 -0.5707 -0.2181 -0.4382
 4729SOL    HW125820   3.089   0.103   5.530 -1.3416 -3.3214  0.5697
 4729SOL    HW225821   2.963   0.073   5.600  1.0528 -1.9402 -0.7867
 4730SOL     OW25822   3.053   3.134   7.203  0.2350  0.5120 -0.5211
 4730SOL    HW125823   3.140   3.109   7.173  0.1217  0.8667 -1.1467
 4730SOL    HW225824   3.038   3.212   7.150 -1.1364  1.5562  1.3590
 4731SOL     OW25825   1.373   2.433   9.644 -0.7485 -0.1233  0.3483
 4731SOL    HW125826   1.436   2.361   9.637 -0.9984 -0.5234  2.3342
 4731SOL    HW225827   1.348   2.439   9.551 -0.5533  1.2727  0.3742
 4732SOL     OW25828   3.483   3.162   9.614  0.2553 -0.4356 -0.5222
 4732SOL    HW125829   3.560   3.214   9.638 -0.2456  1.3204 -2.7583
 4732SOL    HW225830   3.490   3.083   9.668  0.5821  0.2747  0.4810
 4733SOL     OW25831   0.247   3.976   2.872 -0.2767 -0.7477  0.7581
 4733SOL    HW125832   0.194   3.953   2.797  2.3689  1.8544 -1.9277
 4733SOL    HW225833   0.300   3.896   2.873 -2.7682 -2.3822  0.1973
 4734SOL     OW25834   2.747   0.163   7.253  0.3554 -0.0716  0.1508
 4734SOL    HW125835   2.707   0.248   7.234  4.7881  1.8886 -0.3740
 4734SOL    HW225836   2.786   0.145   7.167  0.0988 -3.0309  0.6744
 4735SOL     OW25837   4.144   4.594  16.706  0.1052  0.3042  0.3430
 4735SOL    HW125838   4.182   4.606  16.619  0.9505 -2.8661  0.2966
 4735SOL    HW225839   4.218   4.554  16.751 -0.6134 -2.2716 -0.7673
 4736SOL     OW25840   1.521   4.701   6.119 -0.4784  0.1205  0.5115
 4736SOL    HW125841   1.428   4.686   6.133 -0.0689 -1.9971  0.9652
 4736SOL    HW225842   1.536   0.034   6.177  2.5071  0.4205 -0.6195
 4737SOL     OW25843   1.437   1.873   6.196  0.2562  0.3282 -0.2939
 4737SOL    HW125844   1.459   1.868   6.103  0.2974 -4.1597 -0.0391
 4737SOL    HW225845   1.343   1.888   6.196  0.0964 -0.6677  0.7853
 4738SOL     OW25846   1.876   2.415  14.792 -1.0499  0.3412 -0.0012
 4738SOL    HW125847   1.955   2.388  14.839 -1.8556 -1.3791  0.3449
 4738SOL    HW225848   1.926   2.460  14.723 -0.4282 -1.7828 -0.9203
 4739SOL     OW25849   0.703   4.588   8.585  0.3557 -1.0213 -0.1401
 4739SOL    HW125850   0.631   4.568   8.526 -0.4150 -1.8621  1.0705
 4739SOL    HW225851   0.723   4.674   8.548  1.4769 -0.9675  0.5661
 4740SOL     OW25852   1.454   0.793   7.654  0.0673 -0.4492 -0.0694
 4740SOL    HW125853   1.481   0.786   7.745  0.2864 -1.1276 -0.1848
 4740SOL    HW225854   1.360   0.812   7.660  0.7800  3.2817 -0.7954
 4741SOL     OW25855   2.594   2.166   7.508  0.3781 -0.3049  0.0455
 4741SOL    HW125856   2.654   2.094   7.529  1.4412  0.9247  1.2588
 4741SOL    HW225857   2.662   2.231   7.486  1.4822 -1.7567 -0.8737
 4742SOL     OW25858   1.143   2.720   4.802  0.3858 -0.0248  0.4839
 4742SOL    HW125859   1.163   2.734   4.709  1.3883 -1.5617  0.4642
 4742SOL    HW225860   1.156   2.806   4.840  0.8023  0.0067  0.2773
 4743SOL     OW25861   3.855   3.421   4.325  0.0896  0.1814  0.1773
 4743SOL    HW125862   3.945   3.389   4.317  0.2434  0.9651 -1.1772
 4743SOL    HW225863   3.848   3.475   4.247 -1.5609 -2.1302 -1.2858
 4744SOL     OW25864   2.234   3.717   4.565  0.0889  0.7234 -0.7232
 4744SOL    HW125865   2.305   3.756   4.514  0.3231  0.4276 -0.6229
 4744SOL    HW225866   2.198   3.651   4.507  1.1731 -0.3742 -0.1353
 4745SOL     OW25867   1.772   0.257  15.420 -0.3055  0.0418  0.1859
 4745SOL    HW125868   1.775   0.260  15.516 -0.4567 -1.8983  0.2469
 4745SOL    HW225869   1.754   0.163  15.414 -1.2745  0.2166  0.4958
 4746SOL     OW25870   4.414   0.987   4.773 -0.1528  0.3524  0.2552
 4746SOL    HW125871   4.412   0.979   4.869  2.0395  4.2854  0.6237
 4746SOL    HW225872   4.381   1.076   4.757  1.3558  1.0059  0.7362
 4747SOL     OW25873   3.012   3.086   3.383 -0.4573  0.5530  0.0807
 4747SOL    HW125874   3.016   3.181   3.373  1.4735  0.7032  2.1649
 4747SOL    HW225875   3.062   3.066   3.462  1.7860 -0.1863 -1.5268
 4748SOL     OW25876   0.543   3.761   7.814 -0.1043 -0.2207 -0.2071
 4748SOL    HW125877   0.520   3.774   7.722  4.3230 -0.1408 -1.3367
 4748SOL    HW225878   0.522   3.668   7.822 -3.2284  0.5112 -0.0951
 4749SOL     OW25879   1.973   2.119  16.224 -0.3875  0.2198 -0.8267
 4749SOL    HW125880   1.935   2.039  16.260  1.3125  0.5832  1.7269
 4749SOL    HW225881   1.910   2.141  16.155 -1.4982 -0.2892  0.0195
 4750SOL     OW25882   2.179   4.246   6.937 -0.3204  0.5953 -0.2477
 4750SOL    HW125883   2.115   4.219   7.002  0.2763  2.1556  0.9704
 4750SOL    HW225884   2.236   4.301   6.991 -1.2068 -1.0203  2.3337
 4751SOL     OW25885   1.873   0.085   0.026 -0.1569  0.0747 -0.2218
 4751SOL    HW125886   1.912   0.085   0.114  1.2268 -1.1283 -0.8507
 4751SOL    HW225887   1.880   4.734   0.001  0.5219  0.3993 -1.1986
 4752SOL     OW25888   1.354   0.297   4.338  0.0541  0.8537 -0.6612
 4752SOL    HW125889   1.315   0.365   4.393 -1.4818  0.0110 -0.7330
 4752SOL    HW225890   1.291   0.228   4.320 -0.2544  1.1098 -0.5624
 4753SOL     OW25891   4.033   2.137   2.896 -0.4439 -0.1588 -0.2802
 4753SOL    HW125892   4.021   2.222   2.937 -1.1074 -0.8714  0.9926
 4753SOL    HW225893   4.055   2.086   2.973  1.9576 -0.3420 -1.0748
 4754SOL     OW25894   3.206   4.195   2.037  0.1143  0.0897  0.2093
 4754SOL    HW125895   3.267   4.146   1.981  0.4526 -0.4000  0.9979
 4754SOL    HW225896   3.148   4.122   2.059 -0.1101 -0.2145 -1.4260
 4755SOL     OW25897   1.085   3.854   9.027  0.1001 -0.1497  0.3120
 4755SOL    HW125898   1.072   3.824   9.117 -0.1595  1.1462  0.7106
 4755SOL    HW225899   1.106   3.943   9.054 -1.3225  0.5666 -0.9252
 4756SOL     OW25900   1.212   1.483  17.458  0.4490 -0.1112 -0.0654
 4756SOL    HW125901   1.228   1.414  17.393  1.3867 -0.6163  0.7081
 4756SOL    HW225902   1.286   1.453  17.511  0.0527 -0.6785  0.1779
 4757SOL     OW25903   4.115   3.784   2.398 -0.4621  0.1866 -0.6276
 4757SOL    HW125904   4.110   3.879   2.386 -0.6104  0.2434 -0.1206
 4757SOL    HW225905   4.200   3.763   2.360 -1.8712 -2.1417 -2.5477
 4758SOL     OW25906   4.737   3.463   3.224 -0.4406  0.8865  0.6523
 4758SOL    HW125907   4.717   3.488   3.315 -0.1192  0.0267  0.9624
 4758SOL    HW225908   4.655   3.474   3.175 -0.4701  0.9343  0.7121
 4759SOL     OW25909   0.351   0.493   3.617  0.8464  0.0941 -0.2555
 4759SOL    HW125910   0.392   0.410   3.594  0.3502 -0.1076 -0.4023
 4759SOL    HW225911   0.411   0.561   3.584 -0.5596  0.8720 -1.2326
 4760SOL     OW25912   1.929   0.967   4.153 -0.0694  0.7537  0.5244
 4760SOL    HW125913   1.842   0.942   4.186 -1.1682  3.4439 -0.3252
 4760SOL    HW225914   1.934   0.900   4.086 -2.4123  0.4475  0.6566
 4761SOL     OW25915   1.131   0.787  12.416 -0.1290 -0.6458  0.2632
 4761SOL    HW125916   1.224   0.799  12.397 -0.1946 -1.5195 -0.6494
 4761SOL    HW225917   1.127   0.821  12.505 -0.9542 -1.6492  0.6156
 4762SOL     OW25918   4.024   1.800   5.537  0.2069 -0.0125 -0.0731
 4762SOL    HW125919   4.074   1.858   5.479  0.6591  2.5272  2.8090
 4762SOL    HW225920   4.045   1.710   5.513  1.9120  1.1654 -2.9433
 4763SOL     OW25921   4.112   1.318  13.578 -0.0193 -0.6916 -0.2096
 4763SOL    HW125922   4.110   1.276  13.492  0.7760  0.4891 -0.8018
 4763SOL    HW225923   4.196   1.364  13.576 -0.0181 -0.8102 -2.1544
 4764SOL     OW25924   4.132   2.583   4.486 -0.0116  0.4197  0.6496
 4764SOL    HW125925   4.121   2.510   4.547  1.1509  0.4430  0.8909
 4764SOL    HW225926   4.117   2.546   4.399 -0.4352 -0.7359  1.2163
 4765SOL     OW25927   3.982   3.046   6.294 -0.4788 -0.3203  0.1417
 4765SOL    HW125928   3.932   3.082   6.220  1.0406  1.1960 -0.1519
 4765SOL    HW225929   4.054   3.011   6.242  1.3831  0.5218  2.1683
 4766SOL     OW25930   0.008   1.432   8.750  0.5080  0.5105 -0.2978
 4766SOL    HW125931   4.705   1.515   8.768  0.9063  0.5829  0.3840
 4766SOL    HW225932   0.103   1.446   8.757  0.4555  1.3775 -1.4731
 4767SOL     OW25933   2.437   2.963   1.341  0.2624  0.9292 -0.2946
 4767SOL    HW125934   2.451   2.916   1.259  0.5219  0.7068 -0.1224
 4767SOL    HW225935   2.486   3.043   1.322 -2.8422  1.9960 -3.8756
 4768SOL     OW25936   4.520   3.213   1.650  0.5962  0.3274  0.2713
 4768SOL    HW125937   4.472   3.247   1.725 -0.2513  0.0017 -0.1238
 4768SOL    HW225938   4.525   3.284   1.587 -0.4785  0.3231  0.1814
 4769SOL     OW25939   2.535   2.618   2.684  0.4041 -0.2634  0.6193
 4769SOL    HW125940   2.491   2.595   2.601 -0.2009 -1.9683  1.4078
 4769SOL    HW225941   2.471   2.613   2.754 -0.5956  2.3024 -0.1166
 4770SOL     OW25942   0.991   3.365  10.323  0.7148  0.0262 -0.0215
 4770SOL    HW125943   1.005   3.452  10.358  0.7265  0.3998 -0.9452
 4770SOL    HW225944   1.036   3.302  10.379  0.8529  0.0639 -0.0906
 4771SOL     OW25945   0.358   3.249   5.750 -0.0590 -0.1384 -0.2567
 4771SOL    HW125946   0.327   3.245   5.840 -0.2004 -1.1130 -0.3560
 4771SOL    HW225947   0.434   3.191   5.746 -1.5400 -2.0604  0.0220
 4772SOL     OW25948   2.605   3.789  16.114  0.1156 -0.2942 -0.0758
 4772SOL    HW125949   2.593   3.696  16.097 -0.8629 -0.7715  3.1592
 4772SOL    HW225950   2.616   3.832  16.029  1.9208 -0.0481  0.3033
 4773SOL     OW25951   0.844   3.642   7.395 -0.4697  0.6580  0.1867
 4773SOL    HW125952   0.937   3.645   7.416  0.0911 -0.7802 -2.1022
 4773SOL    HW225953   0.828   3.548   7.393  2.9852  0.0398  1.1789
 4774SOL     OW25954   1.792   2.339   6.674 -0.1407  0.3050  0.3407
 4774SOL    HW125955   1.850   2.408   6.707  0.6958  0.6778 -1.8731
 4774SOL    HW225956   1.751   2.379   6.597 -1.4706  2.5121  2.2115
 4775SOL     OW25957   1.123   3.715  11.664 -0.7109 -0.1570 -0.1723
 4775SOL    HW125958   1.046   3.751  11.708  0.1201 -0.0033  1.1802
 4775SOL    HW225959   1.187   3.705  11.735 -1.9183 -1.2961  0.7442
 4776SOL     OW25960   0.513   0.166   6.215 -0.1846 -0.6527 -0.4237
 4776SOL    HW125961   0.529   0.099   6.281 -0.2940 -2.0398 -1.7930
 4776SOL    HW225962   0.419   0.177   6.231 -0.2295  0.0970 -1.1919
 4777SOL     OW25963   0.175   3.561   1.369 -0.2137 -0.5480  0.3247
 4777SOL    HW125964   0.144   3.570   1.279 -3.1217 -0.8322  1.2969
 4777SOL    HW225965   0.101   3.598   1.417 -0.7588 -1.2369  0.0071
 4778SOL     OW25966   1.896   4.260  11.779 -0.3784  0.3608 -0.1488
 4778SOL    HW125967   1.916   4.179  11.731 -2.6501  0.0574 -0.5832
 4778SOL    HW225968   1.919   4.331  11.719  1.5586 -0.0951  0.0603
 4779SOL     OW25969   3.939   3.706   3.085 -0.0226  0.1827  0.1893
 4779SOL    HW125970   3.977   3.667   3.164  2.2145  1.4801 -0.2513
 4779SOL    HW225971   3.995   3.783   3.089 -0.3090  0.3563  0.8946
 4780SOL     OW25972   1.336   3.303   9.117  0.0775  0.4810 -0.0581
 4780SOL    HW125973   1.245   3.302   9.145 -0.0515 -0.2314 -0.5087
 4780SOL    HW225974   1.374   3.376   9.167 -0.6542  0.3855  0.6231
 4781SOL     OW25975   0.096   0.304  12.585 -0.0769  0.1052  0.1116
 4781SOL    HW125976   0.154   0.248  12.635 -0.0430  0.3010  0.2929
 4781SOL    HW225977   0.138   0.312  12.500  3.3251 -0.4647  1.7361
 4782SOL     OW25978   3.163   4.340   8.344  0.7413 -0.7524 -0.0014
 4782SOL    HW125979   3.200   4.428   8.346  1.5770 -1.1650  2.5229
 4782SOL    HW225980   3.237   4.292   8.307 -0.5329 -2.4089 -0.3979
 4783SOL     OW25981   1.331   1.968   7.629  0.1928 -0.1819 -0.2570
 4783SOL    HW125982   1.299   1.975   7.539 -0.1208  1.7999  0.0044
 4783SOL    HW225983   1.421   1.999   7.627  0.2688 -0.3191  1.2868
 4784SOL     OW25984   2.667   0.598   9.827  0.2713 -0.5161  0.5280
 4784SOL    HW125985   2.654   0.589   9.733 -0.7461  1.7206  0.4446
 4784SOL    HW225986   2.661   0.693   9.838 -0.3873 -0.7441  2.1928
 4785SOL     OW25987   4.601   1.491   0.487  0.4818  0.3903  0.2276
 4785SOL    HW125988   4.623   1.398   0.487  1.4662  0.6077  1.7138
 4785SOL    HW225989   4.678   1.519   0.536  0.3829  0.5487  0.2922
 4786SOL     OW25990   1.369   3.727   2.701  0.3537  0.2369  0.6262
 4786SOL    HW125991   1.462   3.719   2.680  0.3929  1.3239  0.3838
 4786SOL    HW225992   1.321   3.717   2.618 -0.9413 -2.4938  1.7085
 4787SOL     OW25993   3.270   3.738  11.274  0.3109 -0.1984  0.3238
 4787SOL    HW125994   3.283   3.821  11.229 -0.0689  1.1278  2.6988
 4787SOL    HW225995   3.258   3.674  11.204  0.4349 -1.0671  1.0938
 4788SOL     OW25996   1.753   3.728   3.860  0.0483  0.0416  0.1603
 4788SOL    HW125997   1.735   3.682   3.942  0.7631 -0.6610 -0.0728
 4788SOL    HW225998   1.759   3.818   3.893 -0.4068  0.0537  0.2148
 4789SOL     OW25999   0.427   1.342   9.715 -0.0525  0.2308  0.5350
 4789SOL    HW126000   0.420   1.259   9.763  2.5270 -0.7053 -0.7102
 4789SOL    HW226001   0.399   1.318   9.627  0.6563  0.9001  0.1330
 4790SOL     OW26002   3.808   2.402   5.977  0.0903 -0.1172  0.1873
 4790SOL    HW126003   3.893   2.409   5.935 -0.4102  4.3432 -0.0277
 4790SOL    HW226004   3.825   2.333   6.041 -3.2619 -1.2662 -0.1265
 4791SOL     OW26005   0.701   1.284   5.153 -0.2123 -0.3368  0.0434
 4791SOL    HW126006   0.645   1.320   5.222  0.5091  2.9381 -1.1151
 4791SOL    HW226007   0.630   1.276   5.090 -0.9757 -0.8795  0.9531
 4792SOL     OW26008   3.396   4.686   2.685 -0.2389 -0.0634  0.1747
 4792SOL    HW126009   3.305   4.675   2.655 -0.4472 -0.2860  0.9102
 4792SOL    HW226010   3.392   0.036   2.716  1.0755 -0.6660  2.0923
 4793SOL     OW26011   1.766   3.546   8.213 -0.2640 -0.9012 -0.0564
 4793SOL    HW126012   1.752   3.597   8.133  0.4375 -0.6477 -0.0234
 4793SOL    HW226013   1.745   3.614   8.278  0.5581 -1.0873  0.4039
 4794SOL     OW26014   3.990   3.457  17.189  0.5562  0.3185 -0.0077
 4794SOL    HW126015   4.019   3.492  17.274 -0.9860  1.1270  0.1950
 4794SOL    HW226016   3.897   3.480  17.201  1.0465  2.1560  0.4102
 4795SOL     OW26017   3.204   2.754   5.447  0.7284  0.1759 -0.2872
 4795SOL    HW126018   3.141   2.682   5.445 -1.1842  1.8809 -1.9979
 4795SOL    HW226019   3.283   2.722   5.404  1.1132  1.2042 -0.3508
 4796SOL     OW26020   3.433   0.835   4.579 -0.3631  0.2967 -0.2764
 4796SOL    HW126021   3.490   0.760   4.594  0.0358  0.5539 -0.5250
 4796SOL    HW226022   3.480   0.881   4.510 -3.5983 -0.3262 -2.8942
 4797SOL     OW26023   3.131   2.702   1.373 -0.2988 -0.7229 -0.2212
 4797SOL    HW126024   3.226   2.702   1.387 -0.1540 -0.3057 -1.2270
 4797SOL    HW226025   3.106   2.628   1.428 -2.8249  0.3882  0.1150
 4798SOL     OW26026   1.381   2.686   0.201  0.1793 -0.6396 -0.0571
 4798SOL    HW126027   1.331   2.764   0.225  0.8113  0.1194 -1.1679
 4798SOL    HW226028   1.429   2.722   0.126  0.4523  1.3260  1.0460
 4799SOL     OW26029   3.395   0.492  13.726  0.6688 -0.1810  0.6027
 4799SOL    HW126030   3.401   0.531  13.639 -1.9712 -0.8676  0.1043
 4799SOL    HW226031   3.371   0.400  13.712  2.4133 -0.4687 -0.5453
 4800SOL     OW26032   1.735   3.716   0.408 -0.6365 -0.1886  0.5038
 4800SOL    HW126033   1.773   3.804   0.408 -0.8166 -0.1083  0.2131
 4800SOL    HW226034   1.690   3.727   0.491 -0.5849 -1.2436  0.6703
 4801SOL     OW26035   0.428   2.137   6.082  0.1843  0.0678 -0.1953
 4801SOL    HW126036   0.512   2.140   6.036  0.8143 -1.0259  0.8780
 4801SOL    HW226037   0.374   2.077   6.031  0.9472  0.1745 -1.1289
 4802SOL     OW26038   1.491   3.243   2.333  0.2949  0.1599  0.1993
 4802SOL    HW126039   1.409   3.278   2.297  0.5821 -1.9692 -2.5118
 4802SOL    HW226040   1.465   3.157   2.366  0.9044 -0.7249 -1.6362
 4803SOL     OW26041   3.090   1.363   3.592  0.0011  0.1899 -0.4091
 4803SOL    HW126042   3.033   1.420   3.540 -0.8684 -1.1492 -0.9122
 4803SOL    HW226043   3.036   1.284   3.583 -0.2396  0.1265  1.4567
 4804SOL     OW26044   2.249   3.296   8.182  0.3800  0.8468 -0.2622
 4804SOL    HW126045   2.206   3.284   8.097  0.9829  0.4005 -0.5008
 4804SOL    HW226046   2.189   3.247   8.237  0.9625  1.8147  1.2212
 4805SOL     OW26047   1.994   1.771  16.595  0.7714  0.5438 -0.0783
 4805SOL    HW126048   1.925   1.756  16.660 -0.4930 -0.1873 -1.5774
 4805SOL    HW226049   2.015   1.681  16.572  0.2545  0.7734 -1.4237
 4806SOL     OW26050   1.157   1.414  12.865  0.0367  0.2626  0.3906
 4806SOL    HW126051   1.133   1.325  12.837  3.5716  0.4690 -3.4394
 4806SOL    HW226052   1.214   1.446  12.795  0.5156 -0.6508  0.3494
 4807SOL     OW26053   0.596   3.778   2.103  0.6321  0.4063  0.1799
 4807SOL    HW126054   0.535   3.824   2.045  2.0696  1.4547 -0.4824
 4807SOL    HW226055   0.584   3.689   2.070  0.7639  0.9858 -1.4103
 4808SOL     OW26056   0.599   2.698  10.483 -0.1803 -0.5289 -0.4546
 4808SOL    HW126057   0.632   2.613  10.513  0.9485 -1.1516 -3.4337
 4808SOL    HW226058   0.571   2.738  10.565  1.2317 -0.3613 -0.0651
 4809SOL     OW26059   3.817   2.162  10.074  0.4902 -0.8273  0.1552
 4809SOL    HW126060   3.730   2.178  10.037 -0.2971 -0.2932  2.2484
 4809SOL    HW226061   3.795   2.129  10.161 -0.8989 -2.9981 -1.0243
 4810SOL     OW26062   4.694   1.039  15.023 -0.0029  0.4104  0.2812
 4810SOL    HW126063   4.720   0.972  15.087  1.2645  1.9014  1.3372
 4810SOL    HW226064   0.022   1.103  15.039  1.8466 -1.4344 -0.2334
 4811SOL     OW26065   3.765   4.512   2.672 -0.0301 -0.4121 -0.8118
 4811SOL    HW126066   3.834   4.491   2.609  0.9168  0.5461 -0.0931
 4811SOL    HW226067   3.693   4.523   2.610  0.4018  0.4809 -1.1446
 4812SOL     OW26068   4.081   0.152   3.143 -0.2608  0.1191  0.0012
 4812SOL    HW126069   3.996   0.145   3.099  0.7966 -0.9451 -1.9054
 4812SOL    HW226070   4.048   0.149   3.232  0.9879  0.0455  0.4712
 4813SOL     OW26071   3.539   4.313   4.670 -0.4605  0.0718 -0.4243
 4813SOL    HW126072   3.468   4.262   4.709 -2.2621  1.4991 -1.7649
 4813SOL    HW226073   3.480   4.362   4.611  1.1372  0.3346 -1.7981
 4814SOL     OW26074   3.001   3.250  15.506 -0.0815  0.1537 -0.0079
 4814SOL    HW126075   3.017   3.219  15.594  0.8677 -1.7703 -0.8601
 4814SOL    HW226076   3.024   3.172  15.456  1.8845 -0.6133  2.1144
 4815SOL     OW26077   1.430   3.889   1.014 -0.0692 -0.1248 -0.7168
 4815SOL    HW126078   1.524   3.899   1.000 -0.5135 -0.1787 -3.9183
 4815SOL    HW226079   1.420   3.809   1.066 -0.3422 -0.6779 -1.6069
 4816SOL     OW26080   3.097   4.096  11.605  0.0658  0.0740 -0.2352
 4816SOL    HW126081   3.154   4.113  11.680 -0.1012 -1.0523  0.1368
 4816SOL    HW226082   3.137   4.011  11.585 -1.5938 -0.7322 -0.0679
 4817SOL     OW26083   3.819   2.156  14.279  0.1630  0.1749 -0.5416
 4817SOL    HW126084   3.825   2.138  14.186 -0.0103 -0.4004 -0.4429
 4817SOL    HW226085   3.889   2.104  14.319  0.7906 -0.5103 -2.5470
 4818SOL     OW26086   1.463   4.023   2.453  0.1031  0.2256  0.1984
 4818SOL    HW126087   1.507   4.007   2.536  0.4595 -0.4299 -0.1169
 4818SOL    HW226088   1.374   4.000   2.478 -0.3914  0.1657 -1.5808
 4819SOL     OW26089   1.997   2.397   3.206 -0.2304 -0.0687  0.3064
 4819SOL    HW126090   1.911   2.413   3.168  0.5386  0.7196 -1.0990
 4819SOL    HW226091   2.025   2.484   3.236  0.7335  0.2767 -1.5820
 4820SOL     OW26092   3.705   2.612   4.225  0.3293  0.2536 -0.4249
 4820SOL    HW126093   3.611   2.628   4.222  0.8881  3.7005  0.3428
 4820SOL    HW226094   3.733   2.697   4.261 -0.4503  1.0342 -1.6793
 4821SOL     OW26095   3.554   4.245   8.532 -0.2050 -0.0381  0.8189
 4821SOL    HW126096   3.536   4.163   8.485  3.0651 -0.9654  1.1775
 4821SOL    HW226097   3.565   4.314   8.467  2.8790 -0.6856  0.6768
 4822SOL     OW26098   0.303   1.461   0.948  0.9224  0.1383 -0.5233
 4822SOL    HW126099   0.266   1.393   0.892 -0.3435 -0.0342  0.5339
 4822SOL    HW226100   0.228   1.509   0.982  0.6745 -0.0123 -0.8624
 4823SOL     OW26101   0.874   1.142   2.988  0.3811  0.3688  0.1015
 4823SOL    HW126102   0.925   1.068   2.955 -0.5566 -0.4670  0.5239
 4823SOL    HW226103   0.869   1.194   2.908  1.5290  1.1036  0.5156
 4824SOL     OW26104   4.243   2.816   2.716  0.4047 -0.6158 -0.1850
 4824SOL    HW126105   4.237   2.729   2.756 -0.8579 -0.8120 -0.7977
 4824SOL    HW226106   4.329   2.811   2.674  0.2417 -0.5650 -0.5235
 4825SOL     OW26107   4.065   2.544   2.045  0.0164  0.0544  0.0699
 4825SOL    HW126108   4.153   2.509   2.057  0.1914  0.2474 -0.6314
 4825SOL    HW226109   4.023   2.465   2.011 -1.0608  1.0213 -0.8419
 4826SOL     OW26110   1.409   2.861   6.149 -0.2289 -0.1353 -0.3865
 4826SOL    HW126111   1.363   2.818   6.077 -0.6295  1.4678 -1.0752
 4826SOL    HW226112   1.396   2.955   6.140  0.6537  0.1403  1.2439
 4827SOL     OW26113   1.843   2.946   1.170 -0.6301  0.2371  0.0106
 4827SOL    HW126114   1.885   2.896   1.240  1.0551 -0.8318 -1.7528
 4827SOL    HW226115   1.908   3.016   1.164  0.3172 -0.7243 -1.0221
 4828SOL     OW26116   4.476   2.853   5.688 -0.1292  0.1430  0.2203
 4828SOL    HW126117   4.564   2.885   5.707  0.7131 -2.1840  0.1998
 4828SOL    HW226118   4.449   2.915   5.620 -1.1831  0.4406  0.9032
 4829SOL     OW26119   2.780   2.646  15.945 -0.1004 -0.2545  0.1822
 4829SOL    HW126120   2.839   2.631  15.871 -2.0784  0.3339 -1.4761
 4829SOL    HW226121   2.704   2.599  15.913  0.9151 -1.3232 -0.6814
 4830SOL     OW26122   1.360   1.210   3.238 -0.6767 -0.6914  0.0469
 4830SOL    HW126123   1.269   1.233   3.221 -0.9015 -1.1673  0.6100
 4830SOL    HW226124   1.351   1.139   3.301  1.2800 -0.0169  1.0704
 4831SOL     OW26125   3.399   2.692   6.344  0.1264 -0.0156  0.3909
 4831SOL    HW126126   3.473   2.700   6.405 -0.1477 -1.9597  0.9721
 4831SOL    HW226127   3.440   2.735   6.269 -0.8388  1.3470  0.6326
 4832SOL     OW26128   1.080   1.989   3.124 -0.5589 -0.2735  0.0342
 4832SOL    HW126129   1.024   2.055   3.165  1.1581  1.2600 -0.0481
 4832SOL    HW226130   1.020   1.915   3.132  1.5260 -1.9020  0.4054
 4833SOL     OW26131   0.709   4.242  10.025 -0.1098 -0.0580  0.1240
 4833SOL    HW126132   0.788   4.294  10.040 -0.5811  0.0351  2.1848
 4833SOL    HW226133   0.740   4.158  10.058  0.5463 -0.5610 -1.7530
 4834SOL     OW26134   1.387   0.310   7.673 -0.1380  0.5109  0.0993
 4834SOL    HW126135   1.446   0.239   7.650  1.8422  1.9106  0.8384
 4834SOL    HW226136   1.427   0.338   7.755 -1.5625  1.4786  0.4693
 4835SOL     OW26137   1.413   0.944  11.400  0.0017 -0.0369  0.1659
 4835SOL    HW126138   1.415   0.973  11.491  2.2404  0.4788 -0.0507
 4835SOL    HW226139   1.505   0.932  11.375 -0.5323  1.4089 -2.4609
 4836SOL     OW26140   4.114   0.364  10.123 -0.0075  0.3913  0.4349
 4836SOL    HW126141   4.139   0.278  10.156 -0.4196 -0.0107 -0.3182
 4836SOL    HW226142   4.084   0.411  10.202 -0.9975  0.8296 -0.2008
 4837SOL     OW26143   2.941   4.563   8.823  0.3756 -0.0234 -0.0273
 4837SOL    HW126144   2.983   4.576   8.738  1.2477  0.2897  0.4501
 4837SOL    HW226145   2.881   4.637   8.821  1.0878  0.5658  0.1145
 4838SOL     OW26146   4.389   4.670  15.812 -0.2906 -0.1068 -0.6657
 4838SOL    HW126147   4.455   4.623  15.863  0.8331  0.2845 -1.7498
 4838SOL    HW226148   4.332   4.606  15.768  0.7150 -2.4202  1.3892
 4839SOL     OW26149   1.286   3.849   6.600  0.0963  0.2503  0.3905
 4839SOL    HW126150   1.313   3.765   6.636  0.8524  0.0764 -0.5944
 4839SOL    HW226151   1.199   3.816   6.577 -0.1354  1.6132 -0.7018
 4840SOL     OW26152   1.865   3.132   4.245 -0.0074 -0.1836 -0.3195
 4840SOL    HW126153   1.928   3.090   4.303 -2.3568 -2.8631  0.2611
 4840SOL    HW226154   1.780   3.132   4.289 -0.5856  3.5618 -1.3731
 4841SOL     OW26155   2.650   0.194   6.480  0.1599  0.3660  0.1956
 4841SOL    HW126156   2.560   0.187   6.513 -0.1080 -0.8224 -0.7814
 4841SOL    HW226157   2.640   0.168   6.389 -0.5206  0.4874  0.2359
 4842SOL     OW26158   3.270   0.728   6.147  0.6867 -0.1125 -0.1681
 4842SOL    HW126159   3.215   0.804   6.166 -0.0537 -0.5204 -0.7110
 4842SOL    HW226160   3.213   0.659   6.180  0.0084  0.8698  0.7258
 4843SOL     OW26161   1.839   3.844   2.821  0.6903  0.1549 -0.6841
 4843SOL    HW126162   1.856   3.823   2.729  0.2869 -0.1152 -0.6982
 4843SOL    HW226163   1.906   3.912   2.831  0.9163 -0.0866 -0.5750
 4844SOL     OW26164   0.178   1.515   0.130  0.2157  0.0880 -0.4245
 4844SOL    HW126165   0.237   1.481   0.197 -1.0810 -0.6828  0.3250
 4844SOL    HW226166   0.200   1.608   0.139 -1.1357  0.7640 -4.1421
 4845SOL     OW26167   1.606   1.586   4.268  0.0623  0.1176 -0.1885
 4845SOL    HW126168   1.624   1.663   4.321  0.3338 -0.8457  1.1020
 4845SOL    HW226169   1.686   1.594   4.215  0.8935 -1.7781  0.7966
 4846SOL     OW26170   1.120   0.467  14.671 -0.1985 -0.5320 -0.2035
 4846SOL    HW126171   1.038   0.502  14.708 -0.4566  1.3486 -2.5744
 4846SOL    HW226172   1.162   0.552  14.661 -0.2965 -0.4451  0.1026
 4847SOL     OW26173   1.960   0.794   3.941 -0.3088  0.5225 -0.4314
 4847SOL    HW126174   2.054   0.807   3.953 -0.3045  0.1237 -0.0496
 4847SOL    HW226175   1.954   0.718   3.882 -1.4307  0.4698 -0.2413
 4848SOL     OW26176   0.835   3.159   1.385  0.1097  0.4396  0.1426
 4848SOL    HW126177   0.740   3.168   1.379  0.1405  0.0825 -0.8361
 4848SOL    HW226178   0.848   3.182   1.478 -0.0854 -0.0688  0.2945
 4849SOL     OW26179   3.578   0.935   1.997 -0.7299  0.3528  0.0389
 4849SOL    HW126180   3.652   0.888   1.958 -2.2030 -1.9893  0.0295
 4849SOL    HW226181   3.612   0.958   2.083  1.7011  1.3145 -1.1808
 4850SOL     OW26182   4.173   3.108  16.003 -0.1311  0.3386  0.7228
 4850SOL    HW126183   4.249   3.066  15.962 -2.4087 -3.3905  0.3251
 4850SOL    HW226184   4.218   3.111  16.087 -2.0199  0.4002  1.7518
 4851SOL     OW26185   3.314   4.150   3.183  0.1328  0.2459 -0.1991
 4851SOL    HW126186   3.380   4.142   3.115 -0.6700  0.7955 -1.0471
 4851SOL    HW226187   3.349   4.085   3.243 -1.1916 -1.4085 -1.2190
 4852SOL     OW26188   3.462   1.169  13.326  0.5191 -0.8104  0.3865
 4852SOL    HW126189   3.395   1.226  13.363  1.3516  0.6394 -0.3291
 4852SOL    HW226190   3.508   1.223  13.261  0.3359 -0.3647  0.6228
 4853SOL     OW26191   1.726   0.142   1.049 -0.2165 -0.7971 -0.0092
 4853SOL    HW126192   1.633   0.123   1.062  0.0454 -0.9472  1.6623
 4853SOL    HW226193   1.759   0.114   1.134  2.6662 -1.0337 -1.1943
 4854SOL     OW26194   0.873   3.310   9.707 -0.1095  0.0176  0.0108
 4854SOL    HW126195   0.950   3.337   9.758  0.2480 -2.2477  0.6978
 4854SOL    HW226196   0.807   3.312   9.777 -0.4013  2.2513 -0.3399
 4855SOL     OW26197   2.192   2.116   2.558 -0.7193  0.3013 -0.1902
 4855SOL    HW126198   2.255   2.165   2.611  0.3195 -3.3550  1.9289
 4855SOL    HW226199   2.113   2.107   2.611 -0.7033  1.2561  0.0022
 4856SOL     OW26200   1.421   3.974   8.752  0.2271 -0.2177 -0.4245
 4856SOL    HW126201   1.347   3.995   8.694 -0.0551 -1.2593 -0.4454
 4856SOL    HW226202   1.441   4.057   8.794 -0.7251 -1.8318  3.2110
 4857SOL     OW26203   2.546   0.827   7.981 -0.1352  0.1166  0.2453
 4857SOL    HW126204   2.509   0.778   8.054 -0.0896  2.1667  1.6438
 4857SOL    HW226205   2.486   0.801   7.911  1.0390 -0.0248 -0.6974
 4858SOL     OW26206   0.616   3.276   8.982  0.3347  0.4978  0.2730
 4858SOL    HW126207   0.629   3.344   8.916 -0.2209  0.7118  0.3889
 4858SOL    HW226208   0.660   3.205   8.935  3.0632  0.1834  3.2655
 4859SOL     OW26209   1.914   1.667   0.337 -0.0192  0.2734 -0.1098
 4859SOL    HW126210   1.884   1.745   0.291  1.2909  0.9959  0.2912
 4859SOL    HW226211   1.930   1.702   0.425 -1.1623  0.1030  0.1669
 4860SOL     OW26212   1.347   4.138   6.992 -0.1587  0.1753 -0.3284
 4860SOL    HW126213   1.317   4.109   7.078  0.5995  0.6096  0.0871
 4860SOL    HW226214   1.289   4.083   6.940 -0.6502  1.1173 -0.7780
 4861SOL     OW26215   0.818   2.376  10.275 -0.1073  0.4327 -0.0818
 4861SOL    HW126216   0.860   2.344  10.195 -0.8081  0.5433 -0.4981
 4861SOL    HW226217   0.876   2.452  10.284  0.9564 -0.5203  1.1976
 4862SOL     OW26218   1.455   4.647   7.809  0.6038  0.6429 -0.5598
 4862SOL    HW126219   1.469   4.577   7.745 -2.2253  0.0086 -0.4827
 4862SOL    HW226220   1.359   4.643   7.806  0.6809 -1.9270  0.1179
 4863SOL     OW26221   1.596   3.183   5.638 -0.0386 -0.1419 -0.0890
 4863SOL    HW126222   1.535   3.114   5.612 -0.5696 -0.5940  2.3629
 4863SOL    HW226223   1.677   3.138   5.658  0.5952  0.3471 -1.5392
 4864SOL     OW26224   1.638   3.337   7.627 -0.5191  0.7710 -0.0217
 4864SOL    HW126225   1.567   3.352   7.565  1.8747  1.3442 -2.6254
 4864SOL    HW226226   1.617   3.257   7.675 -0.6184  0.1235 -1.1520
 4865SOL     OW26227   2.840   3.970  12.336  0.0910  0.7562  0.6898
 4865SOL    HW126228   2.816   3.918  12.413 -0.0452  2.6942  1.9416
 4865SOL    HW226229   2.888   3.908  12.280 -0.1960  0.4463  0.7862
 4866SOL     OW26230   0.436   3.879   8.134  0.9188 -0.1258 -0.0017
 4866SOL    HW126231   0.521   3.844   8.160  1.9054  1.3043 -1.2814
 4866SOL    HW226232   0.426   3.942   8.205 -2.4467 -4.2076  3.1558
 4867SOL     OW26233   4.494   1.549   2.781  0.0808 -0.5929 -0.4656
 4867SOL    HW126234   4.435   1.587   2.717  1.2269  0.6592 -0.8002
 4867SOL    HW226235   4.575   1.578   2.738 -1.3446  0.9306 -2.0918
 4868SOL     OW26236   1.197   3.727   6.268  0.2112 -0.5980 -0.3176
 4868SOL    HW126237   1.226   3.661   6.331  0.5314 -0.1509  0.0025
 4868SOL    HW226238   1.135   3.682   6.210 -1.0417 -0.6760  1.0772
 4869SOL     OW26239   2.004   3.815   4.701 -0.0646 -0.3321 -0.2776
 4869SOL    HW126240   2.087   3.788   4.662  0.0744 -0.9059  0.4352
 4869SOL    HW226241   1.942   3.798   4.630  0.8517  1.1411 -1.4245
 4870SOL     OW26242   4.252   2.486   3.999 -0.1565  0.0465  0.0213
 4870SOL    HW126243   4.335   2.445   4.021  0.1166  0.0313 -1.0450
 4870SOL    HW226244   4.218   2.423   3.936  1.1491 -0.8280  0.1972
 4871SOL     OW26245   4.075   4.045  12.277  0.0081  0.0098 -0.3508
 4871SOL    HW126246   4.036   4.062  12.363  0.3693  1.7203 -0.5247
 4871SOL    HW226247   4.151   4.103  12.272  0.1145  0.1517  2.5817
 4872SOL     OW26248   2.484   0.033   4.893  0.1219  0.6337  0.5350
 4872SOL    HW126249   2.546   4.701   4.894 -0.2268  0.3244 -0.2085
 4872SOL    HW226250   2.539   0.102   4.855 -1.8861  2.9060  1.7880
 4873SOL     OW26251   0.647   4.649   2.211 -0.3441 -0.3095 -0.2065
 4873SOL    HW126252   0.695   4.615   2.135  2.2472 -0.5376  1.5187
 4873SOL    HW226253   0.626   4.735   2.175 -3.1158 -2.2854 -3.2318
 4874SOL     OW26254   4.122   4.052   7.029 -0.3070 -0.3151 -0.0604
 4874SOL    HW126255   4.084   4.021   7.110  1.0807 -0.2684  0.6174
 4874SOL    HW226256   4.050   4.100   6.989  0.6789  0.4366 -0.9587
 4875SOL     OW26257   0.758   2.178   3.024 -0.4707  0.4416  0.0819
 4875SOL    HW126258   0.828   2.203   2.964  0.5335 -0.4887  0.8522
 4875SOL    HW226259   0.684   2.231   2.995 -0.0598 -0.0019 -1.7539
 4876SOL     OW26260   3.722   1.425  12.178  0.2368  0.0214  0.0726
 4876SOL    HW126261   3.766   1.447  12.096 -0.3353 -1.7488 -0.6948
 4876SOL    HW226262   3.719   1.510  12.224  2.5576 -0.3141  0.8157
 4877SOL     OW26263   0.554   2.685   2.792 -0.0501 -0.0601 -0.7827
 4877SOL    HW126264   0.493   2.633   2.740 -0.0866 -1.1941  0.3973
 4877SOL    HW226265   0.548   2.652   2.881  0.9477 -2.2194 -1.5119
 4878SOL     OW26266   2.032   0.085  14.026 -0.2415  0.1720  0.4397
 4878SOL    HW126267   2.113   0.039  14.047  0.0304  0.0030 -0.9986
 4878SOL    HW226268   2.050   0.178  14.034 -0.9836  0.3223  0.3751
 4879SOL     OW26269   1.012   3.967   4.118  0.5970 -0.1738 -0.0370
 4879SOL    HW126270   0.976   4.002   4.199 -1.0852 -1.4713 -0.2363
 4879SOL    HW226271   1.028   3.875   4.138 -1.4665 -0.7408 -1.0358
 4880SOL     OW26272   4.606   0.454   8.879  0.4979  0.2589  0.2353
 4880SOL    HW126273   4.606   0.401   8.958  1.4791  3.8553  2.6496
 4880SOL    HW226274   4.699   0.471   8.867  0.7970 -0.9797  0.8408
 4881SOL     OW26275   2.448   0.634  11.974 -0.9373  0.0778 -0.1473
 4881SOL    HW126276   2.359   0.667  11.962 -0.5633  0.9879 -0.4252
 4881SOL    HW226277   2.491   0.707  11.929 -0.8508  0.2841  0.2717
 4882SOL     OW26278   0.372   2.424   5.128  0.0203 -0.3322 -0.2510
 4882SOL    HW126279   0.421   2.432   5.046  0.9146  0.8394  0.3909
 4882SOL    HW226280   0.389   2.509   5.169  0.4406 -0.4241 -0.2340
 4883SOL     OW26281   3.446   2.455   4.870 -0.1394  0.2303 -0.5263
 4883SOL    HW126282   3.495   2.533   4.844 -0.6856  0.6111 -0.3883
 4883SOL    HW226283   3.481   2.443   4.958 -0.2376 -0.6925 -0.6097
 4884SOL     OW26284   2.205   1.529   6.524  0.2434 -0.1819 -0.2077
 4884SOL    HW126285   2.293   1.533   6.563  0.1274  2.9811 -0.2329
 4884SOL    HW226286   2.174   1.611   6.564  0.8043 -0.4801  0.8437
 4885SOL     OW26287   3.173   0.548   3.806 -0.2195 -0.0815 -0.1976
 4885SOL    HW126288   3.228   0.470   3.813  3.1291  2.2371 -0.7643
 4885SOL    HW226289   3.159   0.551   3.712 -0.2980 -2.9524 -0.2630
 4886SOL     OW26290   0.326   2.335  17.142  0.0399 -0.3371 -0.3974
 4886SOL    HW126291   0.246   2.332  17.194 -0.2525 -0.4378 -0.8546
 4886SOL    HW226292   0.319   2.420  17.098  1.5409 -0.2198 -0.4008
 4887SOL     OW26293   4.333   3.800   7.874 -0.1414  0.4736  0.0150
 4887SOL    HW126294   4.359   3.714   7.841  2.4353  0.9630  0.7476
 4887SOL    HW226295   4.366   3.853   7.801 -1.3227  2.2149  0.7294
 4888SOL     OW26296   3.704   1.366  15.347 -0.5963  0.1304  0.1916
 4888SOL    HW126297   3.641   1.295  15.335  2.6191 -2.7830  0.5332
 4888SOL    HW226298   3.668   1.419  15.277  0.5649  0.5239 -0.1049
 4889SOL     OW26299   3.590   1.907  13.213 -0.2770  0.0369  0.2426
 4889SOL    HW126300   3.642   1.945  13.142 -0.6557 -1.3790 -0.7723
 4889SOL    HW226301   3.504   1.929  13.179  0.6424 -1.1571 -2.8617
 4890SOL     OW26302   2.184   1.104   8.573  0.5314 -0.2535 -0.1832
 4890SOL    HW126303   2.124   1.175   8.597  0.1425 -0.5937 -0.1658
 4890SOL    HW226304   2.256   1.146   8.525 -0.4234  1.3834 -0.1694
 4891SOL     OW26305   2.147   4.585   0.214 -0.0036 -0.2413  0.5338
 4891SOL    HW126306   2.199   4.525   0.266  1.2117  0.8921  0.6247
 4891SOL    HW226307   2.148   4.539   0.130 -0.0169  0.4486  0.1525
 4892SOL     OW26308   0.578   0.238  13.107  0.3551 -0.5407 -0.9254
 4892SOL    HW126309   0.526   0.238  13.187 -0.1858  0.6299 -1.2763
 4892SOL    HW226310   0.660   0.217  13.151 -0.0265 -1.2644 -0.5613
 4893SOL     OW26311   2.032   4.615   4.081 -0.1047  0.4007 -0.1391
 4893SOL    HW126312   2.017   4.710   4.084 -2.6226  0.0323 -1.3588
 4893SOL    HW226313   2.091   4.603   4.155 -0.8706 -2.1495  0.0516
 4894SOL     OW26314   1.866   3.683   9.773 -0.3178 -0.2891 -0.6625
 4894SOL    HW126315   1.783   3.665   9.728 -0.6999 -2.5788  1.0064
 4894SOL    HW226316   1.930   3.646   9.712 -1.5636  1.1356 -2.8364
 4895SOL     OW26317   3.991   2.453   9.074 -0.4464  0.3788  0.6954
 4895SOL    HW126318   4.019   2.387   9.011 -1.6803  0.7685 -0.2702
 4895SOL    HW226319   4.075   2.496   9.090  0.3300 -0.6619 -0.6395
 4896SOL     OW26320   0.067   2.632  15.186 -0.4358  0.3390  0.1306
 4896SOL    HW126321   0.117   2.550  15.181 -0.0837  0.5148  0.7566
 4896SOL    HW226322   0.115   2.677  15.117 -0.8802  3.6844  2.0083
 4897SOL     OW26323   4.738   0.566  14.026 -0.1098  0.5121 -0.2444
 4897SOL    HW126324   4.688   0.644  13.999 -0.6654 -0.0453 -0.8283
 4897SOL    HW226325   0.057   0.550  13.954 -0.8452  0.2645 -0.8045
 4898SOL     OW26326   2.241   0.728   6.828 -0.3312 -0.5063 -0.0723
 4898SOL    HW126327   2.217   0.779   6.751 -0.8809 -2.4919 -1.1945
 4898SOL    HW226328   2.317   0.676   6.803  0.0287 -0.1161  0.2150
 4899SOL     OW26329   4.329   1.693   4.977 -0.2602  0.7618  0.0274
 4899SOL    HW126330   4.372   1.610   4.956 -0.2538  0.7628  0.0363
 4899SOL    HW226331   4.269   1.710   4.905 -0.3698 -2.1833 -0.5946
 4900SOL     OW26332   0.403   4.197   6.501 -0.0437  0.2153 -0.0169
 4900SOL    HW126333   0.309   4.214   6.498 -0.2171 -0.9186 -1.5677
 4900SOL    HW226334   0.419   4.177   6.593  0.1412 -0.0589 -0.1071
 4901SOL     OW26335   2.866   4.334  14.259 -0.5699  0.3896 -0.2061
 4901SOL    HW126336   2.784   4.357  14.216  0.3531  1.2082 -1.5158
 4901SOL    HW226337   2.916   4.284  14.194  0.8274  0.4027  0.8578
 4902SOL     OW26338   3.150   1.045   0.901 -0.2477 -0.1142 -0.4022
 4902SOL    HW126339   3.192   1.092   0.829 -1.1635  0.3568 -0.6342
 4902SOL    HW226340   3.216   0.977   0.906 -0.5250 -0.2862  0.9441
 4903SOL     OW26341   4.282   0.044  11.046  0.1473  0.0194  0.2926
 4903SOL    HW126342   4.295   4.690  11.043 -2.2202 -0.3311  1.3664
 4903SOL    HW226343   4.370   0.073  11.019  0.5428 -0.8023  0.7193
 4904SOL     OW26344   4.393   1.106  16.028 -0.4597  0.0783 -0.0389
 4904SOL    HW126345   4.461   1.146  16.082 -0.4859 -0.4072  0.3505
 4904SOL    HW226346   4.333   1.077  16.097 -1.5626  0.6837 -0.7440
 4905SOL     OW26347   3.533   3.221   5.282  0.1537  0.5507  0.1150
 4905SOL    HW126348   3.566   3.257   5.364  0.0036  0.4437  0.2207
 4905SOL    HW226349   3.442   3.194   5.293  1.1212 -2.3199  1.0681
 4906SOL     OW26350   3.404   4.586   0.398  0.7287 -0.1581  0.2568
 4906SOL    HW126351   3.363   4.513   0.352 -2.3977  1.2374  0.8822
 4906SOL    HW226352   3.427   4.543   0.481  0.8245  3.0055  1.8882
 4907SOL     OW26353   4.085   0.034   4.784 -0.3724  0.0770 -0.3156
 4907SOL    HW126354   4.166   0.080   4.807 -0.4422  0.1069 -0.1362
 4907SOL    HW226355   4.026   0.099   4.821  2.5843  0.8443  3.0497
 4908SOL     OW26356   0.257   3.281   8.274  0.1241  0.7681 -0.4180
 4908SOL    HW126357   0.236   3.374   8.287 -1.1755  0.7323 -2.2605
 4908SOL    HW226358   0.344   3.274   8.314 -0.7375  2.3829  1.7667
 4909SOL     OW26359   1.655   0.138   1.341 -0.6429 -0.0819 -0.3801
 4909SOL    HW126360   1.731   0.115   1.396 -1.3417 -1.1175  0.1664
 4909SOL    HW226361   1.586   0.098   1.394  0.4576 -1.5234 -0.0316
 4910SOL     OW26362   3.826   2.020   0.945  0.1344  0.6532  0.5603
 4910SOL    HW126363   3.752   1.958   0.946  1.3802 -0.8813 -2.6523
 4910SOL    HW226364   3.776   2.100   0.958 -1.1270 -0.1253  0.5396
 4911SOL     OW26365   4.280   1.741   0.732  0.1455  0.2439  0.1701
 4911SOL    HW126366   4.220   1.808   0.767 -0.1180  0.3626 -0.5093
 4911SOL    HW226367   4.211   1.686   0.695  0.0774 -0.1412  0.8611
 4912SOL     OW26368   2.418   1.925   1.175 -0.1098 -0.2001 -0.5148
 4912SOL    HW126369   2.474   1.879   1.113 -0.9498 -2.4441  0.3801
 4912SOL    HW226370   2.397   1.992   1.111 -0.8072  0.5386  0.4781
 4913SOL     OW26371   3.074   0.118   2.400  0.0217 -0.4204 -0.5013
 4913SOL    HW126372   3.086   0.210   2.380  2.4189 -0.4227  0.9727
 4913SOL    HW226373   3.005   0.093   2.338  0.1581  1.1161 -1.2578
 4914SOL     OW26374   4.171   1.631  16.317 -0.3998  0.0787 -0.1984
 4914SOL    HW126375   4.236   1.676  16.371 -1.6131  2.1077 -0.4144
 4914SOL    HW226376   4.098   1.690  16.337  1.7609  2.5542  0.2884
 4915SOL     OW26377   3.580   2.632  15.274 -0.6220  0.4103  0.3292
 4915SOL    HW126378   3.514   2.563  15.267 -1.7702  1.3529  1.9499
 4915SOL    HW226379   3.579   2.649  15.180  1.1742 -1.9866 -0.1495
 4916SOL     OW26380   3.187   2.344   8.927  0.0349 -0.0424 -0.2721
 4916SOL    HW126381   3.271   2.379   8.955  0.0739  0.6634 -1.2913
 4916SOL    HW226382   3.198   2.256   8.965  0.5957 -0.2158 -0.8461
 4917SOL     OW26383   2.636   4.733   4.409 -0.0913  0.2319  0.4862
 4917SOL    HW126384   2.702   0.017   4.474  0.7592  0.0611 -0.3078
 4917SOL    HW226385   2.590   4.672   4.466 -0.6725  0.8896  0.7136
 4918SOL     OW26386   1.642   2.220   5.378 -0.2630 -0.3245  0.0116
 4918SOL    HW126387   1.648   2.210   5.473  2.4001 -0.6664 -0.1771
 4918SOL    HW226388   1.674   2.133   5.352  0.8722 -0.3768  1.5488
 4919SOL     OW26389   4.687   0.834   8.675  0.1759 -0.0337  0.4695
 4919SOL    HW126390   4.613   0.791   8.719 -0.2479 -0.1125 -0.3218
 4919SOL    HW226391   4.677   0.811   8.583  2.4012  0.0353  0.2164
 4920SOL     OW26392   2.298   0.260   6.042 -0.3796  0.0099  0.1154
 4920SOL    HW126393   2.330   0.350   6.043  1.6170 -0.6965 -0.3193
 4920SOL    HW226394   2.206   0.275   6.061 -0.4224  0.7941 -0.6942
 4921SOL     OW26395   3.162   0.294   1.378 -0.2401 -0.0577 -0.4729
 4921SOL    HW126396   3.220   0.368   1.393  1.2741 -1.4220  0.2953
 4921SOL    HW226397   3.199   0.262   1.295 -2.4740 -1.4814 -0.9321
 4922SOL     OW26398   1.126   2.486   4.589 -0.3104 -0.0072 -0.4332
 4922SOL    HW126399   1.044   2.440   4.569  0.4359 -1.7621  0.5525
 4922SOL    HW226400   1.183   2.455   4.518 -1.8990 -2.5844 -0.6067
 4923SOL     OW26401   3.258   1.954   7.687 -0.4258 -0.1075 -0.6374
 4923SOL    HW126402   3.257   1.875   7.743 -1.7182  1.3609  1.4162
 4923SOL    HW226403   3.237   2.013   7.760  2.4656 -0.0180  0.1440
 4924SOL     OW26404   1.502   1.942   2.892 -0.1981  0.1991  0.2820
 4924SOL    HW126405   1.428   1.904   2.940 -0.0963  0.4987  0.6770
 4924SOL    HW226406   1.505   1.874   2.825  0.5773  1.3955 -0.9092
 4925SOL     OW26407   3.822   2.181   5.401 -0.3392 -0.1164  0.0424
 4925SOL    HW126408   3.862   2.190   5.488  2.5601 -1.8307 -1.1027
 4925SOL    HW226409   3.894   2.204   5.342 -0.1804  1.1234  0.7158
 4926SOL     OW26410   0.084   2.773   9.144  0.6477 -0.2291  0.1099
 4926SOL    HW126411   0.082   2.686   9.104 -1.8965 -0.3636  0.5292
 4926SOL    HW226412   0.113   2.744   9.231 -0.3946 -0.0625  0.5164
 4927SOL     OW26413   0.729   4.260   4.668 -0.3277 -0.1057  0.5956
 4927SOL    HW126414   0.808   4.217   4.700  0.2619  1.3904  1.1216
 4927SOL    HW226415   0.674   4.188   4.637  1.6039 -1.4899  0.4051
 4928SOL     OW26416   3.213   0.569   9.054 -0.3889 -0.2676 -1.1328
 4928SOL    HW126417   3.228   0.475   9.043  1.0411 -0.1532 -0.1515
 4928SOL    HW226418   3.120   0.568   9.077 -0.2497 -2.6443 -0.6981
 4929SOL     OW26419   0.485   3.454  10.996 -0.1628  0.3764  0.0537
 4929SOL    HW126420   0.577   3.477  11.009 -0.7359  1.7046  1.7763
 4929SOL    HW226421   0.460   3.518  10.930  1.5304  0.2277 -0.7433
 4930SOL     OW26422   4.137   2.136   5.552 -0.1009 -0.4960 -0.0975
 4930SOL    HW126423   4.124   2.109   5.461 -2.2807  3.8498 -1.1051
 4930SOL    HW226424   4.085   2.217   5.554  0.6281  0.0191 -1.6575
 4931SOL     OW26425   0.921   2.022  11.200  0.2186  0.4876  0.4564
 4931SOL    HW126426   0.922   2.100  11.145 -0.7650 -0.1461 -0.4528
 4931SOL    HW226427   0.933   1.954  11.134  1.0354  2.0105 -0.9455
 4932SOL     OW26428   2.495   0.713   8.590  0.2274  0.9423  0.0387
 4932SOL    HW126429   2.416   0.766   8.580 -2.5513 -2.9814  1.4508
 4932SOL    HW226430   2.468   0.665   8.668  0.4100  0.9809  0.1263
 4933SOL     OW26431   2.195   0.869  12.060  0.6504 -0.4074  0.0778
 4933SOL    HW126432   2.288   0.880  12.079  0.3879  0.3708  0.9622
 4933SOL    HW226433   2.160   0.810  12.127 -2.4546  0.1268 -1.0705
 4934SOL     OW26434   2.779   3.002  15.838 -0.3223 -0.1102  0.0355
 4934SOL    HW126435   2.689   3.016  15.809  0.0083  1.4624 -0.1994
 4934SOL    HW226436   2.771   2.998  15.933  2.2339 -1.7487  0.1958
 4935SOL     OW26437   4.257   3.219   7.767 -0.6185 -0.5668 -0.2786
 4935SOL    HW126438   4.319   3.241   7.837 -1.5100  0.7281  0.1028
 4935SOL    HW226439   4.298   3.147   7.719  0.2775  0.4165 -0.9871
 4936SOL     OW26440   4.316   0.478   1.825 -0.3272 -0.1949 -0.0194
 4936SOL    HW126441   4.306   0.529   1.745 -3.5123 -1.6332 -0.5354
 4936SOL    HW226442   4.245   0.509   1.882 -1.8558  1.5101 -2.8665
 4937SOL     OW26443   0.278   1.520   6.038 -0.4044  0.2738 -0.3665
 4937SOL    HW126444   0.244   1.574   5.966  0.5047 -0.5610 -1.4270
 4937SOL    HW226445   0.190   1.490   6.062 -0.3259  0.0253 -0.3905
 4938SOL     OW26446   3.414   2.640   3.956  0.0370  0.5121  0.0199
 4938SOL    HW126447   3.374   2.723   3.929 -0.6734 -0.0273 -0.5577
 4938SOL    HW226448   3.334   2.589   3.965  0.7684 -0.9480 -1.9369
 4939SOL     OW26449   0.093   2.331   5.824  0.3011 -0.1741  0.2892
 4939SOL    HW126450   0.122   2.397   5.886 -3.6008  0.4945  1.3459
 4939SOL    HW226451   0.170   2.318   5.769  0.6199  0.3578  0.6109
 4940SOL     OW26452   3.985   1.443   1.715 -0.3929 -1.0567  0.6681
 4940SOL    HW126453   4.030   1.453   1.799  2.2820 -0.8236 -0.8255
 4940SOL    HW226454   3.942   1.528   1.710 -1.1880 -1.5108 -0.2247
 4941SOL     OW26455   0.470   4.553   6.100  0.3482  0.2090 -0.2849
 4941SOL    HW126456   0.549   4.518   6.140  0.8709 -1.0452 -2.3881
 4941SOL    HW226457   0.409   4.555   6.173  0.7212 -1.2699  0.0482
 4942SOL     OW26458   0.843   0.807   2.629 -0.7062 -0.9648 -0.9037
 4942SOL    HW126459   0.836   0.901   2.613  2.9448 -0.1544  2.2195
 4942SOL    HW226460   0.874   0.783   2.542 -0.6122 -0.6180 -0.9629
 4943SOL     OW26461   1.925   2.165   3.523 -0.0026 -0.0151  0.9241
 4943SOL    HW126462   1.835   2.137   3.540 -0.4444  0.1961 -1.1084
 4943SOL    HW226463   1.938   2.251   3.565 -3.0317  0.6444  0.5289
 4944SOL     OW26464   2.793   3.485   6.090  0.2856 -0.3855  0.1963
 4944SOL    HW126465   2.885   3.501   6.113 -0.1587  2.7265 -0.2872
 4944SOL    HW226466   2.787   3.493   5.995  2.2568  1.0806  0.1891
 4945SOL     OW26467   4.157   1.848   2.615  0.0087 -0.3959 -0.2938
 4945SOL    HW126468   4.074   1.895   2.605  1.1664  1.1062 -2.8883
 4945SOL    HW226469   4.181   1.863   2.707 -1.2108 -2.5003  0.3566
 4946SOL     OW26470   1.822   4.177   6.437 -0.2125 -0.3971 -0.1218
 4946SOL    HW126471   1.885   4.210   6.374 -0.1367  1.6094  0.9890
 4946SOL    HW226472   1.800   4.090   6.405  1.3232 -0.6786 -0.3896
 4947SOL     OW26473   1.202   1.992   7.398  0.1267 -0.1196  0.7365
 4947SOL    HW126474   1.192   1.940   7.318 -1.1867 -0.5772  1.2069
 4947SOL    HW226475   1.139   2.063   7.390  1.7828  1.3716  1.1655
 4948SOL     OW26476   1.619   4.198  11.127  0.0944  0.2136 -0.6302
 4948SOL    HW126477   1.571   4.118  11.144  0.0027  0.8272  1.9035
 4948SOL    HW226478   1.674   4.209  11.204 -1.4959  2.4340  0.1845
 4949SOL     OW26479   4.362   1.009   1.983 -0.4926  0.1063 -0.3291
 4949SOL    HW126480   4.369   0.970   2.070  3.1968 -1.1384 -1.1800
 4949SOL    HW226481   4.407   0.945   1.928  2.1714  0.4123  1.5130
 4950SOL     OW26482   2.695   2.382   9.097  0.5578 -0.6759  0.0062
 4950SOL    HW126483   2.769   2.339   9.139  0.9227 -0.4523 -0.4086
 4950SOL    HW226484   2.703   2.471   9.131  3.2735 -0.3325 -1.5546
 4951SOL     OW26485   4.092   0.618   7.956 -0.1353  0.2151 -0.1363
 4951SOL    HW126486   4.081   0.655   8.043  2.1961 -1.2350  0.7530
 4951SOL    HW226487   4.081   0.700   7.907  1.6243  1.5541  1.7166
 4952SOL     OW26488   3.784   0.797   8.048 -0.6942  0.2048  0.0043
 4952SOL    HW126489   3.723   0.730   8.080 -0.4405  0.7943  1.7720
 4952SOL    HW226490   3.725   0.832   7.981  0.5260 -0.2723 -1.2940
 4953SOL     OW26491   2.442   4.021   4.163  0.0218 -0.8199  0.1894
 4953SOL    HW126492   2.441   4.117   4.165  1.2290 -0.8020 -0.0421
 4953SOL    HW226493   2.533   4.005   4.186  0.3974  0.2585 -0.5672
 4954SOL     OW26494   1.111   0.417  10.334 -0.0619  0.5246 -0.1811
 4954SOL    HW126495   1.193   0.373  10.356  0.7887  2.2964  0.1795
 4954SOL    HW226496   1.123   0.506  10.365 -2.2871 -0.3230  3.1186
 4955SOL     OW26497   3.513   3.334  13.040  0.2523 -1.1834  0.0417
 4955SOL    HW126498   3.565   3.349  12.961  0.6123 -0.7668  0.3555
 4955SOL    HW226499   3.581   3.326  13.107  0.7233 -1.1725 -0.4410
 4956SOL     OW26500   0.457   2.013  15.729 -0.4471 -0.2451 -0.1713
 4956SOL    HW126501   0.550   2.034  15.729 -0.3290 -0.7877  0.0565
 4956SOL    HW226502   0.419   2.101  15.738  0.8907  0.4565 -1.5668
 4957SOL     OW26503   2.000   3.840   6.231 -0.7639 -0.4966  0.3984
 4957SOL    HW126504   2.010   3.929   6.198  1.1469 -0.5445  0.8679
 4957SOL    HW226505   2.009   3.788   6.151  1.8029  0.2670  0.2044
 4958SOL     OW26506   0.352   3.847   3.365  0.2692  0.2628 -0.1608
 4958SOL    HW126507   0.280   3.785   3.377  0.2541  0.0313 -1.4139
 4958SOL    HW226508   0.322   3.898   3.290  0.2888  1.5623  0.7107
 4959SOL     OW26509   3.022   4.241   7.927 -0.2738  0.3105 -0.2693
 4959SOL    HW126510   3.079   4.239   8.003  1.6817  0.1972 -1.7256
 4959SOL    HW226511   3.085   4.269   7.859  0.7963  1.4036  1.1658
 4960SOL     OW26512   0.198   2.836   4.146 -0.5092  0.4633 -0.6546
 4960SOL    HW126513   0.280   2.785   4.144  0.8248  2.7179 -2.9529
 4960SOL    HW226514   0.234   2.903   4.205 -1.1240 -1.1241  1.5425
 4961SOL     OW26515   3.253   1.603   8.467  0.4499 -0.7108  0.0640
 4961SOL    HW126516   3.226   1.524   8.513 -0.7875 -2.2182 -3.2647
 4961SOL    HW226517   3.347   1.611   8.483  0.4060  0.3983 -0.2392
 4962SOL     OW26518   1.003   3.617   6.102 -0.1910 -0.2975  0.5677
 4962SOL    HW126519   1.016   3.673   6.026  1.0807 -2.0726 -0.5138
 4962SOL    HW226520   1.054   3.539   6.081 -1.5958 -1.3808  1.2216
 4963SOL     OW26521   0.223   2.759   6.087 -0.4424 -0.2255  0.0692
 4963SOL    HW126522   0.150   2.703   6.061  0.9912 -1.1714 -1.9364
 4963SOL    HW226523   0.260   2.706   6.158 -0.8702 -1.9543 -0.9793
 4964SOL     OW26524   0.124   2.896  12.996  0.6259  0.0886 -0.1047
 4964SOL    HW126525   0.183   2.912  13.069  0.0468  0.7166  0.2338
 4964SOL    HW226526   0.187   2.910  12.926  0.7140  0.9250  0.1443
 4965SOL     OW26527   4.605   2.719  16.555  0.1024  0.2733  0.3173
 4965SOL    HW126528   4.540   2.650  16.546  1.5188 -0.9490 -0.4412
 4965SOL    HW226529   4.566   2.783  16.615 -0.7090  0.5775 -0.5405
 4966SOL     OW26530   0.346   2.075   1.186 -0.4399  0.4101  0.8713
 4966SOL    HW126531   0.400   2.153   1.176  0.6960 -0.6915 -1.5233
 4966SOL    HW226532   0.339   2.075   1.282 -0.1531  1.9170  0.8973
 4967SOL     OW26533   2.818   4.720   3.286 -0.0379 -0.1223  0.1368
 4967SOL    HW126534   2.856   4.637   3.256  1.3294 -0.0805  1.7548
 4967SOL    HW226535   2.726   4.696   3.274 -0.6425  1.4732  1.6880
 4968SOL     OW26536   4.637   3.739  15.945 -0.3216 -0.2045  0.1260
 4968SOL    HW126537   4.551   3.739  15.904 -0.6817 -1.6732  0.8842
 4968SOL    HW226538   4.649   3.834  15.955 -2.2706 -0.0710  1.2409
 4969SOL     OW26539   3.553   2.438   9.449 -0.8915  0.0517 -0.5784
 4969SOL    HW126540   3.467   2.430   9.489 -0.2093  0.0804  0.9084
 4969SOL    HW226541   3.537   2.522   9.406  2.7176 -0.8125 -3.6460
 4970SOL     OW26542   1.073   2.996  11.068  1.0347  0.0785 -0.5800
 4970SOL    HW126543   1.162   2.987  11.033  1.5866  0.2623  0.7586
 4970SOL    HW226544   1.086   3.053  11.144 -1.9477 -0.5450  0.4021
 4971SOL     OW26545   3.754   0.580   7.622  0.0711  0.1373 -0.2328
 4971SOL    HW126546   3.783   0.664   7.586  2.5662 -0.8459 -0.5158
 4971SOL    HW226547   3.839   0.538   7.624 -1.4229 -2.8669  0.5360
 4972SOL     OW26548   2.026   0.614   4.172  0.0353  0.4076  0.0134
 4972SOL    HW126549   2.042   0.706   4.193 -1.1375  0.6483 -0.1448
 4972SOL    HW226550   1.930   0.607   4.169  0.0926  0.6975 -1.9435
 4973SOL     OW26551   3.958   0.720   8.467 -0.1698 -0.4215 -0.4526
 4973SOL    HW126552   3.914   0.683   8.390 -1.6467 -0.0458  0.2078
 4973SOL    HW226553   3.906   0.800   8.470 -1.2457 -1.2094  1.8850
 4974SOL     OW26554   0.367   0.653   2.572  0.2072 -0.8785 -0.3669
 4974SOL    HW126555   0.368   0.662   2.667  0.9688 -1.9936 -0.2600
 4974SOL    HW226556   0.303   0.717   2.541  0.8934 -0.2132 -0.4035
 4975SOL     OW26557   0.586   2.581  12.249  0.0443  0.4282 -0.8151
 4975SOL    HW126558   0.583   2.509  12.312 -1.5170 -0.9694 -2.4898
 4975SOL    HW226559   0.671   2.568  12.207 -0.7429 -0.6879 -2.0675
 4976SOL     OW26560   2.975   2.144   3.674 -0.3225  0.5363  0.0766
 4976SOL    HW126561   2.921   2.168   3.749 -0.3965  1.5070 -0.2901
 4976SOL    HW226562   2.917   2.159   3.599 -2.2012 -1.0378  1.2117
 4977SOL     OW26563   3.798   0.434   2.968 -0.1817  0.4636 -0.3798
 4977SOL    HW126564   3.704   0.439   2.986 -0.0554  0.1878  0.3479
 4977SOL    HW226565   3.838   0.520   2.959 -2.8048  1.3559 -3.4830
 4978SOL     OW26566   3.568   2.156   9.961  0.1777  0.9951  0.5947
 4978SOL    HW126567   3.486   2.176  10.008 -0.5626 -0.9103  0.1296
 4978SOL    HW226568   3.555   2.065   9.935  1.1378  1.4303 -1.3482
 4979SOL     OW26569   2.251   2.895   6.677  0.0881  0.8048  0.2340
 4979SOL    HW126570   2.159   2.891   6.651  0.1438  1.1286 -0.0212
 4979SOL    HW226571   2.286   2.830   6.616 -2.2952  0.4769 -0.7888
 4980SOL     OW26572   0.349   1.591   2.544 -0.0969 -0.3698  0.0419
 4980SOL    HW126573   0.302   1.565   2.465  0.0407  1.2122 -0.5526
 4980SOL    HW226574   0.370   1.503   2.575 -0.9188 -0.4075  0.4711
 4981SOL     OW26575   2.825   2.207   4.057  0.2840  0.6268 -0.3712
 4981SOL    HW126576   2.774   2.160   3.991  1.5185 -0.8724 -0.2498
 4981SOL    HW226577   2.912   2.167   4.055 -0.4637 -0.9459 -1.2532
 4982SOL     OW26578   2.543   1.821   8.823 -0.5596 -0.0217  0.4819
 4982SOL    HW126579   2.575   1.875   8.751 -0.5594 -0.5702  0.0642
 4982SOL    HW226580   2.617   1.818   8.884 -0.1080  0.0070 -0.0561
 4983SOL     OW26581   1.427   0.450  16.518 -0.1576  0.4651 -0.0622
 4983SOL    HW126582   1.396   0.527  16.566 -1.1537  1.2765 -1.9943
 4983SOL    HW226583   1.479   0.416  16.591 -1.2082 -0.1726  0.3872
 4984SOL     OW26584   0.089   3.580   7.303 -0.7483 -0.5207  0.5132
 4984SOL    HW126585   0.064   3.489   7.316  1.0209 -1.4961 -3.0838
 4984SOL    HW226586   0.179   3.568   7.332 -0.6744 -0.7855  0.1756
 4985SOL     OW26587   1.941   4.297   8.875 -0.1882  0.0578 -0.0777
 4985SOL    HW126588   1.914   4.279   8.965 -1.0941 -1.8387 -0.7267
 4985SOL    HW226589   2.014   4.235   8.864  0.0180  0.1203  0.8623
 4986SOL     OW26590   4.356   0.084   9.028  0.3585 -0.0600 -0.0627
 4986SOL    HW126591   4.425   0.074   8.962 -0.6457 -1.3968 -0.8898
 4986SOL    HW226592   4.303   0.005   9.017 -0.4207  0.2007  1.7903
 4987SOL     OW26593   1.680   0.679  13.364 -0.5137 -0.3202 -0.0427
 4987SOL    HW126594   1.627   0.610  13.324 -1.0495  1.1491 -1.8582
 4987SOL    HW226595   1.693   0.642  13.451 -3.9382  0.6614  0.9059
 4988SOL     OW26596   2.300   4.118  15.483 -0.4788  0.1287  0.1225
 4988SOL    HW126597   2.365   4.142  15.548 -0.8650 -2.5745  1.5131
 4988SOL    HW226598   2.226   4.098  15.540  2.6423 -0.5881  3.9209
 4989SOL     OW26599   3.384   4.603   0.895 -0.2891 -0.0542  0.1125
 4989SOL    HW126600   3.421   4.662   0.829  1.4426 -2.7159 -1.2693
 4989SOL    HW226601   3.401   4.657   0.973 -1.6698 -0.5206  0.7323
 4990SOL     OW26602   3.391   0.750   2.020 -0.2012 -0.2286 -0.0869
 4990SOL    HW126603   3.336   0.780   2.092 -0.9212 -3.1823  0.6209
 4990SOL    HW226604   3.459   0.817   2.012  0.9955 -1.2499  1.4147
 4991SOL     OW26605   0.904   3.014   6.946  0.3391  0.7357 -0.0933
 4991SOL    HW126606   0.903   2.956   7.022 -0.9059 -0.3018 -0.8852
 4991SOL    HW226607   0.810   3.033   6.945  0.5051  1.5348 -0.5567
 4992SOL     OW26608   4.283   2.667   3.687  0.0463 -0.2167  0.2900
 4992SOL    HW126609   4.364   2.668   3.737  0.2815 -0.8433 -0.0738
 4992SOL    HW226610   4.222   2.716   3.743  0.5154  0.7253 -0.0179
 4993SOL     OW26611   3.832   2.081   8.209 -0.2616 -0.0099 -0.4233
 4993SOL    HW126612   3.793   2.156   8.255 -0.0567  0.3923 -0.9195
 4993SOL    HW226613   3.920   2.114   8.190  1.2690 -3.4353  0.7359
 4994SOL     OW26614   2.669   3.338  13.964  0.1448 -0.3175 -0.2426
 4994SOL    HW126615   2.580   3.332  13.928 -0.3092  0.8680  0.6600
 4994SOL    HW226616   2.697   3.426  13.937 -1.1388 -0.2699 -1.4405
 4995SOL     OW26617   4.113   0.292  11.962  0.9752 -0.1239  0.0817
 4995SOL    HW126618   4.207   0.276  11.961  0.8903 -0.7106  1.4054
 4995SOL    HW226619   4.100   0.384  11.940  2.0476 -0.1501 -0.6713
 4996SOL     OW26620   3.017   2.390   6.155 -0.8123  0.1339 -0.3114
 4996SOL    HW126621   2.940   2.373   6.210  0.7222 -1.1624  1.4375
 4996SOL    HW226622   3.056   2.457   6.210 -1.1918 -0.5746  0.8202
 4997SOL     OW26623   4.092   0.841   7.019  0.3967  0.1809 -0.2992
 4997SOL    HW126624   4.104   0.764   7.075  2.9180 -0.7611 -2.1207
 4997SOL    HW226625   4.155   0.904   7.054 -1.0523  1.4472  0.0390
 4998SOL     OW26626   0.918   3.847   0.076 -0.2765  0.3483  0.0847
 4998SOL    HW126627   0.926   3.937   0.045  0.4579  0.2449 -0.0204
 4998SOL    HW226628   0.909   3.792  17.758  0.4242 -0.5050  0.6010
 4999SOL     OW26629   3.106   1.238   6.330  0.1500  0.1674  0.1162
 4999SOL    HW126630   3.101   1.256   6.236 -1.6880  1.8739  0.5352
 4999SOL    HW226631   3.197   1.224   6.355  0.4737 -0.5324 -1.4512
 5000SOL     OW26632   3.641   0.401   2.517  0.2188 -0.1985  0.7100
 5000SOL    HW126633   3.614   0.344   2.589  0.1334 -1.0155  0.0252
 5000SOL    HW226634   3.620   0.346   2.442 -2.3957  1.8688 -0.0894
 5001SOL     OW26635   2.605   2.115   6.110  0.1772 -0.0819  0.2880
 5001SOL    HW126636   2.691   2.113   6.068  0.4694  1.8018  0.7859
 5001SOL    HW226637   2.592   2.204   6.142  1.1314  0.2942 -0.3493
 5002SOL     OW26638   3.121   0.419  12.925 -0.1972  0.2107 -0.1316
 5002SOL    HW126639   3.152   0.329  12.936 -1.3729 -0.2528 -0.6056
 5002SOL    HW226640   3.204   0.461  12.950 -0.0475  0.1878 -0.5862
 5003SOL     OW26641   1.568   0.488  13.223 -0.4806 -0.2714  0.3096
 5003SOL    HW126642   1.508   0.414  13.221  1.3076 -1.7297 -0.6330
 5003SOL    HW226643   1.627   0.471  13.149 -1.1624  1.2299 -0.5666
 5004SOL     OW26644   1.787   4.122   4.880  0.3233 -0.5293  0.2024
 5004SOL    HW126645   1.777   4.170   4.962 -3.1663 -0.5637 -0.1999
 5004SOL    HW226646   1.872   4.081   4.892  0.2559 -1.2465 -1.8856
 5005SOL     OW26647   3.911   1.415   4.308 -0.0291  0.2889 -0.1331
 5005SOL    HW126648   3.823   1.382   4.289 -0.6374  0.5923  2.2007
 5005SOL    HW226649   3.946   1.419   4.219 -0.5559 -0.1956 -0.3609
 5006SOL     OW26650   0.619   2.565  13.808  0.1255  0.3841 -0.6468
 5006SOL    HW126651   0.704   2.523  13.820  1.4746  2.1322 -3.9416
 5006SOL    HW226652   0.616   2.609  13.892 -0.3674 -0.0265 -0.4488
 5007SOL     OW26653   1.444   0.245   0.306  0.2405  0.5737 -0.3033
 5007SOL    HW126654   1.475   0.332   0.282 -0.3148  0.0268 -2.9893
 5007SOL    HW226655   1.523   0.191   0.296  0.5307  0.9093  0.1872
 5008SOL     OW26656   0.665   2.193  16.212 -0.1669 -0.9073  0.0109
 5008SOL    HW126657   0.578   2.220  16.241  0.2406  0.0293  0.3711
 5008SOL    HW226658   0.665   2.241  16.129 -1.9837 -0.4540  0.2665
 5009SOL     OW26659   2.835   0.841   3.085 -0.2900  0.5552 -0.0392
 5009SOL    HW126660   2.812   0.862   2.994 -1.5632  4.2981  1.1368
 5009SOL    HW226661   2.753   0.804   3.119  0.3656 -1.2902 -0.4930
 5010SOL     OW26662   1.672   3.808   6.649 -0.3473  0.3425 -0.4662
 5010SOL    HW126663   1.603   3.859   6.691 -2.0140 -1.7986 -0.5469
 5010SOL    HW226664   1.703   3.868   6.581  0.4021  0.9581  0.4330
 5011SOL     OW26665   0.441   2.698   7.788 -0.0252  0.3140  0.3048
 5011SOL    HW126666   0.527   2.683   7.828 -1.7255 -0.3699  3.6905
 5011SOL    HW226667   0.402   2.614   7.813  0.2169  1.0690  3.2858
 5012SOL     OW26668   0.242   1.151  15.523  0.3915  0.1823 -0.3044
 5012SOL    HW126669   0.162   1.203  15.523  0.5454  0.4166 -0.3376
 5012SOL    HW226670   0.265   1.174  15.613 -3.6230 -3.1917  1.6154
 5013SOL     OW26671   1.758   0.608  13.624 -0.1755  0.0960 -0.0281
 5013SOL    HW126672   1.776   0.687  13.675  1.5220 -1.9939  2.5403
 5013SOL    HW226673   1.754   0.535  13.685  1.9311 -0.5064 -0.6110
 5014SOL     OW26674   1.892   1.702   4.751 -0.0948  0.0498  0.8850
 5014SOL    HW126675   1.934   1.644   4.814  0.0980 -2.4573 -1.5836
 5014SOL    HW226676   1.807   1.657   4.756  0.7729 -1.5209  1.2436
 5015SOL     OW26677   4.689   2.967  13.664  0.2402  0.2095 -0.2922
 5015SOL    HW126678   4.644   2.920  13.594  0.5061 -0.1005 -0.2517
 5015SOL    HW226679   4.690   2.899  13.731  1.1110  0.7237  0.2263
 5016SOL     OW26680   2.266   2.201   0.556 -0.2944 -0.0375 -0.9484
 5016SOL    HW126681   2.292   2.290   0.578 -1.0061 -0.5856  2.1598
 5016SOL    HW226682   2.193   2.212   0.495 -0.7637 -1.1849 -0.5883
 5017SOL     OW26683   1.831   0.610  16.173  0.4914 -0.6739 -0.3089
 5017SOL    HW126684   1.740   0.595  16.198  0.8634 -2.1026  0.1826
 5017SOL    HW226685   1.836   0.691  16.121 -2.5912  0.1368  0.6737
 5018SOL     OW26686   0.816   0.131   2.951  0.4253  0.0555 -0.0862
 5018SOL    HW126687   0.816   0.163   3.041 -0.5000 -0.9325  0.2655
 5018SOL    HW226688   0.826   0.037   2.960 -0.1144 -0.1251 -1.4324
 5019SOL     OW26689   0.411   2.671  11.112  0.6010 -0.0835  0.3578
 5019SOL    HW126690   0.415   2.754  11.064 -0.5012 -0.1897  0.0946
 5019SOL    HW226691   0.500   2.649  11.085  0.6471 -1.3104  1.5017
 5020SOL     OW26692   1.574   0.306   5.383  0.2070 -0.1981 -0.3271
 5020SOL    HW126693   1.581   0.320   5.478  2.3675  0.7084 -0.6200
 5020SOL    HW226694   1.480   0.302   5.366 -0.1232  1.1165  1.0999
 5021SOL     OW26695   2.428   2.038   0.056 -0.5271 -0.2720  0.5764
 5021SOL    HW126696   2.347   2.009   0.013  0.8694 -0.9612 -1.6124
 5021SOL    HW226697   2.465   1.955   0.086 -1.5168 -0.6368  0.7725
 5022SOL     OW26698   1.951   0.711  14.923  0.5612 -0.1158  0.2946
 5022SOL    HW126699   1.899   0.755  14.855  1.9914  1.9208  0.5193
 5022SOL    HW226700   1.882   0.662  14.968  0.2650  1.1665  1.2539
 5023SOL     OW26701   0.748   3.828   3.182 -0.5444 -0.1514  0.3948
 5023SOL    HW126702   0.805   3.751   3.181 -1.3922 -0.7710  0.4938
 5023SOL    HW226703   0.713   3.838   3.094 -0.6419 -1.5765  0.2725
 5024SOL     OW26704   0.459   1.457  17.245  0.0048 -0.2470 -0.0120
 5024SOL    HW126705   0.500   1.428  17.163 -0.7245 -0.5638 -0.2733
 5024SOL    HW226706   0.398   1.388  17.272  1.2485 -0.4008  2.3696
 5025SOL     OW26707   1.942   3.050   3.469  0.2152  0.0504 -0.8489
 5025SOL    HW126708   1.898   3.077   3.549 -1.7823  0.1958 -1.9931
 5025SOL    HW226709   1.960   3.132   3.423 -0.8006  1.5340  1.4346
 5026SOL     OW26710   2.249   1.099   3.893 -0.1226 -0.0040  0.4398
 5026SOL    HW126711   2.212   1.110   3.981 -0.7996 -0.3264  0.2002
 5026SOL    HW226712   2.183   1.146   3.842  1.3426 -0.6058 -2.0262
 5027SOL     OW26713   2.637   0.249   4.818 -0.7522  0.4008  0.2799
 5027SOL    HW126714   2.687   0.330   4.833 -0.1524  0.2997 -1.2723
 5027SOL    HW226715   2.686   0.198   4.754  0.8957 -0.5070  2.2467
 5028SOL     OW26716   2.763   2.530  16.305  0.3136  0.1682 -0.8522
 5028SOL    HW126717   2.675   2.567  16.305  0.4063  0.3842 -1.0552
 5028SOL    HW226718   2.722   2.447  16.332  0.3835  1.1996  2.4071
 5029SOL     OW26719   0.777   3.558   9.302 -0.5446  0.0300  0.1628
 5029SOL    HW126720   0.732   3.635   9.337  1.5641  0.3905  2.0439
 5029SOL    HW226721   0.710   3.527   9.240 -1.4748  2.1585  0.0942
 5030SOL     OW26722   4.247   2.881  15.050 -0.3669  0.5270 -0.4534
 5030SOL    HW126723   4.265   2.794  15.014 -1.0185 -0.5277  1.6953
 5030SOL    HW226724   4.159   2.891  15.014  0.0123 -1.4912 -1.9390
 5031SOL     OW26725   0.022   4.670   2.563 -0.5658 -0.0532  0.0273
 5031SOL    HW126726   4.691   4.631   2.613  0.5457  0.4662  2.0499
 5031SOL    HW226727   0.019   0.022   2.586 -0.0476 -0.5073  1.9650
 5032SOL     OW26728   2.483   3.485  14.899  0.4823  0.0846  0.3892
 5032SOL    HW126729   2.485   3.526  14.813 -4.1389  1.0164  0.7482
 5032SOL    HW226730   2.482   3.392  14.874 -3.0414  0.1539  0.2555
 5033SOL     OW26731   2.656   0.462   8.027  0.1346 -0.2376  0.0870
 5033SOL    HW126732   2.674   0.500   7.941  0.0503  0.0520  0.1959
 5033SOL    HW226733   2.742   0.488   8.059  0.6179 -1.6820 -0.0605
 5034SOL     OW26734   0.350   3.995  14.242  0.4314 -0.3403 -0.1437
 5034SOL    HW126735   0.273   4.040  14.208  0.6252 -1.2719 -1.8272
 5034SOL    HW226736   0.371   3.947  14.162 -1.6300  2.2841 -2.2745
 5035SOL     OW26737   0.180   4.022   4.315  0.5019  0.0461 -0.4646
 5035SOL    HW126738   0.223   4.068   4.243  0.1151 -0.2112 -0.8494
 5035SOL    HW226739   0.191   4.095   4.376  0.1616 -1.3953  1.3456
 5036SOL     OW26740   1.604   2.986   4.383 -0.1818  0.4287  0.5868
 5036SOL    HW126741   1.611   3.021   4.472  0.1417  0.3479  0.5906
 5036SOL    HW226742   1.636   2.896   4.391 -0.1612  0.4619  0.9009
 5037SOL     OW26743   1.097   1.382   7.290 -0.7121  0.1820  0.0044
 5037SOL    HW126744   1.142   1.417   7.367  1.4967 -1.9065 -0.3489
 5037SOL    HW226745   1.015   1.431   7.292  0.9414  2.9468  0.3394
 5038SOL     OW26746   0.917   1.942   1.976 -0.2307  0.5068  0.2393
 5038SOL    HW126747   0.886   2.015   2.030  0.6386 -1.3728  3.2572
 5038SOL    HW226748   0.835   1.894   1.973 -1.6152  2.7358  1.8587
 5039SOL     OW26749   0.132   0.624  12.835 -0.3846 -0.3308 -0.1877
 5039SOL    HW126750   0.181   0.588  12.909 -0.5515 -1.9115 -0.8441
 5039SOL    HW226751   0.211   0.656  12.790 -0.8582 -0.9404 -1.4617
 5040SOL     OW26752   4.738   3.557   3.492  0.2793 -0.0755  0.4084
 5040SOL    HW126753   0.051   3.631   3.518  3.6812 -1.5725 -2.3235
 5040SOL    HW226754   4.701   3.533   3.577 -1.5786  1.4573  0.0418
 5041SOL     OW26755   3.373   3.179   3.701 -0.0135 -0.3464 -0.1707
 5041SOL    HW126756   3.447   3.221   3.745  0.0474 -1.8629  1.1437
 5041SOL    HW226757   3.409   3.097   3.666 -0.1640  0.2015 -1.6214
 5042SOL     OW26758   1.919   0.190   4.278  0.4068 -0.2609 -0.6537
 5042SOL    HW126759   1.823   0.183   4.271  0.5228 -3.8942  1.3246
 5042SOL    HW226760   1.934   0.130   4.351 -0.4774 -0.9593 -1.0380
 5043SOL     OW26761   3.249   2.725   4.748 -0.3592  0.0393  0.0382
 5043SOL    HW126762   3.236   2.653   4.810  0.3952  0.7186  0.9866
 5043SOL    HW226763   3.226   2.685   4.664  2.6324 -0.7505 -0.3906
 5044SOL     OW26764   4.458   2.563  10.447 -1.1498  0.1811  0.2044
 5044SOL    HW126765   4.445   2.516  10.529 -1.9423  1.5363  0.8474
 5044SOL    HW226766   4.394   2.518  10.392 -1.1650  2.7140 -1.9101
 5045SOL     OW26767   4.724   4.614   9.277  0.7842  0.6800 -0.5811
 5045SOL    HW126768   4.635   4.634   9.304  0.6753 -1.8921  1.0217
 5045SOL    HW226769   4.713   4.547   9.211 -0.3109 -0.0552  0.3489
 5046SOL     OW26770   0.471   1.297   7.290 -0.0979 -0.0445  0.2553
 5046SOL    HW126771   0.400   1.301   7.354 -0.3744 -0.5752 -0.0186
 5046SOL    HW226772   0.476   1.202   7.280  0.2988  0.1725 -1.7758
 5047SOL     OW26773   2.798   0.065   2.465  0.1029 -0.4274 -0.6861
 5047SOL    HW126774   2.890   0.089   2.479  0.0732 -0.4530 -0.4441
 5047SOL    HW226775   2.773   0.119   2.390  1.6739 -1.0015 -1.6296
 5048SOL     OW26776   1.733   2.013  10.188  0.1131 -0.1913  0.6025
 5048SOL    HW126777   1.684   1.955  10.246  1.5598 -1.9536  0.0565
 5048SOL    HW226778   1.803   1.957  10.155 -2.2316 -1.2055 -2.7025
 5049SOL     OW26779   3.431   2.325   8.018 -0.2848  0.4629 -0.4404
 5049SOL    HW126780   3.527   2.325   8.014 -0.3396  1.2803 -1.8246
 5049SOL    HW226781   3.417   2.365   8.104  1.3030 -1.8432  0.8640
 5050SOL     OW26782   0.747   0.886   4.395  0.4148 -0.7139  0.1661
 5050SOL    HW126783   0.720   0.976   4.413 -2.5522 -1.3819 -1.0009
 5050SOL    HW226784   0.671   0.850   4.439 -1.3278  1.4694 -1.0621
 5051SOL     OW26785   4.222   3.084  17.640  0.5103 -0.5490  0.3095
 5051SOL    HW126786   4.231   3.041  17.725 -2.4825  0.0762  0.9194
 5051SOL    HW226787   4.203   3.019  17.572 -4.1660  0.2694  0.8391
 5052SOL     OW26788   3.022   2.915   1.713 -0.2240  0.5577  0.4595
 5052SOL    HW126789   3.107   2.931   1.673  0.3083  1.6457  2.0445
 5052SOL    HW226790   3.037   2.823   1.735  0.0055  0.2224 -1.1180
 5053SOL     OW26791   0.058   0.011   3.348  0.3972  0.5647  0.0215
 5053SOL    HW126792   0.093   0.097   3.328  1.5443  0.1801  0.3654
 5053SOL    HW226793   0.013   0.020   3.432  0.2355 -2.2795  0.2391
 5054SOL     OW26794   2.925   1.396   8.230  0.3654  0.2726 -0.4262
 5054SOL    HW126795   2.950   1.479   8.190 -0.1823 -0.0706 -1.4840
 5054SOL    HW226796   2.867   1.426   8.300  2.4203  0.8233  1.0549
 5055SOL     OW26797   1.844   2.704   6.218  0.0922 -0.2583  0.2027
 5055SOL    HW126798   1.906   2.634   6.197  0.3658  0.3367 -0.9780
 5055SOL    HW226799   1.764   2.653   6.233 -1.4164  1.8004 -0.7587
 5056SOL     OW26800   2.192   2.026   1.898 -0.8046  0.4454  0.4315
 5056SOL    HW126801   2.265   1.990   1.848 -1.3871  1.9583 -1.4796
 5056SOL    HW226802   2.183   2.120   1.883  0.8722  0.5956  0.3467
 5057SOL     OW26803   2.638   1.090   4.124 -0.2451 -0.1573  0.4565
 5057SOL    HW126804   2.582   1.015   4.141 -1.0579  0.1310 -0.9789
 5057SOL    HW226805   2.681   1.085   4.210  1.4442 -3.6806 -0.6365
 5058SOL     OW26806   0.315   2.631  11.379  0.0583 -0.3710  0.3169
 5058SOL    HW126807   0.245   2.696  11.382  1.5411  1.2366  0.0550
 5058SOL    HW226808   0.347   2.644  11.290  1.0051  0.7386  0.8141
 5059SOL     OW26809   1.091   3.370   0.215 -0.1286  0.0884  0.1027
 5059SOL    HW126810   1.047   3.452   0.235 -0.9334 -1.1610  3.3657
 5059SOL    HW226811   1.037   3.340   0.141  0.1984  0.2373 -0.2001
 5060SOL     OW26812   4.380   0.107   8.348 -0.0914 -0.2987 -0.4208
 5060SOL    HW126813   4.439   0.036   8.369 -0.8501 -0.4655  1.1459
 5060SOL    HW226814   4.300   0.085   8.397 -0.6644 -1.0879 -1.7219
 5061SOL     OW26815   2.704   2.206   2.557 -0.3755 -0.0684  0.1938
 5061SOL    HW126816   2.669   2.127   2.599  0.4696 -0.3527  0.3838
 5061SOL    HW226817   2.784   2.164   2.526 -0.3828  0.6731 -0.8147
 5062SOL     OW26818   2.192   3.450   6.034 -0.2260  0.2588  0.1490
 5062SOL    HW126819   2.115   3.397   6.057  0.2678 -0.0342  1.1651
 5062SOL    HW226820   2.237   3.454   6.119  0.2057  1.7412 -0.1656
 5063SOL     OW26821   4.014   2.413   1.449  0.3002  0.2937  0.0753
 5063SOL    HW126822   4.055   2.440   1.367 -0.4477 -0.4467 -0.5436
 5063SOL    HW226823   4.091   2.403   1.505 -0.5022 -1.9573  0.7828
 5064SOL     OW26824   4.663   4.327   0.964 -0.2896  0.3060  0.0685
 5064SOL    HW126825   4.726   4.320   0.892  0.7727  1.6120  0.8761
 5064SOL    HW226826   4.719   4.302   1.038  0.1429  2.0413  0.3216
 5065SOL     OW26827   1.315   2.874   5.058  0.3094  0.1100 -0.6188
 5065SOL    HW126828   1.224   2.902   5.064  0.7527  1.0680  1.8217
 5065SOL    HW226829   1.311   2.780   5.072 -1.2078  0.3389  0.4298
 5066SOL     OW26830   2.643   0.700  11.612  0.1442  0.5967  0.3239
 5066SOL    HW126831   2.655   0.656  11.528  1.5230  3.3110 -0.8981
 5066SOL    HW226832   2.649   0.629  11.675 -0.3493  1.2828  1.1518
 5067SOL     OW26833   3.406   2.314  13.920  0.1977 -0.4963  0.1110
 5067SOL    HW126834   3.313   2.298  13.939  0.1328 -1.1392 -0.7370
 5067SOL    HW226835   3.450   2.236  13.954 -0.4374 -1.5207 -1.3992
 5068SOL     OW26836   1.188   0.537   0.837  0.3696 -0.1459  0.1376
 5068SOL    HW126837   1.105   0.507   0.799 -0.6535  0.0845  2.1519
 5068SOL    HW226838   1.210   0.449   0.866 -0.4906 -0.3779  0.1044
 5069SOL     OW26839   1.473   2.313   4.100  0.8598 -0.4363  0.1304
 5069SOL    HW126840   1.496   2.303   4.008  0.5356  1.1034 -0.1141
 5069SOL    HW226841   1.498   2.222   4.112  1.5413 -0.4618 -1.4158
 5070SOL     OW26842   2.936   0.522   5.398 -0.1294 -0.1407  0.3433
 5070SOL    HW126843   3.017   0.483   5.365 -0.2465  0.8189 -1.0689
 5070SOL    HW226844   2.968   0.586   5.462  0.0942  1.3797 -1.3032
 5071SOL     OW26845   1.918   3.793   8.325 -0.7444  0.0605  0.1572
 5071SOL    HW126846   1.980   3.772   8.254 -0.3258  0.0443  0.5256
 5071SOL    HW226847   1.956   3.743   8.397  0.1791  0.1754 -0.2382
 5072SOL     OW26848   1.845   0.165  10.985 -0.0999  0.1333  0.2238
 5072SOL    HW126849   1.931   0.169  10.943 -0.0508  1.6924  0.4449
 5072SOL    HW226850   1.807   0.087  10.945  2.9059 -1.1226 -0.2018
 5073SOL     OW26851   0.952   4.613   3.301 -0.4312  0.0530 -0.7801
 5073SOL    HW126852   0.969   4.669   3.377  1.8461 -0.0040 -1.2553
 5073SOL    HW226853   1.028   4.635   3.248  1.5901 -3.5235  0.6374
 5074SOL     OW26854   3.289   1.877  15.072 -0.0675 -0.1984 -0.4714
 5074SOL    HW126855   3.262   1.968  15.061 -0.7401 -0.3931 -0.4854
 5074SOL    HW226856   3.200   1.840  15.071 -0.1139 -0.0692 -2.0308
 5075SOL     OW26857   1.070   2.775   9.597  0.1410 -0.2773  0.0145
 5075SOL    HW126858   1.104   2.762   9.509  0.9125  2.6542 -0.1391
 5075SOL    HW226859   0.980   2.748   9.583 -0.3415  0.0233  2.4426
 5076SOL     OW26860   0.994   4.112   1.401 -0.7128 -0.0709 -0.1406
 5076SOL    HW126861   1.055   4.099   1.329  0.1960  0.4499  0.5422
 5076SOL    HW226862   1.021   4.036   1.453 -1.2157  0.3075  0.6733
 5077SOL     OW26863   2.372   0.680  15.411  0.3355  0.2609 -0.0341
 5077SOL    HW126864   2.338   0.649  15.327 -1.9178  0.2979  0.8403
 5077SOL    HW226865   2.430   0.753  15.393  1.1026  0.1081  1.8186
 5078SOL     OW26866   0.106   2.680   3.241  0.1583 -0.0257 -0.3988
 5078SOL    HW126867   0.075   2.604   3.289 -0.8461  0.2678 -0.5918
 5078SOL    HW226868   0.047   2.682   3.166 -0.2753  2.3570  0.0248
 5079SOL     OW26869   4.404   0.309   3.004  0.1779  0.6333 -0.2946
 5079SOL    HW126870   4.459   0.267   3.070  3.5869  3.5840 -1.2528
 5079SOL    HW226871   4.352   0.364   3.063  1.6336  0.9618  0.6934
 5080SOL     OW26872   3.411   2.193   5.382  0.5960  0.5961  0.2555
 5080SOL    HW126873   3.341   2.255   5.405  0.7217  0.4032  1.1432
 5080SOL    HW226874   3.485   2.254   5.378  2.7511 -2.0821 -0.2506
 5081SOL     OW26875   1.505   3.448   4.023  0.3343 -0.5168 -0.0318
 5081SOL    HW126876   1.530   3.539   4.040  1.1762 -1.1405  2.1037
 5081SOL    HW226877   1.426   3.448   3.969 -2.0564  2.8130  3.4137
 5082SOL     OW26878   0.825   0.164   4.916 -0.0202  0.1521  0.1617
 5082SOL    HW126879   0.900   0.188   4.862 -0.8352  0.8002 -0.6843
 5082SOL    HW226880   0.859   0.082   4.952  4.0375  2.1562  0.8672
 5083SOL     OW26881   4.436   4.514  14.356  0.2156  0.6603  0.5662
 5083SOL    HW126882   4.436   4.557  14.271 -0.0140 -0.2349  0.1165
 5083SOL    HW226883   4.494   4.569  14.408 -0.6778  1.6385  0.5227
 5084SOL     OW26884   4.232   4.545   0.659  0.4080 -0.0665  0.7693
 5084SOL    HW126885   4.252   4.482   0.729 -1.4632  0.1512  1.5017
 5084SOL    HW226886   4.290   4.618   0.679  0.0531  0.5345 -0.4521
 5085SOL     OW26887   0.723   0.524   7.230 -0.4946  0.4579 -0.0997
 5085SOL    HW126888   0.731   0.430   7.217  0.3829  0.3527  1.1819
 5085SOL    HW226889   0.681   0.522   7.315  0.7867 -1.6958  0.4779
 5086SOL     OW26890   0.317   2.536   0.284  0.1639  0.2384 -0.6510
 5086SOL    HW126891   0.297   2.458   0.233  0.4921  0.0542 -0.5003
 5086SOL    HW226892   0.410   2.530   0.307  0.6254  0.9274 -2.3169
 5087SOL     OW26893   2.823   2.125   4.456  0.2803 -0.0259  0.1358
 5087SOL    HW126894   2.798   2.091   4.370  1.3556 -0.8890  0.1605
 5087SOL    HW226895   2.834   2.213   4.421  0.1428 -0.2201 -0.3973
 5088SOL     OW26896   2.472   3.838  14.806  0.1818 -0.3255  0.1886
 5088SOL    HW126897   2.416   3.879  14.740 -1.8202  0.8267  2.6216
 5088SOL    HW226898   2.521   3.774  14.755 -0.2420 -1.8371  1.6800
 5089SOL     OW26899   2.344   3.466   2.337  0.0270 -0.4331 -0.2665
 5089SOL    HW126900   2.429   3.424   2.351  0.1829 -0.0775 -0.1276
 5089SOL    HW226901   2.279   3.410   2.379 -1.2908  1.7187  0.5806
 5090SOL     OW26902   0.919   0.519   0.272 -0.0683  0.1317 -0.2969
 5090SOL    HW126903   1.006   0.499   0.304 -0.1496 -0.0891 -0.2092
 5090SOL    HW226904   0.883   0.430   0.263 -3.8118  1.5914 -0.0933
 5091SOL     OW26905   4.374   4.343  12.082  0.1068  0.0732 -0.1315
 5091SOL    HW126906   4.463   4.357  12.117  0.2692  1.6841 -1.1875
 5091SOL    HW226907   4.365   4.431  12.046  3.0977  0.1803 -0.6547
 5092SOL     OW26908   1.285   4.002   5.328  0.6391  0.2823  0.1545
 5092SOL    HW126909   1.313   4.094   5.326  3.0952 -0.4831 -1.6950
 5092SOL    HW226910   1.196   4.011   5.294  1.0819 -1.6586 -1.4998
 5093SOL     OW26911   0.712   1.731  10.941  0.0514 -0.3348 -0.1085
 5093SOL    HW126912   0.788   1.716  10.997 -1.3070 -0.3738  1.7146
 5093SOL    HW226913   0.662   1.793  10.993  0.4719  1.1402 -1.4543
 5094SOL     OW26914   1.848   1.644  16.793 -0.0695  0.5290 -0.0236
 5094SOL    HW126915   1.847   1.689  16.877 -0.9988  1.5581 -0.5759
 5094SOL    HW226916   1.924   1.586  16.789 -0.6442 -0.3491  1.8966
 5095SOL     OW26917   1.083   4.365   3.866  0.0488  0.2959 -0.1983
 5095SOL    HW126918   1.065   4.280   3.827  3.4960 -0.5072 -0.0881
 5095SOL    HW226919   0.993   4.392   3.879 -0.5128 -0.3244 -2.8064
 5096SOL     OW26920   1.037   1.620   8.459  0.2522 -0.0639  0.3831
 5096SOL    HW126921   1.048   1.712   8.435 -3.5536  0.0016 -1.1439
 5096SOL    HW226922   1.003   1.589   8.374  1.0718  0.6993 -0.2159
 5097SOL     OW26923   2.527   1.742   7.420 -0.2168  0.6972 -0.1178
 5097SOL    HW126924   2.434   1.758   7.435  0.1223  1.8313  0.8039
 5097SOL    HW226925   2.537   1.785   7.335 -0.6890 -1.4569 -1.2624
 5098SOL     OW26926   2.177   4.506  10.662 -0.4364 -0.0606 -0.1250
 5098SOL    HW126927   2.173   4.592  10.618  2.0967 -0.5924 -1.3967
 5098SOL    HW226928   2.150   4.453  10.587 -1.5948 -1.6819  1.4562
 5099SOL     OW26929   1.111   4.311   7.620  0.1460 -0.3350 -0.2706
 5099SOL    HW126930   1.059   4.339   7.695  1.5229  0.6047  0.3384
 5099SOL    HW226931   1.090   4.218   7.626  1.0150 -0.5488 -0.4397
 5100SOL     OW26932   3.777   2.672   6.043 -0.0448 -0.1296  0.9033
 5100SOL    HW126933   3.864   2.687   6.005 -0.0338 -1.7043  0.3062
 5100SOL    HW226934   3.759   2.590   5.997  0.2720 -0.0525  0.6416
 5101SOL     OW26935   4.680   1.894   3.712 -0.4009 -0.2710 -0.1412
 5101SOL    HW126936   4.604   1.922   3.762  0.7110  1.8918  0.3314
 5101SOL    HW226937   0.015   1.934   3.754 -0.4030  0.3572 -0.7318
 5102SOL     OW26938   1.794   0.342   7.687  0.0536  0.0223 -0.2841
 5102SOL    HW126939   1.763   0.340   7.596 -2.2908 -1.3272  0.5641
 5102SOL    HW226940   1.766   0.425   7.725 -1.5232 -0.9794  0.7099
 5103SOL     OW26941   3.708   1.732   8.699  0.4836  0.0131  0.0556
 5103SOL    HW126942   3.692   1.814   8.745 -0.8300  0.2109 -0.7595
 5103SOL    HW226943   3.781   1.753   8.641  0.9621 -0.1687  0.5955
 5104SOL     OW26944   2.618   2.089   5.456  0.0210 -0.6294 -0.1390
 5104SOL    HW126945   2.528   2.105   5.483 -0.6682 -2.5253 -1.3311
 5104SOL    HW226946   2.637   2.026   5.525  0.1403  0.7992  1.1487
 5105SOL     OW26947   0.109   1.227   6.739 -0.4838  0.1551  0.0053
 5105SOL    HW126948   0.203   1.246   6.732 -0.9313  2.6312  0.6502
 5105SOL    HW226949   0.123   1.133   6.727 -0.3474  0.3168 -1.0764
 5106SOL     OW26950   2.039   2.247   5.200  0.0022 -0.3689 -0.2523
 5106SOL    HW126951   1.952   2.285   5.193 -0.0151 -0.5496 -0.9981
 5106SOL    HW226952   2.069   2.238   5.110 -3.2516  4.0344 -1.8028
 5107SOL     OW26953   2.050   0.832   3.546 -0.4385 -0.5206 -0.4936
 5107SOL    HW126954   1.956   0.845   3.535 -0.5708  0.2652  1.4756
 5107SOL    HW226955   2.054   0.763   3.612  0.9428  1.4386  1.4922
 5108SOL     OW26956   1.992   4.425   1.868  0.8691 -0.5698  0.1178
 5108SOL    HW126957   1.957   4.371   1.796  0.6883 -2.0095  1.2874
 5108SOL    HW226958   1.985   4.509   1.822  2.9286 -0.8013 -0.6221
 5109SOL     OW26959   3.847   4.143   9.021  0.1925 -0.1243 -0.4368
 5109SOL    HW126960   3.923   4.093   9.050  0.9383  0.8139 -0.7714
 5109SOL    HW226961   3.853   4.146   8.925 -0.1677 -0.5903 -0.4747
 5110SOL     OW26962   0.216   1.456   0.586 -0.4104 -0.5556  0.2978
 5110SOL    HW126963   0.205   1.467   0.681 -1.3103 -1.5499  0.3180
 5110SOL    HW226964   0.269   1.532   0.564  0.1763 -1.4632 -1.4535
 5111SOL     OW26965   1.553   0.220   6.246  0.2477  0.0954  0.4898
 5111SOL    HW126966   1.484   0.167   6.286  0.0072  0.5279  0.6475
 5111SOL    HW226967   1.522   0.308   6.268 -1.5703  0.3004 -2.8064
 5112SOL     OW26968   0.331   1.990   8.231  0.0573  0.5226 -0.1575
 5112SOL    HW126969   0.299   2.081   8.233  0.7448  0.7406  0.8081
 5112SOL    HW226970   0.254   1.949   8.272  1.4797 -0.6783  1.3146
 5113SOL     OW26971   4.408   4.313   0.869  0.3200  0.0581  0.2109
 5113SOL    HW126972   4.379   4.250   0.935  0.7157  0.3383  0.6523
 5113SOL    HW226973   4.499   4.333   0.890  0.3848 -0.9836  0.9170
 5114SOL     OW26974   2.086   1.729   5.759  0.1566 -0.3033  0.0511
 5114SOL    HW126975   2.059   1.637   5.763 -0.3428 -0.0959  1.3227
 5114SOL    HW226976   2.100   1.751   5.851 -2.1972  2.2013 -0.2164
 5115SOL     OW26977   4.090   3.799   8.220 -0.1128 -0.0329 -0.5814
 5115SOL    HW126978   4.044   3.752   8.150 -0.3691 -3.2113  1.7041
 5115SOL    HW226979   4.160   3.735   8.236  0.2457  0.7326  0.8810
 5116SOL     OW26980   1.881   2.424   0.296  0.6403 -0.1311 -0.2538
 5116SOL    HW126981   1.962   2.378   0.318  0.9465 -0.1853 -1.5022
 5116SOL    HW226982   1.905   2.443   0.205  0.5315  2.2823  0.2377
 5117SOL     OW26983   4.386   1.318   7.637 -0.0914 -0.1258  0.2918
 5117SOL    HW126984   4.351   1.365   7.561 -1.0192 -0.7868  0.3094
 5117SOL    HW226985   4.478   1.340   7.623  0.4189 -2.1216  0.5488
 5118SOL     OW26986   4.460   2.290   2.606  0.3316  0.4224 -0.1535
 5118SOL    HW126987   4.521   2.233   2.652  0.1711  0.4915  0.1427
 5118SOL    HW226988   4.420   2.227   2.545 -0.8789  1.9567 -0.9390
 5119SOL     OW26989   3.631   4.513   8.799 -0.5098  0.5894 -0.2222
 5119SOL    HW126990   3.719   4.550   8.791 -0.3426  0.3838  0.5742
 5119SOL    HW226991   3.595   4.536   8.885 -1.7574  0.6819 -0.7716
 5120SOL     OW26992   1.261   2.398  14.567 -0.3007 -0.0256 -0.8723
 5120SOL    HW126993   1.281   2.399  14.660 -0.3188 -0.7562 -0.8558
 5120SOL    HW226994   1.247   2.305  14.547  4.0519 -1.5735  3.3316
 5121SOL     OW26995   1.652   2.435   9.273 -0.1249 -0.5195 -0.2331
 5121SOL    HW126996   1.694   2.486   9.342 -1.4957  0.2785  0.0070
 5121SOL    HW226997   1.636   2.500   9.204 -1.3458 -1.9151 -1.2752
 5122SOL     OW26998   0.594   4.171   5.843  0.0665 -0.2674 -0.1607
 5122SOL    HW126999   0.537   4.142   5.914  2.4169  0.0890  1.8854
 5122SOL    HW227000   0.645   4.231   5.898 -1.3516  1.6644 -0.9489
 5123SOL     OW27001   3.985   2.879  13.360 -0.4891 -0.2216 -0.2374
 5123SOL    HW127002   3.969   2.949  13.423  1.0222  2.3760 -2.7053
 5123SOL    HW227003   3.898   2.863  13.324 -0.3992 -2.0427  0.3216
 5124SOL     OW27004   3.314   2.328   6.245 -0.3976 -0.6156 -0.0732
 5124SOL    HW127005   3.281   2.266   6.181 -0.3491 -0.3277 -0.3791
 5124SOL    HW227006   3.345   2.389   6.178  1.7187 -1.1736  0.3934
 5125SOL     OW27007   3.396   1.674  17.291 -0.1764  0.0681 -0.2644
 5125SOL    HW127008   3.361   1.637  17.210 -0.4716  1.1274 -0.6314
 5125SOL    HW227009   3.480   1.629  17.291  0.6670  1.6160 -1.4407
 5126SOL     OW27010   2.937   1.241   4.644 -0.2440 -0.1408 -0.1468
 5126SOL    HW127011   2.844   1.225   4.627 -0.6341  1.3515  0.5690
 5126SOL    HW227012   2.968   1.180   4.578 -0.7955 -0.3462 -0.2189
 5127SOL     OW27013   2.704   3.894   7.013  0.1416  0.6981 -0.0524
 5127SOL    HW127014   2.640   3.844   6.963 -0.4075  1.6730 -0.3302
 5127SOL    HW227015   2.724   3.829   7.080  1.4179 -0.3358 -1.4306
 5128SOL     OW27016   0.799   4.223   3.162  0.2484  0.0917  0.1954
 5128SOL    HW127017   0.716   4.204   3.119 -1.9005  0.9788  4.0212
 5128SOL    HW227018   0.776   4.282   3.233  1.1823  0.0060  0.5717
 5129SOL     OW27019   0.279   4.657   2.727 -0.2408 -0.4408  0.2024
 5129SOL    HW127020   0.348   4.719   2.704 -0.4897 -0.5828 -0.9110
 5129SOL    HW227021   0.209   4.697   2.675 -0.6380  0.0586  1.1222
 5130SOL     OW27022   3.159   3.762  13.056 -0.0062 -0.6779 -0.1737
 5130SOL    HW127023   3.180   3.828  13.123  0.8665  0.2542 -1.3687
 5130SOL    HW227024   3.063   3.767  13.058  0.0144 -1.0059  1.6178
 5131SOL     OW27025   3.443   1.461   8.924  0.1689 -0.0112 -0.6727
 5131SOL    HW127026   3.498   1.417   8.859 -0.9103  1.3277 -2.5089
 5131SOL    HW227027   3.501   1.492   8.993  0.1559 -0.4794 -0.4580
 5132SOL     OW27028   0.742   4.634   4.610 -0.3948  0.2883 -0.0959
 5132SOL    HW127029   0.709   4.552   4.646 -0.0957  0.2397  0.0710
 5132SOL    HW227030   0.708   4.700   4.671 -0.5764 -1.1777  1.3833
 5133SOL     OW27031   2.541   4.427   7.806 -0.6429 -0.6394  0.2111
 5133SOL    HW127032   2.606   4.366   7.771 -0.4151  0.5458 -1.3976
 5133SOL    HW227033   2.557   4.434   7.900  1.5599 -0.0691 -0.2134
 5134SOL     OW27034   1.693   0.293  11.158  0.2847  0.0864 -0.4122
 5134SOL    HW127035   1.743   0.251  11.088  0.0704  0.1682 -0.6156
 5134SOL    HW227036   1.713   0.228  11.225 -0.4227  0.2014 -0.0915
 5135SOL     OW27037   0.920   0.011   1.859 -0.6849 -0.3642  0.2057
 5135SOL    HW127038   0.905   0.087   1.915  0.0313 -0.3867  0.4199
 5135SOL    HW227039   0.999   0.044   1.817 -0.3086 -0.0301  1.1902
 5136SOL     OW27040   3.079   2.563   5.655 -0.0888 -0.3022 -0.1955
 5136SOL    HW127041   3.023   2.506   5.707 -1.8085  0.0134 -1.6649
 5136SOL    HW227042   3.131   2.607   5.722  1.3142  0.7287 -1.9394
 5137SOL     OW27043   2.237   4.267   4.596 -0.0453  0.7052 -0.0030
 5137SOL    HW127044   2.323   4.273   4.556 -0.5368  0.4291 -1.1025
 5137SOL    HW227045   2.253   4.226   4.682 -1.2522  2.3245  0.9887
 5138SOL     OW27046   4.665   1.290   7.799  0.6769  0.2313  0.4622
 5138SOL    HW127047   4.663   1.355   7.729 -0.5380 -0.4114 -0.1004
 5138SOL    HW227048   4.726   1.225   7.765  3.1656  4.0044 -2.2999
 5139SOL     OW27049   3.481   2.053   4.608 -0.6925  0.0937 -0.2880
 5139SOL    HW127050   3.472   1.982   4.672  4.5060 -1.9538 -1.8281
 5139SOL    HW227051   3.401   2.026   4.564 -0.4105 -0.3137 -0.5514
 5140SOL     OW27052   2.629   2.932   4.632 -0.4507 -0.5312  0.0619
 5140SOL    HW127053   2.594   2.993   4.567 -0.4352 -0.9849 -0.3798
 5140SOL    HW227054   2.545   2.899   4.664  0.1970 -1.1946  1.0621
 5141SOL     OW27055   3.495   0.354   4.655  0.4847 -0.1458 -0.3603
 5141SOL    HW127056   3.479   0.295   4.729  1.0425 -0.7969 -0.7527
 5141SOL    HW227057   3.413   0.399   4.672 -0.7415 -2.3746 -0.3715
 5142SOL     OW27058   1.455   4.519   6.360 -0.0538 -0.2488 -0.1383
 5142SOL    HW127059   1.446   4.614   6.368 -1.4599 -0.4991  1.1324
 5142SOL    HW227060   1.550   4.510   6.363 -0.1168 -1.4661 -1.7014
 5143SOL     OW27061   3.913   1.631  12.723  0.1455  0.5628 -0.0139
 5143SOL    HW127062   3.955   1.680  12.795  0.2387  1.3103 -0.5776
 5143SOL    HW227063   3.821   1.652  12.735  0.0233  1.3301 -2.2031
 5144SOL     OW27064   2.905   1.678   5.946 -0.4978  0.2132 -0.4777
 5144SOL    HW127065   2.826   1.691   5.999 -0.1592 -2.9868  0.8324
 5144SOL    HW227066   2.948   1.611   5.999 -1.4856  0.2454  0.3727
 5145SOL     OW27067   1.259   4.254   7.396  0.1196  0.0209  0.0627
 5145SOL    HW127068   1.193   4.254   7.465  1.1537  0.9755  1.0332
 5145SOL    HW227069   1.317   4.317   7.438  1.9472 -0.5502 -1.6077
 5146SOL     OW27070   2.482   4.147  11.888 -0.1494 -0.2471  0.4032
 5146SOL    HW127071   2.491   4.239  11.865  0.4717 -0.5510 -0.5566
 5146SOL    HW227072   2.394   4.128  11.854  0.5603 -1.2788 -0.8323
 5147SOL     OW27073   3.144   2.638   6.280  0.2336 -0.4830 -0.4572
 5147SOL    HW127074   3.125   2.708   6.218  4.3491  1.1474  0.1525
 5147SOL    HW227075   3.234   2.656   6.306  0.2965 -0.2617 -0.8261
 5148SOL     OW27076   0.865   3.366  17.416  0.1204 -0.6528  0.6358
 5148SOL    HW127077   0.917   3.390  17.492 -0.2929  0.6193  0.5101
 5148SOL    HW227078   0.857   3.273  17.437 -0.2312 -0.6091  0.7005
 5149SOL     OW27079   1.967   3.918   5.108  0.0856  0.1147 -0.1435
 5149SOL    HW127080   1.947   3.825   5.118  1.1522 -0.2496 -1.4092
 5149SOL    HW227081   1.893   3.950   5.159 -0.1497 -2.6910  1.2563
 5150SOL     OW27082   1.946   4.077   8.539  0.3253  0.4594 -0.4108
 5150SOL    HW127083   1.976   4.147   8.480 -3.4982  3.5722  1.3798
 5150SOL    HW227084   1.990   4.087   8.623  1.5717  1.4128 -1.1671
 5151SOL     OW27085   1.467   3.786   7.206 -0.0609 -0.0775 -0.2019
 5151SOL    HW127086   1.462   3.867   7.256 -1.4547  0.8919 -1.8884
 5151SOL    HW227087   1.557   3.792   7.172 -0.3105  0.2573 -0.8070
 5152SOL     OW27088   0.199   0.769   7.150 -0.3185 -0.1001 -0.4511
 5152SOL    HW127089   0.166   0.822   7.078 -1.3022 -0.0235  0.0565
 5152SOL    HW227090   0.238   0.695   7.103  1.5566  0.6576 -0.0887
 5153SOL     OW27091   0.602   2.687   3.312 -0.4255 -0.5174 -0.2400
 5153SOL    HW127092   0.520   2.734   3.324 -1.0157 -1.6465  0.2217
 5153SOL    HW227093   0.586   2.600   3.350 -0.8611 -0.5214 -0.4263
 5154SOL     OW27094   3.578   0.705   6.920 -0.1584 -0.4356 -0.0049
 5154SOL    HW127095   3.561   0.799   6.911 -1.5906 -0.8185 -1.2501
 5154SOL    HW227096   3.604   0.685   6.830  0.5665 -0.9534  0.3165
 5155SOL     OW27097   4.632   3.437   8.710 -0.0450  0.3771  0.8357
 5155SOL    HW127098   4.699   3.469   8.651 -1.2946  2.2632  0.4023
 5155SOL    HW227099   4.645   3.343   8.716 -1.2993  0.0218 -2.3094
 5156SOL     OW27100   1.968   0.259   8.353  0.6567  0.1748 -0.8296
 5156SOL    HW127101   1.944   0.204   8.428  1.4662 -0.2812 -0.8994
 5156SOL    HW227102   1.900   0.251   8.286  0.6326  1.5997 -0.9776
 5157SOL     OW27103   3.734   0.056   2.326 -0.1125 -0.0459 -0.0178
 5157SOL    HW127104   3.793   4.740   2.375 -2.4094 -2.3324  0.1161
 5157SOL    HW227105   3.657   0.005   2.353  0.8179 -0.9795  0.8575
 5158SOL     OW27106   2.453   3.697   0.502 -0.3745  0.2917  0.6652
 5158SOL    HW127107   2.452   3.613   0.454 -1.8106 -0.5921  2.2603
 5158SOL    HW227108   2.410   3.672   0.583 -0.0694 -0.1185  0.7053
 5159SOL     OW27109   4.272   1.794   6.648 -0.4891  0.5029  0.4923
 5159SOL    HW127110   4.343   1.781   6.712 -1.8916 -0.2586  1.8932
 5159SOL    HW227111   4.225   1.860   6.698  0.8698 -0.3163  2.8607
 5160SOL     OW27112   3.516   1.596   8.535 -0.8852  0.4880 -0.2440
 5160SOL    HW127113   3.567   1.667   8.574 -0.1288 -0.1838 -0.0303
 5160SOL    HW227114   3.504   1.538   8.610 -0.0837 -0.2314 -0.6801
 5161SOL     OW27115   2.393   2.802  17.718 -0.2621  0.1133  0.1461
 5161SOL    HW127116   2.401   2.781   0.051 -0.0078  1.0374  0.3334
 5161SOL    HW227117   2.299   2.802  17.705 -0.8028 -0.5460  3.9635
 5162SOL     OW27118   3.620   2.348   4.344 -0.1473  0.4280 -0.0610
 5162SOL    HW127119   3.655   2.437   4.335 -0.3408  0.5632  0.4980
 5162SOL    HW227120   3.663   2.330   4.428  2.4124  0.4427 -1.4107
 5163SOL     OW27121   2.809   2.110   7.987 -0.3366 -0.2435  0.6208
 5163SOL    HW127122   2.895   2.122   7.946 -0.4366 -2.2639 -0.1782
 5163SOL    HW227123   2.769   2.192   7.958 -1.7079 -0.4981  1.8203
 5164SOL     OW27124   2.017   1.592   5.396  0.4102 -0.4493  0.3872
 5164SOL    HW127125   1.947   1.533   5.369  0.1367  0.7443 -1.5363
 5164SOL    HW227126   2.095   1.538   5.404  1.2884  0.4794 -1.7689
 5165SOL     OW27127   0.578   4.402  11.314  0.2248 -0.0711  0.5019
 5165SOL    HW127128   0.641   4.333  11.336 -0.8723 -1.7172 -1.5959
 5165SOL    HW227129   0.637   4.475  11.334  0.4282  0.4116 -1.8912
 5166SOL     OW27130   2.814   3.500  15.023 -0.0245 -0.1613  0.0092
 5166SOL    HW127131   2.808   3.594  15.009  0.2015  0.2168  2.4104
 5166SOL    HW227132   2.726   3.474  14.997  1.1717 -1.2535 -2.9630
 5167SOL     OW27133   0.046   2.823   3.906 -0.0694  0.0305 -0.3831
 5167SOL    HW127134   0.079   2.841   3.994  1.0615  1.3239 -1.0609
 5167SOL    HW227135   0.113   2.867   3.853 -0.2567  0.2266 -0.4581
 5168SOL     OW27136   2.665   3.843   5.124 -0.2679  0.1906 -0.0974
 5168SOL    HW127137   2.643   3.852   5.216 -1.1958 -1.5101 -0.1517
 5168SOL    HW227138   2.603   3.776   5.094  1.1564 -0.0667 -2.5039
 5169SOL     OW27139   2.210   2.706   6.875  0.0625 -0.0312  0.2513
 5169SOL    HW127140   2.198   2.786   6.926  0.5935  0.4283 -0.3439
 5169SOL    HW227141   2.132   2.716   6.821 -0.0377  0.4864  0.4914
 5170SOL     OW27142   0.964   1.002   3.800 -0.0691  0.8794  0.3961
 5170SOL    HW127143   1.020   1.076   3.823  0.9762  0.5333 -1.0718
 5170SOL    HW227144   1.012   0.932   3.844  1.4719  0.3413 -2.1301
 5171SOL     OW27145   0.085   3.945  12.182 -0.0162  0.2318 -0.0744
 5171SOL    HW127146   0.002   3.975  12.145 -0.2668  2.3109  2.2567
 5171SOL    HW227147   0.147   4.016  12.167 -1.3440  0.9666 -2.1871
 5172SOL     OW27148   1.373   2.925   9.714 -0.1354 -0.2845  0.0750
 5172SOL    HW127149   1.321   2.862   9.764 -1.0697  0.1871 -0.2902
 5172SOL    HW227150   1.417   2.865   9.654  0.8751  1.5144 -0.9749
 5173SOL     OW27151   3.525   2.797   3.180  0.1532 -0.1060 -0.4488
 5173SOL    HW127152   3.446   2.850   3.175 -0.2997 -0.8945 -1.7182
 5173SOL    HW227153   3.593   2.862   3.163  2.5103 -2.6066 -0.6270
 5174SOL     OW27154   2.403   0.075   8.802 -0.6528 -0.2059 -0.1838
 5174SOL    HW127155   2.344   0.050   8.873  0.7348 -1.1962  0.6158
 5174SOL    HW227156   2.351   0.134   8.747  0.4331 -0.9836 -2.0457
 5175SOL     OW27157   0.029   3.997   7.521  0.3792 -0.4637 -0.6434
 5175SOL    HW127158   4.735   3.946   7.448 -1.9735 -0.7842  0.6975
 5175SOL    HW227159   0.086   3.928   7.557  0.6382  0.5914  0.9643
 5176SOL     OW27160   2.408   4.568   6.782 -0.3402 -0.1569  0.0069
 5176SOL    HW127161   2.452   4.592   6.863 -2.7695 -0.5430  1.4493
 5176SOL    HW227162   2.376   4.655   6.760 -0.0281 -0.0230  0.0922
 5177SOL     OW27163   4.057   3.335   3.971 -0.5625 -0.0769  0.0978
 5177SOL    HW127164   4.004   3.404   4.011  1.8409  2.2685 -0.8206
 5177SOL    HW227165   4.145   3.348   4.006 -0.7419  2.3001 -0.3607
 5178SOL     OW27166   4.471   2.679  17.263  0.5094  0.3255 -0.0617
 5178SOL    HW127167   4.550   2.733  17.264  0.3783  0.5354 -1.1060
 5178SOL    HW227168   4.483   2.622  17.338  2.5948  3.1540  1.7527
 5179SOL     OW27169   2.922   2.867   9.216 -0.5562  0.2227 -0.2871
 5179SOL    HW127170   2.864   2.850   9.290  0.4008 -1.4684  0.0712
 5179SOL    HW227171   2.931   2.960   9.238  1.7734  0.0051 -0.3082
 5180SOL     OW27172   2.412   2.614   2.121  0.3506 -0.3738  0.0724
 5180SOL    HW127173   2.349   2.612   2.193  0.2552  2.5376  0.0997
 5180SOL    HW227174   2.364   2.658   2.051  0.6836 -1.1093 -0.6223
 5181SOL     OW27175   2.299   1.683  15.555  0.6665 -0.3852 -0.2270
 5181SOL    HW127176   2.248   1.745  15.606  2.9333  1.6793 -0.4505
 5181SOL    HW227177   2.380   1.691  15.606  0.3669  0.7954  0.0439
 5182SOL     OW27178   1.356   1.121   8.876  0.0770  0.0998 -0.1014
 5182SOL    HW127179   1.286   1.162   8.826 -0.5988 -1.6025 -0.5657
 5182SOL    HW227180   1.384   1.044   8.826  1.4117  1.1337 -0.9674
 5183SOL     OW27181   2.923   2.325  12.963  0.1528 -0.0572 -0.3283
 5183SOL    HW127182   2.963   2.407  12.938 -2.1065  1.1588  0.0438
 5183SOL    HW227183   2.927   2.271  12.884  1.9705  0.9325 -0.9035
 5184SOL     OW27184   3.558   3.955   7.331 -0.3093 -0.2141 -0.2055
 5184SOL    HW127185   3.482   4.011   7.314 -0.2454  0.0893  0.5196
 5184SOL    HW227186   3.626   4.016   7.303  1.4288 -2.3751 -0.7110
 5185SOL     OW27187   2.545   1.609   1.960 -0.2386 -0.1697 -0.3328
 5185SOL    HW127188   2.466   1.595   1.908 -0.5992 -2.2632  0.7719
 5185SOL    HW227189   2.512   1.667   2.029 -1.9226  0.4527 -1.6739
 5186SOL     OW27190   2.377   1.234   8.446  0.2378  0.6945 -0.1699
 5186SOL    HW127191   2.424   1.308   8.483  0.0653  0.7399 -0.0445
 5186SOL    HW227192   2.326   1.274   8.375 -0.0872 -0.8155 -0.7891
 5187SOL     OW27193   2.478   4.729  11.857 -0.6448 -0.4981  0.3132
 5187SOL    HW127194   2.571   0.012  11.859 -0.4521 -1.1717 -1.1448
 5187SOL    HW227195   2.477   4.636  11.878  1.1631 -1.0599 -2.0180
 5188SOL     OW27196   1.455   3.974   4.539  0.5847  0.3290  0.6029
 5188SOL    HW127197   1.479   3.999   4.450 -0.0237 -1.3241 -0.0290
 5188SOL    HW227198   1.449   4.060   4.581  0.9741  0.5192  0.2696
 5189SOL     OW27199   2.349   0.174   7.040 -0.8810  0.6261 -0.6136
 5189SOL    HW127200   2.305   0.138   7.117  1.0057  0.0427  0.2083
 5189SOL    HW227201   2.281   0.235   7.012 -0.5801  0.4754 -1.6908
 5190SOL     OW27202   2.461   4.571   1.147 -0.4478 -0.6495 -0.0929
 5190SOL    HW127203   2.513   4.534   1.219 -1.2894 -3.6699 -1.0136
 5190SOL    HW227204   2.383   4.529   1.183 -2.2267  2.6377 -0.1811
 5191SOL     OW27205   1.563   3.847   4.092  0.0171  0.4462  0.8632
 5191SOL    HW127206   1.656   3.860   4.112  0.2832 -0.1212 -0.0142
 5191SOL    HW227207   1.567   3.887   4.005  0.4457 -0.6909  0.3677
 5192SOL     OW27208   4.671   2.522  10.268 -0.2942 -0.5723  0.2117
 5192SOL    HW127209   4.602   2.542  10.332 -0.8339  3.6446 -1.6738
 5192SOL    HW227210   0.011   2.558  10.305 -1.7258  2.3946  0.4485
 5193SOL     OW27211   1.598   2.601   1.926  0.4041 -0.8648  0.0212
 5193SOL    HW127212   1.691   2.601   1.945  0.6756  0.7507 -1.2310
 5193SOL    HW227213   1.601   2.575   1.834 -0.3555 -1.1801  0.0803
 5194SOL     OW27214   1.626   2.747   2.663 -0.2097  0.1978 -0.5359
 5194SOL    HW127215   1.699   2.788   2.708  0.2640 -0.5364 -0.6457
 5194SOL    HW227216   1.595   2.678   2.720 -2.1093  0.4897 -1.2062
 5195SOL     OW27217   0.613   4.139   2.566  0.1636  0.2995 -0.3288
 5195SOL    HW127218   0.519   4.133   2.551 -0.0920 -0.6648  1.6918
 5195SOL    HW227219   0.650   4.085   2.496 -2.3526 -1.5993 -0.2008
 5196SOL     OW27220   0.267   1.694   1.166 -0.4506  0.6998  0.2365
 5196SOL    HW127221   0.340   1.745   1.130  0.4371  0.7081  2.0526
 5196SOL    HW227222   0.189   1.718   1.116 -0.3485 -0.7400 -0.6169
 5197SOL     OW27223   4.122   1.695   1.734  0.2019  0.2103 -0.1761
 5197SOL    HW127224   4.043   1.714   1.683  0.3135 -1.2486 -0.9058
 5197SOL    HW227225   4.088   1.649   1.811  1.6450  1.0405  0.9550
 5198SOL     OW27226   0.185   4.622   1.694 -0.2828 -0.4250 -0.5641
 5198SOL    HW127227   0.104   4.572   1.690  0.7660 -2.2775  1.0449
 5198SOL    HW227228   0.250   4.560   1.660  1.5057  0.8836  0.4547
 5199SOL     OW27229   3.878   3.962   8.339  0.0809 -0.2545  0.0737
 5199SOL    HW127230   3.948   3.924   8.286 -1.1714  1.2269 -2.6152
 5199SOL    HW227231   3.884   3.900   8.412 -0.3160  0.8986  1.0913
 5200SOL     OW27232   2.846   0.914   6.443 -0.6500 -0.1645 -0.2079
 5200SOL    HW127233   2.813   0.958   6.521 -1.4277 -2.6871  0.8798
 5200SOL    HW227234   2.933   0.890   6.474  0.0182  2.8941  0.2863
 5201SOL     OW27235   2.835   4.402   4.049 -0.1465 -0.5189  0.3687
 5201SOL    HW127236   2.778   4.477   4.066  0.1607 -0.3636  0.7431
 5201SOL    HW227237   2.803   4.372   3.964  1.0299 -0.6134 -0.0425
 5202SOL     OW27238   3.003   3.362   3.370  0.2733  0.4198 -0.0946
 5202SOL    HW127239   2.977   3.413   3.293 -1.3763  0.0800  0.2382
 5202SOL    HW227240   2.946   3.397   3.438  0.2652 -1.5572  0.9047
 5203SOL     OW27241   3.642   2.997   5.862 -0.0754 -0.0631  0.2198
 5203SOL    HW127242   3.552   3.010   5.890 -0.0802 -1.8258  1.0657
 5203SOL    HW227243   3.635   2.913   5.815  1.0196 -0.7295  1.2355
 5204SOL     OW27244   3.651   2.738   3.762  0.0377 -0.4289  0.5219
 5204SOL    HW127245   3.722   2.686   3.799  0.1572 -0.5115  0.1734
 5204SOL    HW227246   3.580   2.694   3.809 -0.4364 -0.2439 -0.0249
 5205SOL     OW27247   0.158   0.864   6.499  0.2568 -0.2077  0.5766
 5205SOL    HW127248   0.186   0.772   6.499 -0.5435 -0.4380 -0.6808
 5205SOL    HW227249   0.244   0.901   6.478  0.2544 -1.1736 -1.1518
 5206SOL     OW27250   1.277   1.402   4.843  0.2454  0.0150 -0.3645
 5206SOL    HW127251   1.202   1.353   4.876 -0.3405  0.9790 -0.2436
 5206SOL    HW227252   1.308   1.349   4.770  1.2872 -1.9726  1.5239
 5207SOL     OW27253   2.345   2.408   6.445 -0.1120  0.1383 -0.0744
 5207SOL    HW127254   2.286   2.415   6.370  3.2778 -0.8533 -2.8417
 5207SOL    HW227255   2.355   2.314   6.461  0.3907  0.1916 -0.0750
 5208SOL     OW27256   3.992   4.724  16.890  0.1721 -0.4272  0.3248
 5208SOL    HW127257   4.026   4.675  16.815  0.5265 -0.8768  0.7781
 5208SOL    HW227258   3.898   4.734  16.874  0.3556 -1.0861 -1.1210
 5209SOL     OW27259   4.066   3.961   9.082 -0.3196  0.0246 -0.1349
 5209SOL    HW127260   4.120   3.942   9.006 -0.0241  0.5467 -0.0564
 5209SOL    HW227261   4.140   3.991   9.136  0.6954  0.0686 -1.5539
 5210SOL     OW27262   0.399   0.810   8.233 -0.4277  0.2278 -0.8093
 5210SOL    HW127263   0.391   0.849   8.320  1.8061 -0.1565 -0.4167
 5210SOL    HW227264   0.333   0.855   8.180 -0.9912  2.9618  2.2835
 5211SOL     OW27265   4.242   2.834   1.578 -0.5219  0.3764 -0.0153
 5211SOL    HW127266   4.169   2.784   1.543  0.3237 -0.9649  0.1231
 5211SOL    HW227267   4.298   2.768   1.620 -1.2971 -0.2148  0.0935
 5212SOL     OW27268   2.266   4.334   7.694  0.3528 -0.0092 -0.5492
 5212SOL    HW127269   2.186   4.324   7.746 -0.7432 -0.1906 -2.2704
 5212SOL    HW227270   2.302   4.407   7.744 -0.9306  0.4272 -0.2691
 5213SOL     OW27271   3.051   4.477  17.582  0.6338 -0.5334  0.2713
 5213SOL    HW127272   3.126   4.507  17.532  0.4700 -0.3576  0.1291
 5213SOL    HW227273   2.980   4.472  17.518  1.1058  1.0469 -0.3838
 5214SOL     OW27274   4.340   4.229   5.339 -0.4115 -0.3786 -0.3254
 5214SOL    HW127275   4.314   4.170   5.410 -0.3893 -0.0047 -0.0102
 5214SOL    HW227276   4.422   4.186   5.317  0.9465  0.6396  2.7440
 5215SOL     OW27277   3.959   4.001   2.711  0.1094  0.2944  0.0307
 5215SOL    HW127278   3.912   3.975   2.790 -0.2731 -0.5402 -0.4659
 5215SOL    HW227279   3.915   4.084   2.696 -1.0410 -0.4494 -0.7255
 5216SOL     OW27280   2.039   0.164   9.170  0.0518 -0.7133  0.0965
 5216SOL    HW127281   2.073   0.153   9.259  1.1083 -1.2135 -0.3719
 5216SOL    HW227282   2.123   0.168   9.125  0.2786  1.0717  0.7013
 5217SOL     OW27283   3.297   0.787   3.195 -0.0709  0.2864 -0.1650
 5217SOL    HW127284   3.314   0.745   3.111  2.5750  1.1765 -0.0847
 5217SOL    HW227285   3.204   0.778   3.217 -0.4022  1.2296 -1.1586
 5218SOL     OW27286   3.293   1.086   6.626  0.2752 -0.2720 -0.4384
 5218SOL    HW127287   3.304   1.003   6.580  0.5668 -0.1279 -0.6345
 5218SOL    HW227288   3.383   1.118   6.635  0.3406 -0.9954  1.3546
 5219SOL     OW27289   1.378   2.618   2.916 -0.5639  0.2888 -0.0087
 5219SOL    HW127290   1.377   2.644   3.008  0.4258  0.0159  0.0733
 5219SOL    HW227291   1.342   2.689   2.863 -1.3130  0.0553  0.1773
 5220SOL     OW27292   1.812   4.089   6.908  0.1825 -0.1217  0.2142
 5220SOL    HW127293   1.760   4.169   6.903 -0.5490 -0.5764  0.4968
 5220SOL    HW227294   1.866   4.094   6.987  1.7093  0.1599 -0.8570
 5221SOL     OW27295   3.133   1.897   7.218 -0.0251  0.3189 -0.7656
 5221SOL    HW127296   3.103   1.864   7.303 -2.4809 -1.0065 -2.1360
 5221SOL    HW227297   3.192   1.832   7.180  0.4097  0.1444  0.1931
 5222SOL     OW27298   3.220   0.129   5.823  0.2943  0.0018 -0.0059
 5222SOL    HW127299   3.266   0.212   5.814  0.0068  0.0533 -1.0126
 5222SOL    HW227300   3.170   0.121   5.742  2.1786  0.8919 -1.2691
 5223SOL     OW27301   1.172   2.148   3.396  0.1748 -0.1703  0.0200
 5223SOL    HW127302   1.115   2.193   3.333  0.7089  0.4507 -0.0204
 5223SOL    HW227303   1.234   2.215   3.424  2.9008 -2.5075 -0.4610
 5224SOL     OW27304   3.575   1.367   0.330  0.1565 -0.0660  0.3057
 5224SOL    HW127305   3.536   1.334   0.411  2.8199 -2.5221  0.5819
 5224SOL    HW227306   3.602   1.287   0.285 -3.0343 -1.5516  1.0334
 5225SOL     OW27307   3.244   0.552   7.241  0.0087  0.2299  0.2000
 5225SOL    HW127308   3.306   0.581   7.308  0.1846 -1.9594  0.9791
 5225SOL    HW227309   3.187   0.629   7.240 -0.8275 -0.3918 -0.1933
 5226SOL     OW27310   4.614   2.667   7.383  0.0742 -0.2455  0.0546
 5226SOL    HW127311   4.639   2.583   7.421 -2.1832 -2.1110 -2.6490
 5226SOL    HW227312   4.654   2.728   7.446  3.3340 -3.4360  1.0910
 5227SOL     OW27313   3.648   0.860  13.708 -0.2540  0.3210  0.2577
 5227SOL    HW127314   3.689   0.945  13.689  1.1250 -0.0029  1.8194
 5227SOL    HW227315   3.615   0.868  13.798  2.3019  0.7001  1.1456
 5228SOL     OW27316   1.028   0.144  14.621  0.4224  0.2520 -0.3627
 5228SOL    HW127317   0.984   0.166  14.703  1.0299  0.7117 -0.1689
 5228SOL    HW227318   1.114   0.185  14.627  0.6952 -0.5773  1.4680
 5229SOL     OW27319   4.513   3.320  12.748 -0.2567 -0.1886  0.0468
 5229SOL    HW127320   4.527   3.228  12.773 -1.7477 -0.3475  0.2599
 5229SOL    HW227321   4.473   3.308  12.662 -0.8633 -0.2103  0.3297
 5230SOL     OW27322   0.077   4.352   2.689 -0.3144  0.3779 -0.5969
 5230SOL    HW127323   4.740   4.341   2.635 -0.3974  1.2477 -0.6547
 5230SOL    HW227324   0.111   4.435   2.656  0.5724  0.7466  1.2433
 5231SOL     OW27325   0.351   3.360   4.883 -0.0437 -0.3699 -0.1631
 5231SOL    HW127326   0.278   3.334   4.940  0.6025  2.6681  2.0245
 5231SOL    HW227327   0.403   3.415   4.942  1.3482 -0.8456 -0.9389
 5232SOL     OW27328   4.379   4.387   4.798 -0.1032  0.0589 -0.5188
 5232SOL    HW127329   4.385   4.364   4.891 -0.8562  0.1438 -0.4434
 5232SOL    HW227330   4.463   4.427   4.778  0.4710 -1.5664 -1.3417
 5233SOL     OW27331   1.681   4.683   5.385  0.3373 -0.0677 -0.2680
 5233SOL    HW127332   1.645   4.647   5.305  1.4349 -1.0033 -0.3397
 5233SOL    HW227333   1.605   4.702   5.440  1.3663  0.9105  0.8246
 5234SOL     OW27334   0.311   4.181   2.487 -0.7112 -0.0438  0.6822
 5234SOL    HW127335   0.215   4.180   2.495 -0.6564  0.9788  1.3793
 5234SOL    HW227336   0.324   4.260   2.538  1.4840 -0.7447  1.1915
 5235SOL     OW27337   2.216   1.175  16.555  0.2759 -0.7238 -0.1877
 5235SOL    HW127338   2.286   1.118  16.588  0.6248 -0.6574 -0.8032
 5235SOL    HW227339   2.159   1.115  16.508  0.8439  0.8318 -2.8520
 5236SOL     OW27340   4.227   2.784   1.225  0.3488 -0.0482 -0.3170
 5236SOL    HW127341   4.213   2.690   1.232 -2.0583  0.3379  0.1035
 5236SOL    HW227342   4.180   2.808   1.145 -0.8581 -3.0612 -0.4990
 5237SOL     OW27343   1.989   0.034  13.354  0.1088  0.5748 -0.5726
 5237SOL    HW127344   2.008   0.027  13.448 -1.7037  2.1536 -0.0894
 5237SOL    HW227345   2.079   0.025  13.321 -0.0534  2.2681 -1.4638
 5238SOL     OW27346   2.408   3.659   6.040 -0.0873 -0.2410 -0.0143
 5238SOL    HW127347   2.472   3.598   6.002  0.7919  0.5999  0.1240
 5238SOL    HW227348   2.338   3.657   5.974  0.5166  1.3834 -0.6913
 5239SOL     OW27349   0.419   4.151   8.731 -0.0109 -0.1759 -0.1015
 5239SOL    HW127350   0.330   4.154   8.696 -0.1230  2.3590  0.3620
 5239SOL    HW227351   0.461   4.173   8.648  0.2750 -0.2763  0.0201
 5240SOL     OW27352   0.910   1.680  12.108 -0.2445  0.0785  0.3605
 5240SOL    HW127353   0.919   1.652  12.199  1.7826 -0.6726 -0.0867
 5240SOL    HW227354   0.843   1.748  12.118 -0.5018 -0.1314  0.0650
 5241SOL     OW27355   3.325   4.559   9.232 -0.0003  0.0278  0.8760
 5241SOL    HW127356   3.238   4.526   9.209  0.6230 -0.5360 -0.7260
 5241SOL    HW227357   3.350   4.494   9.298  0.2096 -0.4443  0.3345
 5242SOL     OW27358   4.112   2.481   0.351 -0.1507 -0.0198  0.0776
 5242SOL    HW127359   4.199   2.501   0.385  1.1350 -1.6634 -2.2492
 5242SOL    HW227360   4.136   2.406   0.297  1.9894 -0.3111  1.4152
 5243SOL     OW27361   4.317   3.785   7.280  0.0637  0.8473 -0.1596
 5243SOL    HW127362   4.256   3.821   7.345  1.3837  0.0052  1.5315
 5243SOL    HW227363   4.287   3.696   7.264 -2.0909  1.2274  1.8659
 5244SOL     OW27364   3.924   1.694   7.099  0.0493  0.0083  0.0794
 5244SOL    HW127365   3.895   1.785   7.109  0.7536  0.3302 -0.6885
 5244SOL    HW227366   3.911   1.689   7.004  0.4744 -0.4679  0.0491
 5245SOL     OW27367   1.574   1.873   8.944  0.0605  0.4359 -0.7592
 5245SOL    HW127368   1.603   1.835   8.860  0.8350  1.0861 -0.7864
 5245SOL    HW227369   1.480   1.868   8.928 -0.2424 -1.1992  1.6378
 5246SOL     OW27370   1.658   4.058   0.634 -0.3145 -0.1487 -0.0744
 5246SOL    HW127371   1.676   4.103   0.716 -0.8555  0.4685 -0.2929
 5246SOL    HW227372   1.700   4.124   0.578 -1.1251  2.1442  2.0114
 5247SOL     OW27373   4.500   0.720   8.143 -0.5958 -0.0956 -0.4583
 5247SOL    HW127374   4.563   0.679   8.084  0.4851  0.1306  0.5582
 5247SOL    HW227375   4.466   0.780   8.077  4.3249  1.4123 -1.5807
 5248SOL     OW27376   0.551   2.417   6.238 -0.3046  0.1464 -0.0077
 5248SOL    HW127377   0.586   2.468   6.165  2.1433 -0.0884  0.9953
 5248SOL    HW227378   0.575   2.469   6.315  0.4982 -0.9279  0.4739
 5249SOL     OW27379   4.172   3.983   5.841  0.5043  0.1586  0.1024
 5249SOL    HW127380   4.211   4.070   5.831  2.3460 -0.6216  0.4470
 5249SOL    HW227381   4.247   3.925   5.854 -0.1974 -0.5486  0.9885
 5250SOL     OW27382   2.142   2.150  13.289 -0.6309  0.7971  0.2704
 5250SOL    HW127383   2.191   2.231  13.300 -0.1759  0.4901  0.4982
 5250SOL    HW227384   2.198   2.102  13.228 -1.5898  0.0867 -0.0562
 5251SOL     OW27385   4.407   4.356  16.221 -0.6203  0.3670 -0.2396
 5251SOL    HW127386   4.324   4.364  16.173 -0.5075 -1.4053 -0.7463
 5251SOL    HW227387   4.380   4.302  16.296  1.2279 -1.9237 -1.2060
 5252SOL     OW27388   1.538   1.937   4.728 -0.5477  0.1022 -0.1163
 5252SOL    HW127389   1.592   2.008   4.762 -1.6123  0.7300  0.2704
 5252SOL    HW227390   1.471   1.944   4.796 -1.2691 -1.3595 -0.6813
 5253SOL     OW27391   1.682   4.485   7.114 -0.0923  0.1100 -0.2221
 5253SOL    HW127392   1.636   4.485   7.030 -2.1443 -1.8921  0.9194
 5253SOL    HW227393   1.661   4.572   7.145  0.5661  1.2700 -3.0096
 5254SOL     OW27394   3.855   2.875   2.396  0.0426 -0.3659 -0.9062
 5254SOL    HW127395   3.829   2.785   2.413  1.8501 -1.0358 -1.7348
 5254SOL    HW227396   3.950   2.878   2.390 -0.0850  0.9571 -2.3624
 5255SOL     OW27397   2.042   0.607   8.311 -0.7918  0.0452 -0.4208
 5255SOL    HW127398   2.014   0.684   8.262 -0.8216  0.3838  0.1248
 5255SOL    HW227399   1.966   0.589   8.367 -0.0368 -2.1603 -0.0986
 5256SOL     OW27400   4.686   4.261  17.743  0.7886  0.4224 -0.2397
 5256SOL    HW127401   4.621   4.233  17.678  1.2789  0.5532 -0.7942
 5256SOL    HW227402   4.684   4.185   0.040 -0.2573  0.3935 -0.3212
 5257SOL     OW27403   0.285   2.841  11.599 -0.4037 -0.9514 -0.5313
 5257SOL    HW127404   0.281   2.785  11.677  0.6420 -2.3066 -1.4580
 5257SOL    HW227405   0.203   2.836  11.551 -0.3789  1.4334 -0.8627
 5258SOL     OW27406   0.836   3.882   7.297  0.1433 -0.7300 -0.2647
 5258SOL    HW127407   0.843   3.793   7.330  1.0342 -0.5475  0.0309
 5258SOL    HW227408   0.928   3.908   7.297  0.0762 -0.4809  0.7080
 5259SOL     OW27409   2.652   3.805   1.591 -0.3930 -0.0517  0.5353
 5259SOL    HW127410   2.621   3.763   1.672 -0.6201 -0.2986  0.3218
 5259SOL    HW227411   2.598   3.756   1.529  0.1857  1.2496 -0.9777
 5260SOL     OW27412   3.712   4.595  12.783 -0.3978  0.1531  0.0239
 5260SOL    HW127413   3.645   4.533  12.812  1.1160 -1.2470  0.5046
 5260SOL    HW227414   3.655   4.660  12.742 -0.8802 -0.2654  0.0334
 5261SOL     OW27415   3.448   0.664   3.862 -0.4125 -0.5616  0.2478
 5261SOL    HW127416   3.445   0.691   3.771  0.8893  1.8281  0.9132
 5261SOL    HW227417   3.357   0.656   3.892  0.2280  0.2962  2.4410
 5262SOL     OW27418   3.297   1.319   3.131 -0.1448  0.2926 -0.9964
 5262SOL    HW127419   3.352   1.397   3.130  0.9597 -0.4507  1.4599
 5262SOL    HW227420   3.229   1.340   3.067 -1.8043  0.5507  0.8721
 5263SOL     OW27421   4.013   0.314   4.649 -0.4460  0.8515  0.3153
 5263SOL    HW127422   4.085   0.344   4.705  0.9371 -2.3149  0.2386
 5263SOL    HW227423   4.021   0.219   4.654 -1.2759  0.7355 -0.6669
 5264SOL     OW27424   4.698   0.140   7.738 -0.2210  0.6277  0.3927
 5264SOL    HW127425   4.737   0.053   7.747 -1.5262 -0.0852 -0.8142
 5264SOL    HW227426   4.723   0.165   7.650  1.6148 -1.6922  0.2652
 5265SOL     OW27427   4.355   0.806   2.462 -0.0230  0.0160  0.5650
 5265SOL    HW127428   4.292   0.739   2.489 -0.9550  0.4416 -0.5670
 5265SOL    HW227429   4.400   0.816   2.546 -1.7009  0.7267  1.3782
 5266SOL     OW27430   3.668   1.183   9.985  0.2121 -0.5651  0.4336
 5266SOL    HW127431   3.756   1.152   9.962  0.0769  0.1127 -1.0362
 5266SOL    HW227432   3.652   1.156  10.075 -1.6540  1.7846  0.8043
 5267SOL     OW27433   2.430   4.265   2.526  0.1904 -0.3520 -0.8980
 5267SOL    HW127434   2.478   4.342   2.556  0.3231  0.1559 -2.4347
 5267SOL    HW227435   2.399   4.299   2.442 -0.5573  0.9820 -0.0939
 5268SOL     OW27436   2.379   1.026   1.703 -0.4706 -0.2892 -0.2235
 5268SOL    HW127437   2.421   0.946   1.671  1.6593  1.0849 -0.9021
 5268SOL    HW227438   2.341   1.058   1.622 -0.1069 -0.8332 -0.6142
 5269SOL     OW27439   1.299   0.315  17.006 -0.1936 -0.2516 -0.6139
 5269SOL    HW127440   1.349   0.239  16.976  0.4554  0.2516 -0.8051
 5269SOL    HW227441   1.264   0.268  17.082 -1.4695  0.6812 -0.6359
 5270SOL     OW27442   1.923   3.279  11.900 -0.4901 -0.5670  0.3077
 5270SOL    HW127443   1.929   3.197  11.851 -1.4353 -0.7687  0.5426
 5270SOL    HW227444   1.868   3.266  11.977 -3.2674 -1.1567 -1.7665
 5271SOL     OW27445   3.485   3.407   0.951  0.3774  0.1293  0.2655
 5271SOL    HW127446   3.562   3.443   0.995  0.0446  1.5162 -0.2670
 5271SOL    HW227447   3.467   3.334   1.010  4.1560  0.4929  1.8393
 5272SOL     OW27448   0.086   4.315  14.729  0.0210 -0.1257 -0.1951
 5272SOL    HW127449   0.164   4.285  14.682  0.9293 -0.7105  1.7034
 5272SOL    HW227450   0.113   4.403  14.756  3.0341 -1.9011  2.5897
 5273SOL     OW27451   1.469   1.808   5.935 -0.1036 -0.1886 -0.6127
 5273SOL    HW127452   1.488   1.716   5.918 -2.8264 -0.3708 -2.5258
 5273SOL    HW227453   1.559   1.840   5.933 -0.4653  0.8686  0.1368
 5274SOL     OW27454   2.568   4.560   1.606 -0.2652 -0.3016 -0.2435
 5274SOL    HW127455   2.542   4.556   1.698 -3.1278  0.7546 -1.0263
 5274SOL    HW227456   2.649   4.508   1.608 -0.3288 -0.3098  2.5465
 5275SOL     OW27457   4.408   4.260   3.636  0.6017 -0.5256 -0.0395
 5275SOL    HW127458   4.357   4.322   3.689  1.5134 -0.2426  0.5108
 5275SOL    HW227459   4.427   4.308   3.556 -0.7916  2.5325  1.4784
 5276SOL     OW27460   1.556   0.475   0.165 -0.1640 -0.0726 -0.2671
 5276SOL    HW127461   1.629   0.414   0.151 -0.5312 -0.5504 -0.1178
 5276SOL    HW227462   1.570   0.523   0.084 -1.5992  2.8440  1.1875
 5277SOL     OW27463   3.162   0.212  14.882 -0.3062  0.1756  0.3618
 5277SOL    HW127464   3.228   0.199  14.814 -1.8838 -2.0385 -0.7158
 5277SOL    HW227465   3.197   0.144  14.939 -3.9117 -1.1643  0.9498
 5278SOL     OW27466   3.489   2.316   2.662  0.6500 -0.2657  0.0964
 5278SOL    HW127467   3.396   2.302   2.647  0.0007  0.6437  3.1881
 5278SOL    HW227468   3.494   2.377   2.589  0.2384 -1.5265 -0.9735
 5279SOL     OW27469   0.599   4.338   6.265  0.5798  0.0462 -0.7041
 5279SOL    HW127470   0.520   4.287   6.282 -0.7547  1.8336 -1.5438
 5279SOL    HW227471   0.632   4.282   6.194 -2.0162 -1.3204 -0.8422
 5280SOL     OW27472   3.876   0.793   7.416  0.5342 -0.6166  0.3470
 5280SOL    HW127473   3.884   0.888   7.416  1.4988 -0.6961  0.4537
 5280SOL    HW227474   3.793   0.773   7.374  1.0498 -0.7320 -0.6283
 5281SOL     OW27475   4.696   3.548   5.718 -0.1367 -0.0264  0.2827
 5281SOL    HW127476   0.049   3.534   5.702 -0.1420  1.0193 -0.6343
 5281SOL    HW227477   4.707   3.575   5.809  2.6957  0.3306 -0.1627
 5282SOL     OW27478   0.690   0.113   8.488  0.6306 -0.7990  0.0981
 5282SOL    HW127479   0.714   0.194   8.533  1.2557 -1.7908  1.5462
 5282SOL    HW227480   0.712   0.126   8.396  0.9751  0.2494  0.3312
 5283SOL     OW27481   2.370   3.859   0.314 -0.1514 -0.5798 -0.1212
 5283SOL    HW127482   2.333   3.810   0.241  0.6088  0.0976 -0.9542
 5283SOL    HW227483   2.392   3.793   0.379  0.8397 -0.5522 -0.4319
 5284SOL     OW27484   3.147   2.656   2.442 -0.4328  0.2359 -0.1884
 5284SOL    HW127485   3.190   2.642   2.357 -0.4405  1.9506 -0.4855
 5284SOL    HW227486   3.219   2.670   2.503  0.0793 -0.7884 -0.5694
 5285SOL     OW27487   0.175   3.541   8.302  0.1410 -0.5984 -0.3495
 5285SOL    HW127488   0.176   3.561   8.396  1.7698  0.2599 -0.5597
 5285SOL    HW227489   0.196   3.628   8.269  1.2605 -0.2743  1.2274
 5286SOL     OW27490   3.338   0.856   6.468 -0.3174  0.3815 -0.7333
 5286SOL    HW127491   3.311   0.764   6.469  2.1145 -0.3359 -0.7557
 5286SOL    HW227492   3.422   0.859   6.422 -0.0689  2.3657 -0.1569
 5287SOL     OW27493   3.335   4.407   3.911  0.4091 -0.2135 -0.8627
 5287SOL    HW127494   3.321   4.323   3.954 -2.4267  0.0469 -1.2990
 5287SOL    HW227495   3.379   4.443   3.988 -1.7872 -2.4699  1.4136
 5288SOL     OW27496   3.189   1.364   5.498  0.0352  0.4387  0.0463
 5288SOL    HW127497   3.265   1.415   5.526  0.7864  0.1303 -1.4663
 5288SOL    HW227498   3.158   1.329   5.582  0.3778  0.8409  0.3416
 5289SOL     OW27499   2.517   3.796   2.114 -0.8320  0.1897  0.3212
 5289SOL    HW127500   2.517   3.718   2.170 -0.1818 -0.6430 -0.8416
 5289SOL    HW227501   2.447   3.781   2.050  0.9701 -1.7597 -1.2087
 5290SOL     OW27502   1.548   4.066   4.801 -0.2527 -0.3405 -0.0830
 5290SOL    HW127503   1.638   4.082   4.828 -0.4444  1.9737 -0.7840
 5290SOL    HW227504   1.521   4.148   4.759  2.1340 -0.0585 -1.0131
 5291SOL     OW27505   1.882   3.150   7.014  0.2232  0.1053 -0.0519
 5291SOL    HW127506   1.911   3.078   7.070  1.4160  0.5243 -0.1468
 5291SOL    HW227507   1.852   3.104   6.935  1.9816  0.2895 -0.8159
 5292SOL     OW27508   2.142   2.928   5.107  0.5413  0.1775 -0.5106
 5292SOL    HW127509   2.221   2.982   5.117  0.7067 -0.5132  2.0481
 5292SOL    HW227510   2.093   2.966   5.180 -0.8094 -0.8056 -0.8971
 5293SOL     OW27511   4.561   4.079   0.126 -0.2370  0.2925  0.0382
 5293SOL    HW127512   4.503   4.003   0.122  0.5912 -0.2618 -1.6009
 5293SOL    HW227513   4.522   4.128   0.198 -1.0907 -0.7970  0.3200
 5294SOL     OW27514   1.077   3.067  13.118  0.1781  0.6618 -0.7496
 5294SOL    HW127515   1.042   3.080  13.206  0.9543  1.0670 -0.4951
 5294SOL    HW227516   1.145   3.005  13.147 -1.0208 -0.5121 -0.4431
 5295SOL     OW27517   1.503   0.337   4.109 -0.6546 -0.5901 -0.2570
 5295SOL    HW127518   1.449   0.287   4.170  0.8133 -2.9191 -0.8516
 5295SOL    HW227519   1.585   0.288   4.103  1.2824  2.3547  2.3787
 5296SOL     OW27520   3.326   3.619   3.584 -0.2221 -0.2543  0.7773
 5296SOL    HW127521   3.419   3.600   3.595 -0.0724 -0.1979 -0.3618
 5296SOL    HW227522   3.289   3.558   3.648 -1.3697  0.6986  1.0142
 5297SOL     OW27523   1.165   1.269   7.062  0.6861  0.1273  0.0774
 5297SOL    HW127524   1.154   1.297   7.153 -1.6761  0.0961 -0.1934
 5297SOL    HW227525   1.083   1.300   7.024  0.9901  1.4730  0.5221
 5298SOL     OW27526   3.401   2.116  17.341 -0.0896 -0.3143  0.1383
 5298SOL    HW127527   3.369   2.116  17.251  0.6612  3.4409 -0.1026
 5298SOL    HW227528   3.319   2.134  17.386 -1.1967 -0.2602 -1.8914
 5299SOL     OW27529   3.982   0.374   1.796  0.5409  0.0350  0.2319
 5299SOL    HW127530   4.042   0.323   1.741 -0.9144  1.1922 -2.4346
 5299SOL    HW227531   3.899   0.352   1.753 -0.2656 -0.0674  1.8547
 5300SOL     OW27532   0.505   1.547   7.540 -0.7701  0.2174  0.2560
 5300SOL    HW127533   0.544   1.613   7.597  0.5254  0.7112 -1.1880
 5300SOL    HW227534   0.471   1.487   7.607 -1.2771  0.0976 -0.1126
 5301SOL     OW27535   2.224   2.852   5.391  0.4306  0.3902 -0.6791
 5301SOL    HW127536   2.296   2.912   5.374 -1.0819  2.4217  0.1425
 5301SOL    HW227537   2.215   2.817   5.302  2.0047 -2.0812  0.1290
 5302SOL     OW27538   1.805   2.664   4.208  0.6552  0.3307 -0.1239
 5302SOL    HW127539   1.894   2.636   4.187  0.6489 -0.4369  0.8728
 5302SOL    HW227540   1.809   2.676   4.303 -1.7547 -1.6946  0.2337
 5303SOL     OW27541   1.988   0.081  17.423  0.4914 -0.3064 -0.3692
 5303SOL    HW127542   2.041   0.125  17.489 -0.8661  0.7015  0.0410
 5303SOL    HW227543   1.925   0.152  17.409  0.9930 -0.4318 -3.2222
 5304SOL     OW27544   4.341   0.602   1.342 -0.6519  0.1189  0.0142
 5304SOL    HW127545   4.423   0.647   1.364 -0.0323 -2.1077  2.2844
 5304SOL    HW227546   4.339   0.524   1.398 -2.0636 -2.1554 -3.2172
 5305SOL     OW27547   0.284   3.698  13.087  0.1060 -0.2830 -0.4955
 5305SOL    HW127548   0.235   3.757  13.030  0.8661 -0.4777 -1.3615
 5305SOL    HW227549   0.361   3.680  13.032  1.2102  0.5380  0.7816
 5306SOL     OW27550   3.499   1.833  14.852 -0.0646 -0.0530  0.0151
 5306SOL    HW127551   3.434   1.884  14.803 -1.0628 -2.6978 -1.3872
 5306SOL    HW227552   3.438   1.774  14.897 -0.8693 -0.4287 -1.5727
 5307SOL     OW27553   2.058   2.070   4.017  0.0846  0.2672  0.1677
 5307SOL    HW127554   2.010   2.081   4.099  2.1374 -0.4294  1.4943
 5307SOL    HW227555   2.074   2.160   3.986  0.9764  0.0459 -0.0228
 5308SOL     OW27556   4.653   2.037   4.088 -0.1775 -0.6472 -0.4570
 5308SOL    HW127557   4.675   1.958   4.039  0.7253 -2.1409  2.3196
 5308SOL    HW227558   4.576   2.006   4.136 -0.3055  0.9977  0.4073
 5309SOL     OW27559   1.590   0.797   4.886 -0.2356 -0.1834  0.0940
 5309SOL    HW127560   1.562   0.887   4.872  0.3505  0.0509  0.3924
 5309SOL    HW227561   1.525   0.751   4.833 -0.7344 -0.1745  0.6976
 5310SOL     OW27562   3.236   4.012  14.752 -0.2017  0.0681  0.1808
 5310SOL    HW127563   3.310   4.072  14.753  0.8748 -1.2946  2.8569
 5310SOL    HW227564   3.202   4.003  14.842 -0.0791  2.1151  0.4186
 5311SOL     OW27565   2.437   4.122   7.693  0.2481  0.2986  0.3210
 5311SOL    HW127566   2.423   4.105   7.786  0.3328 -0.9853  0.0966
 5311SOL    HW227567   2.368   4.189   7.692 -0.9032 -0.8422  3.9468
 5312SOL     OW27568   2.418   2.744  12.763  0.0930 -0.7693 -0.5061
 5312SOL    HW127569   2.383   2.770  12.678  1.5774  3.7415  0.3039
 5312SOL    HW227570   2.512   2.750  12.746  0.5670 -2.0688  1.7486
 5313SOL     OW27571   4.270   3.027   2.045  0.8904  0.3342 -0.3223
 5313SOL    HW127572   4.218   2.949   2.066  2.2363 -0.6215 -0.5119
 5313SOL    HW227573   4.218   3.095   2.088  0.3127 -0.6555  0.5461
 5314SOL     OW27574   0.744   2.127   8.141 -0.5183 -0.1159 -0.2503
 5314SOL    HW127575   0.725   2.213   8.103  1.4409  0.9127  1.0683
 5314SOL    HW227576   0.712   2.078   8.065  0.9980 -1.2241 -0.1885
 5315SOL     OW27577   0.081   4.508  16.590  0.2242 -0.1482  0.2249
 5315SOL    HW127578   0.091   4.602  16.581 -2.1535 -0.0274 -0.9111
 5315SOL    HW227579   0.000   4.490  16.543 -0.6558  1.8427  1.0031
 5316SOL     OW27580   2.236   1.692  13.330 -0.0770  0.0310 -0.4976
 5316SOL    HW127581   2.292   1.695  13.408 -0.7828 -1.2990  0.0570
 5316SOL    HW227582   2.162   1.745  13.359 -0.8754 -1.0906 -0.4862
 5317SOL     OW27583   3.598   0.660  13.521 -0.1002 -0.1424 -0.3816
 5317SOL    HW127584   3.584   0.713  13.443  1.5131  0.3140 -0.3601
 5317SOL    HW227585   3.632   0.730  13.576  0.0840  0.9791 -1.9342
 5318SOL     OW27586   2.303   1.342   5.878  0.3237 -0.1025 -0.6744
 5318SOL    HW127587   2.285   1.267   5.821  1.0516  1.0460 -2.4277
 5318SOL    HW227588   2.277   1.310   5.964  0.8339 -0.9287 -0.8334
 5319SOL     OW27589   2.285   0.744   1.937  0.4806 -0.5845 -0.8229
 5319SOL    HW127590   2.275   0.835   1.965 -0.4468 -1.1100  0.5150
 5319SOL    HW227591   2.379   0.747   1.921  0.7088 -1.1073  0.4522
 5320SOL     OW27592   1.752   1.246   3.758  0.2121 -0.3350 -0.1864
 5320SOL    HW127593   1.677   1.192   3.733 -0.1303 -0.7604  1.7996
 5320SOL    HW227594   1.734   1.325   3.707 -2.6110 -1.5522 -1.0807
 5321SOL     OW27595   0.252   4.084   1.622 -0.1043  0.0306 -0.7204
 5321SOL    HW127596   0.187   4.091   1.693  1.3718  1.3150  0.5153
 5321SOL    HW227597   0.292   3.998   1.634 -0.8367 -0.2644 -0.3953
 5322SOL     OW27598   2.086   3.835   6.509 -0.3066  0.5994 -0.3118
 5322SOL    HW127599   2.078   3.926   6.535 -0.3318  0.3283  0.6286
 5322SOL    HW227600   2.053   3.838   6.419 -0.1398  0.9128 -0.3615
 5323SOL     OW27601   1.265   0.997   1.013  0.3261 -0.1692  0.2313
 5323SOL    HW127602   1.266   0.957   0.926 -1.7516  0.4311 -0.0467
 5323SOL    HW227603   1.256   0.916   1.064 -0.2682  0.9472  1.9152
 5324SOL     OW27604   4.572   2.797  11.201 -0.4106  0.2205  0.0017
 5324SOL    HW127605   4.590   2.774  11.110 -0.4315 -1.6997  0.4756
 5324SOL    HW227606   4.663   2.802  11.230 -0.5687  1.6007  0.2724
 5325SOL     OW27607   0.249   3.837   7.424 -0.2515  0.3308 -0.2278
 5325SOL    HW127608   0.321   3.787   7.387  0.2597  1.2037 -0.4096
 5325SOL    HW227609   0.256   3.919   7.374 -0.1655  0.6868  0.3607
 5326SOL     OW27610   3.723   4.501  14.000 -0.0539 -0.1204  0.1783
 5326SOL    HW127611   3.809   4.505  14.042  0.1100  1.1657 -0.2685
 5326SOL    HW227612   3.743   4.482  13.908 -1.8435 -1.3527  0.0464
 5327SOL     OW27613   3.124   4.407  15.614 -0.9040 -0.3194  0.1963
 5327SOL    HW127614   3.154   4.416  15.704  0.5518 -0.4096 -0.2936
 5327SOL    HW227615   3.044   4.459  15.601 -1.1089 -0.5924  0.3397
 5328SOL     OW27616   2.432   2.098   2.117 -0.0271  0.6565  0.0365
 5328SOL    HW127617   2.455   2.189   2.099  1.2329  0.0586 -1.3452
 5328SOL    HW227618   2.336   2.100   2.110  0.0059 -0.5387 -0.8543
 5329SOL     OW27619   0.461   1.009  15.092 -0.1619  0.0997 -0.1614
 5329SOL    HW127620   0.455   0.914  15.098  0.7025  0.0990  0.6244
 5329SOL    HW227621   0.420   1.030  15.176 -0.0874  0.5276 -0.2321
 5330SOL     OW27622   0.180   3.284  12.165  0.2065  0.6505  0.3575
 5330SOL    HW127623   0.169   3.196  12.130 -0.7285  1.9021 -2.5815
 5330SOL    HW227624   0.134   3.340  12.102  1.5335  0.1899 -1.0443
 5331SOL     OW27625   3.726   3.022   7.498  0.6970 -0.0010  0.1815
 5331SOL    HW127626   3.696   3.057   7.414  1.4220 -0.3422 -0.2217
 5331SOL    HW227627   3.785   2.953   7.467  1.2757  0.9518 -0.8427
 5332SOL     OW27628   0.665   1.408   9.836  0.2208  0.4663  0.4251
 5332SOL    HW127629   0.581   1.388   9.795  0.2372  0.1468  0.5504
 5332SOL    HW227630   0.669   1.371   9.924 -0.1485 -0.0626  0.2181
 5333SOL     OW27631   1.510   2.345   7.036  0.3739  0.2484 -0.4305
 5333SOL    HW127632   1.536   2.281   6.970 -0.2758 -0.6061  0.1458
 5333SOL    HW227633   1.484   2.290   7.109  1.0911  0.0995 -0.2914
 5334SOL     OW27634   2.813   3.645   7.906  0.4729  0.0396 -0.1211
 5334SOL    HW127635   2.870   3.575   7.873 -1.2612 -1.9833  1.1136
 5334SOL    HW227636   2.851   3.662   7.992 -0.4718  3.2577 -0.3575
 5335SOL     OW27637   4.094   0.718  12.738  0.1579  0.4556  0.5316
 5335SOL    HW127638   4.177   0.755  12.707  0.0430 -1.7550 -2.3085
 5335SOL    HW227639   4.054   0.686  12.658 -0.8803 -2.4661  2.2144
 5336SOL     OW27640   3.025   1.949   6.724 -0.2287 -0.1933  0.3561
 5336SOL    HW127641   2.989   1.861   6.731 -0.7010 -0.1229 -1.1146
 5336SOL    HW227642   3.018   1.974   6.816  3.1806 -0.8268  0.7883
 5337SOL     OW27643   0.111   4.396   0.769  0.1252 -0.0690  0.3184
 5337SOL    HW127644   0.068   4.449   0.702  0.1295  0.3543  0.6483
 5337SOL    HW227645   0.191   4.450   0.770  1.1566 -1.5717 -0.7695
 5338SOL     OW27646   1.032   3.744   6.545 -0.2768 -0.0760  0.5470
 5338SOL    HW127647   1.033   3.651   6.524 -0.3814  0.2281 -0.8153
 5338SOL    HW227648   0.952   3.778   6.504 -1.0771 -1.7505  0.7311
 5339SOL     OW27649   3.970   0.003   2.542  0.4875 -0.2720 -0.5659
 5339SOL    HW127650   4.017   4.732   2.459  1.5528  2.7836 -0.3943
 5339SOL    HW227651   4.037   0.049   2.592 -1.7511  1.2694  0.9857
 5340SOL     OW27652   0.312   2.957   9.326 -0.0001  0.7917  0.2812
 5340SOL    HW127653   0.307   2.936   9.233 -0.4207  0.3891  0.3936
 5340SOL    HW227654   0.354   3.043   9.329 -0.7884  1.1885 -0.2679
 5341SOL     OW27655   4.289   2.305   7.266 -0.2374 -0.1685  0.4941
 5341SOL    HW127656   4.343   2.383   7.280  0.8394 -0.8076 -0.1056
 5341SOL    HW227657   4.348   2.243   7.309  2.7564  0.8993 -1.9891
 5342SOL     OW27658   0.449   0.466   2.918  0.0227 -0.0709 -0.3106
 5342SOL    HW127659   0.541   0.459   2.943  0.5093  0.2757 -2.0212
 5342SOL    HW227660   0.407   0.431   2.996 -2.1800  2.0842 -0.4943
 5343SOL     OW27661   4.093   3.996   2.098  0.4009  0.2777 -0.5000
 5343SOL    HW127662   4.022   3.955   2.049  0.6767  0.9040 -1.4181
 5343SOL    HW227663   4.051   4.011   2.183 -0.5909 -0.8788 -0.7867
 5344SOL     OW27664   3.831   0.640   1.153  0.3582 -0.0030 -0.1153
 5344SOL    HW127665   3.844   0.545   1.157 -1.0047 -0.2261 -1.2264
 5344SOL    HW227666   3.737   0.650   1.168  0.2334 -1.7702  0.2866
 5345SOL     OW27667   3.279   2.839   5.701 -0.0780 -0.6855 -0.7610
 5345SOL    HW127668   3.369   2.806   5.701  0.4969  0.8744 -0.3264
 5345SOL    HW227669   3.253   2.823   5.610 -0.2610 -1.4688 -0.5664
 5346SOL     OW27670   3.502   1.229  14.349 -0.5255 -0.1537  0.0676
 5346SOL    HW127671   3.528   1.318  14.325 -0.9719 -0.2044 -0.5981
 5346SOL    HW227672   3.445   1.251  14.422 -0.5474 -1.4181  0.4439
 5347SOL     OW27673   2.415   0.664   3.971 -0.4954  0.5726  0.2321
 5347SOL    HW127674   2.433   0.607   4.046  1.6610  0.5905 -0.2571
 5347SOL    HW227675   2.386   0.605   3.902 -0.3122  0.8130 -0.0517
 5348SOL     OW27676   0.179   1.533   7.524  0.3798 -0.2170 -0.3867
 5348SOL    HW127677   0.204   1.546   7.615  0.5080 -0.6079 -0.3649
 5348SOL    HW227678   0.205   1.620   7.496 -1.1643  0.8293  1.4510
 5349SOL     OW27679   2.262   3.166  14.981 -0.4298 -0.2940 -0.0765
 5349SOL    HW127680   2.181   3.134  15.019 -1.2413  0.5537 -1.0924
 5349SOL    HW227681   2.236   3.189  14.892 -0.6723 -2.3473 -0.5395
 5350SOL     OW27682   2.528   3.451  15.211  0.1620  0.6190  0.0943
 5350SOL    HW127683   2.545   3.515  15.281 -2.4471  1.9082 -0.4608
 5350SOL    HW227684   2.532   3.495  15.127 -2.7644 -0.1386 -0.4216
 5351SOL     OW27685   0.583   2.673   7.444 -0.1149 -0.6024 -0.3448
 5351SOL    HW127686   0.625   2.712   7.367 -0.2731 -0.2913 -0.2718
 5351SOL    HW227687   0.573   2.748   7.502  2.8317 -0.7446  0.3855
 5352SOL     OW27688   4.157   1.994   6.766  0.7478 -0.6639  0.0751
 5352SOL    HW127689   4.146   2.062   6.699 -0.8952 -0.1749  0.8527
 5352SOL    HW227690   4.203   2.046   6.833  1.5427 -1.1667 -0.0814
 5353SOL     OW27691   3.451   3.859   1.942 -0.0092  0.1833  0.5495
 5353SOL    HW127692   3.533   3.886   1.900  0.1855 -3.8132 -1.7204
 5353SOL    HW227693   3.493   3.828   2.022  2.2817 -1.2032 -1.1685
 5354SOL     OW27694   1.122   0.858   5.938  0.3322  0.3694  0.9793
 5354SOL    HW127695   1.049   0.821   5.988  0.6040 -2.3817 -0.6592
 5354SOL    HW227696   1.194   0.866   6.001 -0.9920  2.6298  2.2025
 5355SOL     OW27697   1.107   2.823   9.234 -0.1041  0.5088 -0.7652
 5355SOL    HW127698   1.162   2.840   9.311 -0.1421 -0.3943 -0.5416
 5355SOL    HW227699   1.170   2.790   9.170  1.6842  2.3909  0.0092
 5356SOL     OW27700   0.235   3.363   4.627  0.4584 -0.4199  1.2170
 5356SOL    HW127701   0.309   3.371   4.567 -0.4749 -2.3635 -0.1827
 5356SOL    HW227702   0.272   3.346   4.714  0.0521  0.9995  1.6727
 5357SOL     OW27703   2.582   3.843  15.453 -0.1946  0.2320 -0.0190
 5357SOL    HW127704   2.491   3.823  15.429 -0.2117 -0.7038  0.8330
 5357SOL    HW227705   2.618   3.857  15.365  3.5434  1.3046  1.7220
 5358SOL     OW27706   4.609   2.662   1.152 -0.0464 -0.4053  0.5452
 5358SOL    HW127707   4.692   2.708   1.144 -0.9044  1.1430  0.4421
 5358SOL    HW227708   4.558   2.734   1.190  1.9470  1.7701 -0.8664
 5359SOL     OW27709   3.335   1.732   4.983 -0.5200  0.2190 -0.1161
 5359SOL    HW127710   3.368   1.658   5.034 -1.7774 -1.7065 -2.1027
 5359SOL    HW227711   3.311   1.797   5.049 -0.3975 -0.7895  0.9187
 5360SOL     OW27712   1.366   2.959  10.127 -0.2250  1.1770 -0.1731
 5360SOL    HW127713   1.291   3.009  10.094 -0.8279  0.2158 -0.2552
 5360SOL    HW227714   1.432   2.992  10.066  1.5886 -0.3057  1.0010
 5361SOL     OW27715   4.168   2.926  12.787  0.3398 -0.0072 -0.1132
 5361SOL    HW127716   4.249   2.975  12.798 -0.3220  0.8379  1.0001
 5361SOL    HW227717   4.119   2.969  12.857 -0.5657 -2.0747  0.5274
 5362SOL     OW27718   0.823   3.418  11.767  0.2668  0.0795 -0.2094
 5362SOL    HW127719   0.904   3.376  11.795 -0.5347  0.2568  2.3808
 5362SOL    HW227720   0.869   3.469  11.700 -0.6711  0.8222 -0.2865
 5363SOL     OW27721   2.545   0.712   2.423 -0.5983  0.1430  0.7677
 5363SOL    HW127722   2.587   0.634   2.460 -1.0252 -1.8011 -2.8272
 5363SOL    HW227723   2.620   0.747   2.376 -1.8318  2.2072  0.3230
 5364SOL     OW27724   3.096   2.451   8.522  0.3182  0.2096 -0.0758
 5364SOL    HW127725   3.171   2.498   8.559 -0.3166  3.4950 -2.9952
 5364SOL    HW227726   3.082   2.486   8.434 -2.5484 -1.2759 -0.2178
 5365SOL     OW27727   1.162   0.806   7.641  0.2136  0.1115  0.2186
 5365SOL    HW127728   1.128   0.882   7.688  1.2702 -0.1790  1.4475
 5365SOL    HW227729   1.099   0.796   7.569  1.2709 -0.8471 -0.5760
 5366SOL     OW27730   0.290   0.035  14.456 -0.3547 -0.1616 -0.0148
 5366SOL    HW127731   0.367   4.733  14.493  0.8168  1.8108 -0.1940
 5366SOL    HW227732   0.266   0.098  14.524 -1.6190 -0.9490  0.2606
 5367SOL     OW27733   4.225   0.020   2.648 -0.1651 -0.0675 -0.2085
 5367SOL    HW127734   4.285   0.089   2.621  2.6785 -3.0894 -1.5983
 5367SOL    HW227735   4.240   0.020   2.742 -0.0883 -0.1773 -0.2209
 5368SOL     OW27736   0.461   1.042   4.242  0.5233  0.2210  0.6613
 5368SOL    HW127737   0.514   1.050   4.162  0.1675 -0.0369  0.3954
 5368SOL    HW227738   0.376   1.073   4.210 -0.0567  1.1336  3.0883
 5369SOL     OW27739   3.487   1.670  11.200  0.3423 -0.0176  0.9243
 5369SOL    HW127740   3.452   1.601  11.257 -1.6655 -0.1185 -0.4396
 5369SOL    HW227741   3.478   1.628  11.115  0.4830 -1.1472  1.4684
 5370SOL     OW27742   2.834   4.219  17.020 -0.8478 -0.2747  0.0474
 5370SOL    HW127743   2.739   4.216  17.009 -0.9441  2.6987  0.0529
 5370SOL    HW227744   2.866   4.233  16.931 -1.9293 -2.6064 -0.7025
 5371SOL     OW27745   2.314   4.678  16.132 -0.6466  0.0773  0.2173
 5371SOL    HW127746   2.383   4.634  16.083 -2.2758 -1.5952 -0.5992
 5371SOL    HW227747   2.342   0.027  16.113  2.7899 -1.0352 -0.0287
 5372SOL     OW27748   2.235   2.840   8.245  0.5284  0.5171 -0.1072
 5372SOL    HW127749   2.281   2.801   8.318 -0.7618  1.1536  1.0568
 5372SOL    HW227750   2.296   2.912   8.230  0.9640  0.0330 -0.6349
 5373SOL     OW27751   2.326   1.491   7.541 -0.1729  0.3255 -0.2203
 5373SOL    HW127752   2.283   1.418   7.497 -0.4305 -0.4659  1.3673
 5373SOL    HW227753   2.272   1.562   7.506 -0.0232  0.4728 -0.1549
 5374SOL     OW27754   3.459   4.557   2.236  0.1735  0.3546  0.2103
 5374SOL    HW127755   3.381   4.513   2.204  1.3709 -0.0507 -2.1235
 5374SOL    HW227756   3.414   4.637   2.263 -1.1243  0.0586 -1.1045
 5375SOL     OW27757   2.082   3.335   5.273  0.4895 -0.5145 -0.6775
 5375SOL    HW127758   2.064   3.322   5.366 -0.5578  2.4600 -0.4634
 5375SOL    HW227759   2.031   3.264   5.234 -0.8176  0.4508 -0.7169
 5376SOL     OW27760   0.228   3.032   6.172  0.2979  0.6026 -0.3918
 5376SOL    HW127761   0.197   2.942   6.182 -0.1222  0.8965  0.9072
 5376SOL    HW227762   0.324   3.023   6.175  0.0734 -2.1073 -1.3009
 5377SOL     OW27763   2.847   3.215   2.520 -0.0096  0.2503  0.2423
 5377SOL    HW127764   2.860   3.304   2.487 -0.7845 -0.1831 -1.2377
 5377SOL    HW227765   2.861   3.156   2.446  0.2516  1.1791 -0.4496
 5378SOL     OW27766   0.695   2.097   2.093 -0.1796  0.2396 -0.0879
 5378SOL    HW127767   0.651   2.143   2.020 -1.4093 -0.6656  0.0821
 5378SOL    HW227768   0.626   2.110   2.158  0.0257  2.3454 -0.2871
 5379SOL     OW27769   2.310   3.131  17.719 -0.7071  0.0596  0.0781
 5379SOL    HW127770   2.337   3.109  17.629  1.0383 -0.4756  0.7179
 5379SOL    HW227771   2.303   3.040  17.746 -0.8032  0.0033 -0.1333
 5380SOL     OW27772   2.287   0.641   7.461 -0.0622 -0.3742  1.0769
 5380SOL    HW127773   2.377   0.667   7.481 -0.7305  1.1012  2.1618
 5380SOL    HW227774   2.260   0.718   7.410  2.1085 -1.2573 -1.3747
 5381SOL     OW27775   3.453   3.455   5.694  0.3706 -0.4945 -1.0672
 5381SOL    HW127776   3.441   3.361   5.704  2.0827 -0.6886 -0.6910
 5381SOL    HW227777   3.474   3.478   5.785 -4.0766  0.6967 -0.3485
 5382SOL     OW27778   0.436   2.749   4.712 -0.1250  0.2356 -0.6874
 5382SOL    HW127779   0.421   2.794   4.795 -0.0332 -1.2705  0.1546
 5382SOL    HW227780   0.376   2.675   4.723 -2.1262  2.0497  0.6935
 5383SOL     OW27781   2.023   2.328   7.498 -0.1977  0.0799 -0.3602
 5383SOL    HW127782   2.028   2.355   7.406 -1.4474  0.9220 -0.1846
 5383SOL    HW227783   2.097   2.378   7.532 -1.0861 -0.0840  1.7715
 5384SOL     OW27784   4.310   2.640  17.052  0.0940  0.6853  0.5346
 5384SOL    HW127785   4.326   2.718  17.000  0.5891 -0.8571 -1.6412
 5384SOL    HW227786   4.360   2.665  17.130  1.7951 -0.5364 -0.1480
 5385SOL     OW27787   4.085   0.225  13.824  0.4601 -0.2002  0.3651
 5385SOL    HW127788   4.055   0.136  13.844 -0.3349 -0.0876 -0.2811
 5385SOL    HW227789   4.004   0.264  13.789  1.1858 -0.1391 -1.2415
 5386SOL     OW27790   3.784   2.931   6.761  0.1204  0.5829 -0.2434
 5386SOL    HW127791   3.841   2.953   6.688  1.1349  3.3523  1.4022
 5386SOL    HW227792   3.803   2.997   6.827  0.4132 -0.9106  1.1447
 5387SOL     OW27793   0.359   3.811  14.956  0.2996 -0.8045 -0.4031
 5387SOL    HW127794   0.339   3.816  15.049  2.3534 -1.0006  0.0466
 5387SOL    HW227795   0.334   3.895  14.918  0.9420 -1.0372 -1.3390
 5388SOL     OW27796   3.967   3.552  10.984 -0.2514  0.0152  0.4785
 5388SOL    HW127797   3.934   3.491  10.919  1.2834 -0.2247 -0.0801
 5388SOL    HW227798   4.030   3.610  10.940 -0.6819 -0.2248 -0.4531
 5389SOL     OW27799   2.429   2.563   3.944 -0.6382 -0.1570 -0.1098
 5389SOL    HW127800   2.523   2.576   3.939 -0.9871  1.3615 -2.7125
 5389SOL    HW227801   2.396   2.653   3.942 -0.3522 -0.1271 -4.3419
 5390SOL     OW27802   4.695   0.203   2.602  0.3385  0.0083  0.2820
 5390SOL    HW127803   4.635   0.270   2.569  0.6956  0.2106  0.0459
 5390SOL    HW227804   0.036   0.221   2.556  0.4294  0.1078  0.4833
 5391SOL     OW27805   2.665   2.805   2.957 -0.2644  0.0011 -0.3113
 5391SOL    HW127806   2.657   2.847   3.043  2.8304 -0.0771  0.0145
 5391SOL    HW227807   2.668   2.713   2.984  0.2459  0.1054 -0.0196
 5392SOL     OW27808   0.247   0.388  11.324  0.1250 -0.3288  0.1678
 5392SOL    HW127809   0.227   0.446  11.398  0.8506 -2.9557  2.4177
 5392SOL    HW227810   0.336   0.358  11.341 -0.1656 -1.0971  0.3111
 5393SOL     OW27811   2.338   3.077   5.189  0.1924 -0.1533 -0.4457
 5393SOL    HW127812   2.391   3.076   5.268 -0.7355  1.3312  0.1849
 5393SOL    HW227813   2.398   3.127   5.133 -0.3451 -0.9202 -1.7171
 5394SOL     OW27814   1.047   2.139  17.453 -0.0707 -0.1724  0.3278
 5394SOL    HW127815   1.096   2.065  17.416 -0.3535 -0.4359  0.4798
 5394SOL    HW227816   1.105   2.151  17.528  1.4152  1.8131 -1.1534
 5395SOL     OW27817   1.336   0.689   8.335  0.1201  0.1671 -0.4526
 5395SOL    HW127818   1.245   0.663   8.327  0.8494 -2.7129  0.6105
 5395SOL    HW227819   1.320   0.763   8.394 -0.2169 -1.0289  0.9243
 5396SOL     OW27820   1.363   1.248   8.284 -0.1796 -0.3260  0.7892
 5396SOL    HW127821   1.299   1.218   8.348  0.8246 -0.6178  1.6525
 5396SOL    HW227822   1.414   1.297   8.349 -2.7004  2.3475  0.7520
 5397SOL     OW27823   1.868   4.560  17.445 -0.3271 -0.3767  0.3208
 5397SOL    HW127824   1.838   4.509  17.370  2.2153  0.9292 -1.6024
 5397SOL    HW227825   1.904   4.641  17.408  0.1817 -0.5713  0.3934
 5398SOL     OW27826   0.885   3.377  13.201 -0.0831 -0.2180 -0.8142
 5398SOL    HW127827   0.860   3.304  13.144 -1.9374 -0.8579  0.8250
 5398SOL    HW227828   0.807   3.418  13.238  0.1765 -0.8200  0.3710
 5399SOL     OW27829   4.369   2.609   6.620  0.4388 -0.0891 -0.0551
 5399SOL    HW127830   4.412   2.540   6.670 -2.3425 -2.6517 -1.2054
 5399SOL    HW227831   4.445   2.638   6.570  0.9107  1.2953  1.4852
 5400SOL     OW27832   1.283   1.323   1.576  0.6591 -0.0152 -0.9667
 5400SOL    HW127833   1.329   1.406   1.562  0.7856  0.1239  0.3096
 5400SOL    HW227834   1.194   1.351   1.600  0.6051 -0.4063 -0.7134
 5401SOL     OW27835   3.019   0.720   7.209  0.2899 -0.5275 -0.1895
 5401SOL    HW127836   2.977   0.784   7.267 -1.7005  0.5803 -2.8695
 5401SOL    HW227837   2.951   0.654   7.212  1.4043 -1.6028  1.6137
 5402SOL     OW27838   4.366   4.194   5.959 -0.1330  0.0982  0.0029
 5402SOL    HW127839   4.387   4.128   6.025  2.0519  1.0950  0.2946
 5402SOL    HW227840   4.417   4.172   5.880  0.2773 -0.0521  0.3074
 5403SOL     OW27841   3.496   1.545   3.213  0.5242  0.9004 -0.6100
 5403SOL    HW127842   3.569   1.607   3.215  1.4036 -0.1718  0.3033
 5403SOL    HW227843   3.419   1.592   3.246  0.1075  0.5397 -1.0609
 5404SOL     OW27844   4.218   3.149  15.154 -0.5688  0.2476  0.2642
 5404SOL    HW127845   4.230   3.055  15.144 -0.1259  0.3164  0.1259
 5404SOL    HW227846   4.302   3.186  15.125  0.6388 -1.8937  1.0252
 5405SOL     OW27847   2.830   1.180  10.842 -0.3090  0.1452  0.1314
 5405SOL    HW127848   2.877   1.231  10.909  2.3727  0.4315 -1.9894
 5405SOL    HW227849   2.775   1.130  10.903 -0.6655  1.3728  0.8250
 5406SOL     OW27850   1.492   0.173  16.858  0.0744  0.2154 -0.3370
 5406SOL    HW127851   1.440   0.193  16.780  0.7348  0.6213 -0.6738
 5406SOL    HW227852   1.499   0.078  16.866 -0.8418  0.1834  0.1038
 5407SOL     OW27853   3.494   1.574   7.992  0.3287 -0.2523  0.0155
 5407SOL    HW127854   3.529   1.597   8.078 -1.6813 -1.2693  1.1004
 5407SOL    HW227855   3.574   1.592   7.943 -0.0788 -1.4046 -1.0790
 5408SOL     OW27856   0.884   0.733   5.741 -0.7718 -0.1028 -0.5137
 5408SOL    HW127857   0.974   0.761   5.727 -0.2166 -1.1086  1.1372
 5408SOL    HW227858   0.892   0.639   5.723 -0.7121 -0.1481 -0.2519
 5409SOL     OW27859   1.440   4.653   2.108 -0.3005 -0.0692  0.0278
 5409SOL    HW127860   1.527   4.687   2.129 -0.4044  0.7154 -0.8379
 5409SOL    HW227861   1.406   4.611   2.187  0.0827 -3.8530 -1.8045
 5410SOL     OW27862   2.838   0.655   2.459  0.3388 -0.5590  0.0792
 5410SOL    HW127863   2.833   0.662   2.364 -3.0778 -0.1468  0.2803
 5410SOL    HW227864   2.920   0.702   2.476  0.7904 -1.5646  0.6883
 5411SOL     OW27865   3.048   2.594  12.923  0.0448 -0.7105 -0.4297
 5411SOL    HW127866   3.009   2.634  12.845 -2.2335  1.7590  2.0054
 5411SOL    HW227867   3.142   2.599  12.905  0.1828 -1.0206  0.1899
 5412SOL     OW27868   2.298   4.545   8.077  0.0113  0.0900 -0.1992
 5412SOL    HW127869   2.380   4.596   8.075  0.2645 -0.1441  4.1903
 5412SOL    HW227870   2.307   4.502   8.161  1.5236  1.7263  0.4900
 5413SOL     OW27871   0.094   0.079  16.529 -0.4748  0.6109  0.5872
 5413SOL    HW127872   0.023   0.128  16.570  0.5346  0.6412  2.3269
 5413SOL    HW227873   0.147   0.063  16.608  3.3910  1.6822 -1.7829
 5414SOL     OW27874   2.854   0.619   6.451 -0.2660  0.1916 -0.5419
 5414SOL    HW127875   2.761   0.596   6.448 -0.2153 -0.1560  0.5589
 5414SOL    HW227876   2.855   0.707   6.412  2.5034  0.2035 -0.4107
 5415SOL     OW27877   2.014   2.938   5.914  0.2064 -0.0949  0.2646
 5415SOL    HW127878   2.019   3.017   5.967  1.2776 -0.4890  0.7505
 5415SOL    HW227879   2.104   2.905   5.922  0.2585  0.7283  2.9020
 5416SOL     OW27880   4.538   0.426   4.865 -0.1373 -0.1198 -0.2665
 5416SOL    HW127881   4.528   0.366   4.939  1.8365  1.2640  1.1208
 5416SOL    HW227882   4.568   0.506   4.909 -0.1179  0.5083 -1.4214
 5417SOL     OW27883   1.471   2.919   5.572 -0.5328 -0.1527 -0.3989
 5417SOL    HW127884   1.414   2.897   5.499  0.4608 -0.5957 -1.0450
 5417SOL    HW227885   1.408   2.916   5.645 -0.6644  1.0506 -0.4667
 5418SOL     OW27886   2.199   0.940  15.252  0.2707  0.3569 -0.1352
 5418SOL    HW127887   2.148   0.948  15.171 -0.5535 -0.8359  0.2733
 5418SOL    HW227888   2.237   1.027  15.264 -0.5596  0.6215  0.6443
 5419SOL     OW27889   1.935   2.004  13.003  0.1904  0.3886 -0.0797
 5419SOL    HW127890   1.850   2.037  13.034 -0.4995 -0.7098 -0.7964
 5419SOL    HW227891   1.972   2.079  12.958  0.8438  1.1889  1.8062
 5420SOL     OW27892   2.353   4.417   9.870  0.6485  0.5297 -0.1820
 5420SOL    HW127893   2.388   4.354   9.933  0.1825 -0.2895 -0.7403
 5420SOL    HW227894   2.263   4.431   9.901  0.2724 -0.3887 -0.8727
 5421SOL     OW27895   2.027   4.138   7.836  0.7404 -0.3687 -0.2041
 5421SOL    HW127896   1.966   4.204   7.803 -2.2846 -2.7365  0.6458
 5421SOL    HW227897   2.097   4.182   7.885 -0.0865  2.5992 -1.6603
 5422SOL     OW27898   0.330   4.709  15.172 -0.6145 -0.1913 -0.5163
 5422SOL    HW127899   0.266   4.724  15.103 -1.0409  1.3214  0.1977
 5422SOL    HW227900   0.278   4.710  15.253 -1.6066 -2.8217 -1.1042
 5423SOL     OW27901   2.563   4.433   2.726 -0.4456  0.7888  0.4735
 5423SOL    HW127902   2.645   4.465   2.763  0.3550  0.5746 -1.0750
 5423SOL    HW227903   2.516   4.413   2.807 -0.3483  2.9622  1.0522
 5424SOL     OW27904   4.737   2.886   8.715 -0.3765  0.0095 -0.1383
 5424SOL    HW127905   0.076   2.851   8.755 -1.0226 -0.0926  1.0630
 5424SOL    HW227906   4.710   2.810   8.663 -1.8423  1.6071 -1.7192
 5425SOL     OW27907   2.792   3.193  11.272 -0.2479 -0.5773  0.1855
 5425SOL    HW127908   2.842   3.256  11.325  1.4998  0.2073 -2.4088
 5425SOL    HW227909   2.806   3.212  11.180  2.7545 -2.0590  0.3470
 5426SOL     OW27910   1.132   1.003  15.015  0.4971 -0.2384  0.0123
 5426SOL    HW127911   1.157   1.049  14.935  0.3641 -2.8115 -1.5063
 5426SOL    HW227912   1.037   1.013  15.008  0.4243  0.8149  2.6563
 5427SOL     OW27913   3.638   4.532  12.419  0.4688 -0.0451  0.7733
 5427SOL    HW127914   3.554   4.502  12.453  0.9230 -0.0045  1.9418
 5427SOL    HW227915   3.619   4.605  12.359  1.0713 -1.1894 -0.8148
 5428SOL     OW27916   1.345   3.046   7.526 -0.1448  0.5171  0.2150
 5428SOL    HW127917   1.314   3.041   7.435 -3.2767 -1.1414  1.3416
 5428SOL    HW227918   1.436   3.071   7.514  0.2296 -0.3594  1.2389
 5429SOL     OW27919   2.264   0.535   8.438 -0.0997 -0.3658  0.5153
 5429SOL    HW127920   2.200   0.558   8.370  1.4013 -1.3940 -1.2570
 5429SOL    HW227921   2.262   0.614   8.492 -2.0528 -0.0582 -0.0150
 5430SOL     OW27922   2.894   2.370  16.112 -0.0542  0.2405 -0.0493
 5430SOL    HW127923   2.852   2.420  16.182 -0.9361  0.8558 -1.0196
 5430SOL    HW227924   2.906   2.432  16.041 -0.0687 -0.1577 -0.3965
 5431SOL     OW27925   0.833   3.799   2.189  0.3570  0.1128 -0.5764
 5431SOL    HW127926   0.746   3.795   2.149 -0.1328 -0.5933  0.5666
 5431SOL    HW227927   0.842   3.706   2.211 -2.4809  0.3876  1.7661
 5432SOL     OW27928   1.817   3.382  13.095 -0.8864  0.2087 -0.2659
 5432SOL    HW127929   1.803   3.330  13.174 -2.7714 -0.5915 -1.1150
 5432SOL    HW227930   1.881   3.446  13.126  1.3949 -0.8106 -2.8346
 5433SOL     OW27931   2.626   2.766   3.747  0.5624  0.4245 -0.4168
 5433SOL    HW127932   2.719   2.762   3.725 -0.2246 -1.6000 -3.3958
 5433SOL    HW227933   2.604   2.674   3.731 -0.8725  0.4780  1.2247
 5434SOL     OW27934   3.995   2.661   1.598  1.3431  0.0213 -0.0620
 5434SOL    HW127935   4.018   2.611   1.519  3.1993 -0.1949  0.6190
 5434SOL    HW227936   3.901   2.646   1.590  1.5197 -1.3121  0.3027
 5435SOL     OW27937   1.043   4.714   8.635 -0.4925 -0.1324 -0.6657
 5435SOL    HW127938   1.014   4.625   8.618  2.3248 -1.4009  1.2122
 5435SOL    HW227939   1.112   4.724   8.569  0.5779  1.7490  0.7089
 5436SOL     OW27940   1.605   1.676   4.734  0.4858  0.3114 -0.6273
 5436SOL    HW127941   1.585   1.769   4.725  1.1957  0.5195  0.0113
 5436SOL    HW227942   1.518   1.635   4.733  0.1261  1.0866 -0.8201
 5437SOL     OW27943   2.699   0.529   4.144  0.3899 -0.1237 -0.1834
 5437SOL    HW127944   2.771   0.588   4.166  0.9786 -2.0303  3.0812
 5437SOL    HW227945   2.650   0.595   4.095  2.2779 -0.0998 -2.0590
 5438SOL     OW27946   4.383   1.423   9.051  0.0011  0.0691 -0.4840
 5438SOL    HW127947   4.411   1.394   8.964  1.2116 -2.1039  0.6112
 5438SOL    HW227948   4.460   1.474   9.073 -0.6588  1.2762 -0.9703
 5439SOL     OW27949   0.759   0.815   2.899 -1.1257  0.1185 -0.6285
 5439SOL    HW127950   0.749   0.771   2.814 -0.9025  0.0467 -0.6198
 5439SOL    HW227951   0.846   0.850   2.880  0.0507 -1.2857  2.1895
 5440SOL     OW27952   0.615   2.488   1.810  0.0343  0.4209 -0.4172
 5440SOL    HW127953   0.604   2.485   1.905  0.6605 -2.0814 -0.4386
 5440SOL    HW227954   0.703   2.520   1.794  0.3951 -0.1445  0.4493
 5441SOL     OW27955   3.458   0.513   5.042 -0.0265 -0.1578 -0.1082
 5441SOL    HW127956   3.394   0.568   5.086 -0.2359 -1.3809  1.1114
 5441SOL    HW227957   3.497   0.459   5.111  2.2853  0.7945 -0.6605
 5442SOL     OW27958   3.192   4.027   7.515 -0.1731  0.4200  0.3428
 5442SOL    HW127959   3.121   3.972   7.483  0.8106 -0.6639  0.0291
 5442SOL    HW227960   3.195   3.995   7.606 -1.7235  1.3640  0.7316
 5443SOL     OW27961   3.108   1.199   2.385  0.3873  0.4408 -0.2615
 5443SOL    HW127962   3.199   1.175   2.403  0.1420 -0.2018  0.1478
 5443SOL    HW227963   3.094   1.141   2.309  0.2345 -1.9836  1.6129
 5444SOL     OW27964   1.603   0.304   4.756 -0.1274 -0.2684 -0.4759
 5444SOL    HW127965   1.565   0.365   4.694  1.0280  1.0914  0.1713
 5444SOL    HW227966   1.575   0.216   4.729  0.2036 -1.5078  3.0881
 5445SOL     OW27967   0.964   1.995   5.772 -0.3418  0.5009 -0.4621
 5445SOL    HW127968   1.039   1.945   5.804  0.2383  0.7333 -1.4851
 5445SOL    HW227969   0.990   2.018   5.683 -2.8832 -0.7876 -1.5405
 5446SOL     OW27970   2.142   1.356   5.323  0.6311 -0.2232 -0.1192
 5446SOL    HW127971   2.202   1.424   5.355  0.4947  0.0627 -0.4800
 5446SOL    HW227972   2.180   1.350   5.235  0.5209 -0.1251 -0.1729
 5447SOL     OW27973   3.658   4.309   8.124 -0.0400 -0.1896 -0.6890
 5447SOL    HW127974   3.585   4.314   8.062 -1.4565 -0.7361  0.9057
 5447SOL    HW227975   3.608   4.309   8.206  0.0115 -1.8112 -0.6445
 5448SOL     OW27976   2.446   2.397   9.462  0.1161  0.3033 -0.4430
 5448SOL    HW127977   2.466   2.304   9.465 -2.0154 -0.1527 -0.1553
 5448SOL    HW227978   2.353   2.394   9.484  0.4117 -1.8125  0.4652
 5449SOL     OW27979   3.248   2.375   6.511 -0.4334  0.2090 -0.2697
 5449SOL    HW127980   3.201   2.292   6.528  2.5064 -1.0325  1.7045
 5449SOL    HW227981   3.262   2.363   6.417  0.8927  0.5882 -0.1100
 5450SOL     OW27982   0.227   3.204   4.034  0.0696  0.1536 -0.3005
 5450SOL    HW127983   0.258   3.237   3.950 -0.0942  1.0764  0.0046
 5450SOL    HW227984   0.167   3.274   4.058 -1.9032 -1.5589 -0.2626
 5451SOL     OW27985   2.475   3.034   9.991 -0.0600  0.1548 -0.5547
 5451SOL    HW127986   2.380   3.035   9.983 -0.2727  0.9538  2.0219
 5451SOL    HW227987   2.505   2.979   9.919  0.6156  0.8229 -0.7842
 5452SOL     OW27988   3.703   1.993   6.490  0.0705 -0.6635  0.8131
 5452SOL    HW127989   3.734   1.908   6.522  0.7214 -1.5120 -2.1099
 5452SOL    HW227990   3.775   2.012   6.430 -0.7714 -3.4673 -1.0934
 5453SOL     OW27991   4.223   4.495   2.073 -0.4268 -0.4632  0.5024
 5453SOL    HW127992   4.172   4.563   2.117  0.2452  0.8101 -0.6828
 5453SOL    HW227993   4.155   4.453   2.020 -0.3480 -1.3453  1.1099
 5454SOL     OW27994   1.350   0.202  10.127 -0.4435 -0.1516 -0.3485
 5454SOL    HW127995   1.365   0.295  10.141 -0.2679 -0.3569  0.8294
 5454SOL    HW227996   1.367   0.189  10.033 -0.8536  0.1829 -0.4695
 5455SOL     OW27997   2.155   0.144  15.762 -0.5471 -0.2848  0.1129
 5455SOL    HW127998   2.216   0.075  15.737 -1.4308  0.7974 -5.0974
 5455SOL    HW227999   2.084   0.093  15.802 -2.1295  1.9809  0.2240
 5456SOL     OW28000   1.185   1.765  10.834 -0.1820  0.4602 -0.0189
 5456SOL    HW128001   1.165   1.674  10.856  0.0643  0.2577 -0.6465
 5456SOL    HW228002   1.218   1.758  10.745  3.3228 -2.0766  1.4724
 5457SOL     OW28003   4.418   2.864   3.447 -0.5017 -0.0313  0.1244
 5457SOL    HW128004   4.506   2.864   3.484  0.4109 -0.3120 -2.0779
 5457SOL    HW228005   4.373   2.833   3.527 -1.1565  2.9360  0.8984
 5458SOL     OW28006   1.983   4.417   3.855  0.6146  0.4917  0.4116
 5458SOL    HW128007   2.012   4.508   3.865  0.5940  0.3302  2.0178
 5458SOL    HW228008   1.982   4.392   3.948  1.0632  0.5229  0.4240
 5459SOL     OW28009   0.248   4.355   6.223  0.2090 -0.4324  0.2074
 5459SOL    HW128010   0.176   4.418   6.234  1.0973  0.6004  0.1809
 5459SOL    HW228011   0.215   4.272   6.257 -2.5253  0.0817 -1.2623
 5460SOL     OW28012   1.017   3.148  11.508  0.7550  0.4037  0.0287
 5460SOL    HW128013   0.978   3.212  11.568  2.8438  1.0922  0.6591
 5460SOL    HW228014   0.942   3.088  11.513  0.3026  1.3434  5.1121
 5461SOL     OW28015   1.680   3.019   7.594  0.1211 -0.5287  0.0458
 5461SOL    HW128016   1.769   3.021   7.629  1.3233 -0.7052 -2.9826
 5461SOL    HW228017   1.634   3.069   7.662 -2.0113 -1.8245 -0.4461
 5462SOL     OW28018   3.279   3.262   4.776  0.2699  0.1277  0.1149
 5462SOL    HW128019   3.363   3.215   4.770 -0.4101 -0.9514 -1.0563
 5462SOL    HW228020   3.278   3.303   4.690  0.8846 -0.0330  0.0284
 5463SOL     OW28021   0.748   3.084  13.117  0.4993 -0.4128  0.5080
 5463SOL    HW128022   0.675   3.039  13.074  1.0022  0.7413 -1.5284
 5463SOL    HW228023   0.721   3.082  13.209 -1.4932  1.0122 -0.0402
 5464SOL     OW28024   0.732   2.452   6.777 -0.0735  0.1429  0.2961
 5464SOL    HW128025   0.820   2.416   6.782 -0.0374  0.1671 -0.2512
 5464SOL    HW228026   0.669   2.380   6.786 -1.0395  1.0489  0.7802
 5465SOL     OW28027   2.296   3.845   1.809  0.0897  0.4907  0.3639
 5465SOL    HW128028   2.324   3.820   1.722 -0.4166  0.1009  0.3145
 5465SOL    HW228029   2.258   3.762   1.836 -0.3504  0.1755 -1.2749
 5466SOL     OW28030   0.591   4.023   7.251  0.6505 -0.1308 -0.4537
 5466SOL    HW128031   0.677   3.993   7.280 -0.2354 -0.2501  2.0984
 5466SOL    HW228032   0.611   4.109   7.214  2.1986 -0.3873 -0.2221
 5467SOL     OW28033   1.924   0.508   7.999 -0.3651 -0.1359  0.4572
 5467SOL    HW128034   1.933   0.481   8.091  0.2838 -0.1423  0.3930
 5467SOL    HW228035   1.994   0.454   7.963 -1.7715 -2.1313  0.6966
 5468SOL     OW28036   3.845   0.730   2.405  0.2222 -0.0132  0.5905
 5468SOL    HW128037   3.854   0.676   2.326 -1.9280 -0.1928  0.4738
 5468SOL    HW228038   3.867   0.668   2.474  1.4971 -0.7896 -0.4921
 5469SOL     OW28039   3.755   4.132   5.399  0.4512 -1.0145  0.0948
 5469SOL    HW128040   3.769   4.108   5.491 -1.3455 -0.3387  0.5491
 5469SOL    HW228041   3.743   4.043   5.367 -2.7524  0.0777 -1.8156
 5470SOL     OW28042   0.694   3.394   1.068  0.0452  0.4865 -0.0627
 5470SOL    HW128043   0.696   3.472   1.124  1.0823 -0.1008  0.7132
 5470SOL    HW228044   0.611   3.350   1.082 -0.5683  2.6689  3.0768
 5471SOL     OW28045   1.567   0.468   3.249  0.1565 -0.4321 -0.0549
 5471SOL    HW128046   1.656   0.484   3.217  0.4195  0.6187  1.1738
 5471SOL    HW228047   1.516   0.431   3.178 -0.1803 -1.4139  0.6987
 5472SOL     OW28048   4.300   2.802   3.212 -0.7380 -0.1714 -0.1005
 5472SOL    HW128049   4.344   2.871   3.261  0.5943 -1.6617  0.8175
 5472SOL    HW228050   4.230   2.847   3.165  0.5191  1.6706 -0.2303
 5473SOL     OW28051   0.847   1.431   5.888  0.6717 -0.2879 -0.0148
 5473SOL    HW128052   0.878   1.436   5.798 -1.9076 -0.0824 -0.8719
 5473SOL    HW228053   0.769   1.379   5.870  1.5696 -1.1598 -1.3445
 5474SOL     OW28054   1.392   3.128   8.916 -0.6494 -0.3497  0.3726
 5474SOL    HW128055   1.312   3.143   8.865 -0.4774  2.1663  0.8509
 5474SOL    HW228056   1.371   3.174   8.997  1.2639 -1.3354  1.4091
 5475SOL     OW28057   2.858   2.099  15.756 -0.0339  0.5759 -0.5174
 5475SOL    HW128058   2.823   2.068  15.840  0.8201 -2.4904 -1.2621
 5475SOL    HW228059   2.929   2.036  15.742  1.5714  2.1354  0.6600
 5476SOL     OW28060   4.434   3.030  11.204 -0.0995  0.4315  0.0666
 5476SOL    HW128061   4.344   2.997  11.212  0.1208 -0.0521  0.5851
 5476SOL    HW228062   4.477   2.947  11.225  1.3405  1.4314  1.0904
 5477SOL     OW28063   0.209   2.163   9.595  0.3248  0.0443  0.3879
 5477SOL    HW128064   0.291   2.152   9.643 -0.2485 -1.0266  1.0991
 5477SOL    HW228065   0.142   2.157   9.663  0.9935 -3.1524  0.7417
 5478SOL     OW28066   3.141   3.668  13.792 -0.3376 -0.3375 -0.4185
 5478SOL    HW128067   3.121   3.703  13.705 -1.3686 -0.6070 -0.2818
 5478SOL    HW228068   3.057   3.634  13.822 -0.0840  0.2289  0.9576
 5479SOL     OW28069   1.893   1.489   6.338  0.0862 -0.7339 -0.2822
 5479SOL    HW128070   1.962   1.541   6.296  0.6010 -1.5051 -0.3846
 5479SOL    HW228071   1.832   1.563   6.337  4.0345  2.4198 -4.8862
 5480SOL     OW28072   3.624   0.070   5.704  0.0720  0.6651 -0.5813
 5480SOL    HW128073   3.682   0.142   5.680  2.3125 -0.8187  0.4150
 5480SOL    HW228074   3.600   0.031   5.620  1.0222  0.9163 -0.9659
 5481SOL     OW28075   3.273   4.201   7.011  0.0059  0.1944  0.2056
 5481SOL    HW128076   3.267   4.159   7.097 -0.1564 -2.2699 -1.0007
 5481SOL    HW228077   3.250   4.119   6.967 -2.0053  0.4134  0.8304
 5482SOL     OW28078   2.475   4.046   3.842 -0.1301  0.3151  0.3520
 5482SOL    HW128079   2.475   4.059   3.937  2.2402 -0.4698  0.4599
 5482SOL    HW228080   2.389   4.080   3.818 -0.6134 -1.3236 -0.2745
 5483SOL     OW28081   1.862   0.319   4.832  0.0378  0.3610 -0.5198
 5483SOL    HW128082   1.859   0.409   4.866 -0.9602  0.1030  0.0740
 5483SOL    HW228083   1.770   0.300   4.814  0.4022  0.1310 -2.1210
 5484SOL     OW28084   0.170   3.748  16.891  0.3440  0.0799 -0.1604
 5484SOL    HW128085   0.183   3.675  16.951 -0.4542 -0.7458 -1.0110
 5484SOL    HW228086   0.235   3.752  16.821 -1.1094 -0.3602 -1.5339
 5485SOL     OW28087   0.234   2.005   6.909 -0.2488  0.4081  0.0481
 5485SOL    HW128088   0.174   2.080   6.898 -0.4979  0.4099  1.3961
 5485SOL    HW228089   0.257   1.994   6.817  0.2289  0.1799  0.1950
 5486SOL     OW28090   2.609   2.588   1.713  0.2951 -0.4894  0.5150
 5486SOL    HW128091   2.555   2.606   1.636  0.5374 -2.5691 -0.1362
 5486SOL    HW228092   2.576   2.503   1.740 -1.9053  0.0053 -0.5921
 5487SOL     OW28093   1.390   4.622   0.507  0.5508  0.1468  0.8682
 5487SOL    HW128094   1.464   4.565   0.489  0.9217  1.0325 -0.3960
 5487SOL    HW228095   1.433   4.707   0.518 -0.3370  0.7140 -0.0032
 5488SOL     OW28096   0.553   2.441   3.441  0.1540  0.1748  0.2559
 5488SOL    HW128097   0.516   2.407   3.522  0.6167 -2.6851 -0.7519
 5488SOL    HW228098   0.526   2.379   3.374  2.7559  0.0198 -0.6660
 5489SOL     OW28099   2.944   4.449  12.632  0.1587 -0.2511  0.3640
 5489SOL    HW128100   2.886   4.474  12.703  1.7233  0.9996  1.1956
 5489SOL    HW228101   2.946   4.533  12.587  1.6871 -0.4512  0.0473
 5490SOL     OW28102   0.063   2.389   7.104  0.0848  0.4948 -0.0424
 5490SOL    HW128103   0.143   2.374   7.155  0.8566 -0.7166 -1.6039
 5490SOL    HW228104   0.057   2.480   7.134  1.8452  0.7054 -0.3543
 5491SOL     OW28105   1.930   4.014   3.111  0.0437  0.1594  0.2907
 5491SOL    HW128106   1.990   4.007   3.037 -0.6510  2.6243 -0.5280
 5491SOL    HW228107   1.940   4.104   3.144 -0.3393  0.2669  0.1186
 5492SOL     OW28108   1.282   2.103   8.299 -0.1975 -0.6015  0.2092
 5492SOL    HW128109   1.269   2.021   8.347 -1.6251 -0.5319 -0.0600
 5492SOL    HW228110   1.231   2.094   8.219  0.0332  1.2080 -0.1341
 5493SOL     OW28111   4.641   2.263  13.215  0.2012  0.4102 -0.0079
 5493SOL    HW128112   4.732   2.233  13.210 -0.3147 -0.8920 -1.6111
 5493SOL    HW228113   4.650   2.338  13.272 -0.3170 -0.2102  0.8959
 5494SOL     OW28114   4.513   1.436   2.158  0.9373  0.4315 -0.3313
 5494SOL    HW128115   4.437   1.383   2.132  0.5452  0.5727  0.5199
 5494SOL    HW228116   4.484   1.522   2.129  2.6434  0.8903 -0.6290
 5495SOL     OW28117   4.212   3.147   3.048  0.2248  0.2612  0.4584
 5495SOL    HW128118   4.131   3.190   3.021 -0.2514  0.0133  1.4786
 5495SOL    HW228119   4.166   3.063   3.058  1.1957 -0.2971  0.1572
 5496SOL     OW28120   4.330   0.160  15.898 -0.1454 -0.2938  0.3808
 5496SOL    HW128121   4.301   0.215  15.826 -0.4235 -0.4943  0.3412
 5496SOL    HW228122   4.320   0.071  15.865 -1.5767 -0.2652  0.7434
 5497SOL     OW28123   2.542   0.172  14.928 -0.1309  0.5011  0.3194
 5497SOL    HW128124   2.625   0.218  14.916  2.4759 -4.5566 -0.9371
 5497SOL    HW228125   2.514   0.204  15.014  0.8911  0.2174  0.7567
 5498SOL     OW28126   1.575   2.784   8.650 -0.7024 -0.1082 -0.5659
 5498SOL    HW128127   1.648   2.725   8.668 -0.9420 -0.0776  0.4705
 5498SOL    HW228128   1.611   2.869   8.675 -0.7012 -0.0500 -0.7634
 5499SOL     OW28129   4.087   3.805   3.726 -0.0168 -0.3352  0.2724
 5499SOL    HW128130   4.097   3.763   3.640 -2.2352 -0.1514 -0.0848
 5499SOL    HW228131   4.074   3.893   3.690  2.7207 -0.0811 -0.1124
 5500SOL     OW28132   1.258   4.706   8.183 -0.2025  0.0460 -0.1898
 5500SOL    HW128133   1.346   4.685   8.154 -0.0801 -2.0175  1.6680
 5500SOL    HW228134   1.235   0.048   8.140  0.5718  0.3690  0.0199
 5501SOL     OW28135   0.067   4.067   6.249  0.4929 -0.4989  0.2261
 5501SOL    HW128136   0.037   4.103   6.166  1.1191 -1.2448 -0.3294
 5501SOL    HW228137   0.081   3.977   6.222  0.5467 -0.0629 -1.1729
 5502SOL     OW28138   3.360   1.439   2.108 -0.6922 -0.0229  0.3502
 5502SOL    HW128139   3.352   1.472   2.197  0.0620  0.2550  0.3171
 5502SOL    HW228140   3.370   1.524   2.064 -2.6580 -1.2636 -2.4948
 5503SOL     OW28141   3.277   2.124   1.986 -0.6553 -0.2633 -0.9177
 5503SOL    HW128142   3.281   2.219   1.973  0.2179 -0.0748  0.7600
 5503SOL    HW228143   3.192   2.113   2.030 -0.1969 -0.0121  0.0443
 5504SOL     OW28144   0.049   0.627  17.498  0.1907 -0.1093 -0.5130
 5504SOL    HW128145   0.077   0.587  17.580 -2.4583 -1.8344 -0.4572
 5504SOL    HW228146   0.017   0.710  17.533  0.7946 -0.3842  0.6685
 5505SOL     OW28147   1.477   4.645  15.793 -0.5420  0.1347  0.1671
 5505SOL    HW128148   1.467   4.705  15.719 -0.5511  0.2104  0.2303
 5505SOL    HW228149   1.538   4.580  15.757  1.4045 -0.5098  4.5833
 5506SOL     OW28150   4.257   2.083  16.540  0.3495  0.7014  0.0481
 5506SOL    HW128151   4.196   2.027  16.588 -1.5165  0.6716 -2.3928
 5506SOL    HW228152   4.339   2.035  16.534 -0.5613 -0.6179 -1.7159
 5507SOL     OW28153   2.706   3.255   9.703  0.0516 -0.1220 -0.0551
 5507SOL    HW128154   2.787   3.237   9.751 -0.1689 -0.6342  0.1129
 5507SOL    HW228155   2.653   3.184   9.736 -0.1074  0.3733  0.7539
 5508SOL     OW28156   4.420   2.844  13.073 -0.1064  0.4048 -0.0931
 5508SOL    HW128157   4.401   2.934  13.101 -1.4628  0.1805 -0.2690
 5508SOL    HW228158   4.479   2.861  13.000  0.1902  2.1082  0.5476
 5509SOL     OW28159   1.481   4.200   3.441 -0.2867  0.3844  0.6508
 5509SOL    HW128160   1.487   4.181   3.348  2.8847  1.1717  0.6685
 5509SOL    HW228161   1.398   4.248   3.438  0.3903  1.4358 -1.5345
 5510SOL     OW28162   0.412   4.343  15.357  0.1510  0.2228  0.1556
 5510SOL    HW128163   0.470   4.419  15.356  0.7924 -0.2581  1.2346
 5510SOL    HW228164   0.371   4.350  15.271 -0.6491 -0.6169  0.4710
 5511SOL     OW28165   1.136   3.267  12.947  0.1167  0.2885  0.3741
 5511SOL    HW128166   1.114   3.202  13.014 -1.5628 -0.6176 -1.0280
 5511SOL    HW228167   1.228   3.242  12.937  0.7287  1.8580  2.1496
 5512SOL     OW28168   4.017   0.343  11.244  0.4606 -0.3102  0.5257
 5512SOL    HW128169   4.052   0.427  11.272  2.1831 -1.3470  1.4730
 5512SOL    HW228170   4.094   0.287  11.235  0.6828  0.7447 -3.8104
 5513SOL     OW28171   1.045   3.659   0.213 -0.0902  0.5549  1.1267
 5513SOL    HW128172   0.959   3.671   0.254  0.0071 -1.0092  1.7875
 5513SOL    HW228173   1.037   3.732   0.152  1.7890 -0.8649 -0.8125
 5514SOL     OW28174   4.316   2.897   4.465 -0.4270  0.0103 -0.0040
 5514SOL    HW128175   4.224   2.894   4.437 -0.6787 -0.8933  0.9422
 5514SOL    HW228176   4.351   2.831   4.405  1.2291 -1.2165  2.3432
 5515SOL     OW28177   3.982   4.394  16.838 -0.1264 -0.1010  0.3829
 5515SOL    HW128178   3.983   4.366  16.746 -0.3346 -0.3725  0.4639
 5515SOL    HW228179   4.032   4.475  16.839  0.0820 -0.1962 -1.3379
 5516SOL     OW28180   2.440   4.032   6.671 -0.7140 -0.2005 -0.1719
 5516SOL    HW128181   2.454   3.951   6.720  0.0691  2.1732  3.5201
 5516SOL    HW228182   2.390   4.094   6.724  0.4116  0.3398  0.2560
 5517SOL     OW28183   3.088   2.670   5.075 -0.0780 -0.5914 -0.5013
 5517SOL    HW128184   3.033   2.667   5.153 -0.8580 -1.4307 -1.0779
 5517SOL    HW228185   3.037   2.605   5.026  0.4535 -1.6360  0.3317
 5518SOL     OW28186   4.017   4.091   0.512  0.3781 -0.1424  0.3560
 5518SOL    HW128187   4.009   4.093   0.417 -1.2921 -0.9722  0.4781
 5518SOL    HW228188   4.002   4.182   0.538 -3.7325 -0.4356 -1.0521
 5519SOL     OW28189   0.526   2.884  10.132 -0.3091 -0.5919  0.6342
 5519SOL    HW128190   0.620   2.873  10.117 -0.4842  0.5772 -1.2990
 5519SOL    HW228191   0.487   2.797  10.121  0.1579 -0.7814  0.4877
 5520SOL     OW28192   3.699   1.743   7.800 -0.1009 -0.4388  0.0788
 5520SOL    HW128193   3.634   1.796   7.754  0.9299  0.2935 -0.5466
 5520SOL    HW228194   3.733   1.802   7.867 -0.6691  1.5581 -1.3884
 5521SOL     OW28195   3.424   2.384   8.429 -0.7358  0.6418 -0.1095
 5521SOL    HW128196   3.486   2.457   8.429 -0.3288  0.3093 -2.6671
 5521SOL    HW228197   3.338   2.418   8.406 -1.4900 -1.0320  0.2257
 5522SOL     OW28198   1.484   0.932   0.889  0.1794  0.5720 -0.0949
 5522SOL    HW128199   1.443   0.959   0.971  0.1089  1.8229 -0.5395
 5522SOL    HW228200   1.578   0.944   0.903  0.1405 -0.1552  0.7734
 5523SOL     OW28201   3.508   3.132   1.455 -0.1281  0.5043  0.0011
 5523SOL    HW128202   3.524   3.038   1.463  0.8379  0.8392  2.0045
 5523SOL    HW228203   3.472   3.158   1.540  0.1804 -0.3712  0.3984
 5524SOL     OW28204   2.286   3.770   6.799 -0.2349 -0.4352  0.2718
 5524SOL    HW128205   2.223   3.840   6.820 -1.3970 -1.1984 -0.7121
 5524SOL    HW228206   2.250   3.743   6.715 -1.0088 -1.1670  0.8295
 5525SOL     OW28207   0.026   1.355   8.493 -0.6106 -0.0843  0.1872
 5525SOL    HW128208   0.046   1.362   8.586  0.4672  0.5742 -0.0938
 5525SOL    HW228209   0.053   1.265   8.474  0.8248  0.2549  0.6676
 5526SOL     OW28210   1.836   3.597  15.620  0.4080  0.3416 -0.2986
 5526SOL    HW128211   1.794   3.511  15.623  3.1912 -0.9663  2.0694
 5526SOL    HW228212   1.787   3.644  15.688  1.6766 -0.3541  1.1181
 5527SOL     OW28213   2.799   3.344  13.097  0.2610  0.2141 -0.0858
 5527SOL    HW128214   2.891   3.361  13.115 -0.0550  0.8610  0.9683
 5527SOL    HW228215   2.783   3.428  13.053 -1.0024 -0.4139 -0.8270
 5528SOL     OW28216   0.545   0.711   9.331  0.7595 -0.2812  0.0909
 5528SOL    HW128217   0.606   0.640   9.348  0.2982 -1.0260 -1.3367
 5528SOL    HW228218   0.468   0.664   9.363 -0.5275 -0.4393 -3.2160
 5529SOL     OW28219   1.678   4.174  16.354  0.4164  0.3496  0.2060
 5529SOL    HW128220   1.681   4.079  16.342 -1.6546  0.0920  1.7788
 5529SOL    HW228221   1.638   4.187  16.440  1.6328  1.2209  0.6438
 5530SOL     OW28222   3.598   2.829   2.678  0.1530 -0.6954  0.4851
 5530SOL    HW128223   3.614   2.755   2.620  0.5724  0.2970 -0.6674
 5530SOL    HW228224   3.530   2.879   2.634  0.1139 -2.2247 -1.1668
 5531SOL     OW28225   0.036   3.340   1.473  0.5367  0.0735  0.7050
 5531SOL    HW128226   0.119   3.387   1.462  0.8423 -0.2820  1.4777
 5531SOL    HW228227   0.000   3.346   1.385  1.3494  0.9498  0.4384
 5532SOL     OW28228   0.753   3.440   7.812  0.6568  0.3307  0.3495
 5532SOL    HW128229   0.762   3.354   7.771 -0.2317 -0.0544  0.9522
 5532SOL    HW228230   0.659   3.454   7.801  1.1076 -0.0330 -3.8874
 5533SOL     OW28231   2.645   4.266   7.543  0.0965 -0.2096  0.2116
 5533SOL    HW128232   2.618   4.358   7.543 -0.7867 -0.4565 -2.1468
 5533SOL    HW228233   2.568   4.213   7.563 -1.4421  2.2395  0.7877
 5534SOL     OW28234   3.341   4.142   4.057 -0.8162  0.4198 -0.0241
 5534SOL    HW128235   3.336   4.047   4.044  1.6482  0.2099  0.5794
 5534SOL    HW228236   3.316   4.139   4.149 -0.7844 -0.2241 -0.0372
 5535SOL     OW28237   0.441   2.358   7.501  0.2561 -0.0152 -0.3523
 5535SOL    HW128238   0.380   2.431   7.513 -1.0069 -1.4656  2.0144
 5535SOL    HW228239   0.503   2.398   7.440 -0.5187 -1.2846 -1.9823
 5536SOL     OW28240   2.951   2.691  16.163 -0.1437  0.0364 -0.9654
 5536SOL    HW128241   2.889   2.713  16.094  0.4412 -1.9839 -2.1375
 5536SOL    HW228242   2.906   2.635  16.226  1.6571  1.0991  1.2998
 5537SOL     OW28243   2.389   2.476   8.879 -0.0345  0.2618 -0.4246
 5537SOL    HW128244   2.367   2.391   8.918  0.0973  0.1337 -0.6267
 5537SOL    HW228245   2.481   2.460   8.856 -0.2693  0.5406 -1.5870
 5538SOL     OW28246   2.644   4.086   1.601 -0.2037  0.2643  0.1692
 5538SOL    HW128247   2.634   3.993   1.621 -1.6813  0.3940  0.0317
 5538SOL    HW228248   2.724   4.103   1.652  0.9221 -0.6900 -1.2822
 5539SOL     OW28249   1.104   3.772   8.034  0.0129  0.1281  0.2668
 5539SOL    HW128250   1.193   3.743   8.011 -0.2541  0.7568 -1.5431
 5539SOL    HW228251   1.051   3.695   8.012  0.5091 -0.3328  0.6922
 5540SOL     OW28252   2.082   1.436  15.558 -0.0465  0.0290  0.1003
 5540SOL    HW128253   2.020   1.406  15.491  1.4127 -0.8665 -0.8425
 5540SOL    HW228254   2.156   1.467  15.507 -1.0463 -0.3402 -1.5654
 5541SOL     OW28255   3.708   0.292   7.610  1.0385  0.1988 -0.0735
 5541SOL    HW128256   3.704   0.377   7.655  0.9950 -0.3975  1.0585
 5541SOL    HW228257   3.731   0.230   7.679  3.0185 -0.2589 -1.1340
 5542SOL     OW28258   1.464   4.323  16.520 -0.3408 -0.0371  0.5564
 5542SOL    HW128259   1.456   4.418  16.521 -0.8513 -0.0729 -0.0030
 5542SOL    HW228260   1.419   4.303  16.438  0.6662  1.7041 -0.4148
 5543SOL     OW28261   1.842   0.409   3.462  0.3760  0.3438  0.2217
 5543SOL    HW128262   1.841   0.469   3.388  0.9478  0.2369  0.1265
 5543SOL    HW228263   1.918   0.352   3.446  0.4518  0.3418  0.5793
 5544SOL     OW28264   4.131   1.217   5.770 -0.4961  0.3229 -0.6221
 5544SOL    HW128265   4.197   1.228   5.702  2.5325 -4.3992  1.5192
 5544SOL    HW228266   4.200   1.217   5.836 -0.8219  2.9855 -0.3114
 5545SOL     OW28267   1.525   1.088   3.592 -0.0066  0.2069  0.1429
 5545SOL    HW128268   1.512   1.172   3.548  1.8634  0.9326  0.9881
 5545SOL    HW228269   1.604   1.059   3.547  0.1288 -0.6168  0.9256
 5546SOL     OW28270   2.594   1.491   7.443  0.0266 -0.7930 -0.6029
 5546SOL    HW128271   2.577   1.585   7.453  1.7105 -0.5925  0.2992
 5546SOL    HW228272   2.509   1.457   7.470 -0.7790  0.6272 -1.3347
 5547SOL     OW28273   2.166   4.540  16.308  0.4642  0.4426  0.4217
 5547SOL    HW128274   2.164   4.446  16.290  1.8180  0.6204 -0.6457
 5547SOL    HW228275   2.241   4.571  16.258 -1.0349  0.2015 -1.9938
 5548SOL     OW28276   1.331   1.326  13.509  0.4046  0.5245  0.3299
 5548SOL    HW128277   1.405   1.298  13.455 -1.1316 -0.1168 -1.4047
 5548SOL    HW228278   1.352   1.300  13.599 -3.3919 -0.4162  0.9480
 5549SOL     OW28279   2.561   3.484   7.344 -0.1574  0.9896 -0.2605
 5549SOL    HW128280   2.514   3.402   7.360 -0.0575  0.8168 -0.8354
 5549SOL    HW228281   2.638   3.449   7.298  0.0778 -0.7078  1.4467
 5550SOL     OW28282   2.252   2.714   1.596  0.1063  0.2704 -0.0038
 5550SOL    HW128283   2.328   2.736   1.543 -0.5244 -0.9623 -1.4119
 5550SOL    HW228284   2.254   2.786   1.659  1.4297 -0.1338  0.4004
 5551SOL     OW28285   2.392   1.828   6.970  0.1879  0.0061  0.3786
 5551SOL    HW128286   2.435   1.896   7.022  1.0081  0.6105 -1.0794
 5551SOL    HW228287   2.455   1.814   6.899 -1.8132 -0.8881 -1.2158
 5552SOL     OW28288   2.100   0.339   8.846 -0.4389 -0.0147  0.0787
 5552SOL    HW128289   2.080   0.397   8.919  0.4302 -1.4617  1.4601
 5552SOL    HW228290   2.073   0.408   8.786 -0.9368  0.4878  0.8789
 5553SOL     OW28291   3.407   2.945   4.522 -0.2684  0.3305 -0.2979
 5553SOL    HW128292   3.476   2.879   4.526  0.7371  1.2531 -2.7554
 5553SOL    HW228293   3.343   2.898   4.468  0.6005  0.0762 -1.1020
 5554SOL     OW28294   3.420   3.234   1.694  0.2668 -0.0015  0.4534
 5554SOL    HW128295   3.403   3.166   1.759 -1.2868  0.8722  0.9908
 5554SOL    HW228296   3.501   3.264   1.735 -0.6766  1.2618  1.4064
 5555SOL     OW28297   2.128   4.124   8.754 -0.0840 -0.3580  0.0097
 5555SOL    HW128298   2.112   4.062   8.825  2.3724 -0.8952  0.1025
 5555SOL    HW228299   2.223   4.120   8.743  0.3291  2.1553  2.4653
 5556SOL     OW28300   4.596   4.155   9.115  0.3367 -0.2579 -0.0296
 5556SOL    HW128301   4.590   4.083   9.178 -0.7834  0.3136  0.5134
 5556SOL    HW228302   4.672   4.129   9.062 -0.4035  0.9835 -1.6930
 5557SOL     OW28303   1.931   3.470   6.343 -0.3397 -0.0069  0.9646
 5557SOL    HW128304   1.949   3.410   6.271 -1.1389  1.6603 -0.6294
 5557SOL    HW228305   1.920   3.552   6.294  1.2169 -1.1715 -1.3423
 5558SOL     OW28306   3.852   4.460   6.989  0.7326  0.1041  0.1838
 5558SOL    HW128307   3.855   4.496   7.078  0.0549 -0.8083  0.5820
 5558SOL    HW228308   3.888   4.537   6.945 -0.1960 -0.5009 -1.5937
 5559SOL     OW28309   3.620   2.567   8.396  0.9255  0.3553 -0.9958
 5559SOL    HW128310   3.601   2.626   8.323 -0.6965  2.3165  1.0081
 5559SOL    HW228311   3.710   2.592   8.417  1.8072 -1.8867 -2.0709
 5560SOL     OW28312   4.685   0.580   5.573  0.0001 -0.2044  0.0848
 5560SOL    HW128313   4.617   0.596   5.638  0.9775 -1.8901  1.5024
 5560SOL    HW228314   0.017   0.618   5.622  0.7955  2.5158 -3.1496
 5561SOL     OW28315   1.102   1.091   5.759  0.1384 -0.1239  0.5895
 5561SOL    HW128316   1.023   1.060   5.714  1.5282  0.0972 -2.0461
 5561SOL    HW228317   1.126   1.014   5.810 -0.0288  0.5056  1.6143
 5562SOL     OW28318   4.491   2.651   5.325  0.0108 -0.6275  0.5101
 5562SOL    HW128319   4.471   2.741   5.298  1.8234  0.2343  2.0363
 5562SOL    HW228320   4.438   2.606   5.260  0.2666 -1.5859  0.9743
 5563SOL     OW28321   4.369   3.870   3.915  0.0795 -0.7763  0.2462
 5563SOL    HW128322   4.329   3.938   3.969  0.4560  0.5769 -1.1543
 5563SOL    HW228323   4.370   3.794   3.972 -1.0292 -0.5548  0.5612
 5564SOL     OW28324   2.630   0.467  16.571  0.0472  0.5683  0.3445
 5564SOL    HW128325   2.599   0.383  16.535 -0.8352  1.2342 -0.4550
 5564SOL    HW228326   2.667   0.513  16.496 -1.7863  1.0856 -0.2604
 5565SOL     OW28327   0.655   3.958   8.460  0.2404 -0.4962 -0.5264
 5565SOL    HW128328   0.735   4.006   8.440  0.4033 -1.3210 -1.8597
 5565SOL    HW228329   0.698   3.890   8.512  0.6214  0.0048 -0.1801
 5566SOL     OW28330   4.194   3.929  13.596  0.0829 -0.3328  0.2345
 5566SOL    HW128331   4.278   3.968  13.571 -0.5580  0.5972 -0.4384
 5566SOL    HW228332   4.203   3.920  13.691  1.3407  0.6570  0.2136
 5567SOL     OW28333   3.004   2.087  17.151  0.1836  0.3552  0.2786
 5567SOL    HW128334   3.044   2.002  17.170  1.6558  0.9811 -0.0661
 5567SOL    HW228335   3.072   2.144  17.188  0.7277 -0.0695 -0.0642
 5568SOL     OW28336   3.038   4.253  14.040 -0.0430  0.4072 -0.2280
 5568SOL    HW128337   3.108   4.189  14.026 -0.5859  0.6238 -3.9194
 5568SOL    HW228338   3.084   4.337  14.041  3.8857 -1.7469 -0.3291
 5569SOL     OW28339   4.594   0.554   7.857  0.7412 -0.6257  0.1911
 5569SOL    HW128340   4.609   0.537   7.763 -0.9116 -1.1350  0.0160
 5569SOL    HW228341   4.498   0.550   7.859  0.6989 -0.3594 -1.1483
 5570SOL     OW28342   3.080   0.566   8.378 -0.9111 -0.3453  0.1490
 5570SOL    HW128343   2.999   0.609   8.351 -0.2378  0.7233 -0.1678
 5570SOL    HW228344   3.111   0.632   8.439  1.1662 -0.4938 -0.7638
 5571SOL     OW28345   1.322   3.393   3.764 -0.1888 -0.3414  0.1309
 5571SOL    HW128346   1.317   3.361   3.675 -0.1588  2.1267 -0.7760
 5571SOL    HW228347   1.331   3.310   3.810  0.5720 -0.5409 -0.3832
 5572SOL     OW28348   1.513   3.479   4.333 -0.0151  0.1340  0.5303
 5572SOL    HW128349   1.595   3.504   4.375  0.1321  1.0533 -0.2983
 5572SOL    HW228350   1.536   3.480   4.240  2.6152 -1.4104  1.1610
 5573SOL     OW28351   2.347   3.361  10.217 -0.3035  0.0236  0.5288
 5573SOL    HW128352   2.410   3.291  10.237 -1.8206 -1.4928 -0.0640
 5573SOL    HW228353   2.307   3.328  10.137  1.7255  2.5965 -1.5292
 5574SOL     OW28354   2.311   0.378  12.860  0.0686 -0.3441  0.1259
 5574SOL    HW128355   2.340   0.360  12.770 -3.5943  2.6267 -1.6287
 5574SOL    HW228356   2.395   0.390  12.903 -0.9745  0.6358  1.8939
 5575SOL     OW28357   2.226   3.370   7.530  0.3996  0.4642 -0.5369
 5575SOL    HW128358   2.210   3.279   7.506 -1.4032  0.9558 -1.1376
 5575SOL    HW228359   2.225   3.348   7.623 -1.5356 -0.5097 -0.7865
 5576SOL     OW28360   0.683   2.709  17.677  0.2348  0.4316  0.2283
 5576SOL    HW128361   0.590   2.729  17.685  0.1137  1.1060 -2.8776
 5576SOL    HW228362   0.721   2.787  17.716  2.8414  0.5842 -2.6265
 5577SOL     OW28363   1.269   4.546   0.261  0.0388  0.0316 -0.1105
 5577SOL    HW128364   1.353   4.539   0.217 -1.4941  0.7406 -3.1520
 5577SOL    HW228365   1.305   4.582   0.342  2.7272 -0.1717 -1.2245
 5578SOL     OW28366   2.973   1.086   7.019  0.5640 -0.5275  0.2984
 5578SOL    HW128367   2.929   1.130   7.092  2.1049  2.1884 -0.3912
 5578SOL    HW228368   2.963   1.154   6.952 -1.4615 -0.8368  0.2801
 5579SOL     OW28369   3.322   2.777  17.688 -0.1953  0.1978  0.3077
 5579SOL    HW128370   3.232   2.778  17.655 -0.3574  1.6412  0.7570
 5579SOL    HW228371   3.364   2.733  17.614  1.6516 -0.2552  1.6191
 5580SOL     OW28372   1.749   0.525  11.435  0.1741 -0.1416  0.7327
 5580SOL    HW128373   1.778   0.458  11.497  3.7228 -1.4316 -2.3137
 5580SOL    HW228374   1.662   0.491  11.413  0.2575 -0.0438  0.2550
 5581SOL     OW28375   3.706   3.208   9.162  0.4268 -0.5983  0.8940
 5581SOL    HW128376   3.636   3.245   9.108  0.7217  0.0911  0.9869
 5581SOL    HW228377   3.682   3.259   9.239 -2.1980 -0.1551 -0.2086
 5582SOL     OW28378   2.712   3.196   4.474  0.0429  0.0635  0.0965
 5582SOL    HW128379   2.720   3.289   4.455 -3.2229  0.4754  0.6801
 5582SOL    HW228380   2.650   3.200   4.547  1.3265 -3.0716  1.3479
 5583SOL     OW28381   2.630   3.744   9.983  0.2079 -0.3056  0.2206
 5583SOL    HW128382   2.600   3.656  10.006  1.7585 -1.4470 -2.0725
 5583SOL    HW228383   2.623   3.783  10.071  0.8569 -1.2389  0.6897
 5584SOL     OW28384   2.659   4.097   4.706  0.1263  0.3484  0.2569
 5584SOL    HW128385   2.708   4.026   4.665 -0.5262  1.1851 -1.9682
 5584SOL    HW228386   2.694   4.090   4.795 -0.8014 -2.5981  0.3722
 5585SOL     OW28387   4.579   0.766  11.579  0.0255  0.2309 -0.2598
 5585SOL    HW128388   4.616   0.687  11.539 -1.0295 -1.0046  1.1366
 5585SOL    HW228389   4.622   0.837  11.534  1.4018  0.5313  1.5339
 5586SOL     OW28390   3.081   4.320  10.499  0.0692  0.0802  0.2918
 5586SOL    HW128391   3.138   4.396  10.496 -0.9946  0.8515 -0.3455
 5586SOL    HW228392   3.053   4.307  10.408  0.4396 -0.4928  0.2546
 5587SOL     OW28393   1.318   0.064  17.145  0.2553 -0.2843  0.6987
 5587SOL    HW128394   1.244   0.010  17.121 -0.6197  1.2149  0.0683
 5587SOL    HW228395   1.309   0.071  17.240 -2.2343 -0.7490  0.4740
 5588SOL     OW28396   0.919   4.311   2.676  0.1376  0.6149 -0.3080
 5588SOL    HW128397   0.870   4.384   2.713  2.4517  1.7467  0.4946
 5588SOL    HW228398   0.861   4.235   2.687  3.8074 -2.0947  0.5320
 5589SOL     OW28399   1.531   1.726  15.528 -0.1136 -0.4107 -0.3657
 5589SOL    HW128400   1.475   1.670  15.474  0.0307 -2.5448  1.6947
 5589SOL    HW228401   1.555   1.673  15.604  1.2809  0.1883 -0.3813
 5590SOL     OW28402   4.377   2.171   1.852 -0.2101 -0.3197  0.1543
 5590SOL    HW128403   4.420   2.203   1.931 -1.8837 -0.3713  1.0673
 5590SOL    HW228404   4.449   2.175   1.789  1.1906 -2.5039  1.6248
 5591SOL     OW28405   4.034   0.595   2.916  0.3903  0.2485 -0.6264
 5591SOL    HW128406   4.038   0.647   2.996 -1.3828  0.8104 -0.9177
 5591SOL    HW228407   4.098   0.641   2.862  1.6498  0.1303  0.7626
 5592SOL     OW28408   4.595   3.172   6.660 -0.3979 -0.3522 -1.1003
 5592SOL    HW128409   4.645   3.203   6.585  2.8325 -1.0054  0.7581
 5592SOL    HW228410   4.528   3.239   6.659 -1.6256 -1.5752 -0.7332
 5593SOL     OW28411   0.984   0.610  12.844 -0.1109  0.1069 -0.1942
 5593SOL    HW128412   1.025   0.525  12.831 -1.9697 -1.1660  2.1873
 5593SOL    HW228413   0.901   0.609  12.797 -0.1754 -0.8360 -0.0648
 5594SOL     OW28414   4.740   1.530   1.627  0.2821  0.2752 -0.3551
 5594SOL    HW128415   4.670   1.591   1.605 -0.8278 -0.7384  0.3803
 5594SOL    HW228416   4.699   1.452   1.590  1.7581 -1.1351  1.0087
 5595SOL     OW28417   2.253   1.075   5.107 -0.3691 -0.3679 -0.6154
 5595SOL    HW128418   2.309   1.002   5.080  1.4089 -0.3584  2.9199
 5595SOL    HW228419   2.324   1.137   5.123 -0.8227  0.0765 -0.3439
 5596SOL     OW28420   1.591   0.221   1.677 -0.4448  0.2311  0.1012
 5596SOL    HW128421   1.674   0.189   1.713  1.7451  4.4751 -1.0961
 5596SOL    HW228422   1.570   0.151   1.616 -0.2160 -0.5756  0.9516
 5597SOL     OW28423   3.008   0.482   1.942  0.0603 -0.0271  0.2869
 5597SOL    HW128424   3.035   0.400   1.900 -1.4635  0.7475 -2.2370
 5597SOL    HW228425   3.042   0.488   2.031 -0.6208  1.2754  0.4622
 5598SOL     OW28426   2.723   2.223   2.200 -0.0463  0.2597 -0.1109
 5598SOL    HW128427   2.734   2.318   2.197 -0.5502  0.3269  0.0977
 5598SOL    HW228428   2.741   2.194   2.110 -0.1688 -2.0700  0.6342
 5599SOL     OW28429   0.253   3.164   5.512  0.2230  0.2115 -0.1183
 5599SOL    HW128430   0.171   3.211   5.495 -0.1933  0.2080  1.9037
 5599SOL    HW228431   0.291   3.217   5.581  1.2801  0.5654 -0.9695
 5600SOL     OW28432   0.515   0.236   3.608  0.4604  0.4211  0.7106
 5600SOL    HW128433   0.553   0.255   3.694 -1.6071 -0.0022  1.7184
 5600SOL    HW228434   0.596   0.193   3.579 -1.2838 -2.3450 -0.0513
 5601SOL     OW28435   0.602   1.034   9.672 -0.2939 -0.2702 -0.1422
 5601SOL    HW128436   0.672   1.052   9.734 -1.3837  0.8769  0.7697
 5601SOL    HW228437   0.526   1.055   9.727  0.5960  1.6747  0.3416
 5602SOL     OW28438   4.099   4.182   7.331  0.2561  0.3566 -0.0192
 5602SOL    HW128439   4.183   4.205   7.291  0.6663  0.7531  1.0523
 5602SOL    HW228440   4.037   4.200   7.261 -0.3743 -3.5089 -0.4431
 5603SOL     OW28441   0.823   0.126  14.070  0.2547 -0.3064  0.2153
 5603SOL    HW128442   0.859   0.144  14.156  1.0490  1.9375 -0.5899
 5603SOL    HW228443   0.741   0.082  14.095  0.1858  0.1093  0.7193
 5604SOL     OW28444   1.601   4.133   8.429 -0.2675 -0.1416 -0.4261
 5604SOL    HW128445   1.532   4.127   8.495  0.7760 -0.1290  0.6673
 5604SOL    HW228446   1.552   4.193   8.372 -0.6367 -1.4529 -1.4879
 5605SOL     OW28447   1.889   0.219   6.636  0.0762  0.3906 -0.0293
 5605SOL    HW128448   1.880   0.140   6.689  0.0552  0.0447 -0.5451
 5605SOL    HW228449   1.797   0.246   6.636  0.2558  0.9534  3.7753
 5606SOL     OW28450   2.637   2.372   0.945  0.0684  0.1777  0.0349
 5606SOL    HW128451   2.670   2.308   0.881 -2.1056 -1.1870  0.2791
 5606SOL    HW228452   2.546   2.343   0.943  0.5972 -1.4726 -0.7249
 5607SOL     OW28453   2.698   2.645   9.195 -0.5695 -0.1366 -0.3736
 5607SOL    HW128454   2.741   2.665   9.111 -0.8999 -2.6405 -1.1303
 5607SOL    HW228455   2.671   2.730   9.229  0.9916  1.1291 -2.2847
 5608SOL     OW28456   2.282   2.935   1.796  0.4346 -0.2429 -0.2111
 5608SOL    HW128457   2.376   2.946   1.784  0.5692 -0.4021  0.6693
 5608SOL    HW228458   2.280   2.939   1.892 -1.4675  0.1122 -0.2588
 5609SOL     OW28459   0.568   2.822  14.035  0.2758 -0.1794  0.3742
 5609SOL    HW128460   0.613   2.906  14.029  0.2211 -0.2938 -1.4319
 5609SOL    HW228461   0.486   2.837  13.988  1.2290  1.9766 -0.5606
 5610SOL     OW28462   1.127   0.023  15.837 -0.4420  0.3249 -0.3083
 5610SOL    HW128463   1.130   0.048  15.929 -1.1844  2.3748 -0.8453
 5610SOL    HW228464   1.216   0.050  15.813 -1.4092  2.4579 -1.5297
 5611SOL     OW28465   2.678   4.252   8.817 -0.1644 -0.0049 -0.1220
 5611SOL    HW128466   2.629   4.316   8.869 -0.6802 -0.5998  0.1255
 5611SOL    HW228467   2.695   4.182   8.880 -1.4541 -0.4779 -0.3034
 5612SOL     OW28468   4.261   3.591   9.045  0.3088  0.6363 -0.2290
 5612SOL    HW128469   4.307   3.532   8.985 -0.8042 -1.0031  0.5091
 5612SOL    HW228470   4.203   3.525   9.084  0.4388  0.4002 -0.4337
 5613SOL     OW28471   1.337   3.336   1.061 -0.2335 -0.4832  0.9334
 5613SOL    HW128472   1.365   3.245   1.069 -0.2415 -0.8040 -2.6738
 5613SOL    HW228473   1.320   3.339   1.155 -0.2667 -1.9984  0.9667
 5614SOL     OW28474   1.297   0.015   8.480 -0.1682  0.2862  0.7628
 5614SOL    HW128475   1.318   4.687   8.417  0.4204  2.0802 -0.9897
 5614SOL    HW228476   1.337   0.091   8.438  0.0315  0.3357  1.0387
 5615SOL     OW28477   3.969   3.746   2.637  0.4601  0.6489 -0.3850
 5615SOL    HW128478   3.994   3.777   2.551 -0.2038 -0.3266 -0.9397
 5615SOL    HW228479   3.979   3.831   2.680 -3.7859  1.0618 -0.2205
 5616SOL     OW28480   2.532   0.906  13.850 -0.8808 -0.4592 -0.2160
 5616SOL    HW128481   2.491   0.923  13.935 -0.2593  0.3106 -0.0690
 5616SOL    HW228482   2.622   0.883  13.873 -0.0655 -0.4657 -3.4560
 5617SOL     OW28483   3.888   0.623   6.034 -0.5591  0.4463 -0.2669
 5617SOL    HW128484   3.906   0.683   5.961 -0.1187 -2.1427 -2.2981
 5617SOL    HW228485   3.960   0.563   6.013 -2.7574 -2.6172  0.8520
 5618SOL     OW28486   2.503   3.357  17.353 -0.0976  0.1736  0.1966
 5618SOL    HW128487   2.422   3.310  17.333 -1.0167  1.3824  1.0698
 5618SOL    HW228488   2.476   3.448  17.365  0.6804  0.0308  3.0386
 5619SOL     OW28489   2.924   1.166   2.981 -0.7230  0.4155  0.3385
 5619SOL    HW128490   2.837   1.156   3.021 -0.6046 -0.4606  0.3655
 5619SOL    HW228491   2.900   1.151   2.889 -0.2353  0.0189  0.2813
 5620SOL     OW28492   3.794   2.289   7.911 -0.2538 -0.0686 -0.5378
 5620SOL    HW128493   3.879   2.323   7.881 -0.1091  0.9598  1.0017
 5620SOL    HW228494   3.756   2.356   7.968 -0.6932  0.8152 -1.8957
 5621SOL     OW28495   1.334   1.589   6.616  0.0987  0.2501 -0.4323
 5621SOL    HW128496   1.281   1.669   6.629 -1.0109 -0.2940 -1.5531
 5621SOL    HW228497   1.319   1.581   6.521  1.0021  0.9021 -0.6223
 5622SOL     OW28498   0.577   3.319   5.547 -0.0068 -0.2040  0.0215
 5622SOL    HW128499   0.572   3.401   5.499  2.5851  0.9882  1.8254
 5622SOL    HW228500   0.618   3.354   5.625 -0.0123  0.5987 -0.3362
 5623SOL     OW28501   1.981   0.144   5.608  0.6819 -0.2165  0.0745
 5623SOL    HW128502   1.961   0.208   5.676  0.4742 -2.4911  2.1451
 5623SOL    HW228503   2.014   0.208   5.545 -0.3610  0.0982 -0.1612
 5624SOL     OW28504   4.344   0.097   5.322  0.1747  0.4521  0.8692
 5624SOL    HW128505   4.330   0.075   5.414 -1.2944 -1.4038  0.2127
 5624SOL    HW228506   4.439   0.084   5.316 -0.0992 -2.3186  2.6028
 5625SOL     OW28507   3.722   3.858  15.983  0.1053 -0.2266  0.0907
 5625SOL    HW128508   3.647   3.809  15.948  1.4584 -3.3098  1.4866
 5625SOL    HW228509   3.792   3.799  15.956  0.7696  1.1472 -1.1456
 5626SOL     OW28510   4.334   4.330   2.419 -0.3053  0.3255 -0.3001
 5626SOL    HW128511   4.351   4.338   2.325  1.2104  1.2375  0.0443
 5626SOL    HW228512   4.306   4.418   2.442 -0.7037  0.2715 -0.5960
 5627SOL     OW28513   2.254   4.124   3.676 -0.1047 -0.5616 -0.2263
 5627SOL    HW128514   2.254   4.181   3.753 -0.8177 -0.8954  0.0193
 5627SOL    HW228515   2.194   4.181   3.628  1.8618  1.5450 -0.1627
 5628SOL     OW28516   1.353   3.406   8.144 -0.2334  0.6740 -0.5055
 5628SOL    HW128517   1.283   3.341   8.141 -1.0695  1.4852  1.5662
 5628SOL    HW228518   1.400   3.372   8.221 -3.1337 -2.1511  0.0421
 5629SOL     OW28519   3.978   4.489  12.334 -0.0552  0.5649  0.0922
 5629SOL    HW128520   3.954   4.481  12.427  2.7285  1.7129  0.9273
 5629SOL    HW228521   3.999   4.583  12.332  0.6800  0.4122  0.5354
 5630SOL     OW28522   1.487   2.334   2.194  0.2192  0.0317 -0.0533
 5630SOL    HW128523   1.568   2.306   2.152 -0.3501 -0.1034 -1.0598
 5630SOL    HW228524   1.452   2.391   2.125  0.1201  0.7805  0.6137
 5631SOL     OW28525   0.458   2.885   3.950  0.0518 -0.3901 -0.3443
 5631SOL    HW128526   0.535   2.939   3.963  0.2096 -0.3439 -1.5016
 5631SOL    HW228527   0.383   2.942   3.970  0.6519  0.3056 -0.0971
 5632SOL     OW28528   1.238   4.048   3.024  0.0152 -0.4833 -0.5016
 5632SOL    HW128529   1.247   3.954   3.004  0.6597 -0.2068 -1.4945
 5632SOL    HW228530   1.143   4.062   3.020  0.1315 -0.8596 -5.5913
 5633SOL     OW28531   1.796   3.328   9.468  0.0138 -0.2959  0.3009
 5633SOL    HW128532   1.781   3.417   9.435  0.5777  0.6118  2.4930
 5633SOL    HW228533   1.718   3.287   9.430 -0.0509 -0.1535  0.2803
 5634SOL     OW28534   3.352   4.460  11.652  0.1171  0.0455 -0.4656
 5634SOL    HW128535   3.443   4.458  11.681  0.1293 -1.8608 -0.6475
 5634SOL    HW228536   3.308   4.429  11.731  0.5061 -0.3181 -0.3941
 5635SOL     OW28537   1.947   0.037   1.252  0.0113  0.5046 -0.0920
 5635SOL    HW128538   2.036   0.038   1.286 -0.3267 -1.5870  0.8381
 5635SOL    HW228539   1.892   0.026   1.330  1.1608 -0.3005  0.6012
 5636SOL     OW28540   4.460   2.323   0.677  0.7565 -0.1420 -0.6202
 5636SOL    HW128541   4.500   2.388   0.735  1.5191  0.2762 -1.6184
 5636SOL    HW228542   4.437   2.250   0.735  0.2617  0.6227  0.1440
 5637SOL     OW28543   1.012   3.725   9.250  0.0719 -0.5440  0.0264
 5637SOL    HW128544   1.019   3.672   9.329  0.0528  0.1655  0.5003
 5637SOL    HW228545   0.933   3.684   9.215 -0.2621  1.1633 -1.2296
 5638SOL     OW28546   1.783   2.051   4.443 -0.2717 -0.4806  0.4099
 5638SOL    HW128547   1.842   1.975   4.444 -0.0897 -0.3405  0.0532
 5638SOL    HW228548   1.703   2.002   4.423 -0.5293 -0.0456  0.3987
 5639SOL     OW28549   4.549   2.574   6.294 -0.0412  0.6452 -0.1731
 5639SOL    HW128550   4.600   2.502   6.256 -0.1708  0.9025 -0.8312
 5639SOL    HW228551   4.460   2.540   6.282  0.3335 -0.7929  1.1085
 5640SOL     OW28552   3.396   3.940   9.693 -0.4928 -0.1488  0.3407
 5640SOL    HW128553   3.428   3.855   9.661  0.0893 -0.7388  2.5093
 5640SOL    HW228554   3.304   3.928   9.669 -0.3270  0.5434 -0.6306
 5641SOL     OW28555   3.218   1.645  12.549  0.0061  0.8885 -0.2523
 5641SOL    HW128556   3.214   1.653  12.454 -1.3692 -0.8243 -0.3307
 5641SOL    HW228557   3.311   1.647  12.574  0.2582 -0.3390 -1.1208
 5642SOL     OW28558   1.155   1.383   3.607  0.0227 -0.0366 -0.3803
 5642SOL    HW128559   1.240   1.366   3.566  0.0286 -2.2413  0.5949
 5642SOL    HW228560   1.126   1.451   3.546 -1.7862  1.2586  1.9110
 5643SOL     OW28561   1.626   2.601   5.441 -0.4828  0.0602 -0.3773
 5643SOL    HW128562   1.539   2.563   5.443 -0.4683 -0.0696 -1.7950
 5643SOL    HW228563   1.677   2.538   5.491 -2.8031 -1.2248  0.3447
 5644SOL     OW28564   1.649   4.584   2.419 -0.1700  0.1988 -0.4550
 5644SOL    HW128565   1.584   4.545   2.361  0.4986  0.9560 -1.7345
 5644SOL    HW228566   1.605   4.575   2.503 -0.5424 -1.5086 -0.8440
 5645SOL     OW28567   0.865   1.052   6.242 -0.6960  0.0938 -0.1255
 5645SOL    HW128568   0.932   1.119   6.258  0.5785 -1.3152  0.4541
 5645SOL    HW228569   0.824   1.085   6.163  0.4038 -0.1513 -0.7988
 5646SOL     OW28570   3.158   2.210  13.076 -0.4334 -0.0616  0.4024
 5646SOL    HW128571   3.188   2.296  13.049 -1.2353  0.2292  0.4424
 5646SOL    HW228572   3.064   2.215  13.058 -0.7459 -2.7177  1.2982
 5647SOL     OW28573   1.245   4.280   0.417  0.0697 -0.3052  0.0725
 5647SOL    HW128574   1.241   4.271   0.322  0.0327  1.2782 -0.0694
 5647SOL    HW228575   1.307   4.351   0.433 -2.0847  1.7832 -0.9227
 5648SOL     OW28576   1.567   2.474   2.805  0.0891  0.0105 -0.7746
 5648SOL    HW128577   1.493   2.517   2.847 -0.7028 -1.4145 -0.7069
 5648SOL    HW228578   1.537   2.384   2.816 -1.4972  0.6316 -0.1132
 5649SOL     OW28579   3.537   3.652   2.747 -0.4018  0.2519 -0.3466
 5649SOL    HW128580   3.577   3.738   2.765  1.9651 -1.1595  1.1355
 5649SOL    HW228581   3.610   3.590   2.749 -0.2903  0.4711  2.1704
 5650SOL     OW28582   4.071   1.963   9.262  0.6523 -0.2002  0.4830
 5650SOL    HW128583   3.999   2.022   9.284  1.7411  1.0963  0.5713
 5650SOL    HW228584   4.052   1.890   9.321 -2.8456 -1.0860 -1.6808
 5651SOL     OW28585   3.158   3.688   7.359  0.4806 -0.1351  0.2023
 5651SOL    HW128586   3.126   3.649   7.441  1.3768 -2.9833 -0.8196
 5651SOL    HW228587   3.113   3.772   7.363  0.9481  0.0675  1.3400
 5652SOL     OW28588   3.766   1.036  11.880 -0.4912  0.1383 -0.4462
 5652SOL    HW128589   3.738   1.017  11.969  2.9780 -0.5223  0.4888
 5652SOL    HW228590   3.741   1.127  11.866 -4.3895 -0.7160  0.8549
 5653SOL     OW28591   4.674   0.202  16.709 -0.1311  0.2153  0.8809
 5653SOL    HW128592   4.583   0.175  16.717  0.7727 -2.8829  0.6284
 5653SOL    HW228593   4.683   0.239  16.797  1.6818  2.5960 -0.3000
 5654SOL     OW28594   4.011   0.725   5.777 -0.1016 -0.3022  0.7501
 5654SOL    HW128595   3.928   0.771   5.790  0.6356  0.8797  1.3405
 5654SOL    HW228596   4.050   0.774   5.704  2.1489 -3.1971  0.0403
 5655SOL     OW28597   1.233   1.975  16.100 -1.0067  0.0902 -0.2417
 5655SOL    HW128598   1.239   1.915  16.174 -0.4115  1.1887  0.6057
 5655SOL    HW228599   1.159   2.032  16.119 -0.4455  1.4698 -2.2025
 5656SOL     OW28600   2.882   2.104  13.907 -0.0310 -0.3411 -0.1215
 5656SOL    HW128601   2.829   2.182  13.925 -0.4145 -0.3290 -1.3035
 5656SOL    HW228602   2.965   2.128  13.947 -0.5055 -0.1348  0.7431
 5657SOL     OW28603   0.492   1.489  15.796 -0.3065 -0.1204 -0.5516
 5657SOL    HW128604   0.552   1.441  15.853 -0.5370  1.3155  0.9254
 5657SOL    HW228605   0.522   1.578  15.815  1.2901 -0.8260  0.2441
 5658SOL     OW28606   1.127   0.034  10.199  0.1261  0.2480  0.3895
 5658SOL    HW128607   1.125   0.019  10.294  0.0874 -0.1056  0.3313
 5658SOL    HW228608   1.189   0.107  10.191 -0.9872  0.8080 -2.8312
 5659SOL     OW28609   4.294   2.345   8.974  0.0502  0.0466  0.1150
 5659SOL    HW128610   4.281   2.254   8.998 -0.4015 -0.6981 -3.0108
 5659SOL    HW228611   4.347   2.372   9.050 -0.5065 -1.6641  1.1138
 5660SOL     OW28612   3.498   4.076  14.581 -0.3810  0.0064 -0.1304
 5660SOL    HW128613   3.462   4.143  14.524 -0.9822  0.1387  0.4113
 5660SOL    HW228614   3.436   4.005  14.563 -0.4719 -0.3541  1.5725
 5661SOL     OW28615   3.322   0.054   2.301 -0.2192  0.0115 -0.1400
 5661SOL    HW128616   3.266   0.086   2.372  0.1956  1.5244 -0.5002
 5661SOL    HW228617   3.274   0.074   2.221 -0.6063 -2.1083 -0.4260
 5662SOL     OW28618   0.905   0.656   4.307 -0.8213  0.5642  0.6295
 5662SOL    HW128619   0.884   0.607   4.386 -0.4582  2.5461  1.9741
 5662SOL    HW228620   0.868   0.737   4.343  0.4104  0.5178  2.0200
 5663SOL     OW28621   0.550   3.364   3.033 -0.4078 -0.0233  0.3165
 5663SOL    HW128622   0.454   3.362   3.036 -0.3286 -1.0372  1.9207
 5663SOL    HW228623   0.566   3.343   3.125 -0.5066 -0.1755  0.2984
 5664SOL     OW28624   2.183   2.795   2.693 -0.4525  0.4240 -0.4123
 5664SOL    HW128625   2.243   2.846   2.748 -2.0968 -0.4625  2.1776
 5664SOL    HW228626   2.163   2.722   2.751  2.2338  1.1012  1.3697
 5665SOL     OW28627   4.156   3.389  12.036  0.1331  0.4517 -0.3451
 5665SOL    HW128628   4.191   3.427  12.116 -1.4989  1.6662 -0.2029
 5665SOL    HW228629   4.126   3.467  11.989 -2.1152 -0.9652 -1.2511
 5666SOL     OW28630   0.524   2.695   3.774 -0.1203  0.3858  0.7567
 5666SOL    HW128631   0.515   2.772   3.830  0.0665  1.8265 -1.1543
 5666SOL    HW228632   0.440   2.682   3.730  1.1611 -0.0561 -1.5544
 5667SOL     OW28633   3.085   1.631   1.857 -0.4140  0.5265 -0.1855
 5667SOL    HW128634   3.046   1.698   1.801  1.6157  2.0114  0.1776
 5667SOL    HW228635   3.013   1.637   1.920 -1.4387  1.3142 -1.4474
 5668SOL     OW28636   2.099   1.615   4.422 -0.0344 -0.3619  0.4836
 5668SOL    HW128637   2.184   1.639   4.387 -0.4550  2.1007  1.1473
 5668SOL    HW228638   2.128   1.608   4.513  0.3475 -1.2458  0.2947
 5669SOL     OW28639   1.276   1.574  13.531  0.0816 -0.7023  0.3441
 5669SOL    HW128640   1.218   1.566  13.607  0.1423 -1.8035  0.2854
 5669SOL    HW228641   1.306   1.483  13.526  1.4139 -0.3526  1.7472
 5670SOL     OW28642   0.734   2.570  15.885 -0.1015 -0.2632  0.0579
 5670SOL    HW128643   0.647   2.610  15.892 -0.2616 -0.2894 -1.7977
 5670SOL    HW228644   0.749   2.558  15.978  1.2463  0.7364 -0.0322
 5671SOL     OW28645   0.202   1.397   3.091  0.0701 -0.0029 -0.0775
 5671SOL    HW128646   0.199   1.303   3.073  0.1067 -0.3680  1.8601
 5671SOL    HW228647   0.270   1.427   3.031  1.0782 -1.9638  0.0844
 5672SOL     OW28648   3.199   2.462   3.913 -0.4896  0.0251  0.3125
 5672SOL    HW128649   3.239   2.406   3.979 -1.0578  0.2610  0.8575
 5672SOL    HW228650   3.131   2.502   3.968  0.0373  0.8122  0.3934
 5673SOL     OW28651   2.130   1.456   2.409 -0.0545  0.2379 -0.7195
 5673SOL    HW128652   2.139   1.445   2.314  0.6513 -0.0834 -0.6208
 5673SOL    HW228653   2.184   1.380   2.430  0.0778  0.5179 -0.0492
 5674SOL     OW28654   4.337   0.687  13.847  0.1020 -0.2082 -0.2616
 5674SOL    HW128655   4.427   0.690  13.882  0.3936  1.0975 -1.1049
 5674SOL    HW228656   4.306   0.773  13.874 -0.6367 -1.2959  2.3535
 5675SOL     OW28657   0.378   1.958   5.297  0.5114  0.0551  0.2260
 5675SOL    HW128658   0.461   1.909   5.296  0.6750  0.3583 -1.0922
 5675SOL    HW228659   0.399   2.048   5.324  0.2027  0.8790 -2.3194
 5676SOL     OW28660   3.785   0.303   3.775  0.3744  0.2309  0.2510
 5676SOL    HW128661   3.828   0.249   3.842 -0.8890 -0.1384  0.7723
 5676SOL    HW228662   3.705   0.327   3.821  1.6013  1.4930  1.7185
 5677SOL     OW28663   2.049   1.840   5.265 -0.1733 -0.1375 -0.0400
 5677SOL    HW128664   2.012   1.775   5.205 -2.4777  0.7321  0.4519
 5677SOL    HW228665   2.045   1.787   5.345  0.3307 -0.7805 -0.4390
 5678SOL     OW28666   4.580   4.071   5.352 -0.5353  0.5866  0.2188
 5678SOL    HW128667   4.546   4.026   5.275  2.3770 -0.9262 -0.2021
 5678SOL    HW228668   4.580   4.006   5.423 -1.5354 -0.1196 -0.4293
 5679SOL     OW28669   2.852   2.813   6.362  0.2941  0.2862  0.3113
 5679SOL    HW128670   2.882   2.723   6.350 -1.2722 -0.0464 -1.1770
 5679SOL    HW228671   2.771   2.797   6.411  0.7084  0.4023  1.0321
 5680SOL     OW28672   4.514   2.558   9.404 -0.2152 -0.0933 -0.2988
 5680SOL    HW128673   4.470   2.541   9.487  0.1215  3.4396  0.6275
 5680SOL    HW228674   4.568   2.637   9.406  0.4328 -0.5099 -1.1880
 5681SOL     OW28675   0.015   4.100  10.573  0.0895 -0.1740  0.0124
 5681SOL    HW128676   0.101   4.108  10.613 -0.4529 -0.9223  1.3326
 5681SOL    HW228677   0.035   4.052  10.493 -0.8638 -1.8140  0.7658
 5682SOL     OW28678   0.019   0.353   7.922  0.2373  0.8949 -0.3465
 5682SOL    HW128679   4.696   0.419   7.896 -0.6248 -0.2385 -1.1150
 5682SOL    HW228680   4.709   0.272   7.915  2.5475 -0.4684 -1.4229
 5683SOL     OW28681   3.884   2.078  16.060 -0.7087 -0.2746 -0.4448
 5683SOL    HW128682   3.955   2.138  16.038  0.0276 -1.2829 -0.8423
 5683SOL    HW228683   3.836   2.067  15.978  0.0714  1.3122 -1.1037
 5684SOL     OW28684   3.413   4.091   1.335 -0.1006  0.1521 -0.2382
 5684SOL    HW128685   3.367   4.054   1.410  0.3235  3.1005  1.5082
 5684SOL    HW228686   3.411   4.187   1.338  1.2916  0.2480 -2.0948
 5685SOL     OW28687   1.508   4.006   3.885 -0.4203 -0.0827 -0.3043
 5685SOL    HW128688   1.420   4.028   3.914 -0.5578 -1.4840  0.3881
 5685SOL    HW228689   1.510   4.052   3.801  1.4861 -1.5644 -1.1047
 5686SOL     OW28690   1.338   1.414   2.993 -0.3251  0.4343 -0.1930
 5686SOL    HW128691   1.364   1.421   3.085  0.4318  0.9465 -0.4431
 5686SOL    HW228692   1.255   1.366   2.997  0.4417 -0.9095 -0.7278
 5687SOL     OW28693   0.822   1.677   9.070 -0.2396 -0.0204  0.7092
 5687SOL    HW128694   0.877   1.643   9.141  0.7624 -0.4369 -0.2603
 5687SOL    HW228695   0.796   1.760   9.108 -3.0430 -0.5001 -0.1781
 5688SOL     OW28696   0.442   3.613  10.779  0.0192 -0.2869  0.0705
 5688SOL    HW128697   0.476   3.544  10.722  0.8717  0.1742  0.0096
 5688SOL    HW228698   0.457   3.688  10.721  0.5414  0.2644  0.9112
 5689SOL     OW28699   3.197   3.407   8.648  0.1728 -0.1147  0.2770
 5689SOL    HW128700   3.114   3.448   8.624  0.4376 -0.1062 -0.6334
 5689SOL    HW228701   3.255   3.438   8.578 -0.7762  0.2114 -0.3639
 5690SOL     OW28702   1.027   0.258   5.582 -0.4231 -0.2664 -0.0975
 5690SOL    HW128703   1.110   0.266   5.628  0.2899 -1.9750 -1.0817
 5690SOL    HW228704   0.992   0.348   5.582  2.1972  0.7309  1.8431
 5691SOL     OW28705   0.541   3.450   8.782  0.1625 -0.7005  0.2058
 5691SOL    HW128706   0.487   3.380   8.744 -1.5312 -0.7656  2.7769
 5691SOL    HW228707   0.473   3.503   8.823 -0.8417 -1.4111 -0.5209
 5692SOL     OW28708   2.136   1.092   5.420 -0.3104  0.2738  0.4839
 5692SOL    HW128709   2.216   1.054   5.382 -0.0442  0.2393  1.0902
 5692SOL    HW228710   2.154   1.181   5.389  0.6934 -0.1138 -0.0457
 5693SOL     OW28711   4.352   1.557   1.429  0.4342  0.0008 -0.1144
 5693SOL    HW128712   4.295   1.482   1.444 -1.2679  1.3363  0.1820
 5693SOL    HW228713   4.403   1.536   1.351 -0.5570  1.1872 -1.0850
 5694SOL     OW28714   1.255   2.792   8.031  0.2312 -0.2630 -0.3290
 5694SOL    HW128715   1.257   2.701   7.999 -1.2740 -1.0454  1.7559
 5694SOL    HW228716   1.228   2.841   7.953  0.9765  0.1234 -0.3416
 5695SOL     OW28717   0.238   2.490   4.086  0.2921 -0.4956 -0.3011
 5695SOL    HW128718   0.292   2.547   4.140 -0.1595 -0.3253 -0.0251
 5695SOL    HW228719   0.286   2.408   4.070  3.4914  1.1116  1.1197
 5696SOL     OW28720   3.508   2.500   7.429  0.5059 -0.0361 -0.4382
 5696SOL    HW128721   3.488   2.537   7.343 -2.4684 -0.5131  0.0669
 5696SOL    HW228722   3.565   2.430   7.398  2.6372  1.6454 -0.3898
 5697SOL     OW28723   1.889   3.864   0.706 -0.0131 -0.0534  0.1673
 5697SOL    HW128724   1.848   3.950   0.691  0.1011  0.2431  1.6350
 5697SOL    HW228725   1.981   3.864   0.678  0.6818 -2.2823  2.4911
 5698SOL     OW28726   3.013   4.282  10.233  0.2226  0.7893 -0.7897
 5698SOL    HW128727   3.038   4.190  10.226  0.1515  0.6685  0.6717
 5698SOL    HW228728   3.071   4.326  10.171  2.2362  1.1208  1.3280
 5699SOL     OW28729   3.847   0.349   1.161 -0.2877  0.4248 -0.2058
 5699SOL    HW128730   3.933   0.347   1.118  1.6814  0.4522  3.6983
 5699SOL    HW228731   3.801   0.290   1.102  0.4142  0.7662 -1.0926
 5700SOL     OW28732   0.118   0.211   2.836  0.2549 -0.2691  0.0969
 5700SOL    HW128733   0.042   0.153   2.829 -0.4324  0.6669 -0.2019
 5700SOL    HW228734   0.153   0.204   2.747  1.7346 -0.8488  0.7191
 5701SOL     OW28735   0.938   1.747  12.446  0.1900  0.4840 -0.0763
 5701SOL    HW128736   0.948   1.659  12.408 -0.5417  0.0021  0.8556
 5701SOL    HW228737   0.876   1.727  12.515  1.3848  0.6864  1.0543
 5702SOL     OW28738   1.730   1.684   7.278  0.3229  0.0202 -0.2653
 5702SOL    HW128739   1.715   1.721   7.364 -0.3292 -1.1790  0.1462
 5702SOL    HW228740   1.640   1.663   7.252  0.9566  0.1162 -2.5021
 5703SOL     OW28741   0.572   0.422   2.035  0.0304  0.0070 -0.5270
 5703SOL    HW128742   0.630   0.497   2.020  1.9101 -0.7558  3.0498
 5703SOL    HW228743   0.510   0.470   2.089  0.7395 -0.4772  0.7142
 5704SOL     OW28744   4.449   2.053   5.823  0.1941 -0.6566  0.3872
 5704SOL    HW128745   4.470   2.108   5.747  0.4633 -0.1350  0.8422
 5704SOL    HW228746   4.422   2.120   5.886  0.3028 -0.4619  0.2263
 5705SOL     OW28747   4.143   2.723   3.947  0.2206  0.7428 -0.0892
 5705SOL    HW128748   4.194   2.649   3.979 -1.6621  0.1916  1.6465
 5705SOL    HW228749   4.120   2.772   4.026  0.1805 -1.6510  1.3962
 5706SOL     OW28750   1.893   0.766   7.887 -0.1933 -0.6299 -0.2618
 5706SOL    HW128751   1.866   0.835   7.947 -0.6434 -1.5460  0.6061
 5706SOL    HW228752   1.875   0.685   7.935 -1.5467 -0.6496 -0.7882
 5707SOL     OW28753   3.523   3.866  11.782 -0.0070 -0.5350  1.4314
 5707SOL    HW128754   3.610   3.883  11.747  0.2718 -1.5413  1.6487
 5707SOL    HW228755   3.542   3.876  11.875  2.5038 -1.5758  1.0183
 5708SOL     OW28756   1.342   3.711   4.097  0.0391  0.7103 -0.0239
 5708SOL    HW128757   1.330   3.707   4.192 -4.6584  0.8085 -0.5941
 5708SOL    HW228758   1.417   3.770   4.096 -0.2045  1.0044 -0.6570
 5709SOL     OW28759   2.750   0.238  12.414 -0.2925  0.3064 -0.2318
 5709SOL    HW128760   2.826   0.283  12.450 -0.4893  1.7753 -1.6485
 5709SOL    HW228761   2.689   0.236  12.488 -0.0612 -2.6718 -0.1296
 5710SOL     OW28762   2.610   4.555   4.126 -0.4380  0.0165 -0.0396
 5710SOL    HW128763   2.550   4.623   4.097  0.7615  0.5034 -1.3857
 5710SOL    HW228764   2.622   4.573   4.219 -2.7357 -0.9238  0.4425
 5711SOL     OW28765   4.254   3.373   2.042 -0.2038 -0.0789 -0.4668
 5711SOL    HW128766   4.174   3.364   1.991 -1.1740  2.4021  0.5904
 5711SOL    HW228767   4.244   3.459   2.085 -0.6114 -0.8032  0.8888
 5712SOL     OW28768   4.274   1.847   8.577  0.7595  0.4524 -0.0945
 5712SOL    HW128769   4.335   1.897   8.523  0.9228 -1.9999 -2.1744
 5712SOL    HW228770   4.330   1.773   8.599 -0.4018 -0.5777 -0.6232
 5713SOL     OW28771   0.740   4.163   1.212  0.0261  0.3166 -0.3203
 5713SOL    HW128772   0.802   4.091   1.201  1.8159  1.9964 -1.4254
 5713SOL    HW228773   0.797   4.234   1.182 -1.3166  1.3576 -0.4039
 5714SOL     OW28774   4.105   1.269   8.501 -0.0010 -0.4632 -0.0001
 5714SOL    HW128775   4.155   1.258   8.582  2.1490  0.4177 -1.1832
 5714SOL    HW228776   4.167   1.302   8.435 -0.1485  0.0493  0.1154
 5715SOL     OW28777   0.852   4.709   6.438  0.9435  0.1913  0.2484
 5715SOL    HW128778   0.833   4.659   6.517 -1.2946 -1.0505 -1.0586
 5715SOL    HW228779   0.789   4.669   6.378  0.4190  0.2880  0.7345
 5716SOL     OW28780   4.142   0.758   3.995 -0.0855  0.0583 -0.1215
 5716SOL    HW128781   4.127   0.828   4.059  2.5419  0.7182 -0.2046
 5716SOL    HW228782   4.154   0.811   3.916  0.4960 -1.6332 -1.1557
 5717SOL     OW28783   3.465   3.374   2.500 -0.4786  0.1523  0.0673
 5717SOL    HW128784   3.492   3.351   2.589 -1.0196 -0.5773  0.0446
 5717SOL    HW228785   3.548   3.384   2.454 -1.1116 -2.1220 -1.5859
 5718SOL     OW28786   3.991   2.798  13.680 -0.2051 -0.4704  0.3874
 5718SOL    HW128787   4.075   2.811  13.635  0.4613 -1.9183  1.2001
 5718SOL    HW228788   4.014   2.789  13.773  0.9956 -0.1275  0.1227
 5719SOL     OW28789   4.295   0.820   0.537 -0.4527 -0.4815  0.1243
 5719SOL    HW128790   4.363   0.753   0.543  1.2577  1.0818 -1.7421
 5719SOL    HW228791   4.225   0.785   0.592  1.5951 -2.3109  1.5512
 5720SOL     OW28792   1.162   0.181   3.312  0.6990 -0.2857  0.7277
 5720SOL    HW128793   1.254   0.161   3.329  0.4647 -0.1032  2.2855
 5720SOL    HW228794   1.117   0.167   3.396  0.1196  1.6188  0.7269
 5721SOL     OW28795   4.644   3.146   8.197 -0.2291 -0.0544 -0.2565
 5721SOL    HW128796   4.607   3.112   8.279  1.8733  0.5386  0.9349
 5721SOL    HW228797   4.666   3.233   8.230 -1.5391  0.0685  0.2762
 5722SOL     OW28798   3.206   3.628   6.379 -0.2396  0.0510 -0.5537
 5722SOL    HW128799   3.119   3.641   6.416 -1.0918 -3.8292 -1.2037
 5722SOL    HW228800   3.263   3.691   6.422 -1.6326  1.0772 -0.2332
 5723SOL     OW28801   0.505   0.821  11.039  0.5046 -0.4430  0.1306
 5723SOL    HW128802   0.433   0.773  10.998 -0.1421  0.3053  0.3835
 5723SOL    HW228803   0.573   0.837  10.974  0.2277 -5.9579 -1.4498
 5724SOL     OW28804   2.156   1.207   7.026  0.0283  0.7695  0.1160
 5724SOL    HW128805   2.194   1.256   7.098  0.2549  2.2910 -1.0288
 5724SOL    HW228806   2.228   1.148   7.004  0.2149  1.4088 -0.9743
 5725SOL     OW28807   1.024   3.558   8.666  0.6571  0.2350 -0.5200
 5725SOL    HW128808   1.081   3.620   8.712 -0.2885  1.7146 -1.3461
 5725SOL    HW228809   1.089   3.503   8.622  0.4649 -0.3134 -0.1134
 5726SOL     OW28810   3.189   0.845   2.722  0.4185 -0.3087 -0.3226
 5726SOL    HW128811   3.130   0.875   2.791  0.2938 -0.5732 -0.3159
 5726SOL    HW228812   3.206   0.756   2.751  0.3934 -0.1365  0.2135
 5727SOL     OW28813   2.358   4.634   8.520  0.0869 -0.4418 -0.1557
 5727SOL    HW128814   2.303   4.707   8.550  2.5378  0.7623  1.3350
 5727SOL    HW228815   2.443   4.663   8.551 -0.0567  0.3183 -0.4815
 5728SOL     OW28816   1.729   0.476  16.909 -0.1366  0.3989  0.0138
 5728SOL    HW128817   1.708   0.415  16.981 -1.1035 -0.6450 -1.1556
 5728SOL    HW228818   1.801   0.427  16.869 -0.0367 -0.1997  0.9021
 5729SOL     OW28819   3.598   2.763   4.572  0.4391 -0.6440 -0.8617
 5729SOL    HW128820   3.666   2.773   4.506  1.3000 -0.4624  0.0562
 5729SOL    HW228821   3.610   2.671   4.597 -0.4185 -0.2018  1.1860
 5730SOL     OW28822   1.824   4.281   0.752  0.0265 -0.5805 -0.2381
 5730SOL    HW128823   1.865   4.227   0.685  1.6357  0.1702  0.1433
 5730SOL    HW228824   1.873   4.262   0.831 -0.5933 -1.3074 -0.0268
 5731SOL     OW28825   0.445   4.193   9.891  0.4975  0.0258 -0.5963
 5731SOL    HW128826   0.528   4.231   9.920 -1.0557  1.6542  1.6954
 5731SOL    HW228827   0.401   4.199   9.975 -0.3494  1.0660 -1.1103
 5732SOL     OW28828   1.069   0.779   4.587 -0.1184  0.6320  0.0128
 5732SOL    HW128829   0.988   0.731   4.605  1.4368 -2.7165 -1.8107
 5732SOL    HW228830   1.137   0.740   4.642 -0.5467 -0.7192 -0.4205
 5733SOL     OW28831   4.045   2.468   5.832  0.8762  0.4111  0.4852
 5733SOL    HW128832   4.100   2.467   5.754 -0.8641  0.2162 -0.7531
 5733SOL    HW228833   4.041   2.561   5.854 -0.1324  0.7569 -1.1858
 5734SOL     OW28834   0.110   2.655  14.868  0.4412 -0.9220  0.1801
 5734SOL    HW128835   0.149   2.673  14.782 -0.4543  1.0406  0.1884
 5734SOL    HW228836   0.187   2.618  14.911  0.7293  2.3162  2.4824
 5735SOL     OW28837   3.229   3.681   9.785 -0.1036 -0.0210  0.2416
 5735SOL    HW128838   3.298   3.689   9.851 -0.2133 -3.0357  0.7285
 5735SOL    HW228839   3.192   3.599   9.818 -0.1132  0.3544  1.1741
 5736SOL     OW28840   2.835   3.452  15.287 -0.1226 -0.6078 -0.0926
 5736SOL    HW128841   2.812   3.465  15.195 -2.1962 -0.6187  0.4371
 5736SOL    HW228842   2.784   3.374  15.308  0.7604 -1.5426 -1.4512
 5737SOL     OW28843   1.211   4.095   1.622 -0.0848  0.5633 -0.6931
 5737SOL    HW128844   1.131   4.147   1.635 -1.6079 -1.3088 -2.7137
 5737SOL    HW228845   1.193   4.030   1.689 -0.5104  1.6229  0.2230
 5738SOL     OW28846   1.165   3.933   1.823 -0.4594  0.2088 -0.4001
 5738SOL    HW128847   1.122   3.913   1.906 -1.7239 -0.5489 -1.2435
 5738SOL    HW228848   1.239   3.874   1.837 -0.0307  1.1591  1.3962
 5739SOL     OW28849   2.848   4.392   4.809 -0.3455  0.2331  0.0954
 5739SOL    HW128850   2.857   4.435   4.724 -0.4176  1.3068  0.6449
 5739SOL    HW228851   2.764   4.423   4.841 -0.5697 -0.6038  0.3392
 5740SOL     OW28852   3.151   1.416   4.539 -0.1446  0.1941  0.3644
 5740SOL    HW128853   3.077   1.369   4.578  0.1247  0.1678  0.8483
 5740SOL    HW228854   3.186   1.459   4.617  0.7763 -0.3116  0.2308
 5741SOL     OW28855   1.359   4.602   2.387 -0.1941  0.5675 -0.4146
 5741SOL    HW128856   1.303   4.677   2.406  1.4797  2.0273 -1.3159
 5741SOL    HW228857   1.334   4.551   2.464 -0.2117 -1.1819 -1.5641
 5742SOL     OW28858   0.764   4.489   0.445 -0.1808 -0.4890  0.4576
 5742SOL    HW128859   0.857   4.468   0.454 -0.4640 -2.1138 -0.5404
 5742SOL    HW228860   0.740   4.442   0.365 -1.5190  2.6886 -1.0136
 5743SOL     OW28861   4.617   1.856   6.658 -0.5896 -0.2091 -0.4404
 5743SOL    HW128862   4.694   1.816   6.697  0.7203  1.0236 -1.7726
 5743SOL    HW228863   4.565   1.841   6.737  1.7515  0.7277  1.2663
 5744SOL     OW28864   0.245   4.486   4.321 -0.1007 -0.0013 -0.4196
 5744SOL    HW128865   0.322   4.516   4.273 -0.8867  0.3512 -1.4774
 5744SOL    HW228866   0.210   4.565   4.361 -0.1771 -0.0832 -0.3261
 5745SOL     OW28867   0.963   0.750  15.560  0.0213  0.0999 -0.3744
 5745SOL    HW128868   1.048   0.714  15.535 -0.4462 -0.3841 -1.2460
 5745SOL    HW228869   0.955   0.822  15.497 -0.3615  0.9506  0.6251
 5746SOL     OW28870   4.480   0.819   1.814 -0.2596 -0.3107  0.3363
 5746SOL    HW128871   4.480   0.872   1.735  2.0841 -0.7458  0.0379
 5746SOL    HW228872   4.550   0.756   1.795 -2.2180 -2.8619  1.5358
 5747SOL     OW28873   0.951   0.895   2.109 -0.4028  0.2002  0.1464
 5747SOL    HW128874   0.990   0.981   2.125 -0.6312  0.2983  0.1716
 5747SOL    HW228875   1.030   0.846   2.088 -0.1079 -0.2484  2.2831
 5748SOL     OW28876   0.791   4.664  16.609 -0.1181 -0.2438  0.2183
 5748SOL    HW128877   0.724   4.681  16.543 -0.7898 -1.6820  0.5417
 5748SOL    HW228878   0.857   4.734  16.601 -0.3270 -0.0949 -0.1927
 5749SOL     OW28879   0.644   0.239   5.454  0.1822 -0.3314  0.6590
 5749SOL    HW128880   0.560   0.196   5.468  0.1327  0.3284  2.4128
 5749SOL    HW228881   0.623   0.319   5.405 -0.6051 -2.3489 -2.2911
 5750SOL     OW28882   1.994   3.574  13.163 -0.2853 -0.6940 -0.1999
 5750SOL    HW128883   2.085   3.556  13.139  0.4586  0.4603  1.7253
 5750SOL    HW228884   1.987   3.664  13.133  2.5504  0.2455  1.9490
 5751SOL     OW28885   2.014   1.945   4.822  0.3229 -0.4023  0.5522
 5751SOL    HW128886   2.010   2.004   4.746  1.4766 -1.3684 -0.2683
 5751SOL    HW228887   2.001   1.857   4.786 -0.1844  0.3076 -0.9688
 5752SOL     OW28888   0.209   0.363   7.700 -0.7240  0.0174  0.2722
 5752SOL    HW128889   0.136   0.371   7.761 -0.5114 -0.2852  0.5664
 5752SOL    HW228890   0.271   0.311   7.751 -2.6323 -2.8486 -0.3859
 5753SOL     OW28891   0.904   4.294   3.525 -0.0824 -0.3974  0.4326
 5753SOL    HW128892   0.867   4.342   3.451 -1.6127 -0.6856  1.0105
 5753SOL    HW228893   0.839   4.298   3.595 -0.1071 -1.4865  0.4731
 5754SOL     OW28894   1.155   2.602   3.502  0.6242  0.0803  0.0590
 5754SOL    HW128895   1.084   2.632   3.445 -0.6881  1.0231  2.2030
 5754SOL    HW228896   1.193   2.541   3.438  0.5725 -0.4767  0.5537
 5755SOL     OW28897   3.402   4.660   5.031  0.2891  0.4338  0.1579
 5755SOL    HW128898   3.442   4.644   5.116 -0.2261  2.7133  0.8108
 5755SOL    HW228899   3.453   4.610   4.967 -0.5515 -0.9213  0.5626
 5756SOL     OW28900   2.165   2.759   7.977 -0.5052 -0.4658 -0.3932
 5756SOL    HW128901   2.175   2.778   8.070  1.2026 -0.2241 -0.6218
 5756SOL    HW228902   2.138   2.668   7.972 -0.6818 -0.4154 -0.3588
 5757SOL     OW28903   3.549   4.665   5.463 -0.0963 -0.2292  0.3185
 5757SOL    HW128904   3.459   4.678   5.433  0.5190  0.7647 -1.1131
 5757SOL    HW228905   3.580   4.638   5.376 -0.6946 -1.1338  0.3793
 5758SOL     OW28906   2.494   3.805   8.049  0.0573 -0.0154  0.0584
 5758SOL    HW128907   2.446   3.782   8.128  1.7788  1.4680  1.5311
 5758SOL    HW228908   2.516   3.714   8.028 -1.5358 -0.3169 -0.3137
 5759SOL     OW28909   2.671   2.886   7.265 -0.1063  0.2658 -0.1417
 5759SOL    HW128910   2.581   2.881   7.233 -0.2536 -0.8557  0.4635
 5759SOL    HW228911   2.675   2.809   7.321 -0.1593  0.2966 -0.0961
 5760SOL     OW28912   3.449   3.723  15.869 -0.5838  0.1466  0.5672
 5760SOL    HW128913   3.389   3.649  15.881 -0.3765 -0.1420 -0.1103
 5760SOL    HW228914   3.513   3.680  15.811 -1.3842 -1.1334  0.6253
 5761SOL     OW28915   3.120   4.336   7.682  0.8627 -0.1191  0.1408
 5761SOL    HW128916   3.062   4.276   7.636  1.3234 -2.7017  2.9471
 5761SOL    HW228917   3.077   4.413   7.644  2.2236 -1.0770 -3.3143
 5762SOL     OW28918   2.592   1.382   4.111  0.3704 -0.5559 -0.4971
 5762SOL    HW128919   2.620   1.300   4.071  1.3782 -1.7791  2.6811
 5762SOL    HW228920   2.516   1.398   4.054  1.6487  0.4061 -1.9157
 5763SOL     OW28921   1.552   0.636  11.240  0.3303  0.1040  0.2140
 5763SOL    HW128922   1.554   0.552  11.193  3.1937  1.4914 -2.1038
 5763SOL    HW228923   1.463   0.670  11.226  0.9508  2.4212  2.0419
 5764SOL     OW28924   3.947   0.562  11.801  0.1872 -0.4484 -0.0783
 5764SOL    HW128925   3.987   0.483  11.766 -1.5019 -0.5095 -1.8913
 5764SOL    HW228926   3.993   0.571  11.884  0.3918 -2.1683 -0.0035
 5765SOL     OW28927   4.498   4.269   7.568 -0.0186  0.9304 -0.3845
 5765SOL    HW128928   4.406   4.278   7.594  0.1560  2.5976 -0.3227
 5765SOL    HW228929   4.494   4.193   7.510 -0.3912  0.7693 -0.1474
 5766SOL     OW28930   2.552   0.419   5.121 -0.4782 -0.2684 -0.3166
 5766SOL    HW128931   2.517   0.468   5.046  1.6767  0.5028 -0.8058
 5766SOL    HW228932   2.643   0.409   5.095 -0.1367  1.9411 -0.0200
 5767SOL     OW28933   2.530   4.515   7.545 -0.0801 -0.0878  0.0806
 5767SOL    HW128934   2.518   4.486   7.635 -2.3295 -3.7970 -1.3932
 5767SOL    HW228935   2.540   4.607   7.571  0.1896  0.6627 -2.6293
 5768SOL     OW28936   4.102   0.688   4.884  0.1604 -0.0244 -0.5074
 5768SOL    HW128937   4.015   0.684   4.844 -0.5344 -1.2802  1.1125
 5768SOL    HW228938   4.157   0.683   4.806 -1.6503 -4.4936 -1.4692
 5769SOL     OW28939   1.256   1.320   6.304 -0.0386  0.3592  0.1463
 5769SOL    HW128940   1.300   1.307   6.388  0.9547  0.2502 -0.3901
 5769SOL    HW228941   1.240   1.414   6.299 -1.7258  0.0466 -0.3626
 5770SOL     OW28942   2.708   1.404   4.514 -0.4693 -0.3199 -0.2477
 5770SOL    HW128943   2.673   1.323   4.549  0.0502 -0.3704  0.1403
 5770SOL    HW228944   2.635   1.464   4.532  0.6173  1.2394 -0.9986
 5771SOL     OW28945   3.394   1.654   6.329 -0.0990 -0.0932  0.3085
 5771SOL    HW128946   3.430   1.578   6.283  1.1565 -1.2574  3.2025
 5771SOL    HW228947   3.442   1.723   6.282  0.8948 -0.5652  0.6152
 5772SOL     OW28948   4.620   2.402   5.657  0.6961 -0.1284  0.0400
 5772SOL    HW128949   4.652   2.485   5.621 -2.5855  1.5204  0.9534
 5772SOL    HW228950   4.700   2.380   5.705  1.1505 -2.6993 -1.8943
 5773SOL     OW28951   4.077   4.069   3.471  0.0221  0.4992  0.2321
 5773SOL    HW128952   4.131   4.130   3.420  1.4903  1.9588  3.5122
 5773SOL    HW228953   4.127   4.062   3.552  1.5869  1.2479 -0.6796
 5774SOL     OW28954   2.739   0.137   7.648 -0.3811  0.2537  0.1161
 5774SOL    HW128955   2.728   0.057   7.699 -1.1623  1.6702  2.1631
 5774SOL    HW228956   2.724   0.109   7.558 -2.7496  1.3672  0.1635
 5775SOL     OW28957   0.129   1.129   7.726 -0.7197 -0.2299 -0.2700
 5775SOL    HW128958   0.223   1.144   7.737 -1.0368  3.2345 -2.0912
 5775SOL    HW228959   0.127   1.037   7.701 -1.2438 -0.2911  0.0152
 5776SOL     OW28960   2.419   1.359   6.813 -0.6289 -0.4374  0.5290
 5776SOL    HW128961   2.443   1.403   6.731  0.4932 -0.4230  0.8586
 5776SOL    HW228962   2.454   1.271   6.799  3.3856  1.0006  1.5375
 5777SOL     OW28963   1.605   3.471   7.094  0.0148  0.5045  0.4647
 5777SOL    HW128964   1.679   3.482   7.154  0.7603 -3.0437  0.1928
 5777SOL    HW228965   1.613   3.543   7.031  1.3481 -2.1436 -2.4150
 5778SOL     OW28966   1.983   1.837   1.924  0.1509 -0.2696 -0.0652
 5778SOL    HW128967   1.899   1.875   1.950  0.0741  1.0067 -2.1748
 5778SOL    HW228968   2.028   1.918   1.903 -0.1107 -0.3729 -1.0128
 5779SOL     OW28969   3.400   0.586  12.010 -0.5394 -0.0157 -0.5080
 5779SOL    HW128970   3.448   0.661  11.974  2.2111 -1.0590  0.9490
 5779SOL    HW228971   3.317   0.604  11.966 -0.3592 -0.5404 -1.0632
 5780SOL     OW28972   2.252   3.386  17.653  0.0152 -0.6296 -0.2064
 5780SOL    HW128973   2.342   3.418  17.643  0.5704 -1.9872  0.4492
 5780SOL    HW228974   2.257   3.305  17.703 -0.7556 -0.5767 -0.0407
 5781SOL     OW28975   4.366   4.263  14.184  0.0608 -0.6033 -0.3007
 5781SOL    HW128976   4.285   4.260  14.235 -0.1409  1.8626 -0.4622
 5781SOL    HW228977   4.403   4.346  14.214 -0.8629 -0.9726  1.8636
 5782SOL     OW28978   1.517   1.334   4.124  0.2413 -0.3510  0.1366
 5782SOL    HW128979   1.484   1.378   4.045  0.7051  0.7865  0.5765
 5782SOL    HW228980   1.525   1.407   4.185 -1.5339  2.7324 -3.2975
 5783SOL     OW28981   4.669   1.980  12.806  0.1126 -0.2470 -0.3056
 5783SOL    HW128982   4.730   2.047  12.777  0.7891 -0.0431  1.5606
 5783SOL    HW228983   4.588   2.023  12.779  0.9233 -0.9889 -3.8855
 5784SOL     OW28984   1.075   1.583   5.198  0.9659 -0.1250 -0.2548
 5784SOL    HW128985   1.168   1.562   5.188  0.6327 -0.4995 -2.5185
 5784SOL    HW228986   1.037   1.500   5.170 -0.3142  0.1955  0.4946
 5785SOL     OW28987   0.546   1.811   2.194  0.1502 -0.2432  0.3223
 5785SOL    HW128988   0.545   1.715   2.197  0.0713 -0.2481  0.1734
 5785SOL    HW228989   0.607   1.838   2.263 -2.1566  0.3683  2.1147
 5786SOL     OW28990   3.229   2.384   2.525 -0.6469 -0.2892 -0.4140
 5786SOL    HW128991   3.202   2.357   2.437  1.4240 -0.3872 -1.0288
 5786SOL    HW228992   3.218   2.479   2.524 -0.1865 -0.2747 -4.0780
 5787SOL     OW28993   1.999   0.550  15.443 -0.3247  0.2891  0.1521
 5787SOL    HW128994   2.023   0.465  15.479 -0.5357  0.2908  0.3015
 5787SOL    HW228995   1.961   0.532  15.356 -0.3574 -0.7093  0.3703
 5788SOL     OW28996   0.378   1.501  10.514  0.2448  0.1342  0.4469
 5788SOL    HW128997   0.412   1.589  10.500 -1.7001  1.1216  2.1827
 5788SOL    HW228998   0.290   1.523  10.542 -0.7921  0.0343 -2.6492
 5789SOL     OW28999   3.276   3.637   6.030  0.4496  0.3096  0.1012
 5789SOL    HW129000   3.304   3.583   5.956 -0.0884 -1.7383  1.3858
 5789SOL    HW229001   3.216   3.577   6.074  0.3486 -0.0131 -0.4711
 5790SOL     OW29002   3.715   0.015  14.114 -0.4028  0.5501 -0.4426
 5790SOL    HW129003   3.654   0.061  14.056 -1.0984 -0.7462 -0.7499
 5790SOL    HW229004   3.689   4.667  14.089 -0.7013  0.7495 -0.8450
 5791SOL     OW29005   2.983   1.320   3.877  0.1506  0.4683 -0.1160
 5791SOL    HW129006   2.904   1.354   3.836  0.3376 -0.0978 -0.9334
 5791SOL    HW229007   3.026   1.402   3.899 -1.1242  0.6023  1.9561
 5792SOL     OW29008   4.735   0.044   6.223  0.3067  0.0419  0.2637
 5792SOL    HW129009   0.006   4.694   6.251 -0.2533 -0.2725 -0.5146
 5792SOL    HW229010   4.643   0.041   6.196  0.9375  0.5907 -1.9082
 5793SOL     OW29011   4.521   1.816   3.207 -0.2457  0.2707 -0.5889
 5793SOL    HW129012   4.601   1.867   3.196  0.8693 -1.6204 -1.1633
 5793SOL    HW229013   4.524   1.794   3.300  0.3618  0.0862 -0.6571
 5794SOL     OW29014   4.513   3.996  16.546  0.5051 -0.1668  0.1572
 5794SOL    HW129015   4.601   3.967  16.571  0.5849 -0.2192 -0.1928
 5794SOL    HW229016   4.528   4.028  16.457 -2.7226 -0.7557 -0.5622
 5795SOL     OW29017   2.922   1.704   5.444 -0.2436  0.0140 -0.4440
 5795SOL    HW129018   2.960   1.730   5.528 -0.9089 -3.5878  0.9619
 5795SOL    HW229019   2.829   1.722   5.452 -0.1736 -0.9756  2.6823
 5796SOL     OW29020   1.764   3.771   7.126  0.1950 -0.5261 -0.3726
 5796SOL    HW129021   1.748   3.730   7.040  1.1514  1.6758 -1.5907
 5796SOL    HW229022   1.846   3.817   7.110  1.5447 -2.6914  0.4170
 5797SOL     OW29023   3.833   1.748   0.216  0.2336 -0.3143  0.7279
 5797SOL    HW129024   3.888   1.700   0.279  0.9088  1.2898  1.3598
 5797SOL    HW229025   3.868   1.837   0.215  1.6784 -0.8707  1.1031
 5798SOL     OW29026   3.563   0.037  12.650  0.4040 -0.3316 -0.8589
 5798SOL    HW129027   3.619   0.057  12.575  1.1160 -0.9758 -0.4923
 5798SOL    HW229028   3.517   0.120  12.667 -1.7804 -1.4554 -1.2080
 5799SOL     OW29029   1.654   0.380   7.459  0.0927  0.3371 -0.2130
 5799SOL    HW129030   1.611   0.464   7.447 -1.9065 -0.7127 -0.3281
 5799SOL    HW229031   1.650   0.356   7.367 -3.3235 -2.0273  0.5326
 5800SOL     OW29032   4.145   4.512   2.935 -0.1172  0.1410  0.6740
 5800SOL    HW129033   4.220   4.457   2.913 -0.9313 -0.1459 -1.3931
 5800SOL    HW229034   4.194   4.595   2.937  2.1700 -1.1099 -3.3848
 5801SOL     OW29035   4.557   3.309  16.530  0.4467  0.0134 -0.2637
 5801SOL    HW129036   4.622   3.345  16.468 -0.4699  1.1638 -0.5561
 5801SOL    HW229037   4.611   3.279  16.603 -0.6614 -2.0959 -0.3036
 5802SOL     OW29038   1.256   1.371  17.231  0.3828 -0.1102  0.0051
 5802SOL    HW129039   1.344   1.353  17.199  1.3738  0.1657  2.6492
 5802SOL    HW229040   1.225   1.438  17.170  1.2432 -0.5817 -0.9613
 5803SOL     OW29041   2.382   4.560   5.346 -0.0188 -0.4183  0.2516
 5803SOL    HW129042   2.369   4.594   5.257 -0.5068  0.8698  0.8193
 5803SOL    HW229043   2.386   4.465   5.337 -1.3197 -0.6312  1.9751
 5804SOL     OW29044   1.608   3.294   9.787 -0.0785 -0.2098 -0.9752
 5804SOL    HW129045   1.596   3.361   9.855 -0.8555 -0.0350 -1.2818
 5804SOL    HW229046   1.535   3.315   9.729 -1.5313  1.0922  1.3038
 5805SOL     OW29047   3.690   4.699   6.817  0.1960 -0.6121  0.0559
 5805SOL    HW129048   3.785   4.700   6.821  0.1150  1.0043  1.3035
 5805SOL    HW229049   3.664   4.631   6.879 -0.1017 -0.5664 -0.0195
 5806SOL     OW29050   0.561   3.186   6.036  0.8313 -0.0978 -0.6534
 5806SOL    HW129051   0.550   3.117   6.101  0.1460  0.7398  0.1223
 5806SOL    HW229052   0.548   3.263   6.092  0.6915 -1.1777  0.8005
 5807SOL     OW29053   3.873   4.178   4.418  0.1177 -0.1175  0.3062
 5807SOL    HW129054   3.832   4.231   4.487 -1.6135 -0.3426 -0.5423
 5807SOL    HW229055   3.793   4.128   4.398 -1.7221  2.1822  1.8272
 5808SOL     OW29056   2.905   1.298   2.017  0.5091  0.4087  0.0690
 5808SOL    HW129057   2.971   1.334   1.958  1.3014 -1.6304 -0.2951
 5808SOL    HW229058   2.915   1.203   2.011 -1.1571  0.1987  0.5809
 5809SOL     OW29059   2.145   1.746   6.678 -0.5232 -0.1321  0.0382
 5809SOL    HW129060   2.141   1.672   6.739  0.4514  0.1641  0.4711
 5809SOL    HW229061   2.172   1.822   6.730 -1.3504  0.0599  0.1840
 5810SOL     OW29062   0.457   2.030   3.248 -0.0409  0.2076 -0.1069
 5810SOL    HW129063   0.493   2.116   3.228 -1.5473  1.2685  1.6820
 5810SOL    HW229064   0.430   2.035   3.340 -1.6528  3.8912 -0.7805
 5811SOL     OW29065   0.635   1.177  14.966  0.3219  0.8211  0.1356
 5811SOL    HW129066   0.606   1.253  15.017  0.5219  1.3275 -0.4940
 5811SOL    HW229067   0.598   1.104  15.015 -0.3819  1.3046  0.3179
 5812SOL     OW29068   2.518   3.569   4.022  0.0015  0.3864  0.5451
 5812SOL    HW129069   2.489   3.552   3.932  1.3444 -1.1939  0.4129
 5812SOL    HW229070   2.459   3.638   4.051 -0.0446  1.3744 -1.8762
 5813SOL     OW29071   0.469   3.188   7.755 -0.3810  0.5888 -0.3953
 5813SOL    HW129072   0.526   3.120   7.791  1.1549  1.8221 -0.5098
 5813SOL    HW229073   0.420   3.219   7.831 -2.7635 -0.0973 -1.6770
 5814SOL     OW29074   4.371   2.986  13.375  0.8437  0.3169 -0.1506
 5814SOL    HW129075   4.289   2.936  13.371  1.5805 -0.9962  0.9754
 5814SOL    HW229076   4.359   3.074  13.340 -0.3313 -0.0827 -0.7879
 5815SOL     OW29077   4.191   4.358   6.455 -0.2011  0.3482 -0.2244
 5815SOL    HW129078   4.189   4.345   6.550 -0.6829 -0.4470 -0.3394
 5815SOL    HW229079   4.099   4.348   6.432 -0.2299 -0.1445  0.0859
 5816SOL     OW29080   2.821   1.999   1.429  0.4291 -0.3380  0.6734
 5816SOL    HW129081   2.737   1.961   1.457  1.2324 -1.7085  1.1959
 5816SOL    HW229082   2.798   2.022   1.338 -1.8874 -0.7167  1.1672
 5817SOL     OW29083   2.344   0.965  16.683 -0.1595 -0.0337 -0.5704
 5817SOL    HW129084   2.375   0.902  16.619  4.3050  1.3857  0.2366
 5817SOL    HW229085   2.360   0.930  16.771 -1.4653  0.1918 -0.2380
 5818SOL     OW29086   0.659   2.892   4.637  0.4921  0.3306 -0.5507
 5818SOL    HW129087   0.714   2.917   4.711 -1.4185 -0.2813  1.0906
 5818SOL    HW229088   0.589   2.846   4.684 -0.2475  2.2046  0.1970
 5819SOL     OW29089   2.790   4.136  14.478 -0.2314  0.4246 -0.5743
 5819SOL    HW129090   2.817   4.218  14.436 -0.5519  0.5524 -0.5357
 5819SOL    HW229091   2.768   4.165  14.567 -0.5902  2.2376 -1.2501
 5820SOL     OW29092   2.129   2.324   6.292  0.0468 -0.0086 -0.2106
 5820SOL    HW129093   2.067   2.296   6.359  2.4803 -0.9362  1.6798
 5820SOL    HW229094   2.160   2.240   6.259  1.5276 -0.2051  1.6400
 5821SOL     OW29095   4.627   3.873   5.854 -0.6563  0.1619  0.0623
 5821SOL    HW129096   4.713   3.913   5.839 -0.4140 -0.9173 -1.4840
 5821SOL    HW229097   4.654   3.782   5.867  1.6730  0.4164 -2.8070
 5822SOL     OW29098   4.165   4.250  14.361 -0.0237 -0.2066 -0.0773
 5822SOL    HW129099   4.093   4.314  14.362 -0.1519 -0.3404 -1.7026
 5822SOL    HW229100   4.178   4.227  14.453 -1.5946  0.1554  0.2338
 5823SOL     OW29101   3.041   2.292   1.778  0.2086  0.3714  0.6426
 5823SOL    HW129102   3.131   2.287   1.745 -0.0643 -2.9935  0.4253
 5823SOL    HW229103   3.004   2.213   1.739  1.1629 -0.1011  0.6821
 5824SOL     OW29104   0.084   2.682  13.174  0.4666  0.5390 -0.3005
 5824SOL    HW129105   0.163   2.734  13.158  0.5469  0.9020  1.3303
 5824SOL    HW229106   0.033   2.716  13.101 -0.6204 -0.4944 -0.0117
 5825SOL     OW29107   3.081   0.399   2.748  0.5437 -0.5291  0.4743
 5825SOL    HW129108   3.016   0.390   2.679 -0.1208  0.7457  0.9270
 5825SOL    HW229109   3.097   0.305   2.753  2.5213 -0.1523  1.5954
 5826SOL     OW29110   4.496   0.937   1.548 -0.3158  0.3982  0.4067
 5826SOL    HW129111   4.460   1.024   1.565 -0.2136  0.1241  2.0380
 5826SOL    HW229112   4.433   0.904   1.484 -1.1533  1.6259  0.5965
 5827SOL     OW29113   4.087   0.717   8.191  0.6154  0.0940  0.5718
 5827SOL    HW129114   4.004   0.761   8.209  0.0102 -1.1259  0.8341
 5827SOL    HW229115   4.094   0.648   8.257  0.9951 -0.3671  0.0522
 5828SOL     OW29116   2.753   0.567   7.771  0.5587  0.4726 -0.3582
 5828SOL    HW129117   2.728   0.485   7.729 -1.0785  0.6798  0.2140
 5828SOL    HW229118   2.798   0.621   7.706  2.2628 -0.8090 -0.2379
 5829SOL     OW29119   1.642   3.680   3.598 -0.2093  0.3137 -0.3652
 5829SOL    HW129120   1.617   3.773   3.598  0.9226  0.6050  1.8059
 5829SOL    HW229121   1.706   3.684   3.669  0.8829 -1.3969 -1.2716
 5830SOL     OW29122   2.782   2.468   8.178 -0.4586  0.2106 -0.3663
 5830SOL    HW129123   2.789   2.427   8.265  2.2459  1.6157  0.1060
 5830SOL    HW229124   2.688   2.467   8.162  0.0895 -1.9377 -3.3577
 5831SOL     OW29125   2.044   3.494   9.134  0.2444 -0.3611 -0.2723
 5831SOL    HW129126   2.100   3.567   9.159  0.1838 -0.2143 -0.5575
 5831SOL    HW229127   2.056   3.419   9.192  3.1271  1.6381  1.6701
 5832SOL     OW29128   0.382   2.330   5.771 -0.6560 -0.9568 -0.2632
 5832SOL    HW129129   0.430   2.273   5.711  1.0351 -1.7885  1.8401
 5832SOL    HW229130   0.449   2.346   5.838 -0.1810  1.3358 -1.2946
 5833SOL     OW29131   0.413   4.008  10.435 -0.1255  0.0542  0.0356
 5833SOL    HW129132   0.409   4.026  10.341 -1.3775  0.0741  0.0912
 5833SOL    HW229133   0.504   4.030  10.454 -0.1811  0.9195 -0.7355
 5834SOL     OW29134   2.607   2.233   5.171  0.4547 -0.1264 -0.3342
 5834SOL    HW129135   2.564   2.168   5.116 -0.0622 -0.8002  0.8647
 5834SOL    HW229136   2.596   2.192   5.257  1.1522  0.3709 -0.0091
 5835SOL     OW29137   1.133   3.217   0.424  0.3507  0.1440 -0.3705
 5835SOL    HW129138   1.147   3.288   0.361  2.0732 -0.7733 -1.0345
 5835SOL    HW229139   1.038   3.231   0.425  0.3673  0.0979  1.7303
 5836SOL     OW29140   0.346   1.440   4.234  0.5315  0.0832 -0.1434
 5836SOL    HW129141   0.355   1.410   4.144  3.2882 -3.3297  1.2597
 5836SOL    HW229142   0.299   1.521   4.218  0.5286  0.0326 -0.3849
 5837SOL     OW29143   2.400   4.477   9.619 -0.0731  0.3524 -1.0475
 5837SOL    HW129144   2.364   4.440   9.700  1.5948  1.1521  0.0627
 5837SOL    HW229145   2.350   4.434   9.550 -1.5753  0.2563  0.1226
 5838SOL     OW29146   3.898   0.254   8.418  0.4757  0.4739 -0.0432
 5838SOL    HW129147   3.970   0.193   8.429 -0.7964 -1.3096 -1.7725
 5838SOL    HW229148   3.835   0.224   8.353  0.0698  1.3766 -0.0775
 5839SOL     OW29149   2.209   1.904   5.053  0.1227  0.3587 -0.1202
 5839SOL    HW129150   2.140   1.875   4.992  0.4651  0.0537 -0.3631
 5839SOL    HW229151   2.154   1.915   5.131 -0.1017  0.6967 -0.3282
 5840SOL     OW29152   4.472   1.660   5.976 -0.6306 -0.3437  0.7944
 5840SOL    HW129153   4.506   1.713   5.904 -2.8778 -1.3872 -1.0254
 5840SOL    HW229154   4.514   1.578   5.950 -1.9259 -0.3644 -1.1747
 5841SOL     OW29155   4.409   3.186   3.685  0.2607 -0.4245 -0.4819
 5841SOL    HW129156   4.462   3.181   3.765 -1.5004 -0.4742  0.6915
 5841SOL    HW229157   4.479   3.167   3.623 -0.9644  0.4539 -2.1059
 5842SOL     OW29158   2.571   3.520   3.260 -0.0895  0.4665  0.0300
 5842SOL    HW129159   2.481   3.546   3.241 -0.0948  1.2964  1.1958
 5842SOL    HW229160   2.604   3.591   3.315 -0.8576  0.2537  0.7545
 5843SOL     OW29161   0.474   1.591   6.510  0.3173 -0.3004  0.0994
 5843SOL    HW129162   0.562   1.557   6.521 -0.3833 -2.4412 -0.8784
 5843SOL    HW229163   0.428   1.515   6.475  1.8326 -1.3163  0.3454
 5844SOL     OW29164   3.394   3.669   8.206  0.3096  0.4039 -0.7054
 5844SOL    HW129165   3.304   3.694   8.185 -0.0751 -0.2356  0.2067
 5844SOL    HW229166   3.440   3.707   8.131  1.4825  1.1981  0.4244
 5845SOL     OW29167   0.621   2.321   4.663 -0.6320  0.4970  0.3291
 5845SOL    HW129168   0.664   2.244   4.701 -0.8508 -0.1310 -0.7149
 5845SOL    HW229169   0.533   2.287   4.648  0.3064 -0.8951 -1.8985
 5846SOL     OW29170   0.251   3.690   8.051  0.2500 -0.6151 -0.8933
 5846SOL    HW129171   0.300   3.765   8.087 -0.1887 -1.1366  0.8218
 5846SOL    HW229172   0.322   3.626   8.043 -0.3187 -1.4188  0.4638
 5847SOL     OW29173   2.513   4.044   9.673 -0.4635 -0.2489 -0.2031
 5847SOL    HW129174   2.551   4.084   9.595 -0.4778  0.3884  0.1140
 5847SOL    HW229175   2.572   4.089   9.733  1.1991 -1.5848 -0.8651
 5848SOL     OW29176   2.429   1.453   7.072 -0.1994 -0.7447 -0.3876
 5848SOL    HW129177   2.345   1.497   7.079  0.5989  1.0384 -1.8173
 5848SOL    HW229178   2.432   1.432   6.979  1.1592  2.4501 -1.0699
 5849SOL     OW29179   3.671   1.421   7.082 -0.1496  0.9799  0.1832
 5849SOL    HW129180   3.672   1.436   7.176 -2.7831  1.1134  0.1792
 5849SOL    HW229181   3.676   1.511   7.049 -1.8260  1.1011  0.2811
 5850SOL     OW29182   3.354   3.202   4.422  0.2921 -0.4925  0.1613
 5850SOL    HW129183   3.270   3.195   4.377  0.1294  1.4024  0.1612
 5850SOL    HW229184   3.349   3.126   4.480 -1.0323  1.3627  2.4916
 5851SOL     OW29185   0.175   1.145   9.865  0.0829  0.0088  0.6406
 5851SOL    HW129186   0.155   1.073   9.925  2.6601  0.3915  1.9643
 5851SOL    HW229187   0.225   1.097   9.799  0.0128  0.3376  0.3520
 5852SOL     OW29188   2.869   0.787  16.526  0.1294 -0.0894 -0.0343
 5852SOL    HW129189   2.908   0.768  16.441  0.4527 -0.5727  0.2204
 5852SOL    HW229190   2.907   0.875  16.529  1.2639 -0.5611 -0.2228
 5853SOL     OW29191   0.864   2.000   1.326  0.2441 -0.5994  0.5138
 5853SOL    HW129192   0.876   2.072   1.388  2.5454 -1.8892  1.5486
 5853SOL    HW229193   0.895   1.923   1.373  0.8401  0.2026  1.4451
 5854SOL     OW29194   2.846   4.414   1.537  0.1473 -0.4153 -0.1521
 5854SOL    HW129195   2.905   4.446   1.605  0.1714 -0.4944 -0.1363
 5854SOL    HW229196   2.910   4.424   1.466 -0.0011  0.1105 -0.2160
 5855SOL     OW29197   2.328   0.406  16.350 -0.0915  0.0329  0.2278
 5855SOL    HW129198   2.401   0.345  16.338  0.6639  1.2208 -1.3329
 5855SOL    HW229199   2.289   0.412  16.263 -0.3916 -2.3575  0.2095
 5856SOL     OW29200   1.469   0.014   1.486 -0.7688 -0.6818  0.0130
 5856SOL    HW129201   1.377   0.005   1.512 -1.1394 -1.3408 -1.5370
 5856SOL    HW229202   1.504   4.677   1.530 -2.7191 -1.7113 -0.2694
 5857SOL     OW29203   2.740   1.196   5.051  0.0599 -0.2360  0.2680
 5857SOL    HW129204   2.778   1.249   4.980 -1.6368 -1.5367 -1.5958
 5857SOL    HW229205   2.804   1.127   5.066 -1.0708 -1.5358 -1.0093
 5858SOL     OW29206   2.315   1.768   4.363  0.5164 -1.0078 -0.0179
 5858SOL    HW129207   2.264   1.805   4.291  0.9815 -0.1460  0.0865
 5858SOL    HW229208   2.377   1.841   4.365  0.0989 -0.6159 -1.3067
 5859SOL     OW29209   4.631   3.882   7.796 -0.9550  0.8763  0.6283
 5859SOL    HW129210   4.706   3.912   7.746 -2.7533  3.9780 -0.1952
 5859SOL    HW229211   4.562   3.926   7.746  0.4126  1.7139 -0.5035
 5860SOL     OW29212   1.979   0.032   7.579  0.4097 -0.2573  0.6633
 5860SOL    HW129213   2.013   0.118   7.553  1.0190  0.4017  3.7251
 5860SOL    HW229214   1.987   0.041   7.673 -0.4059 -1.6220  0.8624
 5861SOL     OW29215   3.478   2.731   8.899 -0.9151 -0.1059  0.1877
 5861SOL    HW129216   3.552   2.789   8.917 -0.6698 -0.0487 -1.0179
 5861SOL    HW229217   3.430   2.808   8.869  0.4576  1.0840  1.0599
 5862SOL     OW29218   2.705   3.137   3.436 -0.3421 -0.3114  0.1771
 5862SOL    HW129219   2.793   3.176   3.441  0.3719 -1.8557 -0.3942
 5862SOL    HW229220   2.698   3.112   3.528 -2.2054  2.6232  0.8397
 5863SOL     OW29221   1.847   3.578   7.280  0.1350  0.2783  0.2221
 5863SOL    HW129222   1.850   3.634   7.358  2.5756  1.2622 -0.5688
 5863SOL    HW229223   1.812   3.645   7.221  1.0981  0.6027  0.0130
 5864SOL     OW29224   2.631   1.172  14.191  0.2463  0.1704 -0.3354
 5864SOL    HW129225   2.709   1.134  14.231  0.6075  3.3537  1.9688
 5864SOL    HW229226   2.575   1.101  14.157 -0.7677  1.2297 -0.8820
 5865SOL     OW29227   0.456   3.722   0.382  0.3421 -0.3978 -0.4673
 5865SOL    HW129228   0.485   3.782   0.451 -2.2843  0.1259  0.1731
 5865SOL    HW229229   0.386   3.674   0.426  0.2850 -0.4644 -0.6300
 5866SOL     OW29230   1.020   2.419   7.244  0.0826  0.1330 -0.7725
 5866SOL    HW129231   0.936   2.429   7.289  0.7546 -1.6318  0.9139
 5866SOL    HW229232   1.031   2.513   7.231  1.1797 -0.0261 -1.0014
 5867SOL     OW29233   2.695   1.281   2.485  0.1858  0.2739  0.0355
 5867SOL    HW129234   2.680   1.191   2.458  2.7983 -0.4346  1.0027
 5867SOL    HW229235   2.752   1.297   2.409 -1.0951 -1.4502 -1.3014
 5868SOL     OW29236   4.390   3.665   6.496  0.1241 -0.4301 -0.2122
 5868SOL    HW129237   4.308   3.714   6.502  1.3200  1.4686  0.8424
 5868SOL    HW229238   4.367   3.591   6.440 -0.3848 -1.1956  1.0177
 5869SOL     OW29239   2.621   3.106   9.438 -0.3827 -0.0497  0.3530
 5869SOL    HW129240   2.700   3.159   9.444  0.5026 -1.3733  0.1552
 5869SOL    HW229241   2.656   3.018   9.434 -0.6778 -0.1764  0.5404
 5870SOL     OW29242   0.631   4.330   2.725 -0.4670 -0.4883 -0.6136
 5870SOL    HW129243   0.636   4.289   2.811  0.8181  0.0040 -0.4531
 5870SOL    HW229244   0.643   4.254   2.667  0.0343 -1.2020  0.4189
 5871SOL     OW29245   2.565   0.875   1.566 -0.0103 -0.0497 -0.1731
 5871SOL    HW129246   2.595   0.797   1.519  0.5401  1.4251 -2.2719
 5871SOL    HW229247   2.547   0.934   1.493 -0.4177  0.3203  0.2246
 5872SOL     OW29248   4.202   2.787   8.921  0.0916 -0.0083  0.5205
 5872SOL    HW129249   4.205   2.735   8.841 -1.2711 -2.5865  2.1261
 5872SOL    HW229250   4.291   2.796   8.956  1.0270  0.2820 -1.9578
 5873SOL     OW29251   2.034   2.452   9.825 -0.1506  0.3331  0.1193
 5873SOL    HW129252   2.051   2.542   9.853  1.9881 -0.2259  0.6667
 5873SOL    HW229253   1.939   2.444   9.836 -0.4095  0.5356 -1.9638
 5874SOL     OW29254   1.855   3.034   9.747 -0.3873  0.8899 -0.2880
 5874SOL    HW129255   1.868   3.126   9.722  1.0476  0.6069 -0.5564
 5874SOL    HW229256   1.865   3.037   9.842  0.0179 -0.7617 -0.2873
 5875SOL     OW29257   1.864   4.719   6.751  0.8113 -0.4405 -0.2618
 5875SOL    HW129258   1.925   4.654   6.715  0.9727 -1.0814  1.2019
 5875SOL    HW229259   1.857   4.714   6.846  1.8045  1.7378 -0.0802
 5876SOL     OW29260   4.640   2.127   1.253 -0.4094  0.2010 -0.2499
 5876SOL    HW129261   4.698   2.133   1.178  0.2190  1.7147  0.3599
 5876SOL    HW229262   4.642   2.210   1.302 -4.9146 -0.8041  1.6575
 5877SOL     OW29263   1.779   4.233   3.267  0.1196  0.2128  0.2047
 5877SOL    HW129264   1.799   4.181   3.345  0.3635  1.9803  1.3164
 5877SOL    HW229265   1.698   4.188   3.243  0.5669 -0.3997 -0.1701
 5878SOL     OW29266   4.518   1.308   8.802  0.2139  0.1873  0.3362
 5878SOL    HW129267   4.479   1.311   8.715  0.6313  0.4262  0.1560
 5878SOL    HW229268   4.601   1.349   8.775  1.6025 -1.5799  1.8979
 5879SOL     OW29269   3.901   4.304   3.678 -0.6944  0.3423 -0.3711
 5879SOL    HW129270   3.860   4.328   3.761  0.5597  0.4386  0.2193
 5879SOL    HW229271   3.993   4.292   3.700 -0.9895  0.2307  0.8140
 5880SOL     OW29272   1.451   1.100   4.235 -0.0660 -0.5360 -0.0973
 5880SOL    HW129273   1.457   1.185   4.192  2.0492 -1.4443 -1.6309
 5880SOL    HW229274   1.409   1.047   4.166 -1.2490  1.3530 -0.8202
 5881SOL     OW29275   1.788   1.130   4.640  0.3490 -0.0715 -0.1122
 5881SOL    HW129276   1.803   1.038   4.664 -2.4131 -0.4422  0.1624
 5881SOL    HW229277   1.758   1.117   4.550  0.7766 -0.7211 -0.1649
 5882SOL     OW29278   1.203   0.596   3.444  0.0902  0.5892  0.2772
 5882SOL    HW129279   1.281   0.555   3.481  0.3155  2.4486  1.8066
 5882SOL    HW229280   1.171   0.635   3.524  1.1875 -0.6816  1.3380
 5883SOL     OW29281   4.677   4.363   4.625 -0.0946 -0.0642 -1.0205
 5883SOL    HW129282   4.698   4.360   4.532  0.5413  1.8331 -0.9351
 5883SOL    HW229283   4.651   4.273   4.645 -0.4335  0.1581 -0.4419
 5884SOL     OW29284   3.972   2.893   7.390  0.1978 -0.4129 -0.2509
 5884SOL    HW129285   4.015   2.820   7.345 -1.3937 -0.9637 -0.8655
 5884SOL    HW229286   4.008   2.960   7.333 -0.8180  1.9882  1.9379
 5885SOL     OW29287   1.314   3.216   7.133 -0.4242  0.3319  0.2035
 5885SOL    HW129288   1.294   3.123   7.145  2.2559 -0.2854 -0.2641
 5885SOL    HW229289   1.409   3.217   7.142 -0.6477  2.3997  2.4262
 5886SOL     OW29290   3.349   3.785   6.542 -0.2174  0.0474  0.3642
 5886SOL    HW129291   3.318   3.875   6.539  1.6594  0.6482 -1.6783
 5886SOL    HW229292   3.429   3.807   6.590  1.2436  0.8470 -2.4067
 5887SOL     OW29293   3.829   2.801   3.521 -0.0867 -0.0024  0.1408
 5887SOL    HW129294   3.875   2.720   3.543 -0.3362 -0.1612  0.0768
 5887SOL    HW229295   3.741   2.782   3.553  0.7839 -1.7900  1.4018
 5888SOL     OW29296   4.396   1.211   1.603 -0.7016 -0.3055 -0.8325
 5888SOL    HW129297   4.330   1.277   1.583 -0.5794 -0.2460 -1.0387
 5888SOL    HW229298   4.352   1.157   1.670  0.4539  0.3232  0.4333
 5889SOL     OW29299   3.477   1.911   5.428  0.2715 -0.0710 -0.1630
 5889SOL    HW129300   3.480   2.006   5.428 -1.3410 -0.0167  1.0509
 5889SOL    HW229301   3.557   1.900   5.479 -1.0821  3.0961  2.6362
 5890SOL     OW29302   1.813   4.544   6.484  0.0357  0.3783  0.1608
 5890SOL    HW129303   1.893   4.544   6.430 -0.2115  1.2386 -0.2064
 5890SOL    HW229304   1.848   4.517   6.569  0.2359 -1.0831 -0.3930
 5891SOL     OW29305   0.642   1.546   9.610  0.5766  0.2537 -0.0680
 5891SOL    HW129306   0.678   1.481   9.671 -0.9657  0.0741  0.6565
 5891SOL    HW229307   0.611   1.609   9.675 -0.0803  2.3747 -2.4557
 5892SOL     OW29308   1.215   2.879   2.410 -0.0974  0.2469 -0.7678
 5892SOL    HW129309   1.260   2.812   2.461  1.7051  1.9652 -0.1089
 5892SOL    HW229310   1.153   2.916   2.473  1.5299  0.2441  0.8417
 5893SOL     OW29311   4.426   1.527  17.120 -0.4226  0.6402 -0.0691
 5893SOL    HW129312   4.465   1.440  17.112 -0.5531  0.4705  1.2164
 5893SOL    HW229313   4.484   1.572  17.180 -0.2260  2.0137 -1.2761
 5894SOL     OW29314   1.788   2.821   2.897  0.2585  0.1491 -0.5387
 5894SOL    HW129315   1.828   2.734   2.907  0.4569  0.2138 -0.7626
 5894SOL    HW229316   1.803   2.863   2.982 -0.7021  1.6036 -1.0884
 5895SOL     OW29317   3.303   4.257   8.904 -0.0060  0.2347  0.0828
 5895SOL    HW129318   3.266   4.333   8.858  0.0868 -1.0905 -2.1841
 5895SOL    HW229319   3.394   4.264   8.874 -0.0236  1.2033  0.2513
 5896SOL     OW29320   1.542   3.295   1.392 -0.0733  0.1718  0.1707
 5896SOL    HW129321   1.598   3.254   1.326 -0.3681  0.6397 -0.3724
 5896SOL    HW229322   1.603   3.356   1.433  0.6903 -0.1054 -0.5554
 5897SOL     OW29323   3.390   2.459   9.036 -0.1257 -0.5771  0.1260
 5897SOL    HW129324   3.454   2.526   9.013 -1.1008 -0.2389 -1.5712
 5897SOL    HW229325   3.448   2.404   9.088 -0.1134 -0.3990  0.3052
 5898SOL     OW29326   2.954   2.860   3.717 -0.2087  1.2115 -0.4252
 5898SOL    HW129327   2.986   2.945   3.686 -1.1054  1.6691 -0.1138
 5898SOL    HW229328   2.907   2.901   3.790 -2.3288 -1.5958 -0.1990
 5899SOL     OW29329   1.151   4.255   8.175  0.5153 -0.1910  0.1323
 5899SOL    HW129330   1.064   4.287   8.152  0.6321 -1.9388 -2.6510
 5899SOL    HW229331   1.156   4.169   8.133  2.0378  0.0512 -0.1679
 5900SOL     OW29332   1.533   3.441   2.909  0.2172 -0.2057 -0.7424
 5900SOL    HW129333   1.535   3.495   2.987  0.5014 -0.6753 -0.4276
 5900SOL    HW229334   1.616   3.396   2.925 -0.2598 -0.9347 -0.3469
 5901SOL     OW29335   1.152   2.429   2.467  0.1243 -0.3206  0.5634
 5901SOL    HW129336   1.104   2.511   2.481 -0.5509  0.0716 -3.9953
 5901SOL    HW229337   1.237   2.466   2.446  0.1977 -0.9455 -0.2495
 5902SOL     OW29338   0.284   0.612   6.493  0.1907 -0.0062  0.1970
 5902SOL    HW129339   0.196   0.582   6.518 -0.3727  0.0353 -1.7193
 5902SOL    HW229340   0.335   0.537   6.522 -0.9782 -1.3292 -1.1354
 5903SOL     OW29341   0.713   1.877   3.036 -0.5068 -0.5623  0.4992
 5903SOL    HW129342   0.712   1.969   3.060  1.0708 -0.6191  0.8316
 5903SOL    HW229343   0.747   1.839   3.116  2.2896 -1.6275 -1.1802
 5904SOL     OW29344   3.082   4.037   8.297  0.4408  0.4978 -0.2870
 5904SOL    HW129345   3.026   4.024   8.373  1.8065 -0.7609  0.5094
 5904SOL    HW229346   3.116   4.127   8.297  1.4945  0.0939  0.8993
 5905SOL     OW29347   0.500   2.311   0.869  0.2270 -0.4997 -0.8227
 5905SOL    HW129348   0.450   2.300   0.788 -0.6960 -0.6904 -0.2199
 5905SOL    HW229349   0.563   2.239   0.864  0.5644 -0.2814  0.3587
 5906SOL     OW29350   3.862   1.074   3.121 -0.4087 -0.1932  0.1794
 5906SOL    HW129351   3.934   1.091   3.060 -2.3373  2.5628 -1.3480
 5906SOL    HW229352   3.886   1.122   3.200 -0.9442  1.9448 -0.9423
 5907SOL     OW29353   0.070   3.399   4.980  0.1521  0.0349  0.1137
 5907SOL    HW129354   4.736   3.407   5.039 -0.9991  2.5867 -1.7101
 5907SOL    HW229355   0.027   3.376   4.898  2.0424 -1.7289 -0.3788
 5908SOL     OW29356   3.422   1.984   6.397  0.1040  0.6289 -0.3407
 5908SOL    HW129357   3.396   1.938   6.477 -1.9707 -0.1481 -1.4564
 5908SOL    HW229358   3.517   1.972   6.404 -0.1309  0.3199  2.4232
 5909SOL     OW29359   3.878   1.956  15.083  0.1657  0.3334 -0.3736
 5909SOL    HW129360   3.922   1.894  15.025 -2.1750  1.2329 -3.0691
 5909SOL    HW229361   3.911   1.921  15.166 -2.1324 -0.1567  0.3117
 5910SOL     OW29362   3.506   0.410   7.476 -0.5917  0.5856 -0.3749
 5910SOL    HW129363   3.535   0.399   7.385  2.7796  1.6801  0.5818
 5910SOL    HW229364   3.558   0.339   7.514 -1.0197 -0.1524 -1.1400
 5911SOL     OW29365   4.159   2.444   8.036 -0.0097  1.0683  0.2813
 5911SOL    HW129366   4.087   2.483   8.086 -0.0914  2.0179 -0.5768
 5911SOL    HW229367   4.113   2.421   7.955 -0.4368  0.9325  0.5615
 5912SOL     OW29368   2.885   3.191   2.067 -0.1810  0.0349  0.7496
 5912SOL    HW129369   2.867   3.163   2.156 -0.4386  2.1921  1.3780
 5912SOL    HW229370   2.940   3.269   2.077  0.0281  0.0275 -0.2864
 5913SOL     OW29371   4.510   3.520  16.204 -1.4284  0.1274 -0.0202
 5913SOL    HW129372   4.454   3.448  16.232 -1.0639  0.4187  1.4555
 5913SOL    HW229373   4.500   3.585  16.274 -0.2295 -0.7641  0.9655
 5914SOL     OW29374   3.989   1.753   2.850 -0.3902  0.3521 -0.3942
 5914SOL    HW129375   4.070   1.801   2.870  0.1875  0.0443 -1.9960
 5914SOL    HW229376   3.959   1.805   2.776  1.4528  1.1613 -0.5669
 5915SOL     OW29377   4.674   3.281   2.781  0.0188 -0.1466 -0.0154
 5915SOL    HW129378   4.639   3.234   2.706 -1.4189  0.8929  0.0036
 5915SOL    HW229379   4.685   3.371   2.750 -2.2578 -0.1831 -0.8753
 5916SOL     OW29380   3.341   0.971  13.183  0.3960 -0.2388 -0.3211
 5916SOL    HW129381   3.383   0.950  13.100 -0.9337 -0.2177 -0.9983
 5916SOL    HW229382   3.409   1.023  13.225 -0.5385  1.1652 -0.5589
 5917SOL     OW29383   1.630   2.479   6.435 -0.2457 -0.2105  0.2014
 5917SOL    HW129384   1.615   2.536   6.360  1.5905  0.6722  0.5122
 5917SOL    HW229385   1.540   2.469   6.468 -0.6345  3.0684  0.2133
 5918SOL     OW29386   4.441   4.299   5.052 -0.0382  0.3480 -0.5418
 5918SOL    HW129387   4.518   4.326   5.102  1.7886 -1.9692 -2.1130
 5918SOL    HW229388   4.374   4.305   5.120 -1.0918  0.9896 -1.6136
 5919SOL     OW29389   0.649   0.431   6.288 -0.1813  0.4294  0.1029
 5919SOL    HW129390   0.593   0.353   6.294  0.7295 -0.1470  1.2048
 5919SOL    HW229391   0.608   0.500   6.341 -0.1822 -0.5469  1.3663
 5920SOL     OW29392   1.194   2.837  12.232  0.2816  0.3660  0.5125
 5920SOL    HW129393   1.268   2.841  12.172 -0.8574  3.5153 -0.7192
 5920SOL    HW229394   1.232   2.873  12.313  0.8040  2.2955 -0.5862
 5921SOL     OW29395   2.979   4.050   6.162  0.2035 -1.0010 -0.4864
 5921SOL    HW129396   3.034   4.028   6.237 -0.0094  0.1240  0.0046
 5921SOL    HW229397   3.041   4.051   6.089 -0.6817 -0.4075 -1.2337
 5922SOL     OW29398   0.561   2.225  12.761 -0.1488 -0.1102 -0.0720
 5922SOL    HW129399   0.512   2.183  12.832 -2.2296  0.0903 -1.4060
 5922SOL    HW229400   0.617   2.157  12.726  0.0968  0.8729 -1.5781
 5923SOL     OW29401   0.671   3.311   4.505  0.0086  0.6324 -0.1547
 5923SOL    HW129402   0.630   3.258   4.574  0.8995  1.0829  0.7207
 5923SOL    HW229403   0.759   3.275   4.516  1.2718  3.6992 -0.0509
 5924SOL     OW29404   4.328   2.394   6.970 -0.3684 -0.0026 -0.3514
 5924SOL    HW129405   4.282   2.408   7.053  0.5372 -1.7954  0.4575
 5924SOL    HW229406   4.381   2.473   6.969 -1.5004  0.7812  1.0603
 5925SOL     OW29407   4.433   0.247  16.437  0.8226  0.4655 -0.4324
 5925SOL    HW129408   4.343   0.213  16.443  0.7571  0.4178 -1.6560
 5925SOL    HW229409   4.466   0.239  16.526 -0.2151  0.8867 -0.0172
 5926SOL     OW29410   4.670   4.326  14.183 -0.1047 -0.0214  0.1360
 5926SOL    HW129411   4.646   4.387  14.252  1.6444 -0.0225  0.7493
 5926SOL    HW229412   4.648   4.385  14.111  0.9811  1.0977  0.7397
 5927SOL     OW29413   3.543   1.928   7.662  0.0517  0.3617 -0.0835
 5927SOL    HW129414   3.449   1.935   7.646  0.4582  0.8879 -2.2767
 5927SOL    HW229415   3.565   2.019   7.681  2.3563 -0.5476  1.6633
 5928SOL     OW29416   2.016   0.689   2.592  0.5408  0.1688 -0.3202
 5928SOL    HW129417   2.028   0.768   2.646 -2.0124  0.3206  0.0572
 5928SOL    HW229418   1.936   0.655   2.633 -0.3670  1.9429 -0.6006
 5929SOL     OW29419   0.451   0.237   5.123 -0.0379  0.7208 -0.1187
 5929SOL    HW129420   0.370   0.247   5.173 -0.1598 -0.2429 -0.1095
 5929SOL    HW229421   0.433   0.149   5.088  4.1100  1.3330 -3.7772
 5930SOL     OW29422   0.106   3.521   9.152 -0.4653  0.2794  0.0040
 5930SOL    HW129423   0.154   3.587   9.103 -0.9475  1.8427  1.6015
 5930SOL    HW229424   0.027   3.509   9.098  0.6254  1.1430 -1.7664
 5931SOL     OW29425   3.864   1.024   6.057  0.2508 -0.0886 -0.8739
 5931SOL    HW129426   3.861   1.078   6.136 -2.7301 -0.6757 -0.6016
 5931SOL    HW229427   3.944   0.972   6.064  0.8580  0.7022 -1.9756
 5932SOL     OW29428   1.976   1.788  17.735 -0.2718  0.6920 -0.2916
 5932SOL    HW129429   1.968   1.742  17.652  0.2474 -1.1786  0.7085
 5932SOL    HW229430   2.064   1.824  17.729 -0.9814  2.3459 -0.9554
 5933SOL     OW29431   3.923   2.591   8.011 -0.1115 -0.3487  0.0683
 5933SOL    HW129432   3.835   2.602   7.976  0.0967  2.7395  0.5480
 5933SOL    HW229433   3.898   2.589   8.103 -0.6744  1.0871 -0.0589
 5934SOL     OW29434   2.650   4.705  13.425 -0.8894  0.8964 -0.0248
 5934SOL    HW129435   2.612   4.637  13.368 -4.0397  0.6809  2.3225
 5934SOL    HW229436   2.609   4.684  13.509 -0.0457  1.3370  0.4989
 5935SOL     OW29437   3.138   4.728   5.079 -0.1667 -0.6033 -0.6768
 5935SOL    HW129438   3.227   4.711   5.046  0.1943 -0.6749  0.3322
 5935SOL    HW229439   3.093   4.647   5.055  0.4404 -0.9898 -0.5099
 5936SOL     OW29440   2.287   2.445   3.146  0.3748  0.2784  0.4082
 5936SOL    HW129441   2.211   2.441   3.206  0.7040  1.8481  0.9173
 5936SOL    HW229442   2.284   2.370   3.086 -3.4937  0.8060 -0.1053
 5937SOL     OW29443   3.590   1.610   4.864  0.2002 -0.0517  0.0978
 5937SOL    HW129444   3.636   1.536   4.905  1.6837  0.6296 -0.3368
 5937SOL    HW229445   3.597   1.667   4.941  1.1528  0.5423 -0.4280
 5938SOL     OW29446   1.979   2.424   3.605  0.2107 -0.3614  0.1795
 5938SOL    HW129447   1.934   2.502   3.575  2.4184  1.2077  0.9789
 5938SOL    HW229448   2.071   2.445   3.592  0.0223  0.6162  0.4220
 5939SOL     OW29449   2.338   2.537   2.864  0.2343 -0.2420 -0.3685
 5939SOL    HW129450   2.275   2.470   2.890 -0.4065 -0.2911 -2.0254
 5939SOL    HW229451   2.363   2.582   2.945  1.1459 -0.3909 -0.5659
 5940SOL     OW29452   3.413   0.158   6.087  0.2707  0.2344  0.3706
 5940SOL    HW129453   3.337   0.120   6.129  1.4054  0.3465  2.5252
 5940SOL    HW229454   3.438   0.094   6.020 -0.8776  0.4753 -0.2815
 5941SOL     OW29455   0.664   1.246   1.143  0.2757 -0.6539  0.0710
 5941SOL    HW129456   0.757   1.262   1.159  0.5608 -0.4258 -1.8520
 5941SOL    HW229457   0.670   1.263   1.049  0.9770 -1.1592  0.0282
 5942SOL     OW29458   2.519   3.524   2.908 -0.3682  0.4652 -0.3900
 5942SOL    HW129459   2.507   3.430   2.892 -2.3927  0.5078  0.9024
 5942SOL    HW229460   2.477   3.561   2.830 -3.7519  1.7255  2.0274
 5943SOL     OW29461   3.278   3.631  14.011  0.2338  0.3412  0.3080
 5943SOL    HW129462   3.202   3.641  13.954  1.1388  0.3049 -0.9087
 5943SOL    HW229463   3.339   3.628  13.938 -0.1709 -1.7945  0.0501
 5944SOL     OW29464   0.234   3.472   3.801 -0.0102 -0.1348  0.6522
 5944SOL    HW129465   0.255   3.545   3.742  1.3390 -0.5229  0.6502
 5944SOL    HW229466   0.325   3.443   3.810 -0.2964 -1.1787  0.2380
 5945SOL     OW29467   0.390   0.709   4.103 -0.0019 -0.5579  0.1844
 5945SOL    HW129468   0.485   0.714   4.112 -0.0496  0.0213  0.3676
 5945SOL    HW229469   0.375   0.630   4.051  1.0488 -0.4744 -0.2421
 5946SOL     OW29470   4.181   3.147   1.789  0.2218  0.4468 -0.0435
 5946SOL    HW129471   4.189   3.139   1.884 -1.6517  3.7436  0.3864
 5946SOL    HW229472   4.224   3.065   1.764  1.1075  1.0926 -0.6370
 5947SOL     OW29473   2.929   3.507  16.472 -0.4337 -0.1422 -0.6587
 5947SOL    HW129474   2.982   3.532  16.548  1.9757 -2.6545 -1.4973
 5947SOL    HW229475   2.947   3.578  16.411 -2.3640  1.0893  0.1966
 5948SOL     OW29476   0.643   2.098  11.906  0.0569 -0.4889 -0.5637
 5948SOL    HW129477   0.629   2.080  11.813 -2.7094 -1.8789  0.1264
 5948SOL    HW229478   0.625   2.011  11.941 -1.1629  0.1589  0.3974
 5949SOL     OW29479   0.230   0.169   2.589 -0.0446  0.2271 -0.3697
 5949SOL    HW129480   0.311   0.221   2.600  0.8503 -1.0633 -0.8759
 5949SOL    HW229481   0.215   0.176   2.495 -1.1665 -2.1915 -0.3763
 5950SOL     OW29482   4.107   2.311   3.834  0.4803 -0.0421 -0.2432
 5950SOL    HW129483   4.039   2.364   3.794  0.2772 -1.0472 -1.2230
 5950SOL    HW229484   4.067   2.224   3.836  1.3983 -0.4578  0.3930
 5951SOL     OW29485   1.531   2.046   4.134  0.0829 -0.3443 -0.8441
 5951SOL    HW129486   1.545   1.987   4.208  1.1401 -0.1174 -0.8679
 5951SOL    HW229487   1.460   1.996   4.092  1.0940 -1.5410 -1.1555
 5952SOL     OW29488   0.074   0.956  11.523 -0.0718 -0.2345 -0.3327
 5952SOL    HW129489   0.115   0.941  11.608 -1.1381 -0.0480  0.2221
 5952SOL    HW229490   4.731   1.002  11.534  0.5829  0.8166  0.2110
 5953SOL     OW29491   1.638   0.434   1.960  0.3703  0.0371  0.5105
 5953SOL    HW129492   1.722   0.479   1.953  1.1868 -1.4199  0.9419
 5953SOL    HW229493   1.662   0.347   1.991 -1.2566 -1.0362 -1.1873
 5954SOL     OW29494   2.716   1.701  16.658  0.3699  0.5912 -1.0313
 5954SOL    HW129495   2.766   1.626  16.690 -0.6222 -0.0187 -0.9083
 5954SOL    HW229496   2.749   1.763  16.724  0.5724 -1.6113  0.9442
 5955SOL     OW29497   4.389   3.308   7.977  0.4145 -0.3650 -0.1318
 5955SOL    HW129498   4.447   3.385   7.984 -0.3853  0.1290  1.1740
 5955SOL    HW229499   4.321   3.339   8.037  1.8318 -0.4994  1.5589
 5956SOL     OW29500   1.312   1.703   2.194 -0.2559  0.4964 -0.2003
 5956SOL    HW129501   1.401   1.721   2.164 -0.1036  0.0774 -0.0002
 5956SOL    HW229502   1.320   1.764   2.267 -1.8090 -0.4037  0.7308
 5957SOL     OW29503   2.599   3.243   2.627 -0.5649 -0.1438  0.0855
 5957SOL    HW129504   2.683   3.251   2.581  0.6974 -1.5893  2.1520
 5957SOL    HW229505   2.575   3.154   2.600 -0.8830 -0.2380  0.6790
 5958SOL     OW29506   1.653   0.901   2.112  0.3682  0.0135  0.4572
 5958SOL    HW129507   1.719   0.953   2.067  0.4670  1.1472  1.9012
 5958SOL    HW229508   1.607   0.857   2.041  0.1428 -0.6190  0.9960
 5959SOL     OW29509   4.144   0.183   7.214 -0.1976  0.2465  0.2219
 5959SOL    HW129510   4.069   0.235   7.242  0.5415  1.0967  0.6074
 5959SOL    HW229511   4.190   0.165   7.296 -1.4498  0.8925  1.0422
 5960SOL     OW29512   1.758   3.514   1.068  0.5256 -0.1191  0.3209
 5960SOL    HW129513   1.691   3.560   1.118 -1.0480 -2.7422  0.6618
 5960SOL    HW229514   1.761   3.559   0.984 -0.6714 -0.4654  0.1017
 5961SOL     OW29515   4.733   0.283  12.117  0.1745  0.4832 -0.1162
 5961SOL    HW129516   0.084   0.256  12.115 -0.4894 -1.6991 -0.0947
 5961SOL    HW229517   4.701   0.219  12.181 -1.2736  0.8314 -0.5009
 5962SOL     OW29518   1.265   1.540   4.260 -0.0065  0.0049 -0.6923
 5962SOL    HW129519   1.217   1.492   4.328  3.8003 -1.9293  0.6436
 5962SOL    HW229520   1.355   1.558   4.287  0.1682 -0.4280 -0.9690
 5963SOL     OW29521   1.124   0.551  15.093  0.4596  0.7242 -0.3434
 5963SOL    HW129522   1.143   0.486  15.025  0.0493  1.7513 -1.4334
 5963SOL    HW229523   1.074   0.608  15.035 -0.6541  2.2168  2.0614
 5964SOL     OW29524   0.596   3.689   1.441  0.2799  0.3170  0.1344
 5964SOL    HW129525   0.653   3.695   1.364 -1.4857  1.3028 -1.0969
 5964SOL    HW229526   0.638   3.646   1.515 -0.7853  0.4166  0.7993
 5965SOL     OW29527   3.019   4.274  10.763  0.5513 -0.3341 -0.2532
 5965SOL    HW129528   3.025   4.324  10.682 -1.2627  0.7107  0.2619
 5965SOL    HW229529   2.987   4.192  10.727  0.5649 -0.3221 -0.2927
 5966SOL     OW29530   1.228   4.059  16.533 -0.0030  0.3035  0.1824
 5966SOL    HW129531   1.323   4.057  16.549 -0.3564  4.2882  2.7591
 5966SOL    HW229532   1.202   4.055  16.625 -0.6381  1.3237  0.0403
 5967SOL     OW29533   0.653   4.298   7.212 -0.0243  0.2176 -0.6442
 5967SOL    HW129534   0.736   4.345   7.218 -0.2904  0.8768 -2.1979
 5967SOL    HW229535   0.603   4.340   7.282  0.8045  0.7539 -0.3793
 5968SOL     OW29536   0.120   2.998   2.613  0.2450 -0.6549  0.2620
 5968SOL    HW129537   0.080   3.008   2.699 -2.4548 -1.6839 -0.8768
 5968SOL    HW229538   0.119   2.904   2.601 -2.6329 -0.9120  2.4110
 5969SOL     OW29539   3.042   3.312  11.154  0.3006  0.1754  0.0325
 5969SOL    HW129540   3.121   3.276  11.195 -0.2979 -0.6586  0.4648
 5969SOL    HW229541   3.065   3.339  11.066 -0.9268 -0.0820 -0.3692
 5970SOL     OW29542   3.326   0.524  10.709  0.4335 -0.8418  0.0088
 5970SOL    HW129543   3.262   0.536  10.779 -0.2721 -1.2780 -0.5646
 5970SOL    HW229544   3.376   0.606  10.714  0.0411 -0.8412  3.8779
 5971SOL     OW29545   2.570   1.074   3.285  0.0994  0.4615 -0.3208
 5971SOL    HW129546   2.490   1.040   3.325  0.4040  2.6964  2.2200
 5971SOL    HW229547   2.641   1.012   3.302 -0.3700 -0.2957 -1.1371
 5972SOL     OW29548   1.290   0.687   4.451  0.1238 -0.1214  0.5720
 5972SOL    HW129549   1.200   0.720   4.461 -0.2608 -0.6535 -1.1242
 5972SOL    HW229550   1.297   0.696   4.356 -1.0181  2.4355  0.7195
 5973SOL     OW29551   2.571   4.640   9.429  0.2726 -0.7700 -0.0418
 5973SOL    HW129552   2.541   4.595   9.509  0.9550 -0.7173  0.2436
 5973SOL    HW229553   2.635   4.576   9.398  1.5141 -0.0509  1.0634
 5974SOL     OW29554   3.076   3.991   2.674 -0.1886  0.0276  0.3384
 5974SOL    HW129555   3.106   4.038   2.752  0.3604 -3.6368  2.3434
 5974SOL    HW229556   3.167   3.971   2.652 -0.1811  1.7206 -1.0746
 5975SOL     OW29557   4.496   0.880   3.067  0.4462  0.0477 -0.0512
 5975SOL    HW129558   4.563   0.886   3.135  1.8950 -3.7835 -1.1600
 5975SOL    HW229559   4.550   0.845   2.997 -0.7855 -0.2652 -0.8437
 5976SOL     OW29560   1.903   1.970   5.541  0.0906 -0.3872 -0.3529
 5976SOL    HW129561   1.870   1.881   5.523 -1.8506  0.5214 -1.3486
 5976SOL    HW229562   1.863   2.013   5.465  0.2274  1.1989  0.4897
 5977SOL     OW29563   1.722   1.129   3.408  0.1091  0.3085  0.6235
 5977SOL    HW129564   1.767   1.081   3.340 -0.3520  1.8856 -0.8026
 5977SOL    HW229565   1.793   1.172   3.457  0.1022  3.8282 -2.4477
 5978SOL     OW29566   0.030   2.578   5.975 -0.2980 -0.0477 -0.0483
 5978SOL    HW129567   4.734   2.511   6.033  0.7422 -0.2869  0.3311
 5978SOL    HW229568   4.692   2.629   5.959  0.3836  0.8431 -0.5202
 5979SOL     OW29569   1.518   4.673   0.928 -0.3198 -0.6547 -0.7642
 5979SOL    HW129570   1.592   4.613   0.929  0.0372 -0.2098 -0.6161
 5979SOL    HW229571   1.451   4.614   0.892 -1.4501 -0.0474  0.3141
 5980SOL     OW29572   3.132   1.860   8.376 -0.1656  0.3083 -0.9740
 5980SOL    HW129573   3.108   1.801   8.448 -0.9337  1.6278 -0.1536
 5980SOL    HW229574   3.207   1.817   8.335 -1.2867 -0.2482 -2.4439
 5981SOL     OW29575   1.287   1.001   3.430  0.1311  0.0337 -0.1992
 5981SOL    HW129576   1.316   0.919   3.390  4.2080  1.1769  0.4148
 5981SOL    HW229577   1.353   1.015   3.498  1.1485  1.2536 -1.4532
 5982SOL     OW29578   4.308   4.226   6.251 -0.0254  0.2856 -0.0965
 5982SOL    HW129579   4.397   4.223   6.285  1.0980  0.0975 -3.0968
 5982SOL    HW229580   4.265   4.283   6.315 -0.2657  1.5176 -1.3454
 5983SOL     OW29581   2.662   1.187   3.053  0.2582  0.4055  0.1613
 5983SOL    HW129582   2.641   1.105   3.098  0.2413 -0.3504 -1.2397
 5983SOL    HW229583   2.584   1.242   3.058  1.7058  2.5762 -0.8380
 5984SOL     OW29584   0.704   3.507   1.646 -0.3004  0.2756 -0.0360
 5984SOL    HW129585   0.783   3.484   1.693 -0.7529  1.1141  1.1386
 5984SOL    HW229586   0.634   3.457   1.689 -0.1381 -0.0158 -0.1143
 5985SOL     OW29587   0.512   2.273   6.814  0.0219  0.1733 -0.3958
 5985SOL    HW129588   0.436   2.331   6.821 -0.5439 -0.5519 -0.4653
 5985SOL    HW229589   0.471   2.216   6.749  2.9195  1.0499 -2.9946
 5986SOL     OW29590   0.417   1.388   6.994 -0.1267 -0.0690  0.2303
 5986SOL    HW129591   0.433   1.304   6.949 -0.5105 -0.2202  0.3816
 5986SOL    HW229592   0.430   1.356   7.083  0.9126  0.2237  0.1885
 5987SOL     OW29593   2.209   0.952  10.089 -0.1394 -0.1365  0.3385
 5987SOL    HW129594   2.295   0.984  10.117  0.6053 -0.6994 -1.2773
 5987SOL    HW229595   2.156   1.006  10.147  0.2040 -0.4454  0.9355
 5988SOL     OW29596   0.918   4.159   1.915 -0.6162  0.1862 -0.1967
 5988SOL    HW129597   0.978   4.108   1.970 -2.1429  1.3708  2.5865
 5988SOL    HW229598   0.976   4.186   1.844  0.7165 -0.8486  0.4993
 5989SOL     OW29599   1.142   3.564   5.468 -0.8308  0.1958  0.1307
 5989SOL    HW129600   1.154   3.650   5.508 -2.9641  0.0623  1.0685
 5989SOL    HW229601   1.047   3.575   5.456 -0.8685 -2.1982 -1.8351
 5990SOL     OW29602   0.773   3.838   2.662  0.3779 -0.6447  0.8966
 5990SOL    HW129603   0.849   3.872   2.710 -0.1386 -1.8777  2.5904
 5990SOL    HW229604   0.772   3.889   2.581  0.7691 -0.7068  0.8544
 5991SOL     OW29605   3.020   3.993   2.073  0.1634 -0.3202  0.0942
 5991SOL    HW129606   2.990   3.925   2.013 -0.5707  0.4085 -0.3600
 5991SOL    HW229607   2.941   4.032   2.111  0.4022 -0.6965  0.9850
 5992SOL     OW29608   1.121   1.281   5.954 -0.2105  0.3373 -0.1158
 5992SOL    HW129609   1.044   1.283   6.012  1.3967  0.3454  2.0104
 5992SOL    HW229610   1.119   1.211   5.890 -0.2123  1.7938 -1.7177
 5993SOL     OW29611   4.597   1.167   3.238  0.3869 -0.0012 -0.3253
 5993SOL    HW129612   4.504   1.182   3.221 -0.0400 -0.8867  1.2552
 5993SOL    HW229613   4.641   1.163   3.153  1.9868  0.2302  0.5013
 5994SOL     OW29614   3.393   3.144  12.662  0.2338 -0.2783 -0.0367
 5994SOL    HW129615   3.361   3.213  12.605  1.9200 -0.5998 -1.3892
 5994SOL    HW229616   3.483   3.130  12.632  0.4808  2.1165 -0.4268
 5995SOL     OW29617   2.254   3.436  13.152 -0.3072  0.1614 -0.3164
 5995SOL    HW129618   2.273   3.354  13.198 -0.0598 -0.4589 -1.5234
 5995SOL    HW229619   2.289   3.496  13.217  0.6856 -0.5129 -0.2292
 5996SOL     OW29620   4.304   0.900  12.543  0.4209 -0.0054  0.0672
 5996SOL    HW129621   4.347   0.863  12.620 -0.7061 -3.0490 -0.7872
 5996SOL    HW229622   4.265   0.983  12.572 -1.9308 -0.8643 -0.6747
 5997SOL     OW29623   3.393   4.513   3.528 -0.0605 -0.7754  0.2024
 5997SOL    HW129624   3.343   4.544   3.604 -1.1545 -0.2825 -0.7223
 5997SOL    HW229625   3.479   4.547   3.552 -1.2566  1.9143  0.6624
 5998SOL     OW29626   0.990   1.139  12.257  0.5961 -0.1908  0.9165
 5998SOL    HW129627   1.010   1.058  12.211 -1.5746  0.0296 -0.3719
 5998SOL    HW229628   1.045   1.207  12.217  0.1745  0.6849  1.8212
 5999SOL     OW29629   4.168   1.224  13.361  0.3024  0.3147  0.1974
 5999SOL    HW129630   4.136   1.243  13.273  0.8964  1.0580  0.1409
 5999SOL    HW229631   4.164   1.128  13.355 -0.9414  0.3624  0.3020
 6000SOL     OW29632   2.860   4.041  15.336  0.0003 -0.1154 -0.3747
 6000SOL    HW129633   2.862   4.118  15.393 -1.6276  1.0725 -1.9379
 6000SOL    HW229634   2.802   4.069  15.265 -1.3952 -0.1424  0.7492
 6001SOL     OW29635   1.341   2.023   2.630 -0.8893 -0.7218 -0.6578
 6001SOL    HW129636   1.273   2.054   2.570 -0.5180  3.0029  0.8732
 6001SOL    HW229637   1.418   2.046   2.577 -2.8114 -0.0782 -3.2067
 6002SOL     OW29638   2.821   3.936   6.449 -0.0386  0.2754  0.3960
 6002SOL    HW129639   2.778   3.978   6.374  0.9458  0.3139 -0.1464
 6002SOL    HW229640   2.808   4.014   6.502 -3.1471  0.9233 -1.3209
 6003SOL     OW29641   3.093   1.960   4.479  0.0527  0.5535  0.3450
 6003SOL    HW129642   3.023   1.897   4.462 -1.0666  1.5065  1.4815
 6003SOL    HW229643   3.046   2.029   4.525  0.1727 -0.8181  2.5218
 6004SOL     OW29644   1.898   0.276  12.377 -0.2500  0.4612  0.2224
 6004SOL    HW129645   1.977   0.299  12.425  1.1753  1.1595 -2.4748
 6004SOL    HW229646   1.913   0.183  12.361  1.7790  0.7080  0.7872
 6005SOL     OW29647   4.258   0.926   3.201  0.1121 -0.3924 -0.0581
 6005SOL    HW129648   4.275   1.018   3.180 -0.4518  0.1977  2.1009
 6005SOL    HW229649   4.336   0.880   3.168  0.6027  0.4578 -0.0834
 6006SOL     OW29650   3.369   2.090  12.695  0.5307  0.2458  0.0920
 6006SOL    HW129651   3.302   2.077  12.629  1.0402 -1.0611 -0.1720
 6006SOL    HW229652   3.355   2.184  12.694  2.0231  0.4065 -4.5365
 6007SOL     OW29653   1.473   3.592   3.433 -0.0504  0.1421  0.0963
 6007SOL    HW129654   1.550   3.610   3.487  0.3602 -1.7479  0.1494
 6007SOL    HW229655   1.409   3.543   3.485  1.1094 -1.0440  0.4210
 6008SOL     OW29656   2.015   1.486  16.512  0.0639  0.5372  0.4103
 6008SOL    HW129657   2.023   1.498  16.417  0.5000 -0.7794  0.2748
 6008SOL    HW229658   2.106   1.483  16.540  0.1303 -0.8592  0.0677
 6009SOL     OW29659   0.689   0.719   3.365  0.3048  0.0005  0.1179
 6009SOL    HW129660   0.649   0.738   3.280 -0.4311 -0.8151  0.2819
 6009SOL    HW229661   0.780   0.732   3.342  0.4030 -0.8719  0.0182
 6010SOL     OW29662   1.313   3.645  17.036 -0.2935 -0.7097  0.0590
 6010SOL    HW129663   1.266   3.567  17.007 -3.2910  1.2643 -0.3248
 6010SOL    HW229664   1.274   3.652  17.123  1.3792  1.8701  0.6122
 6011SOL     OW29665   0.174   2.670   9.384 -0.7424 -0.4013  0.0724
 6011SOL    HW129666   0.210   2.697   9.468 -1.2821  2.3638 -0.5948
 6011SOL    HW229667   0.122   2.593   9.406  2.6209 -2.4333  0.9641
 6012SOL     OW29668   1.997   1.126   3.482  0.5716 -0.0461 -0.8835
 6012SOL    HW129669   2.062   1.084   3.426  1.1686 -0.5962  0.2246
 6012SOL    HW229670   1.992   1.215   3.447  1.8530 -0.9823 -3.5001
 6013SOL     OW29671   3.515   2.879   5.338 -0.1864 -0.3924 -0.2619
 6013SOL    HW129672   3.461   2.822   5.282 -1.7651  0.1144  0.7334
 6013SOL    HW229673   3.557   2.931   5.269 -0.3739 -1.6913 -1.3687
 6014SOL     OW29674   1.297   2.786   4.277  0.2586 -0.0549  0.3740
 6014SOL    HW129675   1.355   2.769   4.203  0.7838 -0.9051  0.9808
 6014SOL    HW229676   1.300   2.882   4.277  2.8873 -0.1519 -1.8597
 6015SOL     OW29677   3.427   3.523  17.004 -0.1994 -0.1401 -0.3744
 6015SOL    HW129678   3.499   3.576  17.040 -0.1108 -1.3999  1.2787
 6015SOL    HW229679   3.471   3.438  16.998 -0.7279 -0.3523 -1.2429
 6016SOL     OW29680   1.084   1.593   3.085  0.1364  0.5407  0.9198
 6016SOL    HW129681   1.115   1.603   3.175 -0.7462  0.8876  1.1911
 6016SOL    HW229682   1.141   1.648   3.032 -0.3959  0.2507  0.0433
 6017SOL     OW29683   2.365   4.171  14.040 -0.5504  0.2038 -0.0110
 6017SOL    HW129684   2.423   4.177  14.116 -1.0339 -1.9131  0.5288
 6017SOL    HW229685   2.291   4.115  14.065  0.3809 -0.4482  1.2756
 6018SOL     OW29686   0.729   2.790   9.957 -0.0207 -0.2520  0.0904
 6018SOL    HW129687   0.666   2.728   9.921  0.3162 -0.5911  0.0754
 6018SOL    HW229688   0.806   2.732   9.955 -0.0814 -0.3197 -0.3340
 6019SOL     OW29689   1.720   4.682   8.179  0.7488  0.0272  0.1099
 6019SOL    HW129690   1.720   4.686   8.275  2.0118 -1.8751  0.1951
 6019SOL    HW229691   1.689   4.595   8.151  1.3934 -1.3923  3.8259
 6020SOL     OW29692   0.436   2.680   4.149  0.1360  0.2304 -0.4806
 6020SOL    HW129693   0.451   2.728   4.068  3.0329 -2.9277 -1.8431
 6020SOL    HW229694   0.516   2.705   4.196 -0.0826  1.5719 -0.8352
 6021SOL     OW29695   1.692   2.003   9.164  0.1229 -0.2861 -0.1602
 6021SOL    HW129696   1.744   2.068   9.118  1.9450 -1.2416  0.5384
 6021SOL    HW229697   1.645   1.963   9.091  0.4214  0.2413 -0.6380
 6022SOL     OW29698   3.543   1.088  10.231  0.1629  0.1323 -0.4379
 6022SOL    HW129699   3.578   1.032  10.301  0.9909  0.3604 -0.6746
 6022SOL    HW229700   3.541   1.172  10.277 -2.0257  0.6764 -1.5109
 6023SOL     OW29701   0.462   0.876   4.755 -0.2538 -0.2930  0.2797
 6023SOL    HW129702   0.421   0.937   4.693  0.8002 -0.3835 -0.5044
 6023SOL    HW229703   0.381   0.829   4.775  0.3006 -0.8893  1.1159
 6024SOL     OW29704   1.148   0.541   9.125 -0.5639  0.0023  0.3092
 6024SOL    HW129705   1.083   0.565   9.059 -2.0404  0.8676  2.0775
 6024SOL    HW229706   1.228   0.529   9.074 -0.5434  1.2731  0.0552
 6025SOL     OW29707   2.159   3.470  10.378  0.7832 -0.0279 -0.3689
 6025SOL    HW129708   2.093   3.401  10.380  0.3278  0.4415  0.9397
 6025SOL    HW229709   2.223   3.436  10.316  0.4992 -2.8180  0.8860
 6026SOL     OW29710   3.686   2.821   8.292 -0.0862 -0.0914 -0.0695
 6026SOL    HW129711   3.714   2.775   8.213 -3.3776 -2.0001 -0.1443
 6026SOL    HW229712   3.769   2.824   8.338  0.0187  1.8729 -0.3820
 6027SOL     OW29713   4.428   3.683  17.234 -0.0944  0.1709 -0.4263
 6027SOL    HW129714   4.452   3.757  17.291 -0.3511  0.7570 -1.0776
 6027SOL    HW229715   4.434   3.612  17.298  1.6826  0.3716 -0.3554
 6028SOL     OW29716   3.889   2.149  16.728  0.2251  0.6946 -0.1243
 6028SOL    HW129717   3.934   2.201  16.662  1.7843 -0.1343  0.2908
 6028SOL    HW229718   3.968   2.115  16.770  0.3424  1.9832  0.7050
 6029SOL     OW29719   4.662   3.581   7.576 -0.3239 -0.1007  0.1512
 6029SOL    HW129720   0.011   3.605   7.554 -0.0527 -1.4747 -0.2284
 6029SOL    HW229721   4.623   3.574   7.489 -2.5569 -0.6436  1.1967
 6030SOL     OW29722   1.327   3.718  15.038  0.1389  0.1987 -0.1634
 6030SOL    HW129723   1.381   3.659  14.986 -1.0369 -0.6497 -0.4146
 6030SOL    HW229724   1.245   3.722  14.989 -0.5930  0.7519  1.1086
 6031SOL     OW29725   0.995   1.033   7.232 -0.5831 -0.1507  0.0612
 6031SOL    HW129726   0.933   0.971   7.273  0.3172 -0.1037  1.5019
 6031SOL    HW229727   0.957   1.116   7.260  0.9584  0.5601  0.0213
 6032SOL     OW29728   0.365   1.664   3.874  0.6883 -0.4188 -0.4441
 6032SOL    HW129729   0.337   1.588   3.823  1.3518 -0.4572 -0.7443
 6032SOL    HW229730   0.458   1.667   3.851  0.8838 -2.1198  0.1170
 6033SOL     OW29731   3.763   1.276   9.512  0.2369  0.0281 -0.5593
 6033SOL    HW129732   3.723   1.262   9.427  0.9397  1.1572 -1.0808
 6033SOL    HW229733   3.695   1.317   9.566  0.7889 -1.8248  1.5593
 6034SOL     OW29734   1.898   1.613   1.420  0.1731  0.1873 -0.1104
 6034SOL    HW129735   1.858   1.666   1.488 -1.1592  0.1088 -0.8253
 6034SOL    HW229736   1.817   1.566   1.398  0.7071  0.0110 -1.7391
 6035SOL     OW29737   3.291   4.065  11.831 -0.1923 -0.5256 -0.3765
 6035SOL    HW129738   3.270   4.018  11.912  1.2100  0.2773  0.4491
 6035SOL    HW229739   3.378   4.026  11.819  0.7716  1.8824 -1.2618
 6036SOL     OW29740   2.949   0.194   6.504  0.1433 -0.8546 -0.4431
 6036SOL    HW129741   2.960   0.144   6.584 -4.1118  1.9050  1.8755
 6036SOL    HW229742   2.855   0.214   6.507  0.3412  0.1879 -0.9708
 6037SOL     OW29743   2.318   2.459   0.597 -0.2254  0.0588 -0.5255
 6037SOL    HW129744   2.398   2.486   0.643 -0.1685  0.0523 -0.6205
 6037SOL    HW229745   2.320   2.516   0.521 -1.9749  2.3712  1.1847
 6038SOL     OW29746   1.590   1.288   8.915 -0.3257  0.1450 -0.4136
 6038SOL    HW129747   1.517   1.227   8.923  0.0533 -0.1625  0.6787
 6038SOL    HW229748   1.593   1.312   9.008 -0.4446 -4.3255  0.7492
 6039SOL     OW29749   0.343   0.253   8.339 -0.0403 -0.0559 -0.1028
 6039SOL    HW129750   0.313   0.207   8.261  0.5274  0.0285 -0.3686
 6039SOL    HW229751   0.269   0.313   8.350  0.0993  0.2715 -0.9863
 6040SOL     OW29752   0.918   1.262  10.000 -1.0631 -0.4772  0.2701
 6040SOL    HW129753   0.926   1.227  10.089 -2.7792 -3.4872 -0.7577
 6040SOL    HW229754   1.006   1.262   9.964 -1.7075 -0.0011 -1.3101
 6041SOL     OW29755   2.190   0.936  16.314 -0.5971  0.5692 -0.3677
 6041SOL    HW129756   2.240   1.002  16.266  1.1207  0.3192  1.0680
 6041SOL    HW229757   2.191   0.861  16.255 -0.6072  1.3309 -1.3421
 6042SOL     OW29758   1.107   2.462   4.899  0.1489  0.4484  0.1453
 6042SOL    HW129759   1.153   2.546   4.900  1.2299 -0.1308 -0.1050
 6042SOL    HW229760   1.126   2.444   4.807 -1.3441  1.2361 -0.3077
 6043SOL     OW29761   4.406   4.302   2.136  0.2724 -0.1259 -0.1427
 6043SOL    HW129762   4.338   4.362   2.106 -0.7502  0.5941  3.6490
 6043SOL    HW229763   4.487   4.352   2.128  0.0233  0.3809  0.5161
 6044SOL     OW29764   4.382   1.775  12.711  0.1105 -0.2938  1.5506
 6044SOL    HW129765   4.401   1.853  12.764 -0.6245 -0.0520  1.4668
 6044SOL    HW229766   4.316   1.821  12.659  0.2518 -1.1227  0.6326
 6045SOL     OW29767   0.611   2.831   1.640 -0.4921  0.0392  0.1550
 6045SOL    HW129768   0.560   2.893   1.587  0.1053  2.1850  2.0862
 6045SOL    HW229769   0.542   2.766   1.650  1.5509 -2.1636 -0.1586
 6046SOL     OW29770   1.034   3.968   4.994 -0.5739  0.0803  0.1694
 6046SOL    HW129771   1.009   3.899   4.932 -1.6397 -3.1804  4.2476
 6046SOL    HW229772   1.119   3.990   4.958 -0.9304  0.5026 -0.4261
 6047SOL     OW29773   2.519   0.699   6.509 -0.5665 -0.4349 -0.1466
 6047SOL    HW129774   2.482   0.685   6.596 -0.8141  0.6647 -0.0798
 6047SOL    HW229775   2.545   0.609   6.487  0.6150 -0.2628  0.5178
 6048SOL     OW29776   1.526   0.781   5.703  0.7624  0.3443 -0.0429
 6048SOL    HW129777   1.496   0.870   5.720 -1.1065 -0.1953 -0.5716
 6048SOL    HW229778   1.554   0.799   5.613 -1.7449 -1.4813 -1.1577
 6049SOL     OW29779   3.372   1.708   5.740 -0.2568 -0.1722  0.7547
 6049SOL    HW129780   3.386   1.778   5.804  0.4510 -0.4186  0.8777
 6049SOL    HW229781   3.400   1.639   5.800 -2.3788  0.0540  1.9696
 6050SOL     OW29782   4.141   3.099  11.870 -0.0453 -0.4412 -0.1849
 6050SOL    HW129783   4.071   3.164  11.866 -0.1947 -0.6537 -0.9859
 6050SOL    HW229784   4.200   3.153  11.818 -0.3767  1.7654  1.7181
 6051SOL     OW29785   2.665   3.827  17.583  0.2320  0.4475  0.2221
 6051SOL    HW129786   2.736   3.837  17.646 -0.3996  0.1162  0.9914
 6051SOL    HW229787   2.678   3.892  17.514 -1.2178 -0.0570 -0.5390
 6052SOL     OW29788   2.538   2.193  13.838  0.1268 -0.8489 -0.2178
 6052SOL    HW129789   2.483   2.262  13.802  3.3600  1.5154 -0.6439
 6052SOL    HW229790   2.478   2.167  13.908 -0.1954  0.7171  0.0947
 6053SOL     OW29791   3.199   1.301   5.768 -0.2910  0.4674  0.1522
 6053SOL    HW129792   3.288   1.299   5.732  0.1730  1.1514  1.2731
 6053SOL    HW229793   3.202   1.357   5.846 -0.6474 -2.3539  2.1777
 6054SOL     OW29794   0.992   4.602   0.300 -1.0238 -0.3008  0.4695
 6054SOL    HW129795   1.083   4.571   0.305 -1.1268 -0.6686  0.0481
 6054SOL    HW229796   0.992   4.685   0.349 -1.2271  0.0368 -0.1004
 6055SOL     OW29797   4.217   1.130   2.341  0.2319 -0.4336 -0.0093
 6055SOL    HW129798   4.277   1.124   2.415 -2.1785  0.1697  2.0058
 6055SOL    HW229799   4.142   1.074   2.362 -0.0874 -0.0249 -0.0427
 6056SOL     OW29800   0.239   0.380   6.300  0.1174  0.3310  0.2947
 6056SOL    HW129801   0.159   0.408   6.345  0.6672  1.7135  0.3945
 6056SOL    HW229802   0.207   0.318   6.234 -1.8596  2.5267 -0.8199
 6057SOL     OW29803   2.787   1.402   6.000 -0.6273 -0.2074 -0.5798
 6057SOL    HW129804   2.753   1.313   5.991 -1.0751 -0.1349  0.3113
 6057SOL    HW229805   2.705   1.449   6.013 -1.4446 -1.7166 -0.2814
 6058SOL     OW29806   4.576   1.149   1.881 -0.0953 -0.0270 -0.1537
 6058SOL    HW129807   4.559   1.236   1.845 -0.1709  0.6418  1.4888
 6058SOL    HW229808   4.499   1.129   1.934  0.7093 -1.5928  0.4469
 6059SOL     OW29809   1.405   1.886   8.431 -0.6612 -0.1184 -0.1746
 6059SOL    HW129810   1.441   1.828   8.364 -1.6437 -0.1650 -0.6647
 6059SOL    HW229811   1.382   1.815   8.491 -0.2128  0.1578  0.3284
 6060SOL     OW29812   3.724   1.344   2.161  0.0514  0.5437  0.0651
 6060SOL    HW129813   3.680   1.277   2.213  0.3985 -0.7363 -1.2919
 6060SOL    HW229814   3.814   1.327   2.188 -0.7081  0.4958  2.5570
 6061SOL     OW29815   0.133   2.377   8.705 -0.6562 -0.1180 -0.0681
 6061SOL    HW129816   0.050   2.334   8.724  0.6443 -1.8085  1.8803
 6061SOL    HW229817   0.129   2.462   8.750 -2.0294  0.5902 -1.5585
 6062SOL     OW29818   2.946   4.460   3.274  0.6891 -0.1376 -0.2262
 6062SOL    HW129819   3.035   4.474   3.306  1.0848 -0.8308 -1.0153
 6062SOL    HW229820   2.964   4.406   3.197  0.2187 -0.7071  0.0588
 6063SOL     OW29821   4.077   4.638   4.406  0.6240 -0.3949  0.5088
 6063SOL    HW129822   4.129   4.610   4.480  1.2662  1.2581  0.6862
 6063SOL    HW229823   4.124   4.712   4.368  0.3542 -0.2204  0.5114
 6064SOL     OW29824   3.114   0.115   0.069 -0.4931  0.3927  1.0700
 6064SOL    HW129825   3.040   0.053   0.072 -1.6823  1.6812 -1.3584
 6064SOL    HW229826   3.194   0.062   0.069  0.2979  1.5843 -0.9769
 6065SOL     OW29827   4.335   4.240   9.965 -0.2915 -0.2625 -0.8107
 6065SOL    HW129828   4.283   4.220  10.043  1.2148  1.4389  0.6329
 6065SOL    HW229829   4.422   4.203   9.979  0.5457  1.7626 -0.6273
 6066SOL     OW29830   4.525   3.097   2.622  0.3030 -0.0151 -0.2326
 6066SOL    HW129831   4.555   3.168   2.565  1.1392  0.4045  0.7315
 6066SOL    HW229832   4.441   3.128   2.655 -0.1702  0.2723 -1.7017
 6067SOL     OW29833   2.191   1.797   2.111 -0.3512  0.2985  0.0993
 6067SOL    HW129834   2.156   1.873   2.159 -2.8453  1.0800 -2.9728
 6067SOL    HW229835   2.112   1.792   2.057 -1.2652  1.4259  1.3294
 6068SOL     OW29836   2.476   3.997   2.667  0.4121 -0.0126 -0.2760
 6068SOL    HW129837   2.528   3.929   2.624 -1.0626 -1.7866  0.7334
 6068SOL    HW229838   2.467   4.075   2.613  0.9898  0.4798  0.3388
 6069SOL     OW29839   2.962   2.532   4.378  0.5177  0.6207 -0.4580
 6069SOL    HW129840   2.921   2.610   4.417 -0.1387 -0.4140  0.8973
 6069SOL    HW229841   3.038   2.518   4.434 -0.2066 -0.6984  0.1806
 6070SOL     OW29842   0.890   0.270   3.190  0.5825  0.4256  0.6684
 6070SOL    HW129843   0.953   0.338   3.212  0.7969  1.1581 -2.2077
 6070SOL    HW229844   0.844   0.264   3.274 -0.8947  1.5814 -0.0430
 6071SOL     OW29845   3.871   2.118  13.997  0.0606  0.0005 -0.4811
 6071SOL    HW129846   3.898   2.031  14.027 -0.3392 -0.3698 -1.1998
 6071SOL    HW229847   3.958   2.157  13.986  1.0224 -1.0751  3.0568
 6072SOL     OW29848   3.138   3.978   6.402 -0.3749  0.0943  0.3264
 6072SOL    HW129849   3.060   3.927   6.425  0.8552 -0.7191  2.7191
 6072SOL    HW229850   3.135   4.034   6.480  1.0240  1.6114 -0.7175
 6073SOL     OW29851   1.148   2.078   4.124  0.3745  0.1849 -0.3085
 6073SOL    HW129852   1.057   2.048   4.121  0.3423  0.1606  0.8090
 6073SOL    HW229853   1.167   2.123   4.042  1.9711 -1.3361 -0.7672
 6074SOL     OW29854   1.731   3.929   6.351 -0.5025 -0.9094  0.1030
 6074SOL    HW129855   1.653   3.923   6.296 -0.1532 -3.8009 -0.1033
 6074SOL    HW229856   1.796   3.879   6.301 -1.8399 -2.1671 -0.3686
 6075SOL     OW29857   2.473   2.800   1.130  0.5373  0.8067 -0.6778
 6075SOL    HW129858   2.518   2.752   1.060 -3.1324  0.6279 -2.9315
 6075SOL    HW229859   2.409   2.739   1.167  2.6502 -0.4240  0.9669
 6076SOL     OW29860   1.647   0.550   2.246  1.0852  0.0393 -0.0151
 6076SOL    HW129861   1.624   0.539   2.154  0.3025 -0.6980  0.2699
 6076SOL    HW229862   1.658   0.645   2.255 -0.1642  0.3834 -2.0193
 6077SOL     OW29863   0.035   2.836   1.672 -0.5882  0.2275 -0.4996
 6077SOL    HW129864   0.010   2.905   1.733  0.0769 -0.0653  0.1072
 6077SOL    HW229865   0.109   2.794   1.717  0.4943  1.9462 -0.6513
 6078SOL     OW29866   3.600   3.809   3.947 -0.0496  0.6559  0.0199
 6078SOL    HW129867   3.691   3.805   3.917 -0.5630 -0.0098 -1.4738
 6078SOL    HW229868   3.589   3.904   3.945 -0.6869  0.5834  0.2880
 6079SOL     OW29869   1.355   4.041  14.174  0.7826 -0.9596 -0.3490
 6079SOL    HW129870   1.276   3.989  14.160  0.5655 -0.8314  0.3784
 6079SOL    HW229871   1.360   4.022  14.268  0.2365  1.5853  0.1948
 6080SOL     OW29872   1.694   3.171   9.001 -0.1294 -0.0125  0.0921
 6080SOL    HW129873   1.664   3.254   9.039  0.2635 -0.2974  1.0393
 6080SOL    HW229874   1.621   3.167   8.940  0.2113 -0.2131 -0.3038
 6081SOL     OW29875   0.883   1.096   0.802  0.3033 -0.3262 -0.0274
 6081SOL    HW129876   0.956   1.145   0.764 -0.1670  1.2184  1.0602
 6081SOL    HW229877   0.897   1.019   0.747 -0.6588 -1.1077  0.8148
 6082SOL     OW29878   0.258   0.098   3.658 -0.1856 -0.3327 -0.2379
 6082SOL    HW129879   0.316   0.174   3.655 -1.5264  0.7278  0.5805
 6082SOL    HW229880   0.183   0.140   3.701  0.6751  0.0056  0.9186
 6083SOL     OW29881   4.657   0.823   6.971 -0.7636  0.3084 -0.5096
 6083SOL    HW129882   4.643   0.798   6.880 -0.4982 -1.0078 -0.1887
 6083SOL    HW229883   4.668   0.734   7.005  0.1744 -0.0417 -1.7141
 6084SOL     OW29884   4.365   0.995  13.547  0.0213 -0.0932 -0.2776
 6084SOL    HW129885   4.277   1.003  13.584 -1.1278  0.2605 -3.1041
 6084SOL    HW229886   4.353   0.908  13.509 -0.9960 -0.9862  2.0793
 6085SOL     OW29887   2.787   1.987   7.188 -0.2607  0.4167 -0.0394
 6085SOL    HW129888   2.837   1.908   7.209  1.1746  1.1865 -0.5584
 6085SOL    HW229889   2.858   2.048   7.172  0.6804 -0.5089  0.6084
 6086SOL     OW29890   2.498   0.589   3.659  0.4608  0.0693  0.1726
 6086SOL    HW129891   2.577   0.583   3.713 -0.5715 -0.1952  1.6498
 6086SOL    HW229892   2.490   0.681   3.636 -1.4816  0.0682  0.8118
 6087SOL     OW29893   4.421   0.899   4.201  0.5139 -0.1918  0.3240
 6087SOL    HW129894   4.412   0.989   4.168 -1.1118  0.4166  2.4578
 6087SOL    HW229895   4.502   0.870   4.158 -0.7682 -1.3315 -1.3329
 6088SOL     OW29896   3.813   0.689  11.422  0.1794  0.2759  0.0225
 6088SOL    HW129897   3.799   0.738  11.503 -0.5464 -0.9805  0.6676
 6088SOL    HW229898   3.792   0.600  11.451  0.3480  0.0588 -0.5219
 6089SOL     OW29899   4.572   1.174  12.508 -0.2174  0.3338  0.1961
 6089SOL    HW129900   4.548   1.248  12.452 -1.4711 -0.3800 -0.2299
 6089SOL    HW229901   4.563   1.210  12.596  1.6814  1.2422  0.0075
 6090SOL     OW29902   1.035   4.023   8.088  0.4085 -0.2404  0.6826
 6090SOL    HW129903   0.995   4.008   8.174  0.3855  0.5689  0.8093
 6090SOL    HW229904   1.042   3.929   8.071 -0.7631 -0.1900 -0.0985
 6091SOL     OW29905   3.235   2.921   7.106 -0.0431  0.2643 -0.1146
 6091SOL    HW129906   3.291   2.890   7.177 -0.1292 -0.7153 -0.4638
 6091SOL    HW229907   3.289   2.938   7.029 -0.6242 -0.8735 -0.7893
 6092SOL     OW29908   0.954   2.912   4.860 -1.1810  0.0689  0.1445
 6092SOL    HW129909   0.957   2.822   4.829  0.1478  0.0576  0.3111
 6092SOL    HW229910   0.986   2.901   4.949  1.1602 -0.0838 -0.6948
 6093SOL     OW29911   0.423   2.332   1.506  0.0322 -0.3645 -0.0133
 6093SOL    HW129912   0.454   2.242   1.519 -0.8277 -0.5215  0.8832
 6093SOL    HW229913   0.401   2.343   1.413  0.7091  0.8379 -0.0326
 6094SOL     OW29914   1.278   1.923   2.359  0.4182  0.1334 -0.1637
 6094SOL    HW129915   1.212   1.988   2.382  1.2605  1.3749 -1.2299
 6094SOL    HW229916   1.349   1.986   2.347 -0.3110  0.5753 -2.3340
 6095SOL     OW29917   1.169   2.562   7.741 -0.4067  0.0497 -0.4069
 6095SOL    HW129918   1.241   2.608   7.698 -1.4695 -0.0522 -2.2470
 6095SOL    HW229919   1.183   2.469   7.722  1.7769  0.4928 -1.0436
 6096SOL     OW29920   3.894   3.385   5.795  0.0963 -0.8661  0.0272
 6096SOL    HW129921   3.821   3.350   5.847 -0.8677  1.5078  0.2932
 6096SOL    HW229922   3.919   3.459   5.851 -0.0054 -1.8612  1.3787
 6097SOL     OW29923   4.511   0.257   2.168 -0.2951  0.0330  0.5747
 6097SOL    HW129924   4.447   0.306   2.220 -1.1786 -0.1659 -0.3224
 6097SOL    HW229925   4.495   0.311   2.090 -1.5891 -2.5273 -0.9462
 6098SOL     OW29926   0.074   2.530   3.582 -0.3130  0.4073 -0.3795
 6098SOL    HW129927   0.104   2.548   3.671 -1.5989 -0.3594  0.2159
 6098SOL    HW229928   0.027   2.449   3.603  2.2252 -0.7374  0.8304
 6099SOL     OW29929   3.535   4.333   9.993 -0.2419  0.3559  0.0136
 6099SOL    HW129930   3.600   4.286   9.941 -0.9716  2.1702 -2.5457
 6099SOL    HW229931   3.516   4.401   9.928  3.7240 -0.3931 -1.9331
 6100SOL     OW29932   2.956   0.829   8.279  0.1499 -0.5557 -0.6384
 6100SOL    HW129933   2.992   0.909   8.241 -2.2983  1.5651  1.4486
 6100SOL    HW229934   2.873   0.861   8.315 -0.5370 -2.4789 -0.4841
 6101SOL     OW29935   2.519   4.562   5.683 -0.0926 -0.1375 -0.8162
 6101SOL    HW129936   2.588   4.511   5.643  2.1027  0.4499  2.2063
 6101SOL    HW229937   2.559   4.647   5.701  0.2613 -0.9030  2.0580
 6102SOL     OW29938   1.769   0.247  17.332  0.0180  0.2547  0.9246
 6102SOL    HW129939   1.735   0.204  17.253  2.1986 -1.5666  0.9851
 6102SOL    HW229940   1.750   0.340  17.318 -0.6254 -0.4414 -2.8557
 6103SOL     OW29941   4.363   0.411   7.409  0.1021 -0.1417  0.7281
 6103SOL    HW129942   4.347   0.328   7.454  1.1674 -0.4388  0.5512
 6103SOL    HW229943   4.343   0.476   7.477  0.7671  0.3767  0.4269
 6104SOL     OW29944   0.548   4.647   3.235  0.1086  0.1418 -0.1132
 6104SOL    HW129945   0.483   4.601   3.182  1.6112 -0.1327 -1.7128
 6104SOL    HW229946   0.489   4.698   3.291 -0.1111  1.2337 -1.3464
 6105SOL     OW29947   4.428   2.966   4.717  0.4625 -0.0972  0.0989
 6105SOL    HW129948   4.405   2.919   4.637  1.4756 -0.2472 -0.0939
 6105SOL    HW229949   4.364   2.938   4.783  0.0250 -0.0333 -0.2956
 6106SOL     OW29950   2.599   3.905   5.441 -0.4750  0.1164  0.1795
 6106SOL    HW129951   2.549   3.983   5.467  2.5752  0.9893  3.4434
 6106SOL    HW229952   2.593   3.861   5.526 -0.3939 -1.0553 -0.4280
 6107SOL     OW29953   2.070   0.645   4.858 -0.2238  0.4855 -0.1560
 6107SOL    HW129954   2.085   0.653   4.764 -0.2185  1.2973 -0.0818
 6107SOL    HW229955   1.975   0.642   4.857 -0.1570 -1.4477 -1.4720
 6108SOL     OW29956   0.417   2.294   3.959  0.3118 -0.1554 -0.0422
 6108SOL    HW129957   0.437   2.303   4.053  1.1577  1.0903 -0.3536
 6108SOL    HW229958   0.376   2.207   3.953  2.4384 -1.0842 -0.9990
 6109SOL     OW29959   2.206   0.885   7.371  0.0950 -0.2620 -0.0884
 6109SOL    HW129960   2.227   0.931   7.290 -1.2408 -0.4960 -0.5838
 6109SOL    HW229961   2.110   0.887   7.381  0.0860  3.3593 -0.8946
 6110SOL     OW29962   0.339   1.715   0.600 -0.2675  0.1393  0.5913
 6110SOL    HW129963   0.317   1.755   0.684  1.5018  0.7692  0.7719
 6110SOL    HW229964   0.409   1.780   0.592 -0.1329  0.1716  2.1281
 6111SOL     OW29965   4.063   0.963   4.981 -1.6411  0.2498 -0.0228
 6111SOL    HW129966   4.009   0.913   5.042 -0.6356  0.3090  0.9043
 6111SOL    HW229967   4.127   0.894   4.968 -0.1925  1.9746 -1.9103
 6112SOL     OW29968   3.182   0.068   6.205 -0.0671 -0.1794 -0.2985
 6112SOL    HW129969   3.231   4.739   6.248 -1.7492  0.4598  2.6729
 6112SOL    HW229970   3.100   0.020   6.189 -0.2433 -0.3850  1.2472
 6113SOL     OW29971   4.254   0.355   6.695  0.5884 -0.3361  0.1146
 6113SOL    HW129972   4.192   0.301   6.744  1.0417 -0.8036  0.1714
 6113SOL    HW229973   4.191   0.418   6.659 -1.1346 -1.5375  1.0056
 6114SOL     OW29974   0.155   3.502   2.275  0.1461  0.0751  0.1895
 6114SOL    HW129975   0.162   3.473   2.184 -0.8497  0.0988  0.1034
 6114SOL    HW229976   0.188   3.591   2.264 -1.8894  0.9850  1.5229
 6115SOL     OW29977   1.431   1.422   7.183 -0.4067  0.2425  0.2697
 6115SOL    HW129978   1.510   1.392   7.139 -1.6825 -0.9864 -1.1786
 6115SOL    HW229979   1.367   1.432   7.112  1.4013 -0.9494 -1.5108
 6116SOL     OW29980   3.230   2.936  14.652 -0.1706  0.4881 -0.3320
 6116SOL    HW129981   3.294   3.004  14.631 -0.4165  1.6164  2.5931
 6116SOL    HW229982   3.276   2.865  14.608 -1.0482  0.2500 -0.8764
 6117SOL     OW29983   4.038   1.368   6.436 -0.2352 -0.4591  0.2397
 6117SOL    HW129984   4.112   1.409   6.391 -0.4684 -0.3581 -0.0571
 6117SOL    HW229985   4.021   1.435   6.503 -2.0715 -0.2546 -0.4291
 6118SOL     OW29986   2.065   2.655   4.542  0.0852  0.7374  0.5188
 6118SOL    HW129987   2.154   2.642   4.510 -0.1304  2.8293 -0.9043
 6118SOL    HW229988   2.080   2.676   4.634  0.4173 -1.5428  0.9810
 6119SOL     OW29989   0.316   1.826   8.641 -0.9127  0.1091  0.4934
 6119SOL    HW129990   0.367   1.769   8.698  0.2409 -0.4923 -1.1279
 6119SOL    HW229991   0.379   1.897   8.632  0.0796 -0.7443  0.6874
 6120SOL     OW29992   2.477   2.407   3.458 -0.0256 -0.1470 -0.2208
 6120SOL    HW129993   2.400   2.465   3.462  1.6487  2.0588 -0.1355
 6120SOL    HW229994   2.434   2.322   3.466 -2.2428  1.1969  2.1045
 6121SOL     OW29995   4.551   0.102   8.079  0.1157 -0.3433 -0.4926
 6121SOL    HW129996   4.527   0.056   8.159  0.5977 -1.4294 -0.9692
 6121SOL    HW229997   4.631   0.054   8.057  0.1188 -0.6486  0.2180
 6122SOL     OW29998   3.689   2.042   3.092 -0.1682 -0.1339  0.0889
 6122SOL    HW129999   3.664   2.012   3.180  0.1867  1.2021  0.6419
 6122SOL    HW230000   3.644   2.126   3.085 -0.6393 -0.3468  0.5623
 6123SOL     OW30001   3.038   4.118   0.470 -0.3530  0.1891  0.2096
 6123SOL    HW130002   3.097   4.190   0.490 -0.6343  0.1828  1.0817
 6123SOL    HW230003   3.067   4.087   0.384 -0.9246  0.9750 -0.2575
 6124SOL     OW30004   4.011   3.810   3.981  0.5399  0.4399  0.2931
 6124SOL    HW130005   3.968   3.896   3.975 -0.9816 -0.1628  2.4701
 6124SOL    HW230006   4.040   3.806   3.890  0.1473  2.4991  0.0667
 6125SOL     OW30007   1.468   3.378   8.797  0.6288  0.5471  0.1010
 6125SOL    HW130008   1.412   3.433   8.852 -0.4207 -2.1487  1.7505
 6125SOL    HW230009   1.432   3.293   8.820  0.4842  1.1184  1.9899
 6126SOL     OW30010   0.106   2.134   3.437  0.3022  0.1335  0.3284
 6126SOL    HW130011   0.098   2.224   3.407 -1.2018 -1.1733 -3.1725
 6126SOL    HW230012   0.033   2.117   3.496 -0.5273  0.2869 -0.6635
 6127SOL     OW30013   1.506   0.630   7.444 -0.7407  0.0872 -0.8150
 6127SOL    HW130014   1.485   0.682   7.521 -0.1973 -0.9475  0.0290
 6127SOL    HW230015   1.500   0.696   7.375 -0.2341  1.2802  0.2784
 6128SOL     OW30016   3.940   4.186   6.903 -0.0163  0.4050  0.6601
 6128SOL    HW130017   3.871   4.177   6.836  0.9389 -1.0716 -0.1531
 6128SOL    HW230018   3.930   4.278   6.925 -1.6412  0.2805  0.5148
 6129SOL     OW30019   2.795   0.869  12.033 -0.2280 -0.0077  0.0927
 6129SOL    HW130020   2.719   0.854  11.977 -0.4683 -0.4518  0.5445
 6129SOL    HW230021   2.866   0.888  11.971 -0.4648 -2.3574 -0.8980
 6130SOL     OW30022   4.711   0.345   3.165 -0.6668 -0.1583  0.0210
 6130SOL    HW130023   4.636   0.287   3.179  0.1686 -1.5801 -1.4968
 6130SOL    HW230024   0.043   0.283   3.166 -1.6665 -1.3448 -2.2412
 6131SOL     OW30025   4.702   2.103   8.580  0.1543  0.1623 -0.3223
 6131SOL    HW130026   4.731   2.069   8.664  1.1914 -0.0222 -0.7495
 6131SOL    HW230027   4.704   2.024   8.526 -1.8638 -0.5942  0.7086
 6132SOL     OW30028   0.665   3.312   6.893 -0.1465 -0.2489 -0.3422
 6132SOL    HW130029   0.758   3.335   6.896 -0.3964  0.5967  0.7712
 6132SOL    HW230030   0.635   3.375   6.827  1.1633  1.1093  0.3772
 6133SOL     OW30031   1.989   1.073  12.883  0.0364  0.7007 -0.0135
 6133SOL    HW130032   1.978   1.035  12.796  1.4165  0.2399  0.0165
 6133SOL    HW230033   2.027   1.156  12.853  0.4937 -0.5497 -2.9143
 6134SOL     OW30034   0.882   2.591   1.764  0.6183 -0.0034  0.0526
 6134SOL    HW130035   0.927   2.509   1.783  3.2983  1.4178 -0.2481
 6134SOL    HW230036   0.942   2.641   1.819  0.8132 -0.1255 -0.0514
 6135SOL     OW30037   4.660   1.786   0.050  0.1990 -0.7913  0.0149
 6135SOL    HW130038   4.631   1.726   0.119 -1.3819 -0.2993 -0.2016
 6135SOL    HW230039   4.707   1.853   0.100  0.2399 -0.9044  0.1269
 6136SOL     OW30040   1.477   4.280   7.813  0.0707 -0.5482  0.2769
 6136SOL    HW130041   1.412   4.328   7.866 -0.7596 -3.0806  1.5669
 6136SOL    HW230042   1.543   4.268   7.881  0.0913  0.3300  0.4152
 6137SOL     OW30043   1.170   0.543   7.104  0.2717 -0.1640 -0.2502
 6137SOL    HW130044   1.128   0.457   7.107  0.7667 -0.3902  0.1636
 6137SOL    HW230045   1.094   0.601   7.096 -0.1847 -0.9337 -1.5171
 6138SOL     OW30046   4.014   4.357   5.880 -0.5011  0.8044 -0.5938
 6138SOL    HW130047   3.981   4.334   5.967  0.8082 -2.2473 -0.9177
 6138SOL    HW230048   3.944   4.407   5.838 -0.4376  2.5747  1.4264
 6139SOL     OW30049   0.549   0.498  16.606 -0.1122 -0.4781  0.1583
 6139SOL    HW130050   0.462   0.519  16.638 -1.2202 -2.2614 -1.6860
 6139SOL    HW230051   0.596   0.507  16.689  2.1171 -1.2679 -1.0240
 6140SOL     OW30052   3.850   3.209   4.502  0.3723  0.7315 -0.6442
 6140SOL    HW130053   3.913   3.216   4.430  2.3032 -0.4689  0.9050
 6140SOL    HW230054   3.775   3.245   4.455  0.1959 -0.3630 -1.1970
 6141SOL     OW30055   2.039   3.704  15.486  0.6840  0.0513  0.5252
 6141SOL    HW130056   1.954   3.669  15.511  0.2875 -1.1505 -2.4700
 6141SOL    HW230057   2.020   3.761  15.411 -2.2950 -0.7313  0.7079
 6142SOL     OW30058   1.720   0.174   3.939  0.4982  0.1948 -0.0119
 6142SOL    HW130059   1.629   0.156   3.917  0.5199 -0.9287  0.8244
 6142SOL    HW230060   1.723   0.249   3.879  0.5673  1.0665  1.0629
 6143SOL     OW30061   3.458   3.084   7.880  0.1131 -0.1503  0.3928
 6143SOL    HW130062   3.468   3.171   7.842 -1.1327 -0.2959 -0.2796
 6143SOL    HW230063   3.509   3.088   7.961  0.3445  1.6706  0.1572
 6144SOL     OW30064   0.599   2.758   5.850 -0.2636  0.7583 -0.5803
 6144SOL    HW130065   0.666   2.690   5.850  0.0045  1.0254  0.1238
 6144SOL    HW230066   0.648   2.826   5.804  0.1459 -0.4840 -2.0020
 6145SOL     OW30067   1.370   3.130  12.880 -0.1711 -0.2915  0.1783
 6145SOL    HW130068   1.342   3.054  12.829 -0.8655  0.1517 -0.1033
 6145SOL    HW230069   1.458   3.139  12.843 -0.4154  2.5920  0.2767
 6146SOL     OW30070   4.105   3.882  12.588 -0.1727  0.5681  0.3828
 6146SOL    HW130071   4.066   3.825  12.522  1.1994  1.3714 -1.1506
 6146SOL    HW230072   4.057   3.963  12.567 -0.0593  0.2295 -1.1980
 6147SOL     OW30073   4.435   3.463   7.109  0.1119  0.2546 -0.1420
 6147SOL    HW130074   4.469   3.375   7.090  0.3023  0.4157 -0.5401
 6147SOL    HW230075   4.496   3.517   7.058 -1.8986  3.5289  0.9410
 6148SOL     OW30076   1.932   4.477   7.929  0.9156 -0.0458  0.1820
 6148SOL    HW130077   1.962   4.528   8.003 -1.0029  0.3974  0.6488
 6148SOL    HW230078   1.866   4.531   7.886  1.0030 -1.0306 -1.2061
 6149SOL     OW30079   3.424   2.889  13.327  0.0934 -0.1639 -0.1896
 6149SOL    HW130080   3.486   2.818  13.347  0.9988  1.1046  1.5175
 6149SOL    HW230081   3.408   2.862  13.236  1.2340 -1.5376  0.0171
 6150SOL     OW30082   0.490   4.492   5.813 -0.1809 -0.1849  0.3223
 6150SOL    HW130083   0.540   4.464   5.889  0.8515  1.6143  0.3129
 6150SOL    HW230084   0.547   4.566   5.789 -2.5467  1.2625 -0.8130
 6151SOL     OW30085   3.590   1.903   6.837 -0.7008 -0.1246  0.1108
 6151SOL    HW130086   3.651   1.948   6.778  1.7466 -1.4942  1.5908
 6151SOL    HW230087   3.510   1.888   6.786 -0.4744  0.0121 -0.2891
 6152SOL     OW30088   3.855   2.068  12.762 -0.5177  0.0593  0.0133
 6152SOL    HW130089   3.948   2.075  12.783 -0.2707 -2.1873 -0.3857
 6152SOL    HW230090   3.831   2.161  12.770  0.1567  0.1819  0.6042
 6153SOL     OW30091   4.305   3.561   8.203  0.0487 -0.1111 -0.3180
 6153SOL    HW130092   4.225   3.510   8.212 -0.2725  0.1913 -1.3725
 6153SOL    HW230093   4.366   3.518   8.262 -0.2431  1.3132  1.0255
 6154SOL     OW30094   2.508   4.141  15.658  0.4677  0.2012 -0.1945
 6154SOL    HW130095   2.573   4.072  15.673 -0.0974 -0.0768  0.9839
 6154SOL    HW230096   2.558   4.218  15.684  0.9702  0.1741 -1.0807
 6155SOL     OW30097   2.597   1.957   5.812 -0.0176  0.2424 -0.3437
 6155SOL    HW130098   2.514   1.965   5.859  0.4124 -3.6791  1.0648
 6155SOL    HW230099   2.599   1.865   5.787  3.1573 -0.2248  1.6087
 6156SOL     OW30100   1.029   0.596   6.437 -0.0130 -0.3007  0.8930
 6156SOL    HW130101   0.974   0.525   6.402 -0.1881  0.5627 -0.5792
 6156SOL    HW230102   1.073   0.552   6.510  0.9080 -0.3433  0.3227
 6157SOL     OW30103   1.918   0.257  10.252 -0.5960  0.0383 -0.6011
 6157SOL    HW130104   1.912   0.256  10.347  0.8505  2.0972 -0.4910
 6157SOL    HW230105   1.999   0.307  10.245  1.1200 -2.3454  2.1436
 6158SOL     OW30106   1.498   3.942   1.929  0.5659  0.4929 -0.6572
 6158SOL    HW130107   1.552   3.947   2.008 -3.4804  1.6802  2.0615
 6158SOL    HW230108   1.427   4.001   1.954 -0.8990 -0.9327 -1.4403
 6159SOL     OW30109   4.329   1.136   2.607 -0.0399  0.3746 -0.2449
 6159SOL    HW130110   4.410   1.187   2.605  0.2362 -0.0147  1.5084
 6159SOL    HW230111   4.274   1.194   2.658  0.7584  0.0067  1.0323
 6160SOL     OW30112   3.400   3.528   8.837  0.3699 -0.2156 -0.0426
 6160SOL    HW130113   3.327   3.473   8.810 -0.5838  0.9037  0.2817
 6160SOL    HW230114   3.360   3.612   8.817  1.9849  0.6351  0.2433
 6161SOL     OW30115   3.964   3.688   9.059  0.4021  0.2913 -0.0869
 6161SOL    HW130116   3.901   3.674   9.130 -0.8230  0.4337 -1.1313
 6161SOL    HW230117   3.995   3.773   9.087  2.3441  0.2861 -2.1779
 6162SOL     OW30118   3.500   3.444   5.942 -0.1616  0.4336 -0.3426
 6162SOL    HW130119   3.470   3.379   6.006 -1.0256 -2.8964 -4.1857
 6162SOL    HW230120   3.529   3.517   5.997  0.7546 -0.3962  0.2841
 6163SOL     OW30121   1.363   2.457   8.557  0.4894  0.1501 -0.1499
 6163SOL    HW130122   1.454   2.448   8.529 -0.7090 -0.8447 -3.7686
 6163SOL    HW230123   1.348   2.362   8.559  3.1569 -0.2122  1.7994
 6164SOL     OW30124   3.454   4.171   6.422 -0.1905  0.5857 -0.6817
 6164SOL    HW130125   3.422   4.149   6.510 -5.4281  1.8735 -2.2651
 6164SOL    HW230126   3.387   4.126   6.371  0.7941  1.2834 -2.5934
 6165SOL     OW30127   2.952   1.168   1.634  0.2228 -0.5666  0.6410
 6165SOL    HW130128   3.046   1.175   1.646  0.4405 -1.8186 -0.3052
 6165SOL    HW230129   2.937   1.073   1.627  2.1473 -0.8824  0.9217
 6166SOL     OW30130   2.351   0.709   7.779  0.0526  0.0450  0.7016
 6166SOL    HW130131   2.335   0.628   7.828 -1.7705  0.6360  1.0835
 6166SOL    HW230132   2.265   0.751   7.786 -0.5289 -0.5689 -2.8363
 6167SOL     OW30133   4.571   0.287  11.896 -0.9824 -0.1544  0.0427
 6167SOL    HW130134   4.493   0.333  11.928  0.3127  2.7464 -0.9436
 6167SOL    HW230135   4.627   0.271  11.971 -1.0534 -2.0784 -0.3314
 6168SOL     OW30136   0.522   3.597   3.463  0.1520  0.1164 -0.1306
 6168SOL    HW130137   0.615   3.589   3.443  0.0806 -1.1177  0.0177
 6168SOL    HW230138   0.492   3.615   3.374  1.0701 -1.8531 -0.8412
 6169SOL     OW30139   0.508   4.674   5.354 -0.3659 -0.1848 -0.1498
 6169SOL    HW130140   0.455   0.004   5.392 -1.0841 -1.2152  0.7545
 6169SOL    HW230141   0.493   4.600   5.412 -0.2632  0.0059  0.1224
 6170SOL     OW30142   0.984   0.316   7.389 -0.2651  0.4103  0.3471
 6170SOL    HW130143   1.017   0.241   7.439  1.5743 -0.8808 -2.8090
 6170SOL    HW230144   0.943   0.373   7.455 -1.6801 -1.1532  0.8247
 6171SOL     OW30145   4.737   4.281  10.326  0.0638 -0.3357 -0.3301
 6171SOL    HW130146   0.073   4.307  10.377 -0.8004 -0.2029  0.9002
 6171SOL    HW230147   0.039   4.269  10.241 -1.4239 -2.6732 -0.7560
 6172SOL     OW30148   0.988   2.581  10.262  0.2109 -0.4157 -0.0281
 6172SOL    HW130149   1.043   2.557  10.336 -0.4986 -0.0767  0.6010
 6172SOL    HW230150   1.039   2.641  10.208 -1.9588 -0.2276 -1.8896
 6173SOL     OW30151   1.734   2.324   4.498 -0.1617  0.0873  0.1461
 6173SOL    HW130152   1.720   2.231   4.478  1.3484  0.4562 -2.6633
 6173SOL    HW230153   1.731   2.359   4.409  2.6702 -0.6559 -0.2609
 6174SOL     OW30154   1.942   1.255   6.866  0.3240 -0.0856 -0.8221
 6174SOL    HW130155   1.954   1.349   6.861 -0.7583  0.1461  0.7988
 6174SOL    HW230156   2.019   1.222   6.913  0.9260  2.5054 -0.0107
 6175SOL     OW30157   1.249   0.151   6.622  0.4455 -0.2540 -0.0581
 6175SOL    HW130158   1.209   0.164   6.536 -0.6257  1.2977  0.6750
 6175SOL    HW230159   1.190   0.080   6.647  0.6898 -0.8090 -1.0657
 6176SOL     OW30160   1.629   1.784   8.068  0.4657 -0.0956  0.1801
 6176SOL    HW130161   1.574   1.732   8.127 -1.9879  2.0410 -0.2069
 6176SOL    HW230162   1.698   1.824   8.120  0.9547 -1.4132  0.5465
 6177SOL     OW30163   2.934   4.641   4.724 -0.5389 -0.4134  0.1717
 6177SOL    HW130164   2.920   4.649   4.818 -1.8018  0.9910 -0.1237
 6177SOL    HW230165   3.016   4.592   4.725  0.7673  1.8022  1.7058
 6178SOL     OW30166   4.335   1.422  12.446  0.7690 -0.9840 -0.3173
 6178SOL    HW130167   4.386   1.479  12.389  0.7684 -0.8036 -0.1406
 6178SOL    HW230168   4.379   1.428  12.531 -2.2185 -1.6417  1.3201
 6179SOL     OW30169   3.974   4.636   6.771 -0.3164  0.1699  0.3317
 6179SOL    HW130170   4.032   4.712   6.781  1.3788 -1.1251  0.4508
 6179SOL    HW230171   4.045   4.580   6.740  0.6323  1.9562 -0.7521
 6180SOL     OW30172   2.246   4.371   6.666 -0.1801  0.0644 -0.3119
 6180SOL    HW130173   2.210   4.313   6.733 -0.9075  0.3550 -0.4553
 6180SOL    HW230174   2.296   4.435   6.716  1.1123 -1.4583  0.3590
 6181SOL     OW30175   2.948   1.664   2.084 -0.0079 -0.5546  0.1749
 6181SOL    HW130176   2.998   1.662   2.165 -2.7050 -0.3614  1.8274
 6181SOL    HW230177   2.857   1.658   2.110 -0.1484 -2.2887 -0.6912
 6182SOL     OW30178   2.700   0.177   4.182  0.2022 -0.0381 -0.0112
 6182SOL    HW130179   2.659   0.117   4.244 -0.1344  1.1804  0.9512
 6182SOL    HW230180   2.697   0.126   4.101  3.0003  0.0890 -0.1983
 6183SOL     OW30181   1.964   2.330   5.976 -0.4062 -0.4186 -0.3215
 6183SOL    HW130182   1.975   2.400   6.040  0.2124  0.3277 -1.2317
 6183SOL    HW230183   1.958   2.382   5.895  0.3619 -0.3619 -0.3471
 6184SOL     OW30184   2.760   2.868   4.998  0.1528  0.2801  0.1692
 6184SOL    HW130185   2.779   2.813   5.073 -4.0714  0.6715  1.5016
 6184SOL    HW230186   2.702   2.805   4.956  1.1634  0.5574 -1.6722
 6185SOL     OW30187   2.245   3.167   8.480  0.3209 -0.1251 -0.2761
 6185SOL    HW130188   2.279   3.198   8.564  0.6614 -2.3285  0.4177
 6185SOL    HW230189   2.322   3.179   8.425  0.7854  1.4424  0.7287
 6186SOL     OW30190   2.834   2.322   2.924 -0.4477 -0.2326  0.2573
 6186SOL    HW130191   2.876   2.368   2.850  2.0191 -1.0656  1.1287
 6186SOL    HW230192   2.903   2.267   2.961 -0.6879 -0.0489  0.9658
 6187SOL     OW30193   3.204   4.368   2.957  0.5277 -0.2951  0.4359
 6187SOL    HW130194   3.225   4.289   3.007  0.1060  0.3649  1.6587
 6187SOL    HW230195   3.282   4.422   2.958  1.0211 -1.0052  0.1391
 6188SOL     OW30196   0.369   3.047   4.494  0.1398  0.1700  0.2964
 6188SOL    HW130197   0.460   3.037   4.469 -0.4631  1.9032 -2.5637
 6188SOL    HW230198   0.383   3.088   4.579 -1.0534 -1.2422  1.1846
 6189SOL     OW30199   3.354   0.015   4.208 -0.3643  0.3041 -0.3566
 6189SOL    HW130200   3.361   4.662   4.190 -0.8537  0.0797  0.5980
 6189SOL    HW230201   3.386   0.056   4.128  2.2471 -1.2133 -0.0774
 6190SOL     OW30202   3.085   4.262  11.396 -0.2015 -0.1330 -0.3216
 6190SOL    HW130203   3.148   4.215  11.341  0.1906  1.2946 -1.1109
 6190SOL    HW230204   3.101   4.211  11.475  3.0004 -1.6060 -1.9198
 6191SOL     OW30205   4.379   4.586   0.978 -0.8011  0.3248 -0.1669
 6191SOL    HW130206   4.469   4.615   0.966 -0.9572  0.9314  0.1089
 6191SOL    HW230207   4.382   4.490   0.979  1.0167  0.3871 -1.5366
 6192SOL     OW30208   4.684   3.244  12.497 -0.0065  0.7098 -0.0858
 6192SOL    HW130209   4.703   3.326  12.542  0.3916 -0.1879  1.3585
 6192SOL    HW230210   0.002   3.245  12.421  1.5452  0.5146  1.1121
 6193SOL     OW30211   0.139   3.888   2.639  0.5468 -0.0785 -0.9611
 6193SOL    HW130212   0.196   3.869   2.565 -0.2238  0.8824 -1.8026
 6193SOL    HW230213   0.052   3.877   2.600  0.1010 -0.4326  0.1216
 6194SOL     OW30214   4.125   2.086   7.837 -0.0530 -0.7798  0.4020
 6194SOL    HW130215   4.069   2.112   7.763 -1.5996 -0.6702  1.6102
 6194SOL    HW230216   4.125   1.992   7.820 -1.6500 -1.0544  1.8790
 6195SOL     OW30217   4.597   3.470   6.844  0.8714  0.0268  0.5729
 6195SOL    HW130218   4.669   3.499   6.787 -0.0330 -0.0433 -0.5951
 6195SOL    HW230219   4.647   3.400   6.887  1.3438 -0.9357 -1.5092
 6196SOL     OW30220   3.973   4.262  12.786 -0.4480 -0.5004  0.1815
 6196SOL    HW130221   3.972   4.305  12.871 -1.0762  1.5488 -0.8687
 6196SOL    HW230222   3.878   4.254  12.779 -0.4286 -0.4344 -0.1800
 6197SOL     OW30223   1.279   2.467   3.307  0.2979 -0.2824  0.2237
 6197SOL    HW130224   1.251   2.421   3.228  2.4841 -1.2076 -0.0272
 6197SOL    HW230225   1.348   2.523   3.269  0.8322 -0.2821  1.2007
 6198SOL     OW30226   3.561   3.954   9.915 -0.2706  0.2805 -0.5621
 6198SOL    HW130227   3.498   3.947   9.986  0.6787  1.6572  0.4088
 6198SOL    HW230228   3.501   3.969   9.842 -0.9419 -2.8640 -0.6756
 6199SOL     OW30229   3.633   1.975   4.358  0.1073 -0.0115  0.1119
 6199SOL    HW130230   3.600   2.015   4.437 -1.2042  1.1041 -1.0144
 6199SOL    HW230231   3.681   2.044   4.311 -1.1303 -1.5069 -3.3989
 6200SOL     OW30232   0.343   3.571   1.829  0.6923  0.4376 -0.6628
 6200SOL    HW130233   0.394   3.549   1.907 -0.6234  2.5224  0.7847
 6200SOL    HW230234   0.330   3.483   1.793  0.7854 -0.2670  0.9814
 6201SOL     OW30235   0.907   0.388   6.314 -0.5399  0.2082  0.0538
 6201SOL    HW130236   0.936   0.433   6.235  1.3706 -0.4834  0.3662
 6201SOL    HW230237   0.811   0.390   6.306 -0.5439 -0.3302 -0.0155
 6202SOL     OW30238   1.157   0.017  11.360  0.4771 -0.1556  0.1576
 6202SOL    HW130239   1.197   0.077  11.297  0.3018 -0.2220 -0.0175
 6202SOL    HW230240   1.063   0.021  11.342  0.1645 -1.2622  1.4794
 6203SOL     OW30241   3.162   4.528   4.810  0.7546 -0.0419  0.0521
 6203SOL    HW130242   3.205   4.444   4.826  0.6604 -0.1969 -0.5029
 6203SOL    HW230243   3.211   4.572   4.740 -0.7023 -0.2072 -1.0649
 6204SOL     OW30244   1.608   4.267   6.865  0.3469  1.1480  0.6246
 6204SOL    HW130245   1.531   4.251   6.919  0.1314 -0.8396 -0.2677
 6204SOL    HW230246   1.619   4.361   6.854  1.5888  0.7429 -1.6983
 6205SOL     OW30247   2.550   1.947   1.936 -0.1332  0.2599  0.0203
 6205SOL    HW130248   2.507   1.976   1.856  0.6376 -0.5816 -0.6919
 6205SOL    HW230249   2.497   1.990   2.003 -0.1382  1.5706 -0.8218
 6206SOL     OW30250   4.366   1.473  11.394 -0.0700 -0.3850 -0.4785
 6206SOL    HW130251   4.436   1.438  11.338 -0.7454  0.6265 -1.9457
 6206SOL    HW230252   4.305   1.490  11.322 -2.1915  2.4542  2.0173
 6207SOL     OW30253   4.383   3.479  12.913 -0.6131  0.0486  0.0376
 6207SOL    HW130254   4.417   3.407  12.860  1.1945  1.5981 -0.8588
 6207SOL    HW230255   4.327   3.421  12.964  2.9249 -1.8823  1.7221
 6208SOL     OW30256   1.029   0.914  15.813  0.3449  0.5522 -0.3056
 6208SOL    HW130257   0.991   0.987  15.764  1.2381  0.3846 -1.2548
 6208SOL    HW230258   0.972   0.842  15.785 -1.0693  1.4822  0.1809
 6209SOL     OW30259   3.851   2.534   3.574  0.0249  0.0489  0.4347
 6209SOL    HW130260   3.895   2.528   3.659  2.4772 -1.0398 -0.9203
 6209SOL    HW230261   3.790   2.460   3.575  2.1173 -1.6852 -1.1349
 6210SOL     OW30262   4.041   0.120  14.554  0.0909  0.1227  0.1669
 6210SOL    HW130263   4.062   0.045  14.610  0.3147 -0.4349 -0.6620
 6210SOL    HW230264   4.098   0.099  14.480 -0.2763 -1.4096  0.3301
 6211SOL     OW30265   4.591   1.955   2.234 -0.6343  0.1417 -0.4721
 6211SOL    HW130266   4.584   1.937   2.328 -0.0621  0.5587 -0.3507
 6211SOL    HW230267   4.681   1.927   2.217 -0.3472  1.5356 -1.2488
 6212SOL     OW30268   0.413   3.650   8.934  0.4576  0.5622 -0.1814
 6212SOL    HW130269   0.328   3.659   8.890 -1.2848 -3.2111  2.5113
 6212SOL    HW230270   0.432   3.744   8.929  1.3772  0.3561 -0.5698
 6213SOL     OW30271   3.182   0.985  13.788  0.9297 -0.4715 -0.5434
 6213SOL    HW130272   3.259   0.941  13.754  0.7635 -0.3961 -1.0109
 6213SOL    HW230273   3.119   0.963  13.720  1.3202  0.4179 -1.1943
 6214SOL     OW30274   4.143   0.972   5.647  0.3948 -0.1268 -0.1711
 6214SOL    HW130275   4.119   1.019   5.567  0.1386 -1.0594 -0.6422
 6214SOL    HW230276   4.129   1.040   5.713  2.2062 -0.6436  0.7629
 6215SOL     OW30277   2.226   0.013  10.539 -0.8800 -0.8583  0.7162
 6215SOL    HW130278   2.223   0.101  10.575  2.0502 -1.2740  2.0455
 6215SOL    HW230279   2.317   4.733  10.563  0.0428  1.7099 -0.5373
 6216SOL     OW30280   1.041   1.777   7.883 -0.0801 -0.6526  0.3088
 6216SOL    HW130281   1.124   1.730   7.869 -0.9767 -1.7573 -1.3378
 6216SOL    HW230282   1.053   1.792   7.976  2.7599  1.5278 -0.3751
 6217SOL     OW30283   0.801   4.232   5.203 -0.2026 -0.0290  0.0086
 6217SOL    HW130284   0.767   4.153   5.163  1.1821 -0.1132 -0.9943
 6217SOL    HW230285   0.745   4.302   5.168  1.6051  0.8477 -1.1270
 6218SOL     OW30286   4.172   1.776   4.718 -0.5301  0.3634 -0.3681
 6218SOL    HW130287   4.098   1.822   4.759 -0.3465  1.3834 -1.1629
 6218SOL    HW230288   4.231   1.850   4.700  1.1500 -1.2311 -1.4007
 6219SOL     OW30289   0.541   2.518   2.079 -0.0440  0.2903 -0.4074
 6219SOL    HW130290   0.476   2.539   2.145  1.8603  1.9125  0.9349
 6219SOL    HW230291   0.560   2.431   2.114 -0.7488  0.7112  1.0090
 6220SOL     OW30292   0.977   0.921   9.480  0.3231  0.6561 -0.0405
 6220SOL    HW130293   1.002   0.833   9.452  0.8339  1.1479 -1.1246
 6220SOL    HW230294   0.939   0.963   9.403 -0.5705  1.7839  0.9949
 6221SOL     OW30295   4.338   2.655   5.558 -0.1588  0.0252 -0.2861
 6221SOL    HW130296   4.371   2.684   5.473  0.1464 -0.9572 -0.5051
 6221SOL    HW230297   4.376   2.714   5.623 -1.9089 -0.3766  1.0798
 6222SOL     OW30298   0.928   0.582  16.590  0.7080  0.6483  0.4263
 6222SOL    HW130299   1.020   0.570  16.611  0.4243 -2.0791  0.0869
 6222SOL    HW230300   0.908   0.653  16.651 -0.7560  1.0247 -0.4755
 6223SOL     OW30301   1.002   0.022   6.183  0.0056  0.0312 -0.5429
 6223SOL    HW130302   0.913   0.048   6.204  1.1746  1.2380  2.8216
 6223SOL    HW230303   1.052   0.089   6.136  0.9491 -0.4446 -0.2375
 6224SOL     OW30304   3.300   1.534   9.548 -0.4077  0.5307  0.1472
 6224SOL    HW130305   3.210   1.567   9.558 -0.3174 -0.1503  3.1441
 6224SOL    HW230306   3.325   1.576   9.466 -0.4540  2.6483  1.2200
 6225SOL     OW30307   0.035   3.326   1.755 -0.6584 -0.1615  0.5160
 6225SOL    HW130308   4.689   3.325   1.714 -0.5866  0.7196  0.3375
 6225SOL    HW230309   0.097   3.357   1.689 -0.5877 -0.0557  0.6311
 6226SOL     OW30310   0.825   4.172   8.926 -0.3642  0.9310 -0.4116
 6226SOL    HW130311   0.730   4.177   8.932 -0.2755 -0.5458  2.0165
 6226SOL    HW230312   0.837   4.151   9.018  0.8919 -0.7215 -0.9598
 6227SOL     OW30313   3.193   0.196  11.958 -0.2040  0.4429  0.1026
 6227SOL    HW130314   3.286   0.172  11.952 -0.1513  0.3226  1.4436
 6227SOL    HW230315   3.195   0.235  12.045 -0.8283 -0.2355  0.4151
 6228SOL     OW30316   1.927   1.187   3.040 -0.0348  0.1804 -0.3588
 6228SOL    HW130317   1.975   1.233   3.109 -0.7753  1.2913 -0.5809
 6228SOL    HW230318   1.990   1.131   2.994  0.1818  0.1950 -0.0777
 6229SOL     OW30319   0.423   1.084  16.292  0.5815 -0.0552 -0.5745
 6229SOL    HW130320   0.428   1.022  16.364  0.2883 -2.4080 -2.5808
 6229SOL    HW230321   0.336   1.077  16.251  0.2063  2.8625 -0.2422
 6230SOL     OW30322   3.211   3.857  11.540 -0.7250 -0.2407  0.2230
 6230SOL    HW130323   3.246   3.785  11.592 -1.2860 -1.0728 -0.5524
 6230SOL    HW230324   3.240   3.828  11.453  2.3135  0.3727  1.0265
 6231SOL     OW30325   1.242   0.545   7.437 -0.3138 -0.2269  0.0318
 6231SOL    HW130326   1.337   0.559   7.435  0.0104 -2.1944  1.5043
 6231SOL    HW230327   1.242   0.453   7.409 -0.1368 -0.7937  1.9346
 6232SOL     OW30328   4.381   2.998   7.375 -0.3061  0.3127 -0.0951
 6232SOL    HW130329   4.306   2.968   7.324  0.9163 -0.8003 -1.2511
 6232SOL    HW230330   4.448   2.968   7.314  1.1495  3.0607  0.1595
 6233SOL     OW30331   0.618   3.927   5.007  0.0679  0.7401  0.0844
 6233SOL    HW130332   0.664   3.972   4.936  1.1917  0.6759  0.7743
 6233SOL    HW230333   0.526   3.916   4.984  0.0611 -0.0230  0.4717
 6234SOL     OW30334   1.797   3.847   3.279 -0.1030  0.1633  0.4817
 6234SOL    HW130335   1.836   3.907   3.215 -0.4073  0.4004  0.5205
 6234SOL    HW230336   1.768   3.894   3.357  0.2681  1.2224 -0.0078
 6235SOL     OW30337   2.495   0.349   4.560  0.2627 -0.2624 -0.1480
 6235SOL    HW130338   2.457   0.270   4.522 -0.3191  0.0526 -0.2105
 6235SOL    HW230339   2.527   0.315   4.644 -2.1279  2.3178  1.7511
 6236SOL     OW30340   0.774   2.689   5.462  0.2893  0.0767 -0.1422
 6236SOL    HW130341   0.776   2.596   5.485  1.8426  0.2773  0.5468
 6236SOL    HW230342   0.682   2.706   5.478 -0.0572 -1.6014 -0.3320
 6237SOL     OW30343   4.474   3.462   8.414  0.1510 -0.0857  0.5655
 6237SOL    HW130344   4.429   3.392   8.462 -0.7131  1.9193  2.7114
 6237SOL    HW230345   4.560   3.433   8.386  0.0126 -1.3539  1.4255
 6238SOL     OW30346   1.747   4.617   4.144 -0.6284  0.4269 -0.3455
 6238SOL    HW130347   1.744   4.530   4.184  1.9930  0.7769  0.6237
 6238SOL    HW230348   1.837   4.596   4.119 -0.0079 -0.2397  2.5049
 6239SOL     OW30349   3.727   2.092  15.836 -0.2654  0.5036  0.5910
 6239SOL    HW130350   3.672   2.163  15.803 -0.2303  0.0690 -0.4019
 6239SOL    HW230351   3.733   2.040  15.756  0.9594  0.9470  0.4017
 6240SOL     OW30352   0.764   2.630   1.500  0.3176 -0.2911 -0.6333
 6240SOL    HW130353   0.786   2.646   1.592  3.3552 -0.8898 -1.2584
 6240SOL    HW230354   0.687   2.686   1.494  0.7548  0.1572 -1.9985
 6241SOL     OW30355   3.186   4.473  10.075  0.5046 -0.3701 -0.4427
 6241SOL    HW130356   3.151   4.419  10.005  2.6365 -0.5328 -1.3718
 6241SOL    HW230357   3.256   4.510  10.022  1.5227  0.7915  1.7250
 6242SOL     OW30358   1.528   1.163  14.819 -0.1131  0.3597 -0.6034
 6242SOL    HW130359   1.498   1.074  14.804  0.1581 -0.3461  2.9872
 6242SOL    HW230360   1.495   1.205  14.739  0.2884  2.6380  0.4153
 6243SOL     OW30361   3.767   3.808   6.954  0.1151  0.1430  0.1156
 6243SOL    HW130362   3.676   3.831   6.935  0.0679  1.1602  1.5912
 6243SOL    HW230363   3.751   3.727   7.002  1.6955  1.0381  2.1564
 6244SOL     OW30364   0.632   2.765  14.879  0.3101  0.3114 -0.2330
 6244SOL    HW130365   0.621   2.674  14.906 -1.3364  0.4707 -0.3752
 6244SOL    HW230366   0.656   2.808  14.961  0.5060  2.1056 -1.2370
 6245SOL     OW30367   1.743   2.167   0.124  0.0566  0.0871  0.2120
 6245SOL    HW130368   1.689   2.193   0.050 -0.3188  1.5488  0.9856
 6245SOL    HW230369   1.689   2.203   0.195 -0.0614  1.3086 -0.4838
 6246SOL     OW30370   3.584   1.469  16.685 -0.3489  0.5785 -0.2417
 6246SOL    HW130371   3.544   1.538  16.633 -1.0701 -0.7551 -1.4437
 6246SOL    HW230372   3.602   1.413  16.610 -1.6099  0.0929 -0.1743
 6247SOL     OW30373   4.384   3.314   3.225 -0.3749  0.0508 -0.1811
 6247SOL    HW130374   4.394   3.247   3.293 -2.7789  0.6215  0.7282
 6247SOL    HW230375   4.301   3.294   3.183  1.2248  1.6058 -4.0810
 6248SOL     OW30376   2.102   1.725   3.070  0.0801 -0.1172  0.0925
 6248SOL    HW130377   2.072   1.687   3.152  1.0538 -1.3271 -0.1126
 6248SOL    HW230378   2.148   1.802   3.103  1.4277 -1.1270  0.5826
 6249SOL     OW30379   1.593   0.160   7.610  0.3397 -0.9838  0.7208
 6249SOL    HW130380   1.628   0.228   7.553  0.4851 -1.3833  0.3329
 6249SOL    HW230381   1.630   0.086   7.561  1.2175 -0.2629  0.3101
 6250SOL     OW30382   0.851   1.931   9.231 -0.3342  0.2905 -0.0168
 6250SOL    HW130383   0.937   1.895   9.253 -0.6914 -0.1760  0.6261
 6250SOL    HW230384   0.825   1.964   9.317  0.1932 -0.9212  0.6069
 6251SOL     OW30385   0.399   4.499   1.584 -0.5427 -0.7139 -0.0603
 6251SOL    HW130386   0.371   4.430   1.524  2.4111 -0.5452 -1.6152
 6251SOL    HW230387   0.464   4.460   1.643  0.3148  1.5028  0.4359
 6252SOL     OW30388   1.133   1.818   5.013 -0.4315  0.1654  0.3057
 6252SOL    HW130389   1.102   1.784   4.929 -0.9217  0.3494  0.4101
 6252SOL    HW230390   1.111   1.752   5.078 -2.8817 -0.4656 -1.1376
 6253SOL     OW30391   0.646   2.886  11.258 -0.1288  0.0404  0.2890
 6253SOL    HW130392   0.611   2.825  11.324 -0.8968  1.2537  0.9928
 6253SOL    HW230393   0.593   2.883  11.178 -1.3353 -0.4689  1.0864
 6254SOL     OW30394   4.172   0.144  13.239  0.3674 -0.1696  0.1353
 6254SOL    HW130395   4.212   0.074  13.187  2.1182  2.4989 -2.1341
 6254SOL    HW230396   4.204   0.217  13.185  0.0449 -0.9821 -1.1610
 6255SOL     OW30397   4.593   4.424   3.042 -0.2757 -0.2353 -0.3003
 6255SOL    HW130398   4.621   4.514   3.060 -0.1596 -0.8231  2.4090
 6255SOL    HW230399   4.659   4.396   2.978 -0.8787  1.8755 -1.8489
 6256SOL     OW30400   3.656   0.201   8.282  0.1968 -0.3416  0.0703
 6256SOL    HW130401   3.617   0.265   8.341  0.6411 -1.0990  1.1839
 6256SOL    HW230402   3.654   0.256   8.204  1.0115 -1.6328 -0.8611
 6257SOL     OW30403   2.165   2.937   9.303 -0.1142  0.4461 -0.1907
 6257SOL    HW130404   2.179   2.845   9.326 -3.5511  0.4801  1.8956
 6257SOL    HW230405   2.127   2.976   9.381  1.4082 -0.0625  0.8099
 6258SOL     OW30406   3.993   4.325  16.139  0.1740  0.4759 -0.4837
 6258SOL    HW130407   3.962   4.236  16.128  1.6553  0.1160 -1.7743
 6258SOL    HW230408   3.928   4.366  16.083 -1.7669 -0.1522  1.3220
 6259SOL     OW30409   4.258   3.664   8.544 -0.1512 -0.6946  0.1632
 6259SOL    HW130410   4.169   3.629   8.548 -0.8325  0.9413 -0.9087
 6259SOL    HW230411   4.301   3.604   8.482  2.1927  0.3225  0.7870
 6260SOL     OW30412   1.846   1.435   4.440  0.0851 -0.1808  0.3350
 6260SOL    HW130413   1.922   1.377   4.440 -0.2816 -0.6577 -0.9573
 6260SOL    HW230414   1.863   1.486   4.361 -1.9122 -1.5047 -0.9560
 6261SOL     OW30415   0.952   1.011   7.627 -0.1040  0.7197 -0.3737
 6261SOL    HW130416   1.001   1.082   7.585  0.1028 -0.1782 -1.6553
 6261SOL    HW230417   0.915   1.054   7.703 -0.3670 -1.3490  0.6686
 6262SOL     OW30418   2.673   1.996   4.632  0.0252  0.1551  0.1357
 6262SOL    HW130419   2.733   2.049   4.579  0.9983  1.0750  2.1368
 6262SOL    HW230420   2.609   2.057   4.669 -1.9340 -0.4936 -2.1592
 6263SOL     OW30421   3.294   0.862   7.142 -0.1748  0.8417  0.8256
 6263SOL    HW130422   3.219   0.814   7.107 -1.0423  2.3546  0.5749
 6263SOL    HW230423   3.287   0.944   7.092 -1.0819 -1.2432 -2.5003
 6264SOL     OW30424   3.832   4.703   3.552  0.2821 -0.2991 -0.1024
 6264SOL    HW130425   3.912   4.656   3.529  1.3707  0.0485  2.9882
 6264SOL    HW230426   3.840   0.049   3.511  0.5794 -0.0344  0.5255
 6265SOL     OW30427   0.400   0.610   2.109 -0.0108  0.1126  0.2104
 6265SOL    HW130428   0.320   0.622   2.059  0.0357 -2.0524 -0.3620
 6265SOL    HW230429   0.411   0.700   2.141 -1.8322 -0.5105  2.5991
 6266SOL     OW30430   0.382   2.285   8.630  0.5717 -0.0671  0.2027
 6266SOL    HW130431   0.431   2.350   8.681  0.3902  2.1344 -2.4274
 6266SOL    HW230432   0.290   2.298   8.655  0.2774 -0.3697 -0.7089
 6267SOL     OW30433   4.738   2.175   9.998  0.1553 -0.3606 -0.3771
 6267SOL    HW130434   4.735   2.195   9.905 -2.0571 -0.5229 -0.3405
 6267SOL    HW230435   4.691   2.091   9.999 -1.7624  0.7105 -1.9472
 6268SOL     OW30436   4.443   3.930   4.290 -0.7652 -0.4585  0.1507
 6268SOL    HW130437   4.512   3.924   4.224  0.4756  0.5728  1.3412
 6268SOL    HW230438   4.359   3.917   4.246 -1.7885  2.7838  1.1184
 6269SOL     OW30439   0.067   0.948  12.231  0.0676  0.1357  0.2784
 6269SOL    HW130440   4.715   0.961  12.248 -0.3438 -0.3929 -1.6041
 6269SOL    HW230441   0.102   0.902  12.308 -0.3559  1.3212  1.1770
 6270SOL     OW30442   4.493   0.518   4.599  0.8451  0.4814  0.1189
 6270SOL    HW130443   4.570   0.574   4.585  0.7945  0.6016  0.3208
 6270SOL    HW230444   4.515   0.484   4.685 -0.9506  0.3895  0.5293
 6271SOL     OW30445   2.076   1.756   3.510  0.2445 -0.0947 -0.1267
 6271SOL    HW130446   2.059   1.800   3.593  0.5109  0.6206 -0.4544
 6271SOL    HW230447   2.150   1.804   3.473  0.2113 -0.5114 -0.7301
 6272SOL     OW30448   2.137   3.730   3.063 -0.9935  0.1851  0.1575
 6272SOL    HW130449   2.093   3.714   2.979  1.1826 -1.8592 -0.6006
 6272SOL    HW230450   2.229   3.730   3.034 -1.3883 -0.6719 -1.1231
 6273SOL     OW30451   1.599   0.708  16.611  0.0382 -0.0748  0.1876
 6273SOL    HW130452   1.605   0.785  16.554 -2.5067  0.2088  0.3173
 6273SOL    HW230453   1.535   0.741  16.675  0.1563 -1.4112  0.9863
 6274SOL     OW30454   0.261   1.608   9.726 -0.0174  0.0531 -0.0247
 6274SOL    HW130455   0.342   1.561   9.745  0.6254  0.9095 -0.5877
 6274SOL    HW230456   0.199   1.573   9.789  2.0996  0.6665  2.3790
 6275SOL     OW30457   3.853   3.896   7.548  0.0440  0.0060 -1.1881
 6275SOL    HW130458   3.862   3.857   7.461  1.3445 -1.2072 -0.5071
 6275SOL    HW230459   3.791   3.836   7.589  1.9680 -0.0435  1.6152
 6276SOL     OW30460   2.463   0.313  12.339  0.2725 -0.0988 -0.1845
 6276SOL    HW130461   2.532   0.369  12.373 -0.3050 -0.3450  1.3524
 6276SOL    HW230462   2.407   0.368  12.284  0.9947 -0.0276 -0.8572
 6277SOL     OW30463   3.199   0.027   1.444  0.3908 -0.0866  0.1046
 6277SOL    HW130464   3.177   0.116   1.417  0.0443 -0.6182 -1.4024
 6277SOL    HW230465   3.259   0.004   1.373 -0.3025 -2.4328  0.2647
 6278SOL     OW30466   0.002   0.033  13.575 -0.1255  0.5144  0.3781
 6278SOL    HW130467   0.016   4.708  13.507 -0.0343 -1.5217  2.3976
 6278SOL    HW230468   4.688   0.091  13.521 -0.1676 -3.9089 -4.3400
 6279SOL     OW30469   3.828   4.366  12.074 -1.5240 -0.1022  0.0129
 6279SOL    HW130470   3.733   4.363  12.084 -1.7507 -0.0205 -2.1104
 6279SOL    HW230471   3.863   4.416  12.148  0.4744 -4.1523  1.8295
 6280SOL     OW30472   3.012   3.035   5.844 -0.1139 -0.2152 -0.1668
 6280SOL    HW130473   2.955   3.035   5.767  0.4559  0.2219 -0.5921
 6280SOL    HW230474   3.015   2.940   5.856 -1.1498 -0.0032  1.7231
 6281SOL     OW30475   1.506   4.188   3.710  0.0027 -0.1323  0.5865
 6281SOL    HW130476   1.489   4.202   3.617  0.8845  1.7181  0.7051
 6281SOL    HW230477   1.464   4.264   3.750  0.3201  0.7165 -0.6931
 6282SOL     OW30478   0.539   2.213   1.908  0.2163 -0.7029 -0.1046
 6282SOL    HW130479   0.451   2.200   1.873  0.2924 -1.4874 -0.0116
 6282SOL    HW230480   0.573   2.288   1.859 -0.8031  0.6809  1.3322
 6283SOL     OW30481   2.602   0.481   2.187 -0.2833  0.6097 -0.2022
 6283SOL    HW130482   2.553   0.442   2.260 -2.4203  1.6034 -1.1101
 6283SOL    HW230483   2.650   0.405   2.154 -1.2342  0.5204 -1.4107
 6284SOL     OW30484   0.994   2.065   4.742 -0.0693  0.6230 -0.4086
 6284SOL    HW130485   0.927   2.105   4.798 -0.4462 -1.1278  0.3708
 6284SOL    HW230486   1.015   2.134   4.679 -1.4175  0.9425 -0.5127
 6285SOL     OW30487   3.729   1.123   5.652 -0.5429  0.1311  0.0905
 6285SOL    HW130488   3.753   1.138   5.743 -0.4490 -0.5450  0.1808
 6285SOL    HW230489   3.779   1.187   5.602 -0.6376 -0.1680 -0.3879
 6286SOL     OW30490   2.839   2.517   9.405 -0.0625 -0.0105 -0.3837
 6286SOL    HW130491   2.758   2.552   9.441 -0.8362 -1.8505 -0.3134
 6286SOL    HW230492   2.840   2.565   9.322 -2.3012  0.9636  0.1501
 6287SOL     OW30493   2.522   4.391  17.150  0.1156  0.3337 -0.2297
 6287SOL    HW130494   2.459   4.417  17.083  0.6149  2.1259  0.0042
 6287SOL    HW230495   2.517   4.296  17.136 -2.3586  0.5715 -1.0678
 6288SOL     OW30496   0.451   4.059   5.430  0.5259  0.4271 -0.2327
 6288SOL    HW130497   0.380   4.052   5.494  1.5697 -0.0333  0.8737
 6288SOL    HW230498   0.401   4.109   5.365  0.3138  1.4526  0.7203
 6289SOL     OW30499   4.526   1.638   0.252  0.1578 -0.0084 -0.1890
 6289SOL    HW130500   4.566   1.554   0.230 -0.5942  0.5330 -3.6896
 6289SOL    HW230501   4.537   1.635   0.347  1.1044  1.1454 -0.2480
 6290SOL     OW30502   4.197   2.924   6.889 -0.2207 -0.4206 -0.4023
 6290SOL    HW130503   4.175   2.840   6.928 -1.8231 -0.6266 -1.7212
 6290SOL    HW230504   4.188   2.906   6.795 -0.0516 -0.7213 -0.3566
 6291SOL     OW30505   4.127   4.365   6.720  0.0104  0.1102 -0.5816
 6291SOL    HW130506   4.125   4.270   6.735  0.0410 -0.0491 -1.6250
 6291SOL    HW230507   4.169   4.397   6.800 -0.4283  0.0233 -0.3172
 6292SOL     OW30508   3.807   3.337   6.782 -0.2931 -0.2701 -0.5084
 6292SOL    HW130509   3.766   3.294   6.856 -0.1181 -0.6910 -0.6591
 6292SOL    HW230510   3.897   3.305   6.785 -0.2000  0.0507  0.1098
 6293SOL     OW30511   0.389   2.777   1.071  0.8824  0.1393 -0.2378
 6293SOL    HW130512   0.482   2.798   1.081  0.9892  0.3537 -1.5864
 6293SOL    HW230513   0.394   2.692   1.026  0.0137  0.1193 -0.3001
 6294SOL     OW30514   3.070   1.694   3.712  0.6707  0.2615 -0.3255
 6294SOL    HW130515   2.989   1.648   3.688 -1.0535  3.3456 -0.4933
 6294SOL    HW230516   3.075   1.684   3.807 -3.1789 -0.6257 -0.2016
 6295SOL     OW30517   3.864   4.025  16.942  0.5809 -0.4014  0.3231
 6295SOL    HW130518   3.826   4.011  17.029 -1.5619 -1.0582 -0.7010
 6295SOL    HW230519   3.927   3.954  16.939  1.2068  0.1978 -0.7218
 6296SOL     OW30520   2.048   3.712   0.389 -0.4372  0.1191  0.7781
 6296SOL    HW130521   1.986   3.652   0.430  2.5031 -2.4974  1.3872
 6296SOL    HW230522   2.106   3.652   0.342  1.6763  1.4430  1.6987
 6297SOL     OW30523   2.596   0.415   2.679 -0.6537 -0.1900  0.2232
 6297SOL    HW130524   2.627   0.329   2.706  0.1402  0.1194  0.2942
 6297SOL    HW230525   2.503   0.422   2.702 -0.9481 -0.1715 -0.9833
 6298SOL     OW30526   2.757   2.313  11.309  0.5202 -0.0898 -0.0254
 6298SOL    HW130527   2.673   2.359  11.297  0.2834 -0.5861 -0.2779
 6298SOL    HW230528   2.720   2.225  11.315  0.3136 -0.1010 -1.4232
 6299SOL     OW30529   0.099   3.318   7.580  0.1758 -0.4777 -0.1804
 6299SOL    HW130530   0.064   3.344   7.495 -1.0749 -0.1665  0.4287
 6299SOL    HW230531   0.099   3.223   7.569  1.3924 -0.7057  1.9065
 6300SOL     OW30532   3.715   4.250   9.749 -0.4777  1.3671 -0.5714
 6300SOL    HW130533   3.648   4.236   9.682 -0.0583 -0.5935 -0.5763
 6300SOL    HW230534   3.790   4.262   9.692  0.7087 -2.5266  0.1868
 6301SOL     OW30535   2.660   4.596  14.612 -0.0038 -0.1287  0.0345
 6301SOL    HW130536   2.718   4.542  14.666  0.9615  1.8113  0.9322
 6301SOL    HW230537   2.672   4.687  14.642 -1.1523 -0.8470  2.7430
 6302SOL     OW30538   4.047   2.769  15.323 -0.0637 -0.5167 -0.1137
 6302SOL    HW130539   4.068   2.828  15.395 -1.1005 -0.5564  0.2169
 6302SOL    HW230540   3.957   2.755  15.353  0.2483 -0.6480  0.7398
 6303SOL     OW30541   0.519   2.384  12.999  0.1029  0.3493  0.0105
 6303SOL    HW130542   0.482   2.307  12.957 -0.6731  0.4255  0.5573
 6303SOL    HW230543   0.546   2.444  12.929 -0.2064  0.4726 -0.0022
 6304SOL     OW30544   2.959   4.157  15.631  0.0342  0.0572  0.7299
 6304SOL    HW130545   3.009   4.082  15.597 -2.4090 -1.6037  0.8366
 6304SOL    HW230546   3.024   4.226  15.620  0.1294 -0.1859 -0.2122
 6305SOL     OW30547   0.365   4.263   5.242 -0.5423 -0.1089 -0.2908
 6305SOL    HW130548   0.362   4.358   5.256  1.2104 -0.1644  0.3651
 6305SOL    HW230549   0.291   4.252   5.182 -1.7098  0.8148  0.9728
 6306SOL     OW30550   1.258   0.279   0.979 -0.4412  0.2237  0.0329
 6306SOL    HW130551   1.260   0.322   1.064 -0.7445  0.4280 -0.0607
 6306SOL    HW230552   1.237   0.187   0.997 -1.3629  0.8631  2.2466
 6307SOL     OW30553   1.231   0.563  13.063 -0.4919  0.0662 -0.3285
 6307SOL    HW130554   1.190   0.494  13.011  1.5232 -2.5932  1.5613
 6307SOL    HW230555   1.325   0.546  13.052 -0.1453 -0.5551  3.3273
 6308SOL     OW30556   1.221   2.335  15.294  0.2094 -0.2807  0.3750
 6308SOL    HW130557   1.174   2.286  15.361 -0.2728  2.1457  1.8065
 6308SOL    HW230558   1.247   2.418  15.335  0.7442 -0.7469  0.9790
 6309SOL     OW30559   0.716   0.739  17.011 -0.1089  0.1280  0.1537
 6309SOL    HW130560   0.663   0.665  17.040  1.3404 -1.2306 -0.6936
 6309SOL    HW230561   0.778   0.691  16.957  0.9071 -0.8180  2.1626
 6310SOL     OW30562   4.138   2.776   6.589  0.1899  0.2063 -0.5200
 6310SOL    HW130563   4.201   2.706   6.609 -1.2274 -0.0571  3.1849
 6310SOL    HW230564   4.073   2.723   6.543 -0.1284 -1.5410  1.8830
 6311SOL     OW30565   3.213   4.338   0.538  0.3585 -0.2024 -0.1287
 6311SOL    HW130566   3.131   4.386   0.528  1.7612  1.9962 -1.1533
 6311SOL    HW230567   3.234   4.345   0.631 -0.3071 -0.5556  0.0474
 6312SOL     OW30568   4.723   0.319  10.609 -1.1130  0.3448  0.3044
 6312SOL    HW130569   4.685   0.234  10.586 -0.3759  0.2077 -0.3930
 6312SOL    HW230570   0.073   0.289  10.624 -1.9803 -2.5327 -0.1311
 6313SOL     OW30571   0.016   1.097   3.030  0.3306 -0.5819  0.5369
 6313SOL    HW130572   0.105   1.123   3.053 -0.0547  0.2298  1.0895
 6313SOL    HW230573   0.015   1.007   3.062 -1.1024 -1.0035 -0.6566
 6314SOL     OW30574   2.968   1.094   4.013  0.1612 -0.1902 -0.2054
 6314SOL    HW130575   2.929   1.153   4.078 -1.4001 -1.1847 -0.2617
 6314SOL    HW230576   3.012   1.158   3.956 -0.1011  0.3719  0.2283
 6315SOL     OW30577   2.216   3.020   4.200  0.4182 -0.4018  0.2783
 6315SOL    HW130578   2.257   3.006   4.286  0.1550  1.3736  0.7072
 6315SOL    HW230579   2.199   2.932   4.167 -1.3232 -0.4415  1.2623
 6316SOL     OW30580   1.802   0.272   9.068  0.1431 -0.1496  0.3329
 6316SOL    HW130581   1.870   0.223   9.114  2.7577  1.8444 -1.4223
 6316SOL    HW230582   1.839   0.360   9.062  0.3515 -0.2169  0.6686
 6317SOL     OW30583   3.666   1.340  16.445 -0.1377 -0.8399 -0.7499
 6317SOL    HW130584   3.687   1.248  16.462  2.1527 -0.7148 -2.8663
 6317SOL    HW230585   3.730   1.354  16.375  0.3047  2.0068  0.2351
 6318SOL     OW30586   2.309   3.206   7.034 -0.0133  0.2523 -0.1083
 6318SOL    HW130587   2.403   3.221   7.027  0.1191 -1.7116 -2.5547
 6318SOL    HW230588   2.285   3.293   7.066 -1.4468 -0.3698  0.4761
 6319SOL     OW30589   4.684   2.701   6.848 -0.6299  0.1123 -0.6034
 6319SOL    HW130590   4.708   2.737   6.762 -1.2368 -0.1567 -0.8841
 6319SOL    HW230591   0.019   2.725   6.900 -3.2224  1.8682  2.3380
 6320SOL     OW30592   3.619   0.225  14.944  0.2232  0.0637 -0.4979
 6320SOL    HW130593   3.544   0.231  15.004  0.5500  2.1728 -0.2969
 6320SOL    HW230594   3.692   0.255  14.999  1.1267 -1.0163 -1.1069
 6321SOL     OW30595   2.646   1.938   3.245 -0.1143  0.0849  0.3310
 6321SOL    HW130596   2.738   1.914   3.236 -0.4738 -1.7930  1.7300
 6321SOL    HW230597   2.609   1.854   3.220  3.1353 -0.9971 -0.7890
 6322SOL     OW30598   1.273   1.674   8.585  0.0510 -0.1569  0.2994
 6322SOL    HW130599   1.294   1.594   8.633  0.5541  0.9623  1.9509
 6322SOL    HW230600   1.195   1.644   8.538 -1.0523  0.5468  1.6938
 6323SOL     OW30601   2.257   0.441   2.190 -0.6568  0.4537  0.3313
 6323SOL    HW130602   2.299   0.525   2.171 -0.4218  0.1200 -0.6104
 6323SOL    HW230603   2.198   0.458   2.264 -2.4032 -0.1863 -0.9105
 6324SOL     OW30604   1.841   0.596   9.657 -0.2141 -0.2643  0.7242
 6324SOL    HW130605   1.747   0.604   9.671  0.0394  1.2705  1.5394
 6324SOL    HW230606   1.858   0.508   9.690 -2.1098 -0.3599  1.4690
 6325SOL     OW30607   0.604   4.190  17.675 -0.6115  0.1371 -0.2980
 6325SOL    HW130608   0.563   4.271  17.706 -0.5240  0.0439  0.0628
 6325SOL    HW230609   0.563   4.185  17.589  0.3885  0.7080 -0.8094
 6326SOL     OW30610   4.558   3.627   1.883  0.2739  0.9386 -0.3513
 6326SOL    HW130611   4.509   3.709   1.877  0.0199  0.7902 -0.3112
 6326SOL    HW230612   4.648   3.659   1.891  1.1421 -1.2812 -1.2117
 6327SOL     OW30613   1.939   2.798   3.784 -0.1864 -0.0610  0.9731
 6327SOL    HW130614   1.859   2.757   3.818  0.5593 -1.2711  1.2599
 6327SOL    HW230615   1.962   2.855   3.857 -3.5255 -2.0387  3.5700
 6328SOL     OW30616   4.522   4.288  15.758  0.5329  0.3648 -0.3472
 6328SOL    HW130617   4.575   4.327  15.828  0.1628  0.4978 -0.1375
 6328SOL    HW230618   4.584   4.283  15.685 -1.3663  2.3223 -2.1047
 6329SOL     OW30619   2.174   3.001   1.370 -0.0239 -0.7597 -0.4064
 6329SOL    HW130620   2.151   3.033   1.283 -0.6088  4.9069  1.8772
 6329SOL    HW230621   2.269   2.992   1.378 -0.0881 -1.5128 -0.4963
 6330SOL     OW30622   4.017   3.025   5.350 -0.4216 -0.1621  0.3963
 6330SOL    HW130623   4.027   3.063   5.438 -0.1025 -0.5987  0.5466
 6330SOL    HW230624   4.017   3.099   5.289 -0.4910 -0.5188 -0.0262
 6331SOL     OW30625   3.671   4.202   6.732 -0.4218 -0.1433  0.2159
 6331SOL    HW130626   3.643   4.216   6.641 -1.0936 -1.3787  0.2356
 6331SOL    HW230627   3.629   4.274   6.779 -0.4635 -0.7237  1.0616
 6332SOL     OW30628   0.667   1.321   3.468 -0.5415  0.5798 -0.2654
 6332SOL    HW130629   0.734   1.260   3.437 -0.8798  0.1825 -0.2300
 6332SOL    HW230630   0.593   1.272   3.431 -0.9923  1.3971 -0.4363
 6333SOL     OW30631   0.422   3.004   8.739  0.3334 -0.6492 -0.1703
 6333SOL    HW130632   0.423   2.912   8.712 -3.0435  0.2169 -3.1808
 6333SOL    HW230633   0.371   3.005   8.820 -0.9243  2.0216 -0.9988
 6334SOL     OW30634   3.391   1.098   1.869 -0.0356 -0.2669  0.4183
 6334SOL    HW130635   3.445   1.031   1.910  3.0964  2.0901  0.1295
 6334SOL    HW230636   3.464   1.159   1.857 -1.4585  1.0789 -1.4214
 6335SOL     OW30637   1.038   2.430  15.919  0.2705 -0.5225  0.1515
 6335SOL    HW130638   1.103   2.494  15.890 -0.7586  0.2931 -0.3661
 6335SOL    HW230639   1.047   2.429  16.014  2.4884  1.3217 -0.0578
 6336SOL     OW30640   2.999   4.244   7.337  0.4744 -0.0341 -0.4807
 6336SOL    HW130641   3.000   4.201   7.422  0.4726  2.4602  0.7772
 6336SOL    HW230642   2.985   4.166   7.282  1.3684 -2.0114  2.0957
 6337SOL     OW30643   1.217   4.174   5.561 -0.1372 -0.4213  0.5168
 6337SOL    HW130644   1.212   4.234   5.635  1.8692  0.7969 -0.3292
 6337SOL    HW230645   1.136   4.123   5.565  0.9986 -2.4995 -3.1172
 6338SOL     OW30646   4.112   2.190   1.816 -0.1622  0.1115 -0.3364
 6338SOL    HW130647   4.080   2.132   1.885 -2.0344  1.8689  0.2857
 6338SOL    HW230648   4.205   2.178   1.836 -0.2161  0.4886  0.1439
 6339SOL     OW30649   3.350   4.207  14.936  0.6761  0.1035 -0.0127
 6339SOL    HW130650   3.420   4.148  14.910 -2.3584 -2.8107 -1.4620
 6339SOL    HW230651   3.343   4.173  15.025  1.6030 -0.6415 -0.2170
 6340SOL     OW30652   4.481   4.604   1.882  0.0117  0.1154 -0.0642
 6340SOL    HW130653   4.415   4.623   1.949 -0.0360 -1.5744  0.3724
 6340SOL    HW230654   4.529   4.540   1.935 -0.9927 -1.0452 -0.5608
 6341SOL     OW30655   2.254   2.760   2.420 -0.4132  0.3558 -0.5634
 6341SOL    HW130656   2.326   2.697   2.425 -0.5344  0.4636  2.2088
 6341SOL    HW230657   2.241   2.777   2.513  1.4742  1.9695 -0.6069
 6342SOL     OW30658   1.944   1.263   9.308  0.4125  0.1230 -1.2159
 6342SOL    HW130659   1.853   1.283   9.327  0.8732  0.2174  0.9375
 6342SOL    HW230660   1.947   1.278   9.214  0.3452 -0.5035 -1.3160
 6343SOL     OW30661   4.086   1.835   0.932 -0.1753 -0.0483 -0.0887
 6343SOL    HW130662   4.010   1.892   0.935  0.1001  0.4048 -1.3269
 6343SOL    HW230663   4.037   1.753   0.934  1.9172 -1.3859 -2.3021
 6344SOL     OW30664   3.508   2.492   2.118  0.6375  0.1300 -0.1482
 6344SOL    HW130665   3.531   2.414   2.169  1.6889  0.4289 -0.1748
 6344SOL    HW230666   3.594   2.519   2.085  1.0236  1.3246  1.7815
 6345SOL     OW30667   1.651   2.962   2.341 -0.4434 -0.0345  0.1678
 6345SOL    HW130668   1.690   2.909   2.271  0.6153  0.4570  0.3800
 6345SOL    HW230669   1.561   2.980   2.316 -0.9208 -0.6559  1.4252
 6346SOL     OW30670   2.390   2.523   2.464  0.1558  0.1742  0.3712
 6346SOL    HW130671   2.448   2.459   2.424 -0.2960  0.6536 -1.0709
 6346SOL    HW230672   2.315   2.463   2.464  0.4331 -0.1642  1.4776
 6347SOL     OW30673   1.384   0.222  17.607 -0.0099 -0.1547 -0.0607
 6347SOL    HW130674   1.347   0.222  17.695  0.2411 -1.5382  0.0501
 6347SOL    HW230675   1.470   0.180  17.616 -0.1473 -0.0987  1.4149
 6348SOL     OW30676   3.580   2.579   3.395 -0.3423 -0.2853 -0.3127
 6348SOL    HW130677   3.550   2.646   3.334  1.5181 -0.4228 -1.3826
 6348SOL    HW230678   3.659   2.553   3.349  0.6824  0.9940  0.7224
 6349SOL     OW30679   4.696   3.810   4.560  0.5590 -0.3669  0.2134
 6349SOL    HW130680   4.726   3.818   4.470  0.8940  1.6978  0.4999
 6349SOL    HW230681   0.035   3.774   4.600  1.0620  0.9798  0.4441
 6350SOL     OW30682   1.033   0.452  10.066  0.6145  0.0572 -0.3149
 6350SOL    HW130683   1.077   0.529  10.102  0.2580 -0.4576  1.2216
 6350SOL    HW230684   1.036   0.393  10.141  0.7763 -0.9477 -1.1132
 6351SOL     OW30685   2.282   2.399  13.367 -0.2961 -0.0358  0.2678
 6351SOL    HW130686   2.268   2.481  13.414  0.1274  1.1439 -1.6562
 6351SOL    HW230687   2.333   2.421  13.289 -1.3109  1.6913  0.0809
 6352SOL     OW30688   3.044   3.302   5.230 -0.6414 -0.0269  0.4197
 6352SOL    HW130689   2.986   3.335   5.161  0.4920 -0.3581 -0.6843
 6352SOL    HW230690   3.108   3.263   5.171 -0.6057  0.1810  0.3199
 6353SOL     OW30691   2.408   1.882   7.956 -0.1049  0.9775  0.5512
 6353SOL    HW130692   2.380   1.793   7.977 -0.4291  0.5779 -1.6447
 6353SOL    HW230693   2.321   1.922   7.945 -0.9355 -0.8621  0.3899
 6354SOL     OW30694   0.602   1.018   9.406  0.2994 -0.1159 -0.5178
 6354SOL    HW130695   0.581   0.924   9.403 -2.4193  0.5452 -1.8403
 6354SOL    HW230696   0.618   1.027   9.500 -1.0697  0.8533 -0.3783
 6355SOL     OW30697   1.688   0.896   5.479  0.4114 -0.3700 -0.1040
 6355SOL    HW130698   1.679   0.813   5.433  2.0808 -0.6349  0.0516
 6355SOL    HW230699   1.654   0.957   5.413 -0.2284 -0.1273  0.4511
 6356SOL     OW30700   3.388   1.899   3.227  0.6486  0.2040 -0.4847
 6356SOL    HW130701   3.330   1.970   3.254 -0.8175 -0.9162 -0.7009
 6356SOL    HW230702   3.464   1.916   3.282 -0.1498  0.6091  0.4970
 6357SOL     OW30703   4.022   0.202   5.354  0.0179 -0.0115  0.0732
 6357SOL    HW130704   3.956   0.159   5.300  0.2421  0.1079 -0.2975
 6357SOL    HW230705   4.049   0.134   5.416 -0.7933 -2.1454 -1.9267
 6358SOL     OW30706   4.684   2.281   8.889 -0.0293 -0.1910  0.1845
 6358SOL    HW130707   4.708   2.189   8.878  0.6512  0.2219 -1.9104
 6358SOL    HW230708   4.700   2.294   8.982  2.1747 -1.9404  0.0783
 6359SOL     OW30709   3.863   3.157  13.136 -0.0802  0.0935 -0.7358
 6359SOL    HW130710   3.782   3.116  13.167 -0.5694 -0.2235 -2.4567
 6359SOL    HW230711   3.822   3.222  13.078  1.6480  1.2756 -0.6448
 6360SOL     OW30712   2.518   4.220   2.989 -0.0053 -0.0164  0.1692
 6360SOL    HW130713   2.457   4.292   3.002 -1.9950 -1.6156 -0.3344
 6360SOL    HW230714   2.452   4.152   2.975  0.0155 -0.3902  1.8439
 6361SOL     OW30715   2.193   3.739   1.160 -0.1209 -0.3698 -0.0754
 6361SOL    HW130716   2.099   3.752   1.173  0.4692  1.5575  2.2015
 6361SOL    HW230717   2.209   3.779   1.075 -1.3361 -2.2914 -1.1881
 6362SOL     OW30718   2.017   0.297   4.591  0.0808 -1.0037 -0.3416
 6362SOL    HW130719   1.983   0.280   4.679 -2.0461  2.1748 -0.5533
 6362SOL    HW230720   1.935   0.282   4.543 -1.7876 -2.7004  3.4246
 6363SOL     OW30721   0.843   4.507  11.685 -0.5298 -0.4100  0.2071
 6363SOL    HW130722   0.757   4.548  11.687 -0.4706 -0.2025 -1.9759
 6363SOL    HW230723   0.895   4.580  11.717 -0.3141 -0.2844 -0.4420
 6364SOL     OW30724   2.852   4.235  17.295  0.1741  0.0751 -0.5451
 6364SOL    HW130725   2.855   4.236  17.199 -0.4926 -3.0994 -0.5819
 6364SOL    HW230726   2.830   4.325  17.322 -0.0203 -0.3689  0.7653
 6365SOL     OW30727   0.966   4.485   4.607  0.0198 -0.2464  0.2172
 6365SOL    HW130728   1.027   4.546   4.566  1.4028 -1.3080  0.7026
 6365SOL    HW230729   0.899   4.552   4.619  0.2142  0.1324 -0.8204
 6366SOL     OW30730   0.044   2.645   7.173  0.5113 -0.0753  0.0488
 6366SOL    HW130731   0.065   2.733   7.140  2.0709 -0.3729  0.2381
 6366SOL    HW230732   4.719   2.669   7.237  1.0835  2.5123 -0.3129
 6367SOL     OW30733   3.639   0.803   7.287  0.2974 -0.2433 -0.0456
 6367SOL    HW130734   3.550   0.795   7.321  0.1357  1.7555 -0.0467
 6367SOL    HW230735   3.628   0.878   7.229 -1.1076 -1.5145 -1.4343
 6368SOL     OW30736   3.424   0.797   3.619 -0.0898 -0.4690 -0.1396
 6368SOL    HW130737   3.343   0.836   3.586  0.2638  0.5830  0.2442
 6368SOL    HW230738   3.477   0.804   3.540 -0.5824  1.0409 -0.3303
 6369SOL     OW30739   2.341   3.668   0.789  0.0985 -0.0373  0.4294
 6369SOL    HW130740   2.302   3.747   0.826 -0.4389  0.8447 -1.9996
 6369SOL    HW230741   2.292   3.602   0.838  0.6620 -0.6861  0.1151
 6370SOL     OW30742   4.511   1.652   8.815  0.0498 -0.4230  0.1703
 6370SOL    HW130743   4.446   1.625   8.750 -0.3542  2.0489 -0.4400
 6370SOL    HW230744   4.590   1.682   8.769 -0.5868  0.8495 -0.0937
 6371SOL     OW30745   1.636   3.776   9.161  0.1528  0.4386 -0.0409
 6371SOL    HW130746   1.676   3.861   9.143  1.9738 -0.7442 -1.6503
 6371SOL    HW230747   1.603   3.750   9.076 -0.3802  1.5549 -0.1704
 6372SOL     OW30748   3.716   0.555   5.329  0.0645  0.5761 -0.1032
 6372SOL    HW130749   3.673   0.633   5.295 -0.8136  0.2738  0.3008
 6372SOL    HW230750   3.661   0.479   5.306  0.8389 -0.3665  1.1807
 6373SOL     OW30751   4.107   4.725  17.568 -0.6988  0.6246 -0.3190
 6373SOL    HW130752   4.092   4.688  17.481 -0.3862 -1.1217  0.3750
 6373SOL    HW230753   4.030   4.692  17.614  0.7208  0.9325  2.2727
 6374SOL     OW30754   4.463   1.723   2.127 -0.1492 -0.0703 -0.7112
 6374SOL    HW130755   4.375   1.760   2.123  0.1488  0.8008  0.6542
 6374SOL    HW230756   4.499   1.806   2.158 -3.5199  0.8597  0.7262
 6375SOL     OW30757   0.010   2.967   2.370 -0.3287 -0.3957 -0.1750
 6375SOL    HW130758   4.656   2.966   2.386 -0.7392  0.7897 -2.5187
 6375SOL    HW230759   0.045   2.988   2.456 -0.7797 -0.7780  0.1034
 6376SOL     OW30760   4.111   1.953   8.309  0.1783  0.1177  0.3457
 6376SOL    HW130761   4.048   1.914   8.369 -0.1627  0.4763  0.2234
 6376SOL    HW230762   4.170   1.881   8.287 -0.1037 -0.4076  1.2863
 6377SOL     OW30763   3.666   3.725  17.287  0.3404  0.3877  0.1381
 6377SOL    HW130764   3.681   3.695  17.197 -0.8637  0.5135 -0.1110
 6377SOL    HW230765   3.587   3.779  17.282  1.3623  2.0447  2.0797
 6378SOL     OW30766   1.725   0.179  11.663  0.1575 -0.0246 -0.5330
 6378SOL    HW130767   1.819   0.164  11.675  0.2744 -0.1822 -1.6291
 6378SOL    HW230768   1.704   0.144  11.749  1.2252  2.4641  0.7414
 6379SOL     OW30769   0.323   0.487   8.606 -0.1948  0.1870 -0.1262
 6379SOL    HW130770   0.326   0.474   8.511 -2.3574  0.7262 -0.2670
 6379SOL    HW230771   0.398   0.542   8.630 -0.2668  0.4749 -0.5536
 6380SOL     OW30772   4.535   1.886   0.824  0.1332  0.8139 -0.0327
 6380SOL    HW130773   4.573   1.835   0.896  0.3380  1.0826  0.0485
 6380SOL    HW230774   4.441   1.866   0.828  0.4898 -0.6378  1.0991
 6381SOL     OW30775   3.611   1.139   3.706  0.2298 -0.6825  0.5078
 6381SOL    HW130776   3.539   1.199   3.684 -0.0237 -0.0769  2.9889
 6381SOL    HW230777   3.658   1.127   3.624  0.8063  0.0918  0.7239
 6382SOL     OW30778   2.622   2.055   6.847  0.3983 -0.2163  0.4800
 6382SOL    HW130779   2.595   1.988   6.784  1.0538  1.4255 -1.5543
 6382SOL    HW230780   2.596   2.024   6.934 -0.6259 -0.5591  0.0570
 6383SOL     OW30781   3.090   1.859   7.478  0.0870 -0.6680 -0.5217
 6383SOL    HW130782   3.030   1.849   7.552  1.7920 -2.7405  0.5554
 6383SOL    HW230783   3.169   1.881   7.526  0.9082 -1.0245 -1.6837
 6384SOL     OW30784   3.140   1.163   6.020 -0.1392 -0.3688 -0.1161
 6384SOL    HW130785   3.213   1.173   5.959 -0.5786 -0.6053 -0.6861
 6384SOL    HW230786   3.071   1.134   5.960 -0.0481  0.1073 -0.4451
 6385SOL     OW30787   2.794   2.902   7.637 -0.0086  0.0278  0.7098
 6385SOL    HW130788   2.850   2.921   7.562  1.2274 -3.3571  0.7798
 6385SOL    HW230789   2.856   2.876   7.705  1.8170  0.1687 -0.9151
 6386SOL     OW30790   1.871   2.276   7.905 -0.2996 -0.1165  0.3357
 6386SOL    HW130791   1.965   2.277   7.888 -0.2445  2.5827  0.9224
 6386SOL    HW230792   1.845   2.190   7.871 -2.6423  0.0251  1.7907
 6387SOL     OW30793   0.306   0.795  13.218 -0.5033  0.0053  0.4579
 6387SOL    HW130794   0.223   0.842  13.211 -0.2047  0.4368 -0.2687
 6387SOL    HW230795   0.379   0.855  13.202 -1.5880  1.1146 -0.3434
 6388SOL     OW30796   3.291   0.560   2.462  0.1344  0.4968  0.4499
 6388SOL    HW130797   3.348   0.580   2.388  1.6408 -3.0737  0.6545
 6388SOL    HW230798   3.238   0.495   2.416  0.8380 -1.1514  1.9662
 6389SOL     OW30799   2.383   2.537  12.323  0.1762  0.5031 -0.0875
 6389SOL    HW130800   2.316   2.536  12.255 -0.5941  3.7673  0.6409
 6389SOL    HW230801   2.363   2.449  12.355  0.5156  1.0246  1.5804
 6390SOL     OW30802   2.956   1.789   8.168 -0.5543 -0.1988  0.1922
 6390SOL    HW130803   2.986   1.814   8.256 -1.6445 -2.6265  1.2282
 6390SOL    HW230804   2.861   1.799   8.175 -0.5955 -0.4356 -0.0532
 6391SOL     OW30805   3.885   4.219   4.926  0.0500 -0.2681 -0.1212
 6391SOL    HW130806   3.832   4.144   4.897  1.5248 -1.9611  1.5506
 6391SOL    HW230807   3.944   4.227   4.852  0.9940  1.5901  0.8566
 6392SOL     OW30808   2.780   1.327   8.025  0.1635  0.3262  0.9847
 6392SOL    HW130809   2.752   1.236   8.035  0.7775  0.0358  0.1211
 6392SOL    HW230810   2.827   1.338   8.107  1.8645  2.7390 -0.3053
 6393SOL     OW30811   0.246   0.082   8.160 -0.1978  0.8375  0.3539
 6393SOL    HW130812   0.178   0.072   8.094  0.3767 -1.5796  0.1393
 6393SOL    HW230813   0.250   4.737   8.201  2.6327  0.3136 -1.0482
 6394SOL     OW30814   3.874   1.195   1.808  0.3704  0.9562 -0.2535
 6394SOL    HW130815   3.849   1.175   1.718 -0.8138  2.1106 -0.1669
 6394SOL    HW230816   3.874   1.289   1.796 -0.1747  1.0909  0.8709
 6395SOL     OW30817   4.715   4.098   8.270  0.2835  0.8966  0.2740
 6395SOL    HW130818   4.680   4.009   8.281 -0.9906  1.5198  1.2692
 6395SOL    HW230819   4.732   4.108   8.177  1.6082  0.8798  0.5065
 6396SOL     OW30820   1.882   2.047   9.823  0.4350 -0.8511  0.1424
 6396SOL    HW130821   1.906   1.955   9.815  0.0283 -0.9122 -0.3460
 6396SOL    HW230822   1.969   2.079   9.850  0.8466 -0.8677 -1.1707
 6397SOL     OW30823   3.644   1.235   4.569  0.3427 -0.3614  0.5620
 6397SOL    HW130824   3.733   1.203   4.581  0.7214  0.9006  1.1325
 6397SOL    HW230825   3.643   1.278   4.483 -0.4190  0.0323  0.7645
 6398SOL     OW30826   0.865   1.561  10.005 -0.1369 -0.2159 -0.1518
 6398SOL    HW130827   0.822   1.549  10.090 -0.5133  0.0231 -0.3078
 6398SOL    HW230828   0.829   1.494   9.947  0.1650 -1.2078  0.8049
 6399SOL     OW30829   3.844   3.825   3.416 -0.1504  0.0118 -0.2574
 6399SOL    HW130830   3.937   3.847   3.405 -0.5444  1.5300 -0.4696
 6399SOL    HW230831   3.817   3.904   3.462  0.2379  0.3251 -0.5677
 6400SOL     OW30832   2.776   3.756  14.948 -0.5428 -0.1912  0.2966
 6400SOL    HW130833   2.739   3.785  14.865 -0.1093 -3.3751 -0.9959
 6400SOL    HW230834   2.863   3.795  14.940 -1.8982  3.1414  1.7237
 6401SOL     OW30835   2.869   4.352   8.372 -0.1017 -0.1904 -0.1021
 6401SOL    HW130836   2.841   4.287   8.437 -0.4473  1.9560  1.8646
 6401SOL    HW230837   2.963   4.339   8.363 -0.4787 -2.1444 -1.2191
 6402SOL     OW30838   3.244   3.553  12.370 -0.6240 -0.2255  0.4371
 6402SOL    HW130839   3.231   3.557  12.275  0.4886  0.1176  0.3028
 6402SOL    HW230840   3.282   3.637  12.397 -1.4504 -0.3302  1.9337
 6403SOL     OW30841   1.762   4.662   3.739  0.4656 -0.0487  0.1950
 6403SOL    HW130842   1.751   4.573   3.705 -0.7557  0.7889 -1.6062
 6403SOL    HW230843   1.689   4.667   3.800  1.2209 -1.3383  1.1937
 6404SOL     OW30844   4.379   3.796   5.930 -0.4299 -0.3745  0.3971
 6404SOL    HW130845   4.470   3.802   5.899 -0.2440  0.4259  1.1038
 6404SOL    HW230846   4.391   3.834   6.017  0.4849  1.8553 -0.6998
 6405SOL     OW30847   3.613   1.230   8.090 -0.1547  0.3201  0.4977
 6405SOL    HW130848   3.594   1.261   8.179  1.7350 -0.7672  1.2903
 6405SOL    HW230849   3.705   1.212   8.111 -0.2317  2.2597  2.5834
 6406SOL     OW30850   2.183   0.252   8.191 -0.4681 -0.1664  0.4573
 6406SOL    HW130851   2.245   0.194   8.234 -2.1649 -2.2621  0.0713
 6406SOL    HW230852   2.113   0.256   8.257 -0.2784  0.5727  0.6173
 6407SOL     OW30853   1.656   1.462   8.387 -0.0033  0.1990 -0.1733
 6407SOL    HW130854   1.609   1.479   8.469  1.6012 -0.2505  0.8337
 6407SOL    HW230855   1.749   1.457   8.408 -0.3945 -0.4808  1.3907
 6408SOL     OW30856   2.321   3.033  15.991 -0.3804  0.5137  0.4175
 6408SOL    HW130857   2.251   3.053  15.928 -0.4455  0.3632  0.4409
 6408SOL    HW230858   2.376   2.984  15.929 -1.4598 -0.9098  0.5681
 6409SOL     OW30859   1.310   2.678  16.180  0.5533 -0.2758 -0.1524
 6409SOL    HW130860   1.280   2.713  16.264 -0.9923 -0.9245 -0.4368
 6409SOL    HW230861   1.362   2.603  16.209  0.8277  0.0509  0.2015
 6410SOL     OW30862   2.331   2.239   1.281 -0.2226 -0.4792  0.6685
 6410SOL    HW130863   2.348   2.273   1.193  1.3518 -1.6690  0.5135
 6410SOL    HW230864   2.241   2.208   1.270  0.2973 -1.6965 -0.2058
 6411SOL     OW30865   3.909   4.351   2.230 -0.2652 -0.0459  0.7087
 6411SOL    HW130866   3.868   4.436   2.212 -1.0710 -0.4882  0.4293
 6411SOL    HW230867   3.905   4.300   2.149 -0.6862 -0.7287  1.1525
 6412SOL     OW30868   3.297   1.074   4.330  0.0613  0.0223 -0.5232
 6412SOL    HW130869   3.383   1.036   4.348  0.7572  1.7448 -0.2802
 6412SOL    HW230870   3.267   1.036   4.248 -0.6680 -1.6579  0.5036
 6413SOL     OW30871   3.077   0.304   1.717 -0.5414 -0.7355 -0.2462
 6413SOL    HW130872   3.086   0.271   1.628 -0.3012 -1.3284  0.0014
 6413SOL    HW230873   2.989   0.341   1.711 -0.2451 -0.0232 -0.2103
 6414SOL     OW30874   0.205   3.449   5.655  0.4747 -0.4778 -0.0944
 6414SOL    HW130875   0.257   3.376   5.689 -0.0207 -1.3116 -1.1319
 6414SOL    HW230876   0.244   3.532   5.681 -1.3197  0.1147  0.6985
 6415SOL     OW30877   4.190   3.061   8.700  0.9527 -0.4281  0.0479
 6415SOL    HW130878   4.237   3.029   8.778 -0.9977  0.3278  1.5249
 6415SOL    HW230879   4.199   3.156   8.704 -0.3243 -0.2347 -1.8020
 6416SOL     OW30880   4.642   2.651  12.508 -0.0616 -0.9536 -0.2425
 6416SOL    HW130881   4.611   2.695  12.429 -0.6461 -2.4461 -0.8408
 6416SOL    HW230882   4.660   2.562  12.478  2.7032 -0.1948 -0.8931
 6417SOL     OW30883   2.885   3.218   1.261  0.3822  0.8462  0.0154
 6417SOL    HW130884   2.804   3.168   1.245 -0.7045  2.4107  0.5809
 6417SOL    HW230885   2.897   3.195   1.353 -0.9875  1.0347  0.2505
 6418SOL     OW30886   1.951   2.506   6.896 -0.4615  0.3957  0.0764
 6418SOL    HW130887   1.876   2.497   6.954  0.2298  0.0670  0.9064
 6418SOL    HW230888   1.955   2.599   6.872 -1.0386  0.6499  0.9667
 6419SOL     OW30889   2.589   0.188   6.823 -0.0298  0.4906  0.0233
 6419SOL    HW130890   2.604   0.161   6.914 -0.9094 -1.5356 -0.4334
 6419SOL    HW230891   2.494   0.189   6.817 -0.0559 -0.6010  0.2992
 6420SOL     OW30892   0.363   3.714   8.452  0.3640  0.0349 -0.6883
 6420SOL    HW130893   0.352   3.808   8.468  0.7094 -0.0090 -0.2028
 6420SOL    HW230894   0.443   3.717   8.400  0.8720 -1.3396  0.0070
 6421SOL     OW30895   1.028   0.566   3.775  0.2805 -0.5469  0.4714
 6421SOL    HW130896   1.086   0.635   3.743 -0.1931  0.6617  2.1834
 6421SOL    HW230897   0.968   0.609   3.837  0.6567  1.3099 -0.4443
 6422SOL     OW30898   4.592   0.907   3.585 -0.1693 -0.4253  0.0251
 6422SOL    HW130899   4.601   0.816   3.555  0.6034 -0.2560 -0.2414
 6422SOL    HW230900   4.507   0.925   3.545 -0.2964 -1.0126  0.0292
 6423SOL     OW30901   3.967   3.741   8.793 -0.2581  0.0939  0.0929
 6423SOL    HW130902   3.878   3.773   8.785 -0.4109 -0.4962 -0.5659
 6423SOL    HW230903   3.947   3.679   8.863 -1.3144 -1.0497 -1.2168
 6424SOL     OW30904   3.228   4.701   6.610 -0.0350 -0.2745 -0.0261
 6424SOL    HW130905   3.227   4.712   6.515  0.0183 -1.5210 -0.1785
 6424SOL    HW230906   3.319   4.675   6.622 -0.4397 -0.7574  2.1004
 6425SOL     OW30907   0.409   2.254  16.266  0.5008  0.7588  0.6427
 6425SOL    HW130908   0.329   2.205  16.247 -0.0781  1.3442  1.5563
 6425SOL    HW230909   0.387   2.337  16.223 -2.1008  0.2208  0.9269
 6426SOL     OW30910   4.097   4.576  13.704  0.3779  0.2550 -0.1372
 6426SOL    HW130911   4.132   4.630  13.633 -2.5718  0.8773 -1.1378
 6426SOL    HW230912   4.025   4.629  13.738 -0.0925  0.0509 -0.7980
 6427SOL     OW30913   3.758   0.761  11.697 -0.1884  0.1996  0.5563
 6427SOL    HW130914   3.797   0.704  11.763 -1.1316 -1.5311 -0.3942
 6427SOL    HW230915   3.832   0.815  11.670  1.1567 -0.9181  1.9938
 6428SOL     OW30916   3.145   4.269  13.013 -0.4101  0.0183 -0.7267
 6428SOL    HW130917   3.174   4.358  12.993  1.5416 -0.5130 -0.2284
 6428SOL    HW230918   3.126   4.281  13.106  1.4929 -2.5602  0.0077
 6429SOL     OW30919   3.454   2.447   6.657  0.0795  0.5626  0.5289
 6429SOL    HW130920   3.505   2.507   6.603 -0.9917  0.4176 -0.6413
 6429SOL    HW230921   3.379   2.419   6.604  1.0179 -0.8186 -0.0863
 6430SOL     OW30922   2.634   1.975   2.694  0.8724 -0.4799  0.4302
 6430SOL    HW130923   2.551   1.929   2.704  0.4165  0.7934  2.3337
 6430SOL    HW230924   2.683   1.911   2.642  1.9279  1.9954 -1.6251
 6431SOL     OW30925   1.039   3.957   2.082  0.4902 -0.7083 -0.1983
 6431SOL    HW130926   1.093   3.937   2.159  2.7445 -0.9910 -1.8497
 6431SOL    HW230927   0.965   3.902   2.109 -0.5721  1.1004  0.5774
 6432SOL     OW30928   1.967   1.178   2.240  0.1011  0.3815  0.0445
 6432SOL    HW130929   1.947   1.114   2.308  3.2044  0.9405  1.4600
 6432SOL    HW230930   1.927   1.131   2.166 -0.7596  1.2977 -0.0767
 6433SOL     OW30931   2.712   2.097   6.532 -0.0806 -0.0388 -0.1424
 6433SOL    HW130932   2.749   2.064   6.614 -0.3451 -0.8204 -0.3352
 6433SOL    HW230933   2.777   2.068   6.468  0.1107  1.3765 -0.5863
 6434SOL     OW30934   4.612   4.589  14.737 -0.4071  0.0860 -0.4070
 6434SOL    HW130935   4.647   4.519  14.682 -0.0262 -1.1134  1.3857
 6434SOL    HW230936   4.653   4.666  14.697 -0.3360  0.3001  0.0878
 6435SOL     OW30937   2.901   1.532  16.754 -0.0341 -0.3315 -0.3501
 6435SOL    HW130938   2.989   1.554  16.725  0.4568 -1.7141  0.1098
 6435SOL    HW230939   2.915   1.444  16.790 -0.5821  0.4828  1.8708
 6436SOL     OW30940   4.123   2.853   2.423 -0.8095 -0.1892 -0.3577
 6436SOL    HW130941   4.172   2.862   2.341  0.4398 -0.4342  0.3636
 6436SOL    HW230942   4.127   2.758   2.433  0.4784  0.2054  3.0189
 6437SOL     OW30943   2.694   0.956   6.130  0.2729 -0.3300  0.3800
 6437SOL    HW130944   2.618   0.904   6.156 -0.5178 -0.7284 -2.7612
 6437SOL    HW230945   2.763   0.890   6.138 -1.0867 -1.7231  0.5344
 6438SOL     OW30946   3.782   4.206  11.697 -0.1932  0.2716 -0.1065
 6438SOL    HW130947   3.791   4.239  11.786  2.1779  2.0534 -1.0162
 6438SOL    HW230948   3.695   4.235  11.667 -0.1921  0.8420  0.4221
 6439SOL     OW30949   4.702   2.214  15.685  0.1006  0.2799  0.0786
 6439SOL    HW130950   4.645   2.176  15.752 -0.4039  2.1080  0.6932
 6439SOL    HW230951   4.726   2.141  15.628 -0.5716 -1.0265  1.4733
 6440SOL     OW30952   2.390   1.043   4.438  0.5118  0.0389  0.2216
 6440SOL    HW130953   2.335   0.967   4.416 -0.9868  0.9029  1.0137
 6440SOL    HW230954   2.331   1.088   4.498  1.5496 -0.3658  1.5631
 6441SOL     OW30955   2.550   0.697   1.802 -0.2948 -0.1684  0.1357
 6441SOL    HW130956   2.641   0.699   1.833 -0.8095  0.2967  1.6311
 6441SOL    HW230957   2.544   0.755   1.726 -0.2173 -2.0413 -1.2978
 6442SOL     OW30958   4.344   0.557  10.617  0.0554 -0.4849  0.0911
 6442SOL    HW130959   4.342   0.644  10.658  1.0484 -0.9315  1.0850
 6442SOL    HW230960   4.408   0.514  10.673 -2.6085 -2.8719  1.2578
 6443SOL     OW30961   1.169   1.788   6.681  0.3839 -0.0581 -0.1021
 6443SOL    HW130962   1.075   1.806   6.691  1.3054  4.0299  1.1263
 6443SOL    HW230963   1.197   1.851   6.615  1.4491  1.2493  1.5833
 6444SOL     OW30964   0.278   0.454   8.982 -0.3646  0.2256  0.2452
 6444SOL    HW130965   0.239   0.507   9.052 -1.0203 -0.2801  0.2715
 6444SOL    HW230966   0.345   0.513   8.950  1.7656 -2.0191  0.5497
 6445SOL     OW30967   1.191   4.181   0.165 -0.6017  0.4584  0.0898
 6445SOL    HW130968   1.104   4.170   0.127 -0.5567 -2.1302  0.7457
 6445SOL    HW230969   1.239   4.222   0.093 -2.0739  0.5860 -0.8163
 6446SOL     OW30970   4.101   0.700  11.621 -0.2395 -0.4673 -0.7117
 6446SOL    HW130971   4.067   0.787  11.642  2.0341  0.6390 -1.6586
 6446SOL    HW230972   4.050   0.654  11.687  0.2045  1.6331  1.0836
 6447SOL     OW30973   1.208   3.403   8.461 -0.2520  0.0102 -0.2366
 6447SOL    HW130974   1.296   3.395   8.425 -0.0003 -0.4557  0.4678
 6447SOL    HW230975   1.187   3.309   8.465 -1.1446  0.3488  3.5816
 6448SOL     OW30976   4.250   3.889  13.872  0.5107  0.6379 -0.0772
 6448SOL    HW130977   4.267   3.982  13.890 -0.4383  0.9407 -0.7362
 6448SOL    HW230978   4.192   3.866  13.944  1.0394  2.5024  0.9384
 6449SOL     OW30979   1.999   0.952  16.811  0.3293 -0.0545 -0.0318
 6449SOL    HW130980   1.909   0.920  16.820 -0.4826  1.8627 -1.3411
 6449SOL    HW230981   2.050   0.871  16.804  1.5604  0.7123  0.0368
 6450SOL     OW30982   1.755   4.391   3.655 -0.9025 -0.1547  0.4563
 6450SOL    HW130983   1.736   4.339   3.577 -0.8309  0.6989 -0.1322
 6450SOL    HW230984   1.801   4.343   3.724  0.6182 -1.2958 -1.3457
 6451SOL     OW30985   0.550   1.541   1.029 -0.5534  0.6755 -0.4767
 6451SOL    HW130986   0.602   1.471   0.990 -0.0193  0.5684  0.4137
 6451SOL    HW230987   0.462   1.533   0.995 -0.7862 -0.3507  0.3790
 6452SOL     OW30988   4.535   2.524   1.949  0.3089  0.2639  0.2376
 6452SOL    HW130989   4.467   2.550   2.012 -0.5039 -0.1678 -0.4469
 6452SOL    HW230990   4.586   2.461   1.999  0.0783  0.3785  0.6173
 6453SOL     OW30991   2.415   1.743   4.989 -0.3196 -0.0864  0.5371
 6453SOL    HW130992   2.332   1.770   5.027 -0.7576  1.9000 -1.8590
 6453SOL    HW230993   2.405   1.741   4.894 -1.1184 -1.5030  0.6497
 6454SOL     OW30994   1.900   3.618   1.414 -0.3759  0.5609 -0.0594
 6454SOL    HW130995   1.943   3.679   1.474  0.9431  0.0731 -0.5116
 6454SOL    HW230996   1.843   3.567   1.473  0.3253  1.7278  1.6206
 6455SOL     OW30997   3.429   1.982   7.396  0.2315  0.5691  0.3197
 6455SOL    HW130998   3.370   1.908   7.410  0.0662  0.7878  0.7843
 6455SOL    HW230999   3.430   1.983   7.300  3.1485 -0.0778  0.3514
 6456SOL     OW31000   4.022   3.649   7.716  0.0379 -0.4276  0.1603
 6456SOL    HW131001   4.115   3.625   7.712  0.6377  1.5073  2.4669
 6456SOL    HW231002   3.999   3.616   7.629 -0.0200 -0.8542  0.3360
 6457SOL     OW31003   2.733   1.354   5.279  0.3385 -0.7110 -0.3739
 6457SOL    HW131004   2.812   1.407   5.280  0.5003 -0.9539 -0.3850
 6457SOL    HW231005   2.742   1.307   5.196  2.7826 -2.0096  0.6238
 6458SOL     OW31006   0.040   4.166   2.409 -0.2080 -0.0353  0.2520
 6458SOL    HW131007   4.697   4.203   2.435 -0.5691  0.3976 -1.4948
 6458SOL    HW231008   0.020   4.072   2.408  2.3752 -0.5702 -1.2878
 6459SOL     OW31009   4.503   2.772   8.997 -0.9715  0.1481  0.4918
 6459SOL    HW131010   4.597   2.790   8.993 -0.3307 -3.0378  0.9962
 6459SOL    HW231011   4.505   2.683   8.962  0.6824  0.7997 -1.0754
 6460SOL     OW31012   1.914   2.095   7.579  0.2711  0.0792 -0.3585
 6460SOL    HW131013   1.957   2.180   7.580  0.3325  0.0379  0.6268
 6460SOL    HW231014   1.860   2.102   7.500 -1.4625  0.9774  0.8993
 6461SOL     OW31015   2.567   3.913  16.712 -0.1248  0.0434 -0.1744
 6461SOL    HW131016   2.596   3.846  16.649 -1.0808 -1.5350  1.0646
 6461SOL    HW231017   2.584   3.986  16.652  1.1319  0.4470  0.6564
 6462SOL     OW31018   2.165   4.376  11.652  0.1495 -0.5903 -0.0606
 6462SOL    HW131019   2.175   4.291  11.696 -2.0341 -0.0015  1.5795
 6462SOL    HW231020   2.172   4.427  11.732 -0.4768  0.1613 -0.4860
 6463SOL     OW31021   1.858   1.477   2.244  0.3328 -0.4427 -0.1042
 6463SOL    HW131022   1.947   1.447   2.226  0.0395 -0.8890 -0.8129
 6463SOL    HW231023   1.846   1.443   2.333 -0.6912 -0.0374 -0.0923
 6464SOL     OW31024   2.356   2.405   9.190 -0.7090 -0.3447 -0.0065
 6464SOL    HW131025   2.273   2.394   9.236 -0.6900 -1.3056 -0.2151
 6464SOL    HW231026   2.413   2.446   9.255  1.8264 -0.8699 -1.9133
 6465SOL     OW31027   4.545   0.787  10.468  0.3099  0.3412 -0.0621
 6465SOL    HW131028   4.606   0.717  10.490 -0.1743  0.6320  2.1960
 6465SOL    HW231029   4.468   0.737  10.440  1.0669 -0.0830 -1.3983
 6466SOL     OW31030   4.238   2.317   7.600 -0.1987 -0.4188 -0.9129
 6466SOL    HW131031   4.297   2.343   7.671 -0.6150 -0.8210 -0.4072
 6466SOL    HW231032   4.307   2.274   7.550  0.4759  1.8734 -1.9368
 6467SOL     OW31033   2.041   1.268   7.645  0.2037  0.1483 -0.3267
 6467SOL    HW131034   1.992   1.186   7.645 -0.2596  0.4274 -0.4060
 6467SOL    HW231035   2.104   1.255   7.574  1.1967  0.1968  0.5319
 6468SOL     OW31036   2.766   0.383  15.461 -0.0083 -0.5479 -0.2237
 6468SOL    HW131037   2.710   0.385  15.538  0.7969 -2.1974  0.4199
 6468SOL    HW231038   2.758   0.474  15.434  0.2944 -0.0284  1.4938
 6469SOL     OW31039   4.706   3.476  14.279 -0.7829  0.3904 -0.1207
 6469SOL    HW131040   4.642   3.407  14.262  1.8551 -1.7875 -1.1877
 6469SOL    HW231041   4.705   3.530  14.200 -0.9732  0.8897  0.2241
 6470SOL     OW31042   2.045   1.471   3.649 -0.3114 -0.0870  0.3550
 6470SOL    HW131043   2.056   1.566   3.660 -0.1871 -0.2183  1.3651
 6470SOL    HW231044   2.114   1.456   3.585  0.4063 -0.7465  1.2867
 6471SOL     OW31045   2.594   4.738   2.997 -0.0823  0.2647  0.2137
 6471SOL    HW131046   2.572   4.655   3.040 -0.4928  1.4101  2.2064
 6471SOL    HW231047   2.671   4.714   2.946  0.3649 -0.0629  1.0561
 6472SOL     OW31048   2.684   0.811  10.644 -0.0739 -0.1342  0.1719
 6472SOL    HW131049   2.678   0.869  10.568  1.2299  0.8355  0.8116
 6472SOL    HW231050   2.778   0.793  10.639 -0.5975 -3.1725  1.2824
 6473SOL     OW31051   1.360   3.127   2.528  0.4418  0.0142 -0.2368
 6473SOL    HW131052   1.313   3.173   2.599  1.6242  0.7594  0.0701
 6473SOL    HW231053   1.293   3.108   2.462  0.3275  2.0494 -0.7251
 6474SOL     OW31054   0.466   4.149  10.856 -0.1720 -0.2259  0.3499
 6474SOL    HW131055   0.541   4.090  10.848 -0.1532 -0.5237  2.6911
 6474SOL    HW231056   0.406   4.108  10.919  0.7711 -3.3661 -0.8219
 6475SOL     OW31057   1.338   1.771  13.888 -0.0174  0.0928 -0.5508
 6475SOL    HW131058   1.357   1.814  13.972 -0.0135 -2.5021  0.7729
 6475SOL    HW231059   1.386   1.824  13.825 -0.8092 -0.6293 -1.7494
 6476SOL     OW31060   1.739   0.853   3.017  0.3553  0.9236  0.0989
 6476SOL    HW131061   1.693   0.937   3.017  1.4579  1.5242 -0.1504
 6476SOL    HW231062   1.812   0.861   3.078  1.4664  2.3635 -1.4104
 6477SOL     OW31063   1.019   0.675  11.322  0.0718 -0.2617  0.1444
 6477SOL    HW131064   0.950   0.714  11.268  0.5097  0.3499  0.0316
 6477SOL    HW231065   1.046   0.747  11.379  1.8145 -3.2574  3.0846
 6478SOL     OW31066   2.976   1.966  10.406 -0.2472 -0.3605 -0.5944
 6478SOL    HW131067   3.056   1.970  10.458  1.0403 -1.8403 -2.4308
 6478SOL    HW231068   2.904   1.964  10.468 -2.2163  1.7946 -2.8269
 6479SOL     OW31069   3.740   2.305   1.527 -0.2952 -0.2506  0.0469
 6479SOL    HW131070   3.832   2.331   1.534 -0.4534  0.2283  0.3887
 6479SOL    HW231071   3.734   2.223   1.576  0.5703 -0.6749 -0.5737
 6480SOL     OW31072   1.139   1.843   5.363  0.4401 -0.0723  0.0600
 6480SOL    HW131073   1.164   1.762   5.318  1.2877  0.0484  0.3043
 6480SOL    HW231074   1.226   1.878   5.381  0.6686 -0.4997 -0.2056
 6481SOL     OW31075   2.529   0.709   7.571 -0.0429 -0.2037 -0.5475
 6481SOL    HW131076   2.489   0.687   7.655  0.4073  2.9915  0.5213
 6481SOL    HW231077   2.502   0.800   7.555 -1.0785 -0.3539  0.4053
 6482SOL     OW31078   2.313   3.811  15.398  0.2573 -0.3996  0.7063
 6482SOL    HW131079   2.308   3.893  15.447 -0.2185 -1.0458  1.7462
 6482SOL    HW231080   2.224   3.777  15.405  0.4649 -0.6778  1.9962
 6483SOL     OW31081   0.996   2.178   7.093 -0.2644  0.2901 -0.1231
 6483SOL    HW131082   0.913   2.189   7.047  0.6705 -0.7858 -2.0800
 6483SOL    HW231083   0.996   2.251   7.156  1.6296  0.9917 -0.9191
 6484SOL     OW31084   0.412   4.305  10.218  0.0604  0.4717 -0.4330
 6484SOL    HW131085   0.490   4.252  10.233 -2.1467 -2.7240 -0.1530
 6484SOL    HW231086   0.445   4.370  10.156  2.7777  1.2892  1.8965
 6485SOL     OW31087   0.096   1.770   2.136 -0.0158  0.4287  0.3286
 6485SOL    HW131088   0.132   1.826   2.068  1.5164 -0.5324  0.3498
 6485SOL    HW231089   0.170   1.710   2.146  0.0657  0.3253 -0.8648
 6486SOL     OW31090   3.379   4.412   1.529 -0.5853 -0.6179  0.2243
 6486SOL    HW131091   3.392   4.323   1.560 -1.3724 -0.6821  0.3673
 6486SOL    HW231092   3.333   4.392   1.447  0.0467 -2.4700  0.3254
 6487SOL     OW31093   1.241   1.195   1.349 -0.0562 -0.2937 -0.0882
 6487SOL    HW131094   1.280   1.261   1.407  1.8960 -3.5491  2.3431
 6487SOL    HW231095   1.318   1.167   1.299  0.5307 -0.2748  0.7975
 6488SOL     OW31096   3.924   3.764   2.152  0.1726  0.0130 -0.6243
 6488SOL    HW131097   3.900   3.764   2.244  1.9901  2.4280 -0.1564
 6488SOL    HW231098   3.838   3.752   2.111  0.2828  0.5787 -1.0306
 6489SOL     OW31099   2.995   2.135   7.750  0.3807 -0.6464 -0.6278
 6489SOL    HW131100   3.086   2.157   7.766  0.2582  1.5601 -2.8408
 6489SOL    HW231101   2.944   2.214   7.770  0.1649 -0.8553 -0.3440
 6490SOL     OW31102   2.400   0.120   8.290  0.5668  0.0760 -0.1123
 6490SOL    HW131103   2.437   0.117   8.201  1.3831 -0.4989  0.2447
 6490SOL    HW231104   2.370   0.033   8.316 -0.2511  0.7213  1.0856
 6491SOL     OW31105   0.729   3.919   9.229  0.4371 -0.2699 -0.2563
 6491SOL    HW131106   0.792   3.992   9.225 -0.3095  0.4652  1.2052
 6491SOL    HW231107   0.721   3.898   9.322  0.4843  0.0844 -0.1719
 6492SOL     OW31108   1.404   2.400   9.054 -0.0439  0.0900 -0.0097
 6492SOL    HW131109   1.312   2.386   9.031 -0.3382  2.3684 -0.2415
 6492SOL    HW231110   1.433   2.458   8.983 -1.6530  0.0834 -0.6779
 6493SOL     OW31111   4.028   2.061   4.678 -0.3810 -0.7077 -0.2842
 6493SOL    HW131112   3.976   2.031   4.604 -0.3613  1.2132 -1.0803
 6493SOL    HW231113   3.955   2.086   4.734  0.0070  1.8809 -0.9036
 6494SOL     OW31114   4.705   3.195   3.259 -0.1672  0.1496  0.0093
 6494SOL    HW131115   4.704   3.291   3.264  0.4830  0.0789  1.4181
 6494SOL    HW231116   0.038   3.172   3.315  2.3268 -0.4501 -3.4895
 6495SOL     OW31117   0.233   0.255   4.695  0.0058 -0.3926  0.7332
 6495SOL    HW131118   0.278   0.179   4.657 -2.6016 -0.7747 -1.6067
 6495SOL    HW231119   0.305   0.280   4.753 -0.0611  2.7683 -0.5242
 6496SOL     OW31120   1.324   1.770   8.883  0.0701 -0.5829 -0.7024
 6496SOL    HW131121   1.268   1.757   8.807  0.1682 -0.4658 -0.7961
 6496SOL    HW231122   1.345   1.690   8.931  0.6378  0.3625  0.6470
 6497SOL     OW31123   2.446   1.481   6.120 -0.0390  0.3478  0.1243
 6497SOL    HW131124   2.471   1.393   6.147 -0.7197  0.3898  0.8904
 6497SOL    HW231125   2.361   1.501   6.159 -0.6166 -1.7969 -0.0393
 6498SOL     OW31126   4.578   2.834   6.342 -0.1402  0.0951 -0.2084
 6498SOL    HW131127   4.624   2.870   6.266 -0.1000 -2.0003 -1.1717
 6498SOL    HW231128   4.574   2.739   6.328 -1.4228  0.1324 -0.1152
 6499SOL     OW31129   1.263   3.653   0.364 -0.3010 -0.5435  0.0379
 6499SOL    HW131130   1.182   3.646   0.314  0.4913 -0.0345 -1.3128
 6499SOL    HW231131   1.250   3.742   0.395  0.9164 -0.8155  1.3202
 6500SOL     OW31132   4.136   1.005   6.376  0.0906 -0.5677 -0.0661
 6500SOL    HW131133   4.208   1.009   6.438  0.1135  1.1297 -0.2026
 6500SOL    HW231134   4.167   0.954   6.302 -0.0030  1.9060 -1.8084
 6501SOL     OW31135   4.465   4.058   7.388 -0.3731 -0.2454  0.1109
 6501SOL    HW131136   4.406   4.008   7.330 -0.5425 -1.3164  1.2140
 6501SOL    HW231137   4.543   4.003   7.375 -1.1238 -1.3766  0.3550
 6502SOL     OW31138   3.538   0.340  10.773  0.2077  0.0023  0.2304
 6502SOL    HW131139   3.489   0.260  10.790 -0.9034  0.5309 -0.4466
 6502SOL    HW231140   3.469   0.403  10.751  0.7698  0.3695 -0.4681
 6503SOL     OW31141   0.590   0.584   8.594 -0.0978 -0.4469  0.3789
 6503SOL    HW131142   0.576   0.547   8.507 -1.7653 -3.0375  1.7491
 6503SOL    HW231143   0.658   0.647   8.570 -0.2799 -1.1682 -2.0340
 6504SOL     OW31144   4.212   0.652   5.381 -0.3499  0.4886  0.2541
 6504SOL    HW131145   4.152   0.668   5.453 -0.1384  0.0620  0.5264
 6504SOL    HW231146   4.205   0.731   5.328 -2.6945  0.3371  0.3386
 6505SOL     OW31147   1.659   1.105   6.400 -0.3317  0.0935 -0.9600
 6505SOL    HW131148   1.635   1.012   6.393  0.8512 -0.4100  1.7811
 6505SOL    HW231149   1.605   1.146   6.467 -1.3064  2.3238 -3.1180
 6506SOL     OW31150   2.711   2.113   8.239  0.2384  0.7424 -0.3114
 6506SOL    HW131151   2.792   2.147   8.276  0.6653  0.6142 -1.1345
 6506SOL    HW231152   2.723   2.116   8.144  0.3678  0.7321 -0.2943
 6507SOL     OW31153   0.831   0.327   3.460 -0.1733 -0.4694  0.1609
 6507SOL    HW131154   0.889   0.257   3.491  0.3656 -0.0947 -0.0091
 6507SOL    HW231155   0.837   0.388   3.533 -1.1884 -1.4477  1.0812
 6508SOL     OW31156   4.146   0.033   8.507  0.0178 -0.5010  0.2641
 6508SOL    HW131157   4.167   4.684   8.534  0.7393 -0.4987 -0.3140
 6508SOL    HW231158   4.141   0.078   8.592 -0.0055  1.8433 -0.9693
 6509SOL     OW31159   3.532   3.221  11.903  1.3288  0.4040 -0.7923
 6509SOL    HW131160   3.596   3.190  11.839  0.5429 -2.6935 -0.0666
 6509SOL    HW231161   3.513   3.156  11.971 -0.0075  2.3794  0.7336
 6510SOL     OW31162   1.154   3.651   8.348  0.0437 -0.3667  0.2734
 6510SOL    HW131163   1.154   3.638   8.253 -2.8296 -0.9969  0.3587
 6510SOL    HW231164   1.172   3.563   8.379 -0.8672  0.4129  2.9846
 6511SOL     OW31165   4.364   1.007   2.870 -0.2977 -0.3691  0.3593
 6511SOL    HW131166   4.416   0.969   2.941 -0.6136 -2.5466 -0.5795
 6511SOL    HW231167   4.412   1.091   2.866  2.1660 -1.8194 -0.8937
 6512SOL     OW31168   0.069   1.126   0.200 -0.4423 -0.1180  0.3660
 6512SOL    HW131169   0.044   1.151   0.289  0.5344 -0.5488  0.7620
 6512SOL    HW231170   0.035   1.037   0.199  3.0854 -1.4657  0.2649
 6513SOL     OW31171   2.171   0.356  11.422  0.3467  0.1819 -0.3240
 6513SOL    HW131172   2.115   0.346  11.345 -1.6906  1.4294  0.9919
 6513SOL    HW231173   2.166   0.269  11.462  0.6723 -0.1713 -1.0590
 6514SOL     OW31174   3.555   2.668   9.300  1.0456  0.3241  0.3663
 6514SOL    HW131175   3.577   2.750   9.255 -0.7791  1.5474  1.6645
 6514SOL    HW231176   3.637   2.621   9.283  0.7413 -0.5468  1.3401
 6515SOL     OW31177   4.227   0.407   3.229 -0.4692 -0.2036 -0.2451
 6515SOL    HW131178   4.148   0.459   3.214  0.4944  0.0585 -4.4421
 6515SOL    HW231179   4.190   0.319   3.216 -1.3116  0.2164 -0.7221
 6516SOL     OW31180   0.511   4.021   7.911  0.6116  0.0554  0.7050
 6516SOL    HW131181   0.510   3.933   7.875 -1.0559 -0.1117  1.1638
 6516SOL    HW231182   0.435   4.028   7.969  0.2020  0.6508  0.0956
 6517SOL     OW31183   3.200   1.912   1.512  0.4575  0.2106 -0.0736
 6517SOL    HW131184   3.187   1.909   1.607  1.0357  1.2409  0.0393
 6517SOL    HW231185   3.160   1.828   1.488 -0.0063  0.3092  0.3523
 6518SOL     OW31186   4.147   0.976  10.573 -0.2749  0.0222  0.2611
 6518SOL    HW131187   4.095   1.021  10.506  0.2749 -1.1582 -0.9602
 6518SOL    HW231188   4.239   0.999  10.559 -0.1504 -1.0697 -0.7057
 6519SOL     OW31189   2.096   2.083  10.019  0.5052  0.0131 -0.2374
 6519SOL    HW131190   2.069   2.156  10.074  1.3627 -0.0073  0.2087
 6519SOL    HW231191   2.047   2.012  10.061 -0.6362  1.7197  1.3275
 6520SOL     OW31192   1.220   1.626  13.035  0.3507  0.6025 -0.2769
 6520SOL    HW131193   1.198   1.620  13.128 -0.3074  2.0517 -0.3402
 6520SOL    HW231194   1.175   1.548  13.001  2.4318 -0.1466 -1.3103
 6521SOL     OW31195   4.386   4.373   2.886  0.4129 -0.3926 -0.5130
 6521SOL    HW131196   4.447   4.391   2.957  1.7280 -0.5490 -1.6013
 6521SOL    HW231197   4.420   4.286   2.864 -0.3424 -0.8833  0.2748
 6522SOL     OW31198   4.011   0.048   1.230  0.5655  0.2822  0.1712
 6522SOL    HW131199   4.104   0.026   1.235 -0.0383 -1.8621  2.3415
 6522SOL    HW231200   4.027   0.143   1.234  1.3767  0.1994 -1.0329
 6523SOL     OW31201   3.376   0.881   2.535 -0.1156 -0.0879  0.1500
 6523SOL    HW131202   3.316   0.888   2.609  1.7514  0.1841  1.6339
 6523SOL    HW231203   3.425   0.799   2.532  0.7772  0.4565 -0.0823
 6524SOL     OW31204   0.376   2.479  10.354  0.9293  0.0359  0.3491
 6524SOL    HW131205   0.461   2.507  10.387  1.3343 -0.6136 -0.1541
 6524SOL    HW231206   0.328   2.560  10.337 -0.1031 -0.7332 -0.4248
 6525SOL     OW31207   3.030   2.426  10.817 -0.3207 -0.0433 -0.3706
 6525SOL    HW131208   2.984   2.508  10.835  0.9090  0.7372 -0.8409
 6525SOL    HW231209   3.001   2.377  10.895 -0.0455  0.0515 -0.2085
 6526SOL     OW31210   2.100   3.278   4.784 -0.3495 -0.2884 -0.5921
 6526SOL    HW131211   2.078   3.189   4.811 -0.0430 -0.5423 -1.1760
 6526SOL    HW231212   2.153   3.301   4.860 -0.2527  2.1668 -1.3973
 6527SOL     OW31213   0.960   3.943   4.618  0.4682 -0.7076 -1.1027
 6527SOL    HW131214   1.022   4.012   4.641  0.1437 -0.3818 -1.2185
 6527SOL    HW231215   0.989   3.873   4.677 -2.0832  0.8305  1.9478
 6528SOL     OW31216   3.747   1.156  13.675 -0.0206 -0.1749 -0.0157
 6528SOL    HW131217   3.773   1.135  13.765 -1.8978 -3.3959 -0.2335
 6528SOL    HW231218   3.786   1.241  13.653 -0.7309  0.1435 -0.0728
 6529SOL     OW31219   0.179   2.197   5.517 -0.0319  0.7254 -0.3091
 6529SOL    HW131220   0.274   2.204   5.526  0.1933  0.1119 -2.1301
 6529SOL    HW231221   0.171   2.278   5.466 -3.2196  0.5981 -0.0005
 6530SOL     OW31222   1.919   3.681   9.459 -0.3437  0.3077  0.3569
 6530SOL    HW131223   1.855   3.642   9.398 -0.4618  1.2445 -0.1205
 6530SOL    HW231224   1.955   3.755   9.410 -0.7012  0.9483  1.0660
 6531SOL     OW31225   0.376   2.857   7.258 -0.6333 -0.0854 -0.0072
 6531SOL    HW131226   0.283   2.868   7.241 -1.1445  0.4415  3.1010
 6531SOL    HW231227   0.397   2.778   7.208  2.1366  0.3853  0.4247
 6532SOL     OW31228   3.694   1.333   6.275 -0.0109  0.2794 -0.3464
 6532SOL    HW131229   3.638   1.271   6.322  0.0907  0.9861  0.7072
 6532SOL    HW231230   3.781   1.310   6.307 -0.8988  2.0642  3.2825
 6533SOL     OW31231   0.813   0.208   8.247 -0.5051 -0.2928  0.3875
 6533SOL    HW131232   0.867   0.186   8.323  0.1876 -1.4755 -0.4583
 6533SOL    HW231233   0.783   0.293   8.279 -0.5017 -0.0072 -0.3624
 6534SOL     OW31234   3.386   2.873   9.429  0.0488 -0.0719  0.2531
 6534SOL    HW131235   3.452   2.821   9.383 -0.0460 -0.6487  0.7624
 6534SOL    HW231236   3.423   2.867   9.517  2.2915  0.9243 -0.6261
 6535SOL     OW31237   3.605   1.008   1.466  0.6301 -0.1735  0.1119
 6535SOL    HW131238   3.553   0.986   1.543  0.9925 -0.2224  0.3455
 6535SOL    HW231239   3.551   1.063   1.410  1.5654  1.2807  0.6334
 6536SOL     OW31240   1.458   4.258   4.623 -0.3287  0.4259 -0.6900
 6536SOL    HW131241   1.532   4.317   4.638 -0.5360  0.0922  1.6567
 6536SOL    HW231242   1.429   4.281   4.535 -1.5075 -2.3355 -1.0361
 6537SOL     OW31243   3.520   1.616   2.794 -0.2095  0.3088  0.4593
 6537SOL    HW131244   3.487   1.678   2.858 -1.7236  1.1352 -1.1310
 6537SOL    HW231245   3.554   1.540   2.841  1.3224  0.1508 -0.8998
 6538SOL     OW31246   3.215   1.979  16.878 -0.2246  0.4728  0.0829
 6538SOL    HW131247   3.263   2.050  16.835  2.3890  1.1766  4.1524
 6538SOL    HW231248   3.263   1.979  16.961 -1.4216  2.5844  0.7887
 6539SOL     OW31249   0.752   3.908   3.746 -0.7383  0.0182  0.5216
 6539SOL    HW131250   0.765   3.934   3.837  0.6657 -0.1374  0.3647
 6539SOL    HW231251   0.696   3.976   3.708 -0.5751 -0.4908 -0.6294
 6540SOL     OW31252   1.479   4.721   1.839  0.5665  0.0058 -0.0544
 6540SOL    HW131253   1.481   0.070   1.872 -0.3762  0.3064 -0.8161
 6540SOL    HW231254   1.456   4.679   1.922 -2.2251 -0.1605 -0.9307
 6541SOL     OW31255   1.949   2.307  10.136  0.1999 -0.3055 -0.6782
 6541SOL    HW131256   1.880   2.324  10.072 -0.5440  0.0438  0.2187
 6541SOL    HW231257   1.888   2.287  10.208  3.0013  0.4047  1.9156
 6542SOL     OW31258   2.289   2.311  11.297 -0.0486 -0.5197  0.0151
 6542SOL    HW131259   2.217   2.307  11.359  0.0259  1.1024  0.2129
 6542SOL    HW231260   2.263   2.259  11.221  0.5189 -1.9776  0.8160
 6543SOL     OW31261   2.872   0.472   4.764 -0.1159  0.2592 -0.5837
 6543SOL    HW131262   2.910   0.555   4.792  0.6089 -0.0518 -0.6542
 6543SOL    HW231263   2.949   0.436   4.721  0.3958  1.6631 -0.8360
 6544SOL     OW31264   1.972   0.966   2.680  0.1150  0.2702 -0.3918
 6544SOL    HW131265   1.905   0.979   2.747  0.3694  1.0587 -0.2924
 6544SOL    HW231266   2.049   0.968   2.736 -1.8385 -1.4521  2.3655
 6545SOL     OW31267   1.957   0.271   5.842  0.3954 -0.1863 -0.1529
 6545SOL    HW131268   2.041   0.318   5.843  1.9930 -3.0415 -1.4301
 6545SOL    HW231269   1.957   0.258   5.937 -1.0738  1.8699  0.1342
 6546SOL     OW31270   0.193   0.157   1.764 -0.6705 -0.4437 -0.2631
 6546SOL    HW131271   0.202   0.168   1.859 -1.6405  0.3281 -0.2609
 6546SOL    HW231272   0.180   0.062   1.758 -3.5203  0.1014 -2.6207
 6547SOL     OW31273   2.992   1.823   4.270  0.2074  0.9114 -0.5954
 6547SOL    HW131274   3.011   1.729   4.268 -2.2419  0.4079 -1.1276
 6547SOL    HW231275   3.076   1.862   4.248  0.2385  1.5486  0.6520
 6548SOL     OW31276   0.133   0.303   2.334 -0.0103 -0.0082 -0.0390
 6548SOL    HW131277   0.113   0.267   2.248 -2.4186  0.6161  0.2497
 6548SOL    HW231278   0.212   0.357   2.332  0.3577 -0.5068  1.7177
 6549SOL     OW31279   4.607   4.674   8.331  0.3238 -0.1792 -0.0357
 6549SOL    HW131280   4.594   4.583   8.305  0.0790 -1.0303  3.0809
 6549SOL    HW231281   4.641   4.662   8.420 -3.0052  0.6758  1.3528
 6550SOL     OW31282   2.882   3.845   9.835 -0.0835 -0.4240 -0.2726
 6550SOL    HW131283   2.812   3.840   9.899  0.2049  1.9124  0.2384
 6550SOL    HW231284   2.913   3.755   9.829  0.0393 -0.3983 -0.0313
 6551SOL     OW31285   3.513   3.686   9.931 -0.1208 -0.4405  1.0373
 6551SOL    HW131286   3.497   3.667  10.023  1.7947 -0.2622  1.4137
 6551SOL    HW231287   3.523   3.781   9.925  0.2866 -0.5289  0.3707
 6552SOL     OW31288   2.157   2.319   5.452  0.3487 -0.3260 -0.3582
 6552SOL    HW131289   2.103   2.287   5.380  0.5212  0.7980 -0.9938
 6552SOL    HW231290   2.094   2.386   5.480 -0.2920 -0.8329 -0.5933
 6553SOL     OW31291   1.398   0.641   1.626 -0.2422 -0.0605  0.5524
 6553SOL    HW131292   1.410   0.729   1.661 -0.2123  0.3511 -0.4847
 6553SOL    HW231293   1.309   0.630   1.658  0.0209  0.3606  1.4189
 6554SOL     OW31294   0.741   3.014   5.151 -0.7409  0.0709  0.3936
 6554SOL    HW131295   0.691   3.058   5.219 -0.3230  2.2853 -0.7428
 6554SOL    HW231296   0.828   3.049   5.169 -0.2618 -0.9138 -0.0061
 6555SOL     OW31297   2.808   3.554   1.433  0.0448  0.1766  0.6238
 6555SOL    HW131298   2.767   3.614   1.371  0.4741 -0.9593 -0.7584
 6555SOL    HW231299   2.868   3.501   1.380  0.9886  3.3099 -1.4044
 6556SOL     OW31300   3.685   0.523   7.891  0.4986 -0.3167 -0.8293
 6556SOL    HW131301   3.612   0.577   7.921  1.2471 -0.6896  1.6572
 6556SOL    HW231302   3.701   0.550   7.800  1.2176 -1.7028 -1.1257
 6557SOL     OW31303   2.617   3.643  13.853  0.1711 -0.4638  0.0041
 6557SOL    HW131304   2.695   3.685  13.891  0.0487 -0.8444  0.6829
 6557SOL    HW231305   2.546   3.674  13.909  0.6745  0.5875  0.0529
 6558SOL     OW31306   0.904   4.209  17.420  0.1701  0.6852 -0.1211
 6558SOL    HW131307   0.874   4.299  17.430 -0.1952  0.4777  0.6491
 6558SOL    HW231308   0.871   4.182  17.334 -0.9134 -0.7710  0.7531
 6559SOL     OW31309   0.537   0.391  10.034  0.0666 -0.1364 -0.2311
 6559SOL    HW131310   0.475   0.464  10.027  0.9248  0.4583 -1.5777
 6559SOL    HW231311   0.502   0.345  10.110 -0.1987 -0.1309 -0.3481
 6560SOL     OW31312   0.938   0.796  15.197 -0.0344  0.3243  0.6109
 6560SOL    HW131313   1.022   0.779  15.155 -1.8461  0.1371 -2.9268
 6560SOL    HW231314   0.957   0.869  15.257  4.1396  0.4234 -0.8589
 6561SOL     OW31315   0.754   1.532   4.578 -0.0006  0.0168  0.4205
 6561SOL    HW131316   0.806   1.459   4.545 -0.0164 -0.0885  0.6242
 6561SOL    HW231317   0.739   1.507   4.670 -2.5186  0.8836  0.2578
 6562SOL     OW31318   1.633   1.612   5.291 -0.3340 -0.1831 -0.3326
 6562SOL    HW131319   1.643   1.657   5.207  0.4571  0.9997  0.3874
 6562SOL    HW231320   1.686   1.534   5.274  0.3448  0.4690 -1.2548
 6563SOL     OW31321   4.083   2.034  12.927 -0.2166  0.1881  0.4081
 6563SOL    HW131322   4.174   2.026  12.956  0.2161 -1.1914 -1.3180
 6563SOL    HW231323   4.074   2.127  12.907 -0.3025  0.5005  1.8917
 6564SOL     OW31324   2.655   1.364   6.428  0.0143  0.4413  0.6034
 6564SOL    HW131325   2.604   1.363   6.347 -3.5961  0.2334  2.8737
 6564SOL    HW231326   2.724   1.301   6.408  1.1916  2.7788 -2.7406
 6565SOL     OW31327   0.828   2.140   8.454  0.0496 -0.2305 -0.0366
 6565SOL    HW131328   0.831   2.236   8.461  0.8425 -0.3998  2.1538
 6565SOL    HW231329   0.765   2.130   8.383  1.1871  0.1458 -1.0918
 6566SOL     OW31330   3.624   4.551   5.213 -0.3922  0.5436 -0.4171
 6566SOL    HW131331   3.637   4.459   5.192  0.7855  0.5061  0.4977
 6566SOL    HW231332   3.697   4.587   5.162  1.2746 -0.4104  1.3097
 6567SOL     OW31333   3.209   0.596   9.768  0.4797 -0.1843 -0.6870
 6567SOL    HW131334   3.208   0.611   9.674  3.0884 -2.1557 -1.0340
 6567SOL    HW231335   3.144   0.662   9.793  0.8613 -0.5684  1.3548
 6568SOL     OW31336   0.237   4.046   5.596 -0.2382  0.6978 -0.0239
 6568SOL    HW131337   0.188   4.127   5.610  1.3801  1.1934  2.6922
 6568SOL    HW231338   0.216   3.986   5.668 -0.6227  0.5264 -0.2769
 6569SOL     OW31339   0.267   1.910   6.613  0.3072 -0.4619  0.1672
 6569SOL    HW131340   0.212   1.838   6.644  0.6377 -0.6118  0.4092
 6569SOL    HW231341   0.329   1.864   6.557 -0.5059 -0.0134 -1.1018
 6570SOL     OW31342   2.116   4.043  12.067  0.7920 -0.0952  0.0898
 6570SOL    HW131343   2.045   4.057  12.128  0.8969 -0.1276  0.2199
 6570SOL    HW231344   2.143   3.954  12.092 -2.1519 -0.6343  1.2755
 6571SOL     OW31345   1.278   1.301   2.655 -0.2927 -0.3864  0.0360
 6571SOL    HW131346   1.242   1.386   2.632  1.0387  0.1365 -0.0843
 6571SOL    HW231347   1.277   1.256   2.570 -0.2454  2.3947 -1.4092
 6572SOL     OW31348   4.104   2.700  10.334 -0.1156 -0.0650 -0.0410
 6572SOL    HW131349   4.095   2.727  10.243 -2.5397 -1.3468 -0.1670
 6572SOL    HW231350   4.141   2.612  10.320 -0.7937 -0.5326  1.1441
 6573SOL     OW31351   0.388   1.072   6.368 -0.4438 -0.1558  0.2256
 6573SOL    HW131352   0.424   1.012   6.434  0.1999 -0.3500 -0.3070
 6573SOL    HW231353   0.468   1.123   6.355 -1.4533  1.1177 -0.9411
 6574SOL     OW31354   1.678   0.020  15.506 -0.4333  0.3785 -0.1087
 6574SOL    HW131355   1.598   0.062  15.538 -0.7706  0.6424 -1.3025
 6574SOL    HW231356   1.650   4.682  15.458  0.7382 -0.8532  1.2450
 6575SOL     OW31357   2.285   1.371  16.347 -0.3559 -0.2442  0.0124
 6575SOL    HW131358   2.264   1.283  16.378 -0.9394 -0.2855 -0.5032
 6575SOL    HW231359   2.321   1.397  16.432 -1.6353  1.3056  0.0750
 6576SOL     OW31360   1.023   3.011   8.446  0.1053 -0.4297  0.0783
 6576SOL    HW131361   1.112   3.000   8.411 -0.5222  0.0710 -1.6496
 6576SOL    HW231362   1.010   2.922   8.477  2.7470 -0.4341  1.2324
 6577SOL     OW31363   0.092   0.234   5.024  0.1161 -0.0974  0.2407
 6577SOL    HW131364   0.122   0.152   4.985  1.7548 -0.1282  1.5732
 6577SOL    HW231365   0.148   0.239   5.102  1.6522 -0.4680 -0.8514
 6578SOL     OW31366   0.328   0.112   7.844  0.1718 -0.3237  0.1208
 6578SOL    HW131367   0.354   0.042   7.784 -0.0113 -2.4326  2.5234
 6578SOL    HW231368   0.278   0.066   7.911 -1.1328  1.1398  0.1623
 6579SOL     OW31369   1.981   3.905   9.285  0.4061 -0.5251 -0.2670
 6579SOL    HW131370   1.957   3.890   9.194  1.8543 -1.8994 -0.4214
 6579SOL    HW231371   1.931   3.975   9.327  0.3238 -0.1853 -0.9343
 6580SOL     OW31372   0.383   1.074   5.329  0.1348  0.4493 -0.4732
 6580SOL    HW131373   0.321   1.079   5.256  0.8836  3.5819 -0.9145
 6580SOL    HW231374   0.335   1.044   5.406  2.9533  2.5611  2.1410
 6581SOL     OW31375   4.255   0.040   2.956 -0.3211 -0.2067 -0.0912
 6581SOL    HW131376   4.185   0.063   3.017 -0.5684 -0.4796 -0.2744
 6581SOL    HW231377   4.309   0.119   2.948 -0.2222 -0.5362 -2.6340
 6582SOL     OW31378   3.210   2.711  13.725 -0.0460 -0.0956 -0.5014
 6582SOL    HW131379   3.220   2.688  13.633  1.5915 -0.5603 -0.2171
 6582SOL    HW231380   3.296   2.690  13.763 -0.0983  0.7412  0.0951
 6583SOL     OW31381   3.162   4.617   5.940 -0.1220  0.3503 -0.0442
 6583SOL    HW131382   3.182   4.708   5.917 -0.6029  0.3076 -0.6475
 6583SOL    HW231383   3.072   4.627   5.972 -0.7632 -3.1721 -0.8352
 6584SOL     OW31384   3.812   2.352   7.265  0.1632  0.0454 -0.3505
 6584SOL    HW131385   3.775   2.279   7.216  0.5405  0.5752 -1.4221
 6584SOL    HW231386   3.878   2.312   7.322  0.3468  1.2360  0.2656
 6585SOL     OW31387   1.711   2.800   2.134  0.5077 -0.3367 -0.0422
 6585SOL    HW131388   1.618   2.789   2.114  1.1060 -0.9866 -2.4952
 6585SOL    HW231389   1.742   2.711   2.149  0.4199 -0.3776 -0.0999
 6586SOL     OW31390   2.374   0.266   2.035  0.1088 -0.1756  0.3960
 6586SOL    HW131391   2.363   0.308   1.950 -2.8881 -0.1824  0.7821
 6586SOL    HW231392   2.320   0.321   2.092 -1.5996 -1.7860  0.3287
 6587SOL     OW31393   2.932   1.784   7.720  0.6302 -0.2792 -0.3922
 6587SOL    HW131394   2.843   1.784   7.754  0.6522  1.5405 -0.3254
 6587SOL    HW231395   2.986   1.752   7.792  0.6824 -0.2804 -0.4320
 6588SOL     OW31396   0.929   3.191   8.925  0.4439 -0.1209 -0.1449
 6588SOL    HW131397   0.905   3.281   8.904  0.7603 -0.0413 -0.1799
 6588SOL    HW231398   0.860   3.145   8.878 -1.3829  2.3110  0.1961
 6589SOL     OW31399   0.278   1.351   7.864 -0.4727  0.1459 -0.0682
 6589SOL    HW131400   0.301   1.289   7.795 -1.6573 -0.5782  0.2046
 6589SOL    HW231401   0.367   1.381   7.883 -1.1379  1.3193  1.2460
 6590SOL     OW31402   0.610   1.213   7.801  0.0752  0.1815 -0.0473
 6590SOL    HW131403   0.699   1.244   7.815 -1.0961  2.4873  2.2427
 6590SOL    HW231404   0.559   1.274   7.853  0.5202  0.8616 -0.4172
 6591SOL     OW31405   0.551   2.096  14.979 -0.5898  0.0972  0.6624
 6591SOL    HW131406   0.582   2.068  14.893  1.5019 -0.7289  1.6886
 6591SOL    HW231407   0.568   2.009  15.013  0.6425  0.1252  0.1174
 6592SOL     OW31408   0.398   2.853  12.780  0.4148  0.1926  0.3392
 6592SOL    HW131409   0.387   2.941  12.744 -1.4599 -1.2556 -2.6593
 6592SOL    HW231410   0.410   2.797  12.703  0.7520 -1.8688  1.8849
 6593SOL     OW31411   4.066   4.024   1.299  0.4414 -0.1033  0.4229
 6593SOL    HW131412   4.150   4.056   1.266  1.0215 -1.4570  0.5782
 6593SOL    HW231413   4.075   3.937   1.261 -1.1313  0.3042 -0.8901
 6594SOL     OW31414   1.732   0.382   8.634  0.1055  0.6984  0.1211
 6594SOL    HW131415   1.729   0.438   8.556  0.3449  0.7054  0.1164
 6594SOL    HW231416   1.794   0.319   8.597 -0.3265  2.3593 -3.4286
 6595SOL     OW31417   4.408   3.580   7.724 -0.0046 -0.0211  0.2822
 6595SOL    HW131418   4.418   3.486   7.739 -0.1362 -0.2086 -0.7537
 6595SOL    HW231419   4.491   3.601   7.680 -0.9125 -2.7237 -2.7944
 6596SOL     OW31420   2.667   2.669  12.896  0.0494  0.4431  0.9139
 6596SOL    HW131421   2.684   2.737  12.961  1.3173 -0.1661  1.2095
 6596SOL    HW231422   2.664   2.597  12.958 -2.7645  0.5936  0.9844
 6597SOL     OW31423   3.994   2.761   5.870 -0.3219 -0.0574  0.5826
 6597SOL    HW131424   3.934   2.835   5.867 -0.9210 -0.6001 -0.5883
 6597SOL    HW231425   4.073   2.799   5.832 -0.3073 -0.2754  0.3953
 6598SOL     OW31426   1.286   0.283   5.327  0.1102 -0.3768  0.5758
 6598SOL    HW131427   1.225   0.219   5.290  0.8848 -2.2057  2.4680
 6598SOL    HW231428   1.294   0.353   5.261  1.6132 -2.9952 -1.9994
 6599SOL     OW31429   4.548   2.338   4.992 -0.4431  0.5550 -0.4798
 6599SOL    HW131430   4.499   2.285   5.056  2.6490 -0.7813  0.7982
 6599SOL    HW231431   4.600   2.397   5.047 -1.5140  1.5401 -0.5133
 6600SOL     OW31432   1.530   1.652  10.868  0.3341  0.3991 -0.3838
 6600SOL    HW131433   1.594   1.584  10.890  0.4558  0.9625  1.0350
 6600SOL    HW231434   1.456   1.630  10.926 -1.6320  2.8840 -1.9713
 6601SOL     OW31435   2.080   0.512   5.120 -0.6364 -0.1190 -0.2127
 6601SOL    HW131436   2.071   0.420   5.095  1.5974 -0.8832  1.7603
 6601SOL    HW231437   2.060   0.548   5.034  0.7281  0.6759 -0.1854
 6602SOL     OW31438   4.379   3.778   2.797  0.2607 -0.6952 -0.0327
 6602SOL    HW131439   4.345   3.701   2.842 -3.2655  0.6288 -0.3833
 6602SOL    HW231440   4.376   3.844   2.867 -2.3545 -0.5808 -0.2280
 6603SOL     OW31441   0.870   3.091   2.049 -0.2062  0.0303 -0.8239
 6603SOL    HW131442   0.905   3.039   2.122  0.7338 -1.2443 -2.1767
 6603SOL    HW231443   0.811   3.035   1.997  1.7815 -0.2830 -2.7492
 6604SOL     OW31444   3.760   1.168   2.594 -0.4267 -0.1005 -0.7114
 6604SOL    HW131445   3.823   1.135   2.658 -0.9060 -1.2673 -0.8256
 6604SOL    HW231446   3.688   1.172   2.657 -0.7369 -2.1416 -0.9105
 6605SOL     OW31447   1.590   2.201   2.566 -0.6108  0.1258 -0.6741
 6605SOL    HW131448   1.676   2.168   2.541 -1.1354 -2.2076  0.5960
 6605SOL    HW231449   1.604   2.262   2.638 -2.3193 -1.7697  1.2706
 6606SOL     OW31450   0.708   0.608  11.240 -0.1042 -0.2550  0.5241
 6606SOL    HW131451   0.756   0.548  11.297  0.7809  1.4310  1.5128
 6606SOL    HW231452   0.649   0.547  11.195  0.1910  0.0346 -0.2536
 6607SOL     OW31453   1.543   3.153   7.321 -0.0269 -0.0301  0.2788
 6607SOL    HW131454   1.486   3.215   7.366 -0.8144  0.3601 -1.2741
 6607SOL    HW231455   1.612   3.207   7.282  0.1816  1.5474  2.8126
 6608SOL     OW31456   4.316   2.440   6.239 -0.6777 -0.1837  0.0220
 6608SOL    HW131457   4.299   2.391   6.158  0.9449  1.1004 -1.1107
 6608SOL    HW231458   4.328   2.367   6.299  1.3657  0.6473  0.6443
 6609SOL     OW31459   3.478   0.093  12.017 -0.0938  0.4424 -0.2881
 6609SOL    HW131460   3.515   0.182  12.011 -2.1763  1.2632 -1.0332
 6609SOL    HW231461   3.482   0.064  11.926 -1.1934  2.2195 -0.9173
 6610SOL     OW31462   1.970   4.416   1.336  0.1294  0.5051  0.9533
 6610SOL    HW131463   1.989   4.425   1.429  1.0361  2.1550  0.6101
 6610SOL    HW231464   1.875   4.422   1.349 -0.2293  1.8622 -2.1615
 6611SOL     OW31465   1.613   4.074   6.646  0.6671 -0.0237 -0.0250
 6611SOL    HW131466   1.584   4.116   6.727  1.8076  1.3240 -0.3205
 6611SOL    HW231467   1.672   4.143   6.617 -0.0636  0.1576 -1.1003
 6612SOL     OW31468   0.920   4.403   7.802  0.0215  0.1230 -0.0216
 6612SOL    HW131469   0.841   4.350   7.791 -0.2122  0.2260  1.2068
 6612SOL    HW231470   0.947   4.384   7.892  1.4881  0.3914 -0.4044
 6613SOL     OW31471   3.199   4.081   4.265 -0.0507  0.2476  0.0642
 6613SOL    HW131472   3.247   4.043   4.339 -1.0497 -3.0548 -0.9849
 6613SOL    HW231473   3.154   4.008   4.224  1.0345 -0.6721  0.5159
 6614SOL     OW31474   3.566   1.297   1.936  0.5880  0.1560  0.2357
 6614SOL    HW131475   3.627   1.259   2.000 -1.3963 -1.0210  1.4314
 6614SOL    HW231476   3.504   1.333   2.000 -0.4724 -0.5526 -0.3867
 6615SOL     OW31477   0.037   2.337   8.442  0.7011 -0.6267 -0.2440
 6615SOL    HW131478   0.025   2.252   8.485  0.9488 -1.5481 -1.9958
 6615SOL    HW231479   0.093   2.376   8.509 -1.9467  1.5640  0.6838
 6616SOL     OW31480   3.249   3.406   3.727 -0.4460  0.1194  0.6311
 6616SOL    HW131481   3.277   3.322   3.691 -1.4150  0.8392 -1.7429
 6616SOL    HW231482   3.155   3.394   3.743 -0.6321 -1.6723 -1.9361
 6617SOL     OW31483   0.783   1.213   3.732 -0.3068 -0.6265  0.0472
 6617SOL    HW131484   0.858   1.154   3.729  0.6753  0.5141  2.0796
 6617SOL    HW231485   0.725   1.173   3.668 -3.0856  1.0705  1.5145
 6618SOL     OW31486   0.803   3.584   1.248 -0.1668 -0.2554 -0.1916
 6618SOL    HW131487   0.866   3.652   1.224 -0.6832  0.9631  1.9342
 6618SOL    HW231488   0.848   3.535   1.316  3.3742  3.3732  0.1467
 6619SOL     OW31489   1.655   4.353   1.119  0.6379  0.3072  0.3581
 6619SOL    HW131490   1.563   4.378   1.109  0.3086 -1.3114 -0.6986
 6619SOL    HW231491   1.696   4.423   1.069 -1.9794  1.1373 -0.6113
 6620SOL     OW31492   3.225   3.901   4.519 -0.6692  0.0660 -0.2576
 6620SOL    HW131493   3.139   3.892   4.558  0.2034 -1.0759  1.4001
 6620SOL    HW231494   3.220   3.819   4.471 -0.5088  0.3963 -0.8470
 6621SOL     OW31495   2.033   1.553   7.388  0.3192  0.0071  0.1573
 6621SOL    HW131496   1.989   1.629   7.425  0.5050  0.1603  0.0610
 6621SOL    HW231497   1.962   1.489   7.394  2.3142 -2.3431 -0.8167
 6622SOL     OW31498   4.111   1.951   5.289  0.2878  0.5818  0.0353
 6622SOL    HW131499   4.197   1.922   5.258 -1.1433 -2.7647 -0.7862
 6622SOL    HW231500   4.053   1.931   5.216  1.8022 -4.7218  0.2201
 6623SOL     OW31501   3.344   2.511   6.893 -0.2492  0.3139 -0.0972
 6623SOL    HW131502   3.269   2.558   6.856  0.0177 -1.1532 -2.4677
 6623SOL    HW231503   3.374   2.461   6.818  0.5850  0.9358 -0.1733
 6624SOL     OW31504   1.763   1.391   5.853 -0.0539 -0.3231 -0.1775
 6624SOL    HW131505   1.730   1.372   5.765  1.1326  1.8739 -1.0891
 6624SOL    HW231506   1.784   1.306   5.893  1.0783  0.3868  0.7231
 6625SOL     OW31507   2.123   4.220   5.129  0.0862 -0.0052 -0.8158
 6625SOL    HW131508   2.169   4.175   5.200 -0.7927 -1.0224 -0.8951
 6625SOL    HW231509   2.109   4.142   5.076  3.1659 -0.6233 -0.6840
 6626SOL     OW31510   0.821   2.862  11.037  0.0601 -0.3139  0.7156
 6626SOL    HW131511   0.904   2.910  11.038  0.2417 -0.6887  3.8331
 6626SOL    HW231512   0.789   2.892  11.122 -1.6386  0.9979 -0.3791
 6627SOL     OW31513   0.536   0.656   5.697  0.7678 -0.6028 -0.8577
 6627SOL    HW131514   0.562   0.691   5.782 -1.2243  0.4604 -0.6775
 6627SOL    HW231515   0.478   0.587   5.730 -0.0843 -0.2107 -1.5471
 6628SOL     OW31516   0.377   3.669   4.024 -0.0184  0.4401 -0.2681
 6628SOL    HW131517   0.398   3.709   4.108 -1.4563  0.7606 -0.0588
 6628SOL    HW231518   0.384   3.580   4.059  1.8514  0.2674 -1.1152
 6629SOL     OW31519   2.566   4.382  14.887  0.2855  0.4009 -0.1948
 6629SOL    HW131520   2.638   4.353  14.830  0.3311  0.0323  0.0568
 6629SOL    HW231521   2.549   4.296  14.925 -0.4878  1.1871  1.2126
 6630SOL     OW31522   1.727   4.630  16.723 -0.8222  0.2936 -0.2961
 6630SOL    HW131523   1.810   4.614  16.678 -0.5383  0.7439  0.0599
 6630SOL    HW231524   1.761   4.700  16.779 -4.3470  0.8126  1.1460
 6631SOL     OW31525   1.495   0.497   6.254  0.4371 -0.9235  0.1482
 6631SOL    HW131526   1.554   0.549   6.200 -0.5454 -0.3451 -0.3806
 6631SOL    HW231527   1.497   0.544   6.337  0.0107 -0.6783  0.0238
 6632SOL     OW31528   2.402   0.188  16.064  0.5525  0.0672 -0.2525
 6632SOL    HW131529   2.475   0.249  16.057 -0.1691  1.0715  1.0057
 6632SOL    HW231530   2.328   0.243  16.090  1.3014  1.2606 -0.7067
 6633SOL     OW31531   3.527   3.264  10.089 -0.2469  0.1207  0.0400
 6633SOL    HW131532   3.518   3.260  10.184  0.1822 -0.0583  0.0751
 6633SOL    HW231533   3.603   3.322  10.082 -0.7009  0.5000 -1.6882
 6634SOL     OW31534   3.728   4.269  12.524  0.7357  0.2122  0.3428
 6634SOL    HW131535   3.682   4.241  12.446  0.6717 -0.2168  0.5338
 6634SOL    HW231536   3.766   4.352  12.494  0.0732  0.1962 -0.5416
 6635SOL     OW31537   0.627   4.070  14.243 -0.4564 -0.5675  0.1293
 6635SOL    HW131538   0.533   4.071  14.229 -0.4767 -2.3992  0.1742
 6635SOL    HW231539   0.643   4.093  14.335  1.6048 -0.4117 -0.2687
 6636SOL     OW31540   4.134   2.130   2.319  0.4465  0.0575 -0.1084
 6636SOL    HW131541   4.204   2.102   2.378  0.9287 -0.6884 -1.0419
 6636SOL    HW231542   4.066   2.075   2.359 -2.2395  2.1242 -1.8220
 6637SOL     OW31543   4.733   4.530   4.078 -0.3446 -0.6888  0.4973
 6637SOL    HW131544   0.022   4.471   4.009  0.9733 -0.4639  0.8903
 6637SOL    HW231545   0.062   4.594   4.072 -0.5389 -0.7821 -2.3933
 6638SOL     OW31546   3.129   1.742  16.741  0.0270 -0.4031 -0.2689
 6638SOL    HW131547   3.129   1.826  16.788  2.3088 -0.5978  0.0888
 6638SOL    HW231548   3.132   1.775  16.651 -0.5597 -0.2545 -0.2369
 6639SOL     OW31549   3.156   3.613  14.700 -0.6041  0.1483 -0.0475
 6639SOL    HW131550   3.166   3.524  14.666  1.2128  0.1543  0.4598
 6639SOL    HW231551   3.120   3.606  14.789 -0.7549 -0.5799 -0.1580
 6640SOL     OW31552   0.358   2.510   5.550 -0.3362 -0.1923  0.2873
 6640SOL    HW131553   0.351   2.456   5.628 -0.0139  1.2555  1.3216
 6640SOL    HW231554   0.286   2.487   5.491 -0.3922 -0.4593  0.4626
 6641SOL     OW31555   0.535   1.551  13.632 -0.3049 -0.6036  0.1349
 6641SOL    HW131556   0.537   1.644  13.610 -2.2420 -0.7284 -0.5509
 6641SOL    HW231557   0.623   1.513  13.631  0.3356  0.8917 -0.9518
 6642SOL     OW31558   3.601   2.814   8.642  0.0536  0.0952  0.0895
 6642SOL    HW131559   3.620   2.905   8.619 -0.3247 -0.0240 -0.6837
 6642SOL    HW231560   3.644   2.770   8.569  1.6278 -0.9639  1.6471
 6643SOL     OW31561   4.301   1.106   7.787  0.2108  0.0503 -0.8108
 6643SOL    HW131562   4.240   1.070   7.723 -0.7364  0.5712 -0.2026
 6643SOL    HW231563   4.345   1.181   7.747 -1.8762  0.5456 -2.1954
 6644SOL     OW31564   4.068   0.599   7.467 -0.8389 -0.5614  0.3014
 6644SOL    HW131565   4.006   0.665   7.435  1.3081  0.9469 -0.8107
 6644SOL    HW231566   4.130   0.650   7.519  0.1439  0.0866 -1.4919
 6645SOL     OW31567   0.184   0.485   2.876  0.7823  0.9102  0.9311
 6645SOL    HW131568   0.139   0.402   2.862 -0.8264  1.5249  2.5278
 6645SOL    HW231569   0.279   0.472   2.881  0.9134  1.3934 -0.2216
 6646SOL     OW31570   0.597   2.845   8.313 -0.4995  0.0287  0.0191
 6646SOL    HW131571   0.520   2.797   8.343 -0.2708  0.2587  0.9777
 6646SOL    HW231572   0.563   2.933   8.334 -0.8561  0.1055 -0.9179
 6647SOL     OW31573   4.118   2.325   4.980  0.0967  0.3639  0.0798
 6647SOL    HW131574   4.140   2.256   4.917 -0.7292 -0.1623  0.3581
 6647SOL    HW231575   4.033   2.363   4.958 -0.2429 -0.7632 -0.5748
 6648SOL     OW31576   2.830   3.775   3.820 -0.0388 -0.3980  0.9098
 6648SOL    HW131577   2.825   3.736   3.907  0.9685  0.2823  1.2680
 6648SOL    HW231578   2.923   3.776   3.795 -0.4792 -2.7064 -0.8942
 6649SOL     OW31579   0.093   0.659   4.097  0.2391  0.0125  0.5644
 6649SOL    HW131580   0.025   0.725   4.081  1.2358  0.6613 -0.9569
 6649SOL    HW231581   0.171   0.713   4.103  0.3272  0.2652 -3.0320
 6650SOL     OW31582   1.385   4.394  11.301 -0.3771 -0.2191 -0.0840
 6650SOL    HW131583   1.472   4.408  11.338 -1.5833  2.3346  1.8174
 6650SOL    HW231584   1.331   4.440  11.365  1.3644 -1.5140  2.3098
 6651SOL     OW31585   3.942   2.313  16.536 -0.6745 -0.2785 -0.1909
 6651SOL    HW131586   3.893   2.282  16.460  2.2030 -2.3419 -1.2232
 6651SOL    HW231587   4.015   2.354  16.489  0.0103 -0.2301  0.9153
 6652SOL     OW31588   2.151   1.826   1.281  0.4074  0.1205 -0.2252
 6652SOL    HW131589   2.224   1.851   1.224 -0.2773  0.8683 -0.7819
 6652SOL    HW231590   2.166   1.734   1.300  2.4472  1.1139  2.9144
 6653SOL     OW31591   3.890   4.624   6.264  0.4030  0.0857 -0.0519
 6653SOL    HW131592   3.863   4.598   6.352  0.6827 -1.4086 -0.4070
 6653SOL    HW231593   3.984   4.609   6.270  0.5683  1.5654  1.0853
 6654SOL     OW31594   2.688   2.521   6.743 -0.4718 -0.6375  0.3213
 6654SOL    HW131595   2.691   2.484   6.654 -0.6280 -2.7693  1.2166
 6654SOL    HW231596   2.710   2.440   6.788 -0.4908 -1.5212 -1.2452
 6655SOL     OW31597   1.806   3.548   2.733 -0.6281 -0.1409 -0.6589
 6655SOL    HW131598   1.776   3.458   2.722  0.1391 -0.6448  1.2510
 6655SOL    HW231599   1.785   3.571   2.824  0.1499 -1.7699 -0.0707
 6656SOL     OW31600   2.954   0.312   6.238 -0.2947  0.5873 -0.3250
 6656SOL    HW131601   2.893   0.277   6.173 -0.0084 -0.8176  0.1483
 6656SOL    HW231602   2.933   0.279   6.326 -0.7450  1.5439 -0.0817
 6657SOL     OW31603   0.424   0.312   5.968  0.1391  0.5505 -0.1147
 6657SOL    HW131604   0.514   0.318   5.935  1.2494 -0.1695  2.7816
 6657SOL    HW231605   0.445   0.257   6.043 -1.6112  1.1724  0.8340
 6658SOL     OW31606   1.981   0.727   5.268  0.3336 -0.1009 -0.1331
 6658SOL    HW131607   1.999   0.646   5.219 -1.3206 -0.0040 -0.8770
 6658SOL    HW231608   2.070   0.747   5.297  0.7919 -0.0032 -1.6213
 6659SOL     OW31609   2.404   4.055  15.258  0.2885  0.1186  0.0489
 6659SOL    HW131610   2.388   3.960  15.259 -3.8729  0.7899 -1.4628
 6659SOL    HW231611   2.371   4.092  15.339  0.2756  3.5676 -1.5545
 6660SOL     OW31612   2.112   2.951   5.614 -0.0629 -0.2224 -1.3235
 6660SOL    HW131613   2.158   2.896   5.550  0.0333 -1.3911 -0.2517
 6660SOL    HW231614   2.167   2.944   5.692 -0.2721 -0.9970 -1.2489
 6661SOL     OW31615   0.551   2.290   2.250  0.5719  0.0681 -0.3290
 6661SOL    HW131616   0.496   2.226   2.295  1.3062 -1.2788 -1.3400
 6661SOL    HW231617   0.602   2.321   2.325 -0.6233  0.2524  0.4150
 6662SOL     OW31618   0.113   0.168  11.238  0.7031  0.0353  0.0548
 6662SOL    HW131619   0.177   0.231  11.273 -0.7206  1.7567 -0.4369
 6662SOL    HW231620   0.054   0.225  11.189 -0.5453 -1.3945 -0.1070
 6663SOL     OW31621   3.228   3.047  10.187  0.1028  0.3584  0.9486
 6663SOL    HW131622   3.152   3.012  10.140  0.8524  3.2199 -2.4534
 6663SOL    HW231623   3.254   2.966  10.229  1.4593 -0.4674 -1.5273
 6664SOL     OW31624   2.797   4.150   2.174  0.4050  0.1502 -0.2524
 6664SOL    HW131625   2.826   4.234   2.138  1.0102 -0.2368 -0.6658
 6664SOL    HW231626   2.831   4.156   2.263 -1.2334  2.3228  0.2138
 6665SOL     OW31627   3.485   3.511   2.141  0.0078  0.4311  0.1677
 6665SOL    HW131628   3.448   3.452   2.075 -0.8995  0.4608  0.6497
 6665SOL    HW231629   3.413   3.568   2.166  1.1889  1.2216  1.7069
 6666SOL     OW31630   2.679   2.806  10.880 -0.4022 -0.3062 -0.0605
 6666SOL    HW131631   2.587   2.831  10.879 -0.1600  0.6587  1.5600
 6666SOL    HW231632   2.715   2.850  10.802 -1.4830 -0.4389 -0.6232
 6667SOL     OW31633   1.210   2.716   9.822  0.2109 -0.3035  0.2571
 6667SOL    HW131634   1.224   2.622   9.833  1.8092  0.1184  1.9536
 6667SOL    HW231635   1.159   2.719   9.741  0.9380 -2.4492 -0.3038
 6668SOL     OW31636   1.126   1.220   3.827 -0.1191  0.1190 -0.2480
 6668SOL    HW131637   1.132   1.287   3.759  1.8139 -0.6631 -0.8487
 6668SOL    HW231638   1.136   1.258   3.915  0.2373 -3.5864  1.2794
 6669SOL     OW31639   2.202   1.605   4.709  0.2844 -0.0437 -0.3497
 6669SOL    HW131640   2.239   1.687   4.676  0.6414  0.5403  1.5064
 6669SOL    HW231641   2.278   1.555   4.738 -1.0007 -3.1565 -2.3169
 6670SOL     OW31642   0.117   4.268   1.213  0.0665  0.1252 -0.5197
 6670SOL    HW131643   0.055   4.280   1.286  0.3497 -0.2787 -0.2134
 6670SOL    HW231644   0.193   4.300   1.262 -0.1805 -0.1042  0.0200
 6671SOL     OW31645   0.006   0.342  11.052 -0.1675 -0.0550 -0.1413
 6671SOL    HW131646   4.670   0.352  11.109  0.4237  0.6723  0.5304
 6671SOL    HW231647   4.713   0.368  10.966 -1.9090 -0.7813  0.3195
 6672SOL     OW31648   0.181   3.860   5.807 -0.7066 -0.5628  0.3611
 6672SOL    HW131649   0.201   3.897   5.893  0.2058 -0.6197  0.1766
 6672SOL    HW231650   0.215   3.771   5.810  4.0773  1.1830 -1.8980
 6673SOL     OW31651   4.223   0.796   9.053 -0.8923  0.2590 -0.0142
 6673SOL    HW131652   4.261   0.783   9.140 -0.4696 -1.3967 -0.4414
 6673SOL    HW231653   4.174   0.714   9.056 -2.4878  1.2644  1.0491
 6674SOL     OW31654   3.700   4.251  17.193  0.0819  0.0490 -0.1377
 6674SOL    HW131655   3.790   4.258  17.160  1.3839  2.2412  3.8299
 6674SOL    HW231656   3.692   4.342  17.224  0.7485  0.2576 -0.5776
 6675SOL     OW31657   2.739   2.848   1.649  0.0422  0.3147  0.6493
 6675SOL    HW131658   2.719   2.780   1.713 -1.2523 -0.8210 -0.9540
 6675SOL    HW231659   2.773   2.917   1.705  1.9446  0.3902 -0.5659
 6676SOL     OW31660   3.236   0.936  12.795 -0.7960 -0.1930  0.1922
 6676SOL    HW131661   3.163   0.963  12.850 -0.0475  1.3328  0.4433
 6676SOL    HW231662   3.188   0.872  12.743 -0.1426 -0.3987 -0.1571
 6677SOL     OW31663   2.201   3.791  12.151 -0.3464 -0.0402 -0.3509
 6677SOL    HW131664   2.263   3.778  12.223 -0.6892  2.3317  0.3902
 6677SOL    HW231665   2.163   3.707  12.127  1.0981 -0.0015 -2.7579
 6678SOL     OW31666   3.336   4.662   5.650  0.3921  0.1235 -0.1048
 6678SOL    HW131667   3.289   4.648   5.732  2.3703 -0.9849  0.8376
 6678SOL    HW231668   3.420   4.702   5.672 -0.0549 -0.0104  1.8040
 6679SOL     OW31669   2.492   1.091   6.750 -0.6449  0.1612 -0.1386
 6679SOL    HW131670   2.464   1.054   6.667 -0.6861 -0.9246  0.3593
 6679SOL    HW231671   2.586   1.088   6.734 -0.7743 -1.0859 -0.6735
 6680SOL     OW31672   3.896   0.691   4.572 -0.5526 -0.4160 -0.1446
 6680SOL    HW131673   3.861   0.688   4.661  1.1779 -0.3997  0.5439
 6680SOL    HW231674   3.957   0.766   4.572  1.2848 -1.9173  1.5350
 6681SOL     OW31675   0.074   1.239   0.467  0.4004 -0.2194 -0.0177
 6681SOL    HW131676   0.121   1.304   0.520  0.9993 -1.7338  1.3047
 6681SOL    HW231677   0.106   1.158   0.506 -0.7017 -0.9793 -0.6890
 6682SOL     OW31678   3.213   0.171   1.050 -0.6935  0.0630  0.7232
 6682SOL    HW131679   3.167   0.131   0.976  0.1679  1.0336 -0.3377
 6682SOL    HW231680   3.268   0.239   1.012 -0.2439 -0.8082 -0.1877
 6683SOL     OW31681   0.834   3.368   0.125 -0.2927  0.0258 -0.0817
 6683SOL    HW131682   0.810   3.429   0.194  0.2743  0.6106 -0.4034
 6683SOL    HW231683   0.796   3.287   0.158  2.7815 -1.0314  0.9170
 6684SOL     OW31684   0.196   4.239   3.301  0.0449 -0.3229  0.3674
 6684SOL    HW131685   0.187   4.318   3.248  2.4621  1.4048  2.5101
 6684SOL    HW231686   0.208   4.167   3.239  0.1778 -1.6607  1.9346
 6685SOL     OW31687   2.663   1.919   9.332 -0.2007 -0.1898 -0.5725
 6685SOL    HW131688   2.740   1.946   9.283  1.3818 -2.0172  0.9341
 6685SOL    HW231689   2.666   1.824   9.327  1.8570 -0.1899  0.5302
 6686SOL     OW31690   2.436   2.448  13.139 -0.1282 -0.3068 -1.0335
 6686SOL    HW131691   2.526   2.423  13.120 -0.0589 -1.3812  0.6678
 6686SOL    HW231692   2.407   2.462  13.049 -0.0868  0.4834 -0.9166
 6687SOL     OW31693   2.034   1.566   4.898  0.1356 -0.0262  0.1245
 6687SOL    HW131694   2.010   1.474   4.901 -0.6060  0.1807  0.4468
 6687SOL    HW231695   2.100   1.566   4.828  1.3761 -0.9633  1.3023
 6688SOL     OW31696   1.568   4.556   1.633  0.9540 -0.4844  0.2475
 6688SOL    HW131697   1.563   4.614   1.709 -0.3449  2.5420 -2.1478
 6688SOL    HW231698   1.531   4.478   1.675 -1.2518 -0.5201 -1.8145
 6689SOL     OW31699   4.378   3.501  16.512  0.0113  0.3296 -0.3932
 6689SOL    HW131700   4.366   3.562  16.585  1.7400 -0.3046  0.4202
 6689SOL    HW231701   4.424   3.428  16.553  0.5377  2.2763  2.4711
 6690SOL     OW31702   3.081   3.326   7.852 -0.1626  0.4591  0.6174
 6690SOL    HW131703   3.077   3.381   7.930  1.9724 -0.6647  1.4997
 6690SOL    HW231704   3.048   3.385   7.784  2.2954 -0.1431 -1.1030
 6691SOL     OW31705   3.139   3.188   0.938  0.0032 -0.0903 -0.1678
 6691SOL    HW131706   3.057   3.145   0.964 -0.5593  0.0623 -1.6400
 6691SOL    HW231707   3.192   3.180   1.016 -0.4495 -1.7360 -0.0317
 6692SOL     OW31708   3.605   1.412   2.953  0.4430 -0.3257 -0.3412
 6692SOL    HW131709   3.601   1.413   3.049 -0.6373 -2.4790 -0.3606
 6692SOL    HW231710   3.700   1.414   2.944  0.1782  1.9568 -2.4710
 6693SOL     OW31711   0.982   1.518  12.325  0.0199  0.9862  0.3991
 6693SOL    HW131712   1.061   1.502  12.376 -1.4563 -3.4047  1.3163
 6693SOL    HW231713   1.012   1.480  12.243  1.1211 -0.2476  1.3763
 6694SOL     OW31714   2.195   0.872   4.303  0.4677  0.1392 -0.1440
 6694SOL    HW131715   2.164   0.882   4.213 -2.1726 -0.7187  0.6677
 6694SOL    HW231716   2.193   0.777   4.315 -0.2526  0.3646  1.5176
 6695SOL     OW31717   4.292   1.402   4.544 -0.1838  0.3102 -0.2545
 6695SOL    HW131718   4.200   1.431   4.539 -0.7821 -1.8206 -1.1214
 6695SOL    HW231719   4.305   1.383   4.637  0.1493  0.6952 -0.2209
 6696SOL     OW31720   3.865   4.679   3.234 -0.6095  0.3126 -0.2782
 6696SOL    HW131721   3.851   0.031   3.215 -0.6535  0.8728  2.5160
 6696SOL    HW231722   3.781   4.654   3.273  0.2910 -1.6140  0.4416
 6697SOL     OW31723   4.693   0.993   3.836 -0.0578 -0.2664  0.1420
 6697SOL    HW131724   4.654   0.955   3.758 -2.1135  0.9433  0.5778
 6697SOL    HW231725   0.023   0.936   3.865  1.7400  0.3949 -3.0522
 6698SOL     OW31726   0.667   0.455  16.889  0.5019  0.3518  0.2934
 6698SOL    HW131727   0.762   0.462  16.892  0.3401  2.3719  0.2828
 6698SOL    HW231728   0.640   0.408  16.969 -1.8637 -0.0129 -0.7176
 6699SOL     OW31729   4.684   2.504  13.355  0.9297  0.0253  0.6151
 6699SOL    HW131730   4.602   2.552  13.342 -0.6309 -2.8813 -0.3806
 6699SOL    HW231731   0.001   2.540  13.288 -3.6273 -0.0182 -3.2945
 6700SOL     OW31732   2.512   2.619  16.269  0.4979  0.3403 -0.6098
 6700SOL    HW131733   2.447   2.548  16.269 -1.2064  1.9137  2.1110
 6700SOL    HW231734   2.467   2.666  16.198  1.6487  1.5910 -0.5048
 6701SOL     OW31735   0.474   2.512   9.034 -0.7278  0.2431  0.1890
 6701SOL    HW131736   0.547   2.449   9.037  0.3035  1.4646  1.0128
 6701SOL    HW231737   0.471   2.529   8.940 -3.0254 -0.9372  0.0631
 6702SOL     OW31738   1.014   2.410   5.548  0.3391  0.5229 -0.2838
 6702SOL    HW131739   1.059   2.353   5.485  2.1180  0.5935  0.9431
 6702SOL    HW231740   0.923   2.399   5.522  0.5188  0.7262 -0.9923
 6703SOL     OW31741   4.718   1.721   2.949 -0.1540 -0.4443 -0.6994
 6703SOL    HW131742   4.628   1.729   2.981 -0.3849 -1.8030 -1.0109
 6703SOL    HW231743   0.016   1.673   3.022 -1.3429  0.6690  0.6747
 6704SOL     OW31744   1.515   1.370   8.625  0.6652 -0.0486  0.6658
 6704SOL    HW131745   1.434   1.386   8.674  1.6621 -0.0834  2.3278
 6704SOL    HW231746   1.571   1.324   8.688  0.7435 -0.3501  0.3706
 6705SOL     OW31747   3.935   0.088  16.113  0.0458 -0.2536 -0.6153
 6705SOL    HW131748   4.020   0.114  16.149  0.8523 -2.5553 -0.8544
 6705SOL    HW231749   3.956   0.023  16.046  0.1639 -1.0640  0.2105
 6706SOL     OW31750   3.139   1.030   3.063 -0.1496  0.1643  0.2032
 6706SOL    HW131751   3.097   0.953   3.102 -0.8632  1.3901  1.8414
 6706SOL    HW231752   3.064   1.082   3.035 -0.4665 -0.7259 -0.6118
 6707SOL     OW31753   3.018   0.925   8.839  0.3540 -0.1125  0.1889
 6707SOL    HW131754   2.985   1.011   8.814 -0.8254 -0.4263  0.6837
 6707SOL    HW231755   3.073   0.944   8.915  0.7913 -1.4624  0.1987
 6708SOL     OW31756   1.781   1.293   7.899 -0.5878 -0.1726 -0.0563
 6708SOL    HW131757   1.876   1.305   7.891 -0.7279  0.0596 -1.4462
 6708SOL    HW231758   1.752   1.384   7.908  1.0840  0.6870 -3.1271
 6709SOL     OW31759   1.517   2.256   8.215 -0.2255 -0.6180 -0.6251
 6709SOL    HW131760   1.441   2.200   8.229 -1.3745  1.0494 -0.0797
 6709SOL    HW231761   1.509   2.271   8.121  0.2174 -0.2360 -0.6058
 6710SOL     OW31762   2.431   2.153   4.690 -0.3315 -0.3061 -0.5087
 6710SOL    HW131763   2.380   2.234   4.688 -0.2244 -0.2198  0.0861
 6710SOL    HW231764   2.424   2.156   4.786  1.7016 -1.5975 -0.3269
 6711SOL     OW31765   1.746   3.297   8.289 -0.1201 -0.2974  0.2532
 6711SOL    HW131766   1.834   3.270   8.315  0.4087  0.7921 -0.4540
 6711SOL    HW231767   1.767   3.390   8.288  1.4044 -0.6445  0.1510
 6712SOL     OW31768   4.528   3.217   7.354 -0.0949  0.0437 -0.0169
 6712SOL    HW131769   4.502   3.258   7.436 -1.1927  2.0276 -1.3369
 6712SOL    HW231770   4.468   3.143   7.350  0.3393 -0.3324  0.6186
 6713SOL     OW31771   2.512   2.177  16.979 -0.1471  0.1195 -0.5014
 6713SOL    HW131772   2.502   2.085  16.951  0.7509 -1.4920  4.5245
 6713SOL    HW231773   2.604   2.196  16.962  0.4342 -0.9210  1.4144
 6714SOL     OW31774   0.758   3.538   2.628 -0.0883  0.1151 -0.1990
 6714SOL    HW131775   0.783   3.549   2.720  0.4844  0.3347 -0.3853
 6714SOL    HW231776   0.736   3.630   2.615 -0.0264  0.5125  2.4172
 6715SOL     OW31777   2.584   3.312   2.266  0.7906  0.0624 -0.3040
 6715SOL    HW131778   2.583   3.234   2.321  1.9284  1.0442  1.1012
 6715SOL    HW231779   2.588   3.260   2.186 -0.6995 -2.1278  1.0602
 6716SOL     OW31780   3.054   0.781  12.644  0.5032  0.1415 -0.1729
 6716SOL    HW131781   2.973   0.741  12.673 -0.3701  2.0756  0.0735
 6716SOL    HW231782   3.022   0.828  12.566 -3.8210 -0.5394  1.2411
 6717SOL     OW31783   0.876   4.119  13.311  0.1319  0.7077 -0.0386
 6717SOL    HW131784   0.970   4.131  13.314  0.3621 -1.5858  2.5659
 6717SOL    HW231785   0.867   4.077  13.397  0.1362 -1.3612 -1.0551
 6718SOL     OW31786   3.000   2.597   8.298 -0.0093 -0.8468  0.4861
 6718SOL    HW131787   3.005   2.569   8.206 -0.5104 -0.0206  0.2054
 6718SOL    HW231788   2.921   2.554   8.330 -0.8096 -0.3963 -0.8829
 6719SOL     OW31789   2.421   0.214   2.426  0.0827  0.4112  0.0073
 6719SOL    HW131790   2.474   0.175   2.496  0.8719  0.5481 -0.5173
 6719SOL    HW231791   2.348   0.250   2.477 -2.0141 -0.1597 -2.5536
 6720SOL     OW31792   4.691   4.666   3.792  0.2674 -0.1082  0.0185
 6720SOL    HW131793   0.003   4.736   3.831  0.4449  0.5983 -1.4724
 6720SOL    HW231794   0.001   4.594   3.828  2.4107  0.7773 -1.2237
 6721SOL     OW31795   4.548   1.115  13.762  0.1608  0.3396  0.1286
 6721SOL    HW131796   4.489   1.044  13.738 -0.1077  0.1419  1.3991
 6721SOL    HW231797   4.593   1.118  13.678  1.5304 -1.0897  0.8127
 6722SOL     OW31798   0.034   2.127   6.801 -0.1926 -0.1168  0.1691
 6722SOL    HW131799   4.717   2.091   6.735  0.4667  0.1862 -0.5776
 6722SOL    HW231800   0.007   2.219   6.806 -2.1517 -0.4902 -3.7091
 6723SOL     OW31801   3.544   0.431  11.705  0.1643  0.4059  0.4051
 6723SOL    HW131802   3.465   0.422  11.652  0.7230 -0.1903 -0.3274
 6723SOL    HW231803   3.606   0.455  11.636 -0.9487  1.5332 -0.1983
 6724SOL     OW31804   3.854   0.499   8.308 -0.2082  0.1406  0.8304
 6724SOL    HW131805   3.905   0.418   8.304 -0.6327 -0.1664  1.4952
 6724SOL    HW231806   3.818   0.505   8.220  0.1659  1.4861  0.7775
 6725SOL     OW31807   3.128   3.401  10.902 -0.5170  0.0673  0.0637
 6725SOL    HW131808   3.108   3.424  10.811  1.7430 -0.0693 -0.4560
 6725SOL    HW231809   3.206   3.453  10.920 -0.6343 -0.4578  2.1904
 6726SOL     OW31810   0.463   1.469  16.748 -0.4848 -0.5227  0.2430
 6726SOL    HW131811   0.389   1.420  16.783 -1.7255  1.5264  0.4855
 6726SOL    HW231812   0.465   1.449  16.655 -2.8945  0.2814  0.0233
 6727SOL     OW31813   1.840   3.909   2.547  0.2098  0.0124 -0.3059
 6727SOL    HW131814   1.751   3.888   2.577  1.4716 -0.5424  3.0868
 6727SOL    HW231815   1.837   3.999   2.516  2.3257  0.5792  1.1370
 6728SOL     OW31816   4.700   2.361   6.171 -0.9158 -0.3103  0.0170
 6728SOL    HW131817   0.054   2.356   6.182 -0.6357  0.1212 -2.1926
 6728SOL    HW231818   4.676   2.268   6.178 -2.8512  0.2842  1.3461
 6729SOL     OW31819   2.637   0.265   8.661 -0.2321 -0.0057  0.3362
 6729SOL    HW131820   2.599   0.294   8.578  0.6150 -0.9568 -0.3850
 6729SOL    HW231821   2.590   0.315   8.728 -0.2651  1.8855 -1.0924
 6730SOL     OW31822   2.409   0.600   4.616  0.0245 -0.0488 -0.0471
 6730SOL    HW131823   2.316   0.605   4.594 -0.3786 -1.4701  1.3343
 6730SOL    HW231824   2.421   0.511   4.582 -1.7409  0.3248 -1.6515
 6731SOL     OW31825   3.315   0.266   5.385 -0.0793 -0.0369  0.0975
 6731SOL    HW131826   3.259   0.341   5.365  1.0137  1.0850  1.2208
 6731SOL    HW231827   3.251   0.195   5.386  0.9735 -0.9787  0.5959
 6732SOL     OW31828   0.288   2.409   9.213 -0.2635 -0.7057 -0.0106
 6732SOL    HW131829   0.359   2.442   9.159  0.0923  0.7017  1.3360
 6732SOL    HW231830   0.256   2.473   9.277 -1.4608  0.6261 -1.9511
 6733SOL     OW31831   1.502   0.669   1.983 -0.2372 -0.3115 -0.5520
 6733SOL    HW131832   1.409   0.650   1.978 -0.3364  0.0765 -0.1587
 6733SOL    HW231833   1.529   0.577   1.974 -0.7436 -0.4285 -0.8948
 6734SOL     OW31834   2.554   1.710   3.119  0.1569 -0.0969  0.5472
 6734SOL    HW131835   2.589   1.632   3.076 -0.3363  0.2635 -0.5016
 6734SOL    HW231836   2.524   1.763   3.046 -1.7506  0.8082  1.9656
 6735SOL     OW31837   0.571   3.164   2.858  0.2098  0.1041  0.0431
 6735SOL    HW131838   0.564   3.236   2.921 -1.3286 -1.3479  1.5164
 6735SOL    HW231839   0.548   3.205   2.775 -0.9625  1.2725  0.9428
 6736SOL     OW31840   4.297   0.421   9.305 -0.0139 -0.0683  0.2576
 6736SOL    HW131841   4.372   0.368   9.278  0.8765  1.2509  0.1451
 6736SOL    HW231842   4.335   0.503   9.338  0.3582 -0.3196  0.4544
 6737SOL     OW31843   2.561   4.359   6.568  0.0952 -0.0380  0.3117
 6737SOL    HW131844   2.484   4.410   6.544  1.0988  0.9646 -0.7282
 6737SOL    HW231845   2.525   4.312   6.644  0.3147 -2.2247 -0.9368
 6738SOL     OW31846   0.240   4.263   2.882 -0.0672 -0.3724 -0.1931
 6738SOL    HW131847   0.161   4.285   2.831  0.9537 -1.1146 -2.0956
 6738SOL    HW231848   0.249   4.175   2.847  1.4197 -0.2082 -0.1924
 6739SOL     OW31849   4.331   3.452   5.412 -0.7996 -0.6161 -0.1370
 6739SOL    HW131850   4.411   3.496   5.442 -0.1610 -2.1608  0.4294
 6739SOL    HW231851   4.279   3.452   5.492  2.1114  0.5673  1.7530
 6740SOL     OW31852   2.882   3.904   0.638 -0.6035  0.0887  0.2997
 6740SOL    HW131853   2.864   3.837   0.571  0.0790 -0.5107  0.7173
 6740SOL    HW231854   2.958   3.941   0.592 -0.7293  1.0237  0.8532
 6741SOL     OW31855   2.910   3.107   1.497 -0.2293  0.2943  0.6556
 6741SOL    HW131856   2.986   3.140   1.545  0.6582  0.5159 -0.8983
 6741SOL    HW231857   2.892   3.021   1.535  3.1109 -0.2568  0.9713
 6742SOL     OW31858   2.420   1.974   7.689 -0.0090 -0.4690  0.2948
 6742SOL    HW131859   2.489   1.927   7.734  1.5666  0.8804 -0.7018
 6742SOL    HW231860   2.365   1.903   7.656 -0.2973 -0.3035  0.4127
 6743SOL     OW31861   2.174   3.543   7.289  0.4657 -0.1179 -0.0448
 6743SOL    HW131862   2.157   3.455   7.321 -0.3784  0.6390  1.5791
 6743SOL    HW231863   2.095   3.553   7.237  0.2824 -1.0778  0.0639
 6744SOL     OW31864   0.314   2.218   9.933 -1.0700 -0.2523 -0.1271
 6744SOL    HW131865   0.316   2.290   9.995 -0.7414 -1.1462  0.9028
 6744SOL    HW231866   0.230   2.177   9.952 -0.5844 -1.2705 -0.1528
 6745SOL     OW31867   0.317   2.171   1.769 -0.3228 -0.2961  0.3704
 6745SOL    HW131868   0.256   2.110   1.729 -0.1136 -0.8236  0.8585
 6745SOL    HW231869   0.258   2.246   1.769  1.3709  1.0581  4.1141
 6746SOL     OW31870   1.844   1.887   8.254  0.0601  0.2747  0.1277
 6746SOL    HW131871   1.846   1.982   8.259  0.0356  0.3360 -1.1347
 6746SOL    HW231872   1.932   1.867   8.222 -0.8449 -0.6278 -1.7694
 6747SOL     OW31873   3.916   4.064   3.981  0.3899  0.1924 -0.1504
 6747SOL    HW131874   3.968   4.071   4.061  0.3714 -0.8396 -0.0523
 6747SOL    HW231875   3.830   4.103   3.998  1.8401  4.0205 -1.6423
 6748SOL     OW31876   1.670   0.595   7.720  0.6658  0.1791 -0.4916
 6748SOL    HW131877   1.724   0.672   7.734 -0.9389  1.5438 -1.8334
 6748SOL    HW231878   1.601   0.642   7.673  1.6693 -0.0975 -2.2320
 6749SOL     OW31879   2.294   1.373   4.049 -0.1174  0.0040 -0.0832
 6749SOL    HW131880   2.335   1.391   4.133  0.8047 -2.4839  0.0116
 6749SOL    HW231881   2.279   1.278   4.050 -2.0554  0.3368  1.6471
 6750SOL     OW31882   1.241   1.785   9.657  0.3352 -0.5076  0.4217
 6750SOL    HW131883   1.207   1.865   9.697 -0.7671 -1.1063  0.6835
 6750SOL    HW231884   1.180   1.723   9.698 -0.3064  0.5496  1.0704
 6751SOL     OW31885   3.204   1.223   2.000  0.3262 -0.0221  0.5308
 6751SOL    HW131886   3.247   1.299   2.040  1.6020 -1.1800  1.3587
 6751SOL    HW231887   3.272   1.186   1.944 -0.8241 -1.8072  0.3472
 6752SOL     OW31888   0.034   0.582   6.608  0.0037  0.2930 -0.2568
 6752SOL    HW131889   4.720   0.504   6.620 -2.3059  2.0103  0.3427
 6752SOL    HW231890   4.706   0.649   6.616  1.3594  1.0793  4.7024
 6753SOL     OW31891   4.184   4.637   6.355 -0.8329 -0.0905 -0.5446
 6753SOL    HW131892   4.159   4.651   6.446  1.9269 -0.2029  0.2140
 6753SOL    HW231893   4.267   4.593   6.374  0.0524  2.0552  0.5717
 6754SOL     OW31894   2.520   2.250   4.142  0.4600  0.1988  0.3376
 6754SOL    HW131895   2.606   2.234   4.182 -0.8423 -1.3035  2.5172
 6754SOL    HW231896   2.545   2.261   4.050 -0.9789 -0.2603 -0.1002
 6755SOL     OW31897   2.662   1.093   2.740 -0.1075 -0.2109  0.1693
 6755SOL    HW131898   2.568   1.079   2.728 -0.0458  1.2406 -2.1232
 6755SOL    HW231899   2.665   1.179   2.781  1.9058 -0.2392  0.0807
 6756SOL     OW31900   1.595   1.655   3.596 -0.0976  0.4887 -0.9442
 6756SOL    HW131901   1.506   1.654   3.562 -0.7792 -0.7350  0.8574
 6756SOL    HW231902   1.610   1.747   3.616 -2.3189  0.2519  1.8263
 6757SOL     OW31903   2.546   3.774   5.678  0.1006  0.4301  0.6686
 6757SOL    HW131904   2.610   3.735   5.737 -0.5342  0.8198  1.6050
 6757SOL    HW231905   2.475   3.779   5.742  0.3783  1.2901  0.9143
 6758SOL     OW31906   3.009   1.904   3.447  0.0392  0.2449  0.2174
 6758SOL    HW131907   2.990   1.927   3.356  0.4149 -0.4222 -0.0313
 6758SOL    HW231908   3.081   1.966   3.461  1.2286 -0.5830 -2.1281
 6759SOL     OW31909   1.082   3.352   7.201  0.4085  0.0653  0.7263
 6759SOL    HW131910   1.165   3.309   7.180  0.8402 -0.0570  2.6851
 6759SOL    HW231911   1.105   3.438   7.165  1.3036 -0.2080  0.6356
 6760SOL     OW31912   1.774   0.216   2.941 -0.0378  0.1972  0.0433
 6760SOL    HW131913   1.774   0.206   3.036  2.1448  1.6366  0.2013
 6760SOL    HW231914   1.717   0.144   2.915 -1.0465  0.9434  0.2110
 6761SOL     OW31915   1.283   2.215   7.161  0.5443 -0.5461  0.7521
 6761SOL    HW131916   1.302   2.283   7.225 -1.7693  1.9937 -1.2805
 6761SOL    HW231917   1.196   2.246   7.135  0.7542  1.0115  1.9333
 6762SOL     OW31918   2.487   0.353   8.439 -0.0299 -0.0839 -0.3539
 6762SOL    HW131919   2.445   0.279   8.395 -2.1788  0.2946  1.0902
 6762SOL    HW231920   2.410   0.409   8.433 -0.0131  0.0921  1.1817
 6763SOL     OW31921   1.187   3.239   7.874  0.6900 -0.2669 -1.0054
 6763SOL    HW131922   1.108   3.191   7.849  0.0872  0.3608 -0.3321
 6763SOL    HW231923   1.195   3.222   7.968 -2.2353  0.0892 -0.6943
 6764SOL     OW31924   4.365   1.278   5.553  0.0190  0.1286 -0.6513
 6764SOL    HW131925   4.372   1.366   5.589  0.1450 -1.5317  3.3418
 6764SOL    HW231926   4.389   1.295   5.462 -1.0076  2.5277 -0.4713
 6765SOL     OW31927   3.847   0.390  13.749 -0.6575 -0.1532 -0.1207
 6765SOL    HW131928   3.785   0.419  13.683 -0.5245 -1.3599 -0.7719
 6765SOL    HW231929   3.805   0.402  13.834  0.4209 -2.3608  0.7229
 6766SOL     OW31930   2.838   2.995   8.588  0.4576  0.5980  0.0655
 6766SOL    HW131931   2.866   3.079   8.625  0.0955  1.0321 -0.6294
 6766SOL    HW231932   2.922   2.964   8.555 -0.1093  0.4281 -1.2398
 6767SOL     OW31933   1.057   1.813   7.575  0.0179 -0.1079 -0.4663
 6767SOL    HW131934   1.117   1.865   7.522 -0.0376 -1.2120 -1.6147
 6767SOL    HW231935   1.097   1.832   7.660  0.0388  0.0804 -0.5192
 6768SOL     OW31936   3.509   2.074   7.944 -0.4035  0.0060 -0.3758
 6768SOL    HW131937   3.476   1.985   7.937  1.6333 -0.8312  0.8909
 6768SOL    HW231938   3.493   2.109   8.031  2.8701  1.9719 -0.5489
 6769SOL     OW31939   1.297   3.896   5.749 -0.1852 -0.5728 -0.0318
 6769SOL    HW131940   1.234   3.951   5.795 -0.2710 -0.3255 -0.4365
 6769SOL    HW231941   1.366   3.889   5.814 -1.2598 -0.0646  1.1528
 6770SOL     OW31942   2.058   0.116   6.385  0.0597 -0.5421  0.0061
 6770SOL    HW131943   2.121   0.189   6.382 -0.5527  0.0222  0.9928
 6770SOL    HW231944   2.006   0.141   6.461 -1.4329  0.5685 -1.3880
 6771SOL     OW31945   3.789   2.725  15.404 -0.1280  0.0972  0.2934
 6771SOL    HW131946   3.750   2.755  15.486 -2.4437 -1.0023 -0.3978
 6771SOL    HW231947   3.707   2.709  15.357  0.3745  0.2230 -0.6365
 6772SOL     OW31948   3.398   4.131  13.788 -0.5971 -0.4974 -0.3076
 6772SOL    HW131949   3.466   4.183  13.747  0.8275 -0.4204  2.1277
 6772SOL    HW231950   3.360   4.197  13.847 -0.2456  0.3969 -1.0883
 6773SOL     OW31951   3.168   1.763   2.787  0.4123 -0.3770  0.3775
 6773SOL    HW131952   3.232   1.777   2.856  3.8385 -0.0715 -2.8687
 6773SOL    HW231953   3.177   1.670   2.766  0.3528 -0.6924  1.7631
 6774SOL     OW31954   0.067   2.195   4.231 -0.2892 -0.5192  0.1111
 6774SOL    HW131955   0.015   2.146   4.167 -1.9612  2.4306 -0.7883
 6774SOL    HW231956   0.149   2.145   4.228  0.2246  0.3196  0.2280
 6775SOL     OW31957   1.493   3.725   4.920 -0.3529  0.0700 -0.0118
 6775SOL    HW131958   1.521   3.651   4.973 -0.4444 -0.1956 -0.3396
 6775SOL    HW231959   1.496   3.806   4.971  1.5533  0.6485 -1.0476
 6776SOL     OW31960   2.986   2.176   3.087  0.1370 -1.0671 -0.6972
 6776SOL    HW131961   2.964   2.082   3.087  0.4062 -1.1238  1.7514
 6776SOL    HW231962   3.051   2.181   3.156 -1.6876 -2.8540  1.1641
 6777SOL     OW31963   2.425   0.139  17.555  0.0065  0.3263  0.3343
 6777SOL    HW131964   2.354   0.203  17.565 -1.3924 -1.2851  0.7783
 6777SOL    HW231965   2.494   0.180  17.607  0.4445 -1.2863  1.0519
 6778SOL     OW31966   0.922   2.038  15.535  0.2121 -0.4853  0.4172
 6778SOL    HW131967   0.940   2.127  15.503  0.5423 -1.5917 -2.4787
 6778SOL    HW231968   0.956   2.048  15.624 -0.4534  2.1518  0.3716
 6779SOL     OW31969   2.304   4.602  17.484 -0.7019 -0.1287  0.0141
 6779SOL    HW131970   2.325   4.693  17.502 -3.6284  0.5105  0.2273
 6779SOL    HW231971   2.335   4.583  17.395 -2.6155  0.0237 -0.6716
 6780SOL     OW31972   2.359   4.015   2.901 -0.5680 -0.6307 -0.2402
 6780SOL    HW131973   2.375   3.926   2.932 -2.2038 -0.6298  0.6254
 6780SOL    HW231974   2.402   4.019   2.815 -2.5934  0.7780 -1.2001
 6781SOL     OW31975   2.247   0.366  12.148 -0.3556 -0.3002  0.1155
 6781SOL    HW131976   2.176   0.430  12.144 -0.1321 -0.1629 -1.6858
 6781SOL    HW231977   2.195   0.290  12.123 -0.4204  0.5203 -2.1864
 6782SOL     OW31978   2.851   4.144   1.798 -0.1931 -0.4949 -0.1783
 6782SOL    HW131979   2.901   4.067   1.770  0.4498 -0.4475  0.8563
 6782SOL    HW231980   2.797   4.104   1.865  0.6452 -0.3838  0.5599
 6783SOL     OW31981   3.003   4.670   1.650 -0.5759 -0.1429  0.7957
 6783SOL    HW131982   3.058   4.710   1.583 -1.2428 -1.5700 -0.6228
 6783SOL    HW231983   3.070   4.615   1.690  0.3966  0.7193  0.3441
 6784SOL     OW31984   3.959   1.016   7.900 -0.3038 -0.3219  0.1558
 6784SOL    HW131985   3.941   1.110   7.905  0.1625 -0.3427  2.1014
 6784SOL    HW231986   3.888   0.972   7.946  0.3776 -1.5159  0.0692
 6785SOL     OW31987   4.482   3.893   1.887 -0.1307  0.2055  0.1221
 6785SOL    HW131988   4.412   3.957   1.877  1.0086  1.2141 -1.4091
 6785SOL    HW231989   4.547   3.942   1.937  1.5849 -1.9060 -0.0524
 6786SOL     OW31990   3.072   2.872  13.468 -0.4476 -0.0667  0.2617
 6786SOL    HW131991   3.130   2.947  13.470  0.2770 -0.6380  0.6066
 6786SOL    HW231992   3.146   2.811  13.476 -1.1417 -0.4509  3.6260
 6787SOL     OW31993   2.126   3.037  11.918  0.0938  0.3109 -0.1181
 6787SOL    HW131994   2.169   3.086  11.847 -1.0776 -0.4884 -1.3812
 6787SOL    HW231995   2.051   3.005  11.867  0.4136  1.8076 -1.5278
 6788SOL     OW31996   1.357   4.004  11.462 -0.4174  0.6616 -0.0455
 6788SOL    HW131997   1.302   4.082  11.473  0.5876  1.2367  0.8950
 6788SOL    HW231998   1.375   4.012  11.368 -1.7143 -0.6743 -0.4094
 6789SOL     OW31999   4.467   4.127   2.830  0.4740  0.2290  0.4125
 6789SOL    HW132000   4.533   4.075   2.876  1.0022  1.6774  1.2782
 6789SOL    HW232001   4.431   4.070   2.761  1.6703 -0.1386  0.0830
 6790SOL     OW32002   3.982   4.262   5.230 -0.0262 -0.2835 -0.5603
 6790SOL    HW132003   4.070   4.225   5.226  0.1733  0.0072  1.2179
 6790SOL    HW232004   3.937   4.217   5.302  0.4506 -1.9845 -1.3176
 6791SOL     OW32005   0.649   2.455   3.824 -0.0008 -0.6763 -0.2220
 6791SOL    HW132006   0.644   2.418   3.912 -1.5135  2.0369  0.8266
 6791SOL    HW232007   0.610   2.539   3.847 -0.5982 -0.7953 -0.8093
 6792SOL     OW32008   0.943   0.575   8.899  0.2478 -0.6076  0.3326
 6792SOL    HW132009   0.964   0.482   8.895  0.9451 -0.4405  0.1743
 6792SOL    HW232010   0.848   0.566   8.890  0.0424  1.4316  0.2679
 6793SOL     OW32011   1.548   2.995   5.222 -0.1660  0.2086 -0.0553
 6793SOL    HW132012   1.471   2.951   5.186 -0.4507  0.8367 -0.2181
 6793SOL    HW232013   1.602   2.918   5.240 -0.1852  0.3357  0.5565
 6794SOL     OW32014   1.743   1.037   1.450 -0.2381  0.1355 -0.2831
 6794SOL    HW132015   1.714   1.092   1.377 -1.9510 -1.1425 -0.5705
 6794SOL    HW232016   1.705   0.953   1.422 -0.2150 -0.0283  0.1779
 6795SOL     OW32017   0.056   2.636  12.222  0.0116 -0.0292 -0.2875
 6795SOL    HW132018   0.079   2.663  12.133 -0.1083  1.3019  0.0907
 6795SOL    HW232019   4.728   2.697  12.248  1.1725  0.0033  2.7328
 6796SOL     OW32020   3.953   4.432  17.564  0.1028  0.0512  0.0066
 6796SOL    HW132021   3.918   4.343  17.572  0.1142  0.0537  0.0825
 6796SOL    HW232022   3.971   4.447  17.471 -1.2905 -1.4652 -0.5244
 6797SOL     OW32023   2.450   4.312  13.824 -0.4431 -0.3067  0.0941
 6797SOL    HW132024   2.383   4.380  13.823  0.3071  0.4410  0.9412
 6797SOL    HW232025   2.414   4.275  13.905  3.2317  0.3527  2.0567
 6798SOL     OW32026   4.327   0.013   4.972  0.7146 -0.2125  0.3423
 6798SOL    HW132027   4.302   0.089   5.024 -1.5401 -1.8342  1.6508
 6798SOL    HW232028   4.287   4.691   5.033  0.7147  0.3287  0.9041
 6799SOL     OW32029   2.178   2.034   8.192 -0.9554  0.1176  0.7123
 6799SOL    HW132030   2.135   1.994   8.268 -0.9951 -2.6393 -0.7413
 6799SOL    HW232031   2.164   1.971   8.121  1.2838 -0.4785  0.7913
 6800SOL     OW32032   3.021   3.751   2.256  0.1225  0.4131 -0.0720
 6800SOL    HW132033   2.941   3.741   2.307  0.3200  1.2231  0.3912
 6800SOL    HW232034   2.992   3.810   2.186  0.9318  1.3133  0.3544
 6801SOL     OW32035   0.575   1.821  10.499  0.0924  0.1436  0.2793
 6801SOL    HW132036   0.654   1.800  10.548 -1.2788 -0.1142  2.3930
 6801SOL    HW232037   0.528   1.871  10.567  0.2214 -0.2748  0.6697
 6802SOL     OW32038   1.962   3.488   0.730 -0.5379  0.4175  0.1435
 6802SOL    HW132039   1.951   3.490   0.635 -0.5833  0.6005  0.1542
 6802SOL    HW232040   1.882   3.519   0.772 -1.0072 -0.1832 -0.2975
 6803SOL     OW32041   3.310   2.611   2.926 -0.2943 -0.5653  0.6121
 6803SOL    HW132042   3.288   2.681   2.865  2.2551 -1.2276 -1.0826
 6803SOL    HW232043   3.245   2.545   2.901 -0.6960 -0.7103  2.0713
 6804SOL     OW32044   1.914   3.271   6.539 -0.2218 -0.0792 -0.0046
 6804SOL    HW132045   1.991   3.215   6.546  0.7919  1.2946 -0.2126
 6804SOL    HW232046   1.945   3.354   6.502  2.0377 -1.0645 -0.2881
 6805SOL     OW32047   2.741   3.774   2.315  0.0688 -1.1312 -0.3534
 6805SOL    HW132048   2.691   3.835   2.262 -0.5905 -2.5310 -1.3288
 6805SOL    HW232049   2.718   3.686   2.285 -0.3191 -1.2876  0.4016
 6806SOL     OW32050   3.901   0.207   2.038 -0.0190 -0.0869 -0.0006
 6806SOL    HW132051   3.955   0.237   1.965  0.9405 -2.0696 -0.1066
 6806SOL    HW232052   3.869   0.125   2.002  1.3881  0.1549 -1.8080
 6807SOL     OW32053   0.262   3.075   6.849 -0.3426 -0.2062  0.1672
 6807SOL    HW132054   0.351   3.043   6.832 -0.9997 -1.8070 -0.1874
 6807SOL    HW232055   0.251   3.133   6.774 -2.7077 -0.6749  0.1634
 6808SOL     OW32056   2.723   4.553  17.177  0.2563 -0.2123  0.0899
 6808SOL    HW132057   2.660   4.481  17.177 -0.1429  0.1240  2.1164
 6808SOL    HW232058   2.748   4.560  17.085 -0.2086  3.0927  0.2250
 6809SOL     OW32059   4.628   0.568   6.976  0.4926 -0.4126 -0.2547
 6809SOL    HW132060   4.552   0.527   6.935  0.7677 -0.7295 -0.4490
 6809SOL    HW232061   4.678   0.491   7.003 -1.4398 -1.3944  0.5396
 6810SOL     OW32062   1.428   0.476   7.170 -0.0827 -0.2043  0.0016
 6810SOL    HW132063   1.477   0.557   7.155 -1.2178  0.2101 -1.5597
 6810SOL    HW232064   1.344   0.510   7.139  0.6091  1.2477 -0.3052
 6811SOL     OW32065   1.760   4.278   7.970  0.3822  0.1651  0.7930
 6811SOL    HW132066   1.839   4.332   7.962 -0.9290  2.0056  0.3426
 6811SOL    HW232067   1.712   4.328   8.035  0.2634  0.3748  0.5419
 6812SOL     OW32068   0.947   3.494   3.144 -0.0165  0.1886  0.0979
 6812SOL    HW132069   0.948   3.399   3.128  1.3963  0.0708  0.8914
 6812SOL    HW232070   1.003   3.492   3.222  2.3702  1.3637 -1.5797
 6813SOL     OW32071   0.237   0.847   5.509  0.0195  0.6880 -0.3104
 6813SOL    HW132072   0.155   0.815   5.546  0.6488 -0.9730 -0.3687
 6813SOL    HW232073   0.275   0.900   5.579  1.0403  0.0975 -0.4268
 6814SOL     OW32074   3.732   3.003   7.780 -0.0858  0.1937  0.1786
 6814SOL    HW132075   3.752   3.025   7.689 -1.3163  0.1446 -0.1122
 6814SOL    HW232076   3.638   3.021   7.770 -0.3112  0.0608  2.1382
 6815SOL     OW32077   0.307   0.379   4.406 -0.3520  0.3434 -0.2651
 6815SOL    HW132078   0.327   0.426   4.488 -0.6949 -0.1683  0.1085
 6815SOL    HW232079   0.242   0.447   4.391 -0.3658  0.3289 -0.2704
 6816SOL     OW32080   3.243   2.223   2.815 -0.0810  0.3772  0.0325
 6816SOL    HW132081   3.217   2.316   2.812 -0.8415  0.0844 -2.6214
 6816SOL    HW232082   3.284   2.211   2.900  1.6332  1.3507 -0.6737
 6817SOL     OW32083   0.391   3.116   6.514  0.5405  0.4933 -0.2528
 6817SOL    HW132084   0.310   3.165   6.498  1.0323  1.0426 -1.1029
 6817SOL    HW232085   0.454   3.188   6.506  1.8214 -0.7273 -1.2103
 6818SOL     OW32086   1.196   2.116   4.402  0.0451 -0.0041  0.4343
 6818SOL    HW132087   1.188   2.123   4.307  0.4854 -1.3877  0.2826
 6818SOL    HW232088   1.107   2.117   4.437  0.2923 -0.0789  1.0698
 6819SOL     OW32089   3.122   4.626   9.614  0.7983  0.1149  0.5666
 6819SOL    HW132090   3.185   4.559   9.585  0.5607 -0.3411  1.0978
 6819SOL    HW232091   3.184   4.691   9.648  1.7273 -0.3288 -0.2582
 6820SOL     OW32092   1.571   1.813  17.652 -0.7149  0.4074 -0.2361
 6820SOL    HW132093   1.627   1.743  17.618  1.5916  0.6459  3.1075
 6820SOL    HW232094   1.550   1.789  17.742 -0.1453 -0.7827 -0.4205
 6821SOL     OW32095   1.376   3.521   7.244  0.0817 -0.0196 -0.4186
 6821SOL    HW132096   1.461   3.485   7.220  0.6726  2.3321 -1.9338
 6821SOL    HW232097   1.383   3.614   7.223  1.3959 -0.2916 -1.1535
 6822SOL     OW32098   1.185   0.881   7.084 -0.5021  0.1746 -0.3952
 6822SOL    HW132099   1.227   0.959   7.047 -1.9078  0.2522 -1.8468
 6822SOL    HW232100   1.120   0.923   7.139  0.7511 -0.3304  1.4525
 6823SOL     OW32101   1.370   3.965   1.387  0.0437 -0.0314 -0.0629
 6823SOL    HW132102   1.314   4.012   1.448  0.3509 -0.8622  0.8610
 6823SOL    HW232103   1.454   4.008   1.403 -0.0002  0.5336 -1.3864
 6824SOL     OW32104   4.128   0.274   1.329 -0.4384  0.4923  0.0028
 6824SOL    HW132105   4.155   0.324   1.251  1.0936 -0.0005  0.2179
 6824SOL    HW232106   4.210   0.246   1.369 -0.1032  0.9196 -0.3843
 6825SOL     OW32107   2.983   4.391   3.578  0.2695  0.3665  0.0288
 6825SOL    HW132108   2.930   4.378   3.499 -0.7742  0.2030  0.7591
 6825SOL    HW232109   2.999   4.486   3.573  0.2392  0.6116  4.5864
 6826SOL     OW32110   1.078   3.054   4.634 -0.7628 -0.5307  0.3127
 6826SOL    HW132111   1.151   2.994   4.620  0.8243  1.9143 -1.9129
 6826SOL    HW232112   1.061   3.014   4.719  1.1451 -0.9704  0.4828
 6827SOL     OW32113   4.200   0.222   1.656 -0.5393 -0.4378  0.0122
 6827SOL    HW132114   4.139   0.151   1.677  0.2756 -0.9837  0.5350
 6827SOL    HW232115   4.269   0.224   1.722 -1.1172  0.2727  0.5950
 6828SOL     OW32116   4.117   3.049   2.640  0.6423  0.3769  0.1051
 6828SOL    HW132117   4.099   3.034   2.548 -0.1146  0.1996  0.2807
 6828SOL    HW232118   4.130   2.958   2.666 -0.2600 -0.3103 -1.8829
 6829SOL     OW32119   3.838   2.902  16.489 -0.4085 -0.3939  0.1425
 6829SOL    HW132120   3.887   2.982  16.508  0.9196 -0.9023 -1.1049
 6829SOL    HW232121   3.831   2.855  16.572  1.5253  0.4824  0.8127
 6830SOL     OW32122   1.398   4.272   1.552  0.1211  0.4269  0.1982
 6830SOL    HW132123   1.337   4.198   1.557  0.7355 -0.0459  0.6192
 6830SOL    HW232124   1.335   4.341   1.573  0.7358  0.0522  3.2144
 6831SOL     OW32125   2.586   4.053   8.143  0.3642 -0.2171  0.6882
 6831SOL    HW132126   2.601   4.032   8.051 -3.0367  2.4780 -0.5154
 6831SOL    HW232127   2.591   3.968   8.187 -2.1630  0.4486  2.3262
 6832SOL     OW32128   0.795   1.068   9.854  0.6161  0.2364 -0.0572
 6832SOL    HW132129   0.829   0.986   9.890  1.4823 -0.2457 -1.9671
 6832SOL    HW232130   0.828   1.138   9.910 -1.6096  0.0833  1.4650
 6833SOL     OW32131   1.324   0.653  10.967 -0.2693  0.3260 -0.3184
 6833SOL    HW132132   1.373   0.575  10.994 -1.1752 -0.9403 -2.3605
 6833SOL    HW232133   1.308   0.694  11.052 -0.4328  0.7482 -0.5548
 6834SOL     OW32134   1.306   3.800   2.959  0.0415 -0.0913  0.5416
 6834SOL    HW132135   1.340   3.793   2.870 -2.9721 -2.5665 -0.4245
 6834SOL    HW232136   1.378   3.791   3.022  0.4907  1.7293  0.2732
 6835SOL     OW32137   2.193   1.012   1.479 -0.7517 -0.8546 -0.0706
 6835SOL    HW132138   2.133   1.084   1.460 -0.5140 -1.0303 -1.4971
 6835SOL    HW232139   2.127   0.942   1.477 -0.5819 -1.0273  0.6152
 6836SOL     OW32140   3.478   3.507   7.535  0.2777  0.0561 -0.0947
 6836SOL    HW132141   3.480   3.602   7.527 -1.2114  0.0945 -0.0540
 6836SOL    HW232142   3.430   3.483   7.456  2.3448  0.9296 -1.6095
 6837SOL     OW32143   4.677   0.931   6.368 -0.1770 -0.5823 -0.0520
 6837SOL    HW132144   4.666   0.861   6.304  2.6457 -0.5279 -0.5675
 6837SOL    HW232145   0.004   0.888   6.419 -1.5546 -1.3497  1.1294
 6838SOL     OW32146   4.548   1.282   5.096 -0.0936  0.3207  0.3225
 6838SOL    HW132147   4.578   1.203   5.141  1.5362 -0.8924 -2.9387
 6838SOL    HW232148   4.640   1.306   5.085  0.7314 -2.0792  1.9937
 6839SOL     OW32149   1.629   0.502   1.568 -0.0226 -0.5859 -0.6127
 6839SOL    HW132150   1.544   0.539   1.591  0.2014 -0.4794  0.0346
 6839SOL    HW232151   1.625   0.417   1.612  0.1781 -0.6110 -0.6419
 6840SOL     OW32152   1.431   1.085   7.038  0.5551  0.2518  0.4967
 6840SOL    HW132153   1.353   1.127   7.076  1.6515  2.0418  0.7781
 6840SOL    HW232154   1.496   1.151   7.062 -0.2507  0.8314  1.0826
 6841SOL     OW32155   4.212   2.195   0.267 -0.3172  0.3607  0.3069
 6841SOL    HW132156   4.236   2.104   0.285 -1.2952  0.2621  1.1597
 6841SOL    HW232157   4.235   2.205   0.174 -0.5416 -0.1579  0.1957
 6842SOL     OW32158   3.834   3.470   8.929  0.3597 -0.2892 -0.2489
 6842SOL    HW132159   3.877   3.525   8.995 -3.2664  0.3301  1.6403
 6842SOL    HW232160   3.745   3.503   8.944  1.3988  2.0406  0.8546
 6843SOL     OW32161   3.291   4.373   0.208 -0.6786  0.0691  0.2605
 6843SOL    HW132162   3.270   4.304   0.271 -1.9633  0.6064  0.4249
 6843SOL    HW232163   3.231   4.348   0.138  0.0229 -1.3010  0.1516
 6844SOL     OW32164   0.725   1.701   7.095 -0.1697 -0.4902 -0.3493
 6844SOL    HW132165   0.794   1.637   7.074  0.4496  0.8869 -2.5460
 6844SOL    HW232166   0.654   1.642   7.122  0.7928 -1.7502 -0.5485
 6845SOL     OW32167   1.337   3.146   9.554  0.3016 -0.6328 -0.8073
 6845SOL    HW132168   1.261   3.125   9.500 -1.1365  0.9550  0.6086
 6845SOL    HW232169   1.340   3.072   9.613  0.4319 -0.1394 -0.1944
 6846SOL     OW32170   3.020   1.622  11.860  0.2721 -0.1501 -0.2938
 6846SOL    HW132171   2.927   1.624  11.837 -0.4357 -0.7109  2.6737
 6846SOL    HW232172   3.059   1.692  11.807  0.5471 -2.7856 -3.5514
 6847SOL     OW32173   1.023   2.092   6.387  0.2264  0.4083 -0.3644
 6847SOL    HW132174   0.936   2.122   6.361  1.0862  1.9286 -1.4583
 6847SOL    HW232175   1.007   2.002   6.415 -1.2212  1.3991  1.9493
 6848SOL     OW32176   2.560   1.528   2.461 -0.1822 -0.6654 -0.0111
 6848SOL    HW132177   2.512   1.482   2.392 -0.5862  1.4019 -1.0988
 6848SOL    HW232178   2.614   1.452   2.482  0.2456 -0.0352  1.1780
 6849SOL     OW32179   3.956   4.086  12.527  0.2727  0.7126  0.5530
 6849SOL    HW132180   3.992   4.155  12.583 -0.2552  1.5388 -0.1171
 6849SOL    HW232181   3.870   4.118  12.498 -0.1908 -1.5100 -0.4868
 6850SOL     OW32182   4.537   0.504   3.995  0.1493  0.0020 -0.4926
 6850SOL    HW132183   4.535   0.467   3.907  0.8892  0.1587 -0.5793
 6850SOL    HW232184   4.479   0.438   4.034  0.1589  0.8441  0.9304
 6851SOL     OW32185   3.722   1.094   3.470  0.4039  0.4576  0.0969
 6851SOL    HW132186   3.763   1.071   3.387 -2.1520 -0.3391 -0.9332
 6851SOL    HW232187   3.712   1.186   3.445  0.1915 -0.2760 -2.5608
 6852SOL     OW32188   0.937   0.050   8.032  0.2354 -0.1617 -0.2672
 6852SOL    HW132189   0.842   0.040   8.031  0.3582 -1.3513  0.0630
 6852SOL    HW232190   0.936   0.136   8.075  2.6603 -0.9413  1.4046
 6853SOL     OW32191   3.542   4.443   8.352 -0.6536  0.0577  0.3766
 6853SOL    HW132192   3.593   4.523   8.341 -1.3129  0.5182  0.6183
 6853SOL    HW232193   3.460   4.492   8.345  0.5493  2.0178 -0.0827
 6854SOL     OW32194   1.787   3.664   1.967 -0.1232  0.1013 -0.4072
 6854SOL    HW132195   1.807   3.602   2.037  2.4204 -0.4308 -1.5847
 6854SOL    HW232196   1.707   3.695   2.010  0.8530  0.0228  1.4802
 6855SOL     OW32197   2.056   2.684   3.331  0.2279 -0.5081 -0.1027
 6855SOL    HW132198   2.119   2.732   3.384 -0.1230  0.1294 -0.2692
 6855SOL    HW232199   1.981   2.679   3.389  0.9033  2.4559  1.0376
 6856SOL     OW32200   1.920   4.510  13.534 -0.2186  0.4577 -0.4280
 6856SOL    HW132201   1.976   4.472  13.466 -2.7728 -0.4170 -2.0250
 6856SOL    HW232202   1.961   4.595  13.549 -1.3014  0.5934  1.6800
 6857SOL     OW32203   2.305   1.932   9.950 -0.1766  0.3950 -0.2227
 6857SOL    HW132204   2.231   1.989   9.969 -0.4301 -0.4664  1.3686
 6857SOL    HW232205   2.286   1.909   9.859  3.2838 -0.6705 -0.6689
 6858SOL     OW32206   0.083   2.188   5.180 -0.0276  0.1285  0.7195
 6858SOL    HW132207   0.173   2.161   5.196 -0.1067 -0.9381 -0.5993
 6858SOL    HW232208   0.048   2.126   5.116  1.4672  0.1219 -0.0914
 6859SOL     OW32209   2.122   0.108  11.531  0.3916 -0.1287 -0.3314
 6859SOL    HW132210   2.088   0.020  11.513 -0.9854  0.2356  0.4645
 6859SOL    HW232211   2.180   0.097  11.606 -0.3271  0.0668  0.2455
 6860SOL     OW32212   4.664   3.871  12.818  0.2824 -0.1195 -0.2091
 6860SOL    HW132213   0.019   3.864  12.824  0.4684  2.7535  0.0952
 6860SOL    HW232214   4.659   3.912  12.731 -0.6935  0.4314  0.1117
 6861SOL     OW32215   1.148   3.368   5.271  0.3897 -0.0489  0.5246
 6861SOL    HW132216   1.145   3.422   5.350  0.0666  1.0823 -0.2616
 6861SOL    HW232217   1.242   3.379   5.254  0.7873  0.8262  3.2815
 6862SOL     OW32218   2.991   1.919  15.099 -0.9663  0.2736  0.2989
 6862SOL    HW132219   3.014   1.978  15.027 -1.0750 -0.3567 -0.2600
 6862SOL    HW232220   2.935   1.977  15.150 -2.0593  1.0535 -1.7887
 6863SOL     OW32221   2.228   2.485   7.610  0.1115 -0.4321  0.8402
 6863SOL    HW132222   2.294   2.538   7.564 -1.7049  0.5581 -0.6230
 6863SOL    HW232223   2.287   2.458   7.680 -0.2001 -0.4745  1.0849
 6864SOL     OW32224   3.034   2.580   7.295  0.9433 -0.2301  0.2137
 6864SOL    HW132225   3.056   2.514   7.230 -0.4191  1.7500 -2.2870
 6864SOL    HW232226   2.952   2.611   7.255  1.1456  0.7618  0.5657
 6865SOL     OW32227   0.749   0.762  12.378  0.2311 -0.0192  0.0084
 6865SOL    HW132228   0.815   0.703  12.341 -0.9896 -0.8538 -0.8561
 6865SOL    HW232229   0.706   0.796  12.299 -2.2138 -1.4125  0.7353
 6866SOL     OW32230   2.404   0.086   3.328  0.1960  0.0940 -1.0598
 6866SOL    HW132231   2.452   0.025   3.384 -1.4406 -0.4493 -0.2518
 6866SOL    HW232232   2.323   0.041   3.303  0.9000 -1.6629 -0.1519
 6867SOL     OW32233   2.641   2.903   8.737 -0.5150  0.3702  0.6875
 6867SOL    HW132234   2.723   2.914   8.688  0.4298 -1.6068  1.8347
 6867SOL    HW232235   2.601   2.830   8.689  0.7722 -1.0306  1.7640
 6868SOL     OW32236   2.070   0.039   7.847 -0.0470 -0.4044  0.4798
 6868SOL    HW132237   2.073   0.122   7.893 -0.2627 -0.1829  0.0991
 6868SOL    HW232238   2.043   4.719   7.916 -0.6077 -0.2107  0.4294
 6869SOL     OW32239   3.294   1.158   2.755  0.0078  0.0778  0.3328
 6869SOL    HW132240   3.293   1.062   2.763  0.5169 -0.0700 -1.5323
 6869SOL    HW232241   3.389   1.168   2.761  0.0922 -0.2536 -0.3860
 6870SOL     OW32242   0.196   4.065   8.054  0.4597 -0.3933  0.2381
 6870SOL    HW132243   0.226   4.052   7.964  0.2266  2.1409 -0.2257
 6870SOL    HW232244   0.124   4.126   8.041 -0.2174 -1.2905 -0.2079
 6871SOL     OW32245   2.080   3.067   6.185  0.2810  0.0088 -0.2502
 6871SOL    HW132246   2.055   3.028   6.268 -1.0995 -3.2756 -2.1964
 6871SOL    HW232247   2.174   3.080   6.201 -0.5016  1.9881  2.7303
 6872SOL     OW32248   1.544   2.158   3.344 -0.4261  0.6085 -0.5659
 6872SOL    HW132249   1.584   2.106   3.414  1.6586  1.4841 -1.1108
 6872SOL    HW232250   1.583   2.245   3.348  0.5421  0.1850 -1.0032
 6873SOL     OW32251   4.641   1.349   4.533 -0.4365  0.2673  0.0837
 6873SOL    HW132252   4.602   1.393   4.457  1.9675  1.0092 -0.7246
 6873SOL    HW232253   4.671   1.263   4.502 -0.6949  0.2646 -0.1601
 6874SOL     OW32254   2.104   1.194   0.309  0.3967 -0.0636 -0.2309
 6874SOL    HW132255   2.058   1.156   0.383  1.1319  1.2394  0.8798
 6874SOL    HW232256   2.067   1.280   0.289 -0.4550 -0.7364 -1.5785
 6875SOL     OW32257   4.374   0.319   7.119  0.0536  0.0936 -0.2596
 6875SOL    HW132258   4.289   0.275   7.125 -0.6878  1.6428  0.9439
 6875SOL    HW232259   4.380   0.352   7.209  0.1353 -0.9826  0.1228
 6876SOL     OW32260   1.801   0.047  12.136 -0.0318  0.3533  0.1882
 6876SOL    HW132261   1.745   0.119  12.166  0.1643  0.8670 -0.6973
 6876SOL    HW232262   1.844   0.017  12.216  1.5657  0.0464 -0.7882
 6877SOL     OW32263   0.108   0.272   7.484 -0.3259 -0.2269  0.2463
 6877SOL    HW132264   0.137   0.325   7.557  0.2753  3.3724 -2.6471
 6877SOL    HW232265   0.042   0.325   7.439  0.6128 -0.1230 -1.0079
 6878SOL     OW32266   1.424   2.758   8.410  0.7437 -0.3856  0.0918
 6878SOL    HW132267   1.441   2.670   8.376 -0.7712 -1.1167  1.2558
 6878SOL    HW232268   1.474   2.763   8.492  0.4874  0.0345  0.2235
 6879SOL     OW32269   3.164   0.782   4.546  0.1968  0.2582 -0.7573
 6879SOL    HW132270   3.144   0.766   4.454 -1.9060 -1.0081 -0.0711
 6879SOL    HW232271   3.255   0.812   4.550  0.8558 -2.0398  1.7079
 6880SOL     OW32272   3.513   0.969   7.550  0.2536 -0.0839 -0.3278
 6880SOL    HW132273   3.424   0.973   7.516 -0.3416 -1.2571  1.0702
 6880SOL    HW232274   3.573   0.997   7.481  2.1048  1.6385  1.9830
 6881SOL     OW32275   1.468   3.287   1.872 -0.6912 -0.3988  0.2447
 6881SOL    HW132276   1.463   3.223   1.801  1.0125 -0.0364 -0.1816
 6881SOL    HW232277   1.532   3.253   1.934 -0.7006 -2.5629 -0.9324
 6882SOL     OW32278   4.668   4.150   0.433  0.1619  0.0914  0.3459
 6882SOL    HW132279   4.610   4.173   0.505  0.0012  2.0841 -0.4175
 6882SOL    HW232280   4.738   4.216   0.431  0.2677  0.0120  1.4896
 6883SOL     OW32281   4.182   0.562  11.403 -0.5006  0.0391 -0.4915
 6883SOL    HW132282   4.237   0.489  11.431 -0.6581  0.5153  1.0373
 6883SOL    HW232283   4.139   0.594  11.482  1.4968 -0.8444  0.9558
 6884SOL     OW32284   0.460   3.542   7.535  0.3992  0.3433 -0.3282
 6884SOL    HW132285   0.537   3.498   7.498  0.0922 -1.6171  1.3366
 6884SOL    HW232286   0.469   3.626   7.491  0.0595  0.0229 -1.0064
 6885SOL     OW32287   2.033   1.437  16.880 -0.1342 -0.0750  0.3701
 6885SOL    HW132288   2.115   1.479  16.852 -0.8500  1.2275  0.2546
 6885SOL    HW232289   2.062   1.345  16.879 -0.6022 -0.2132 -0.7618
 6886SOL     OW32290   3.692   3.411   6.254  0.8722  0.2318 -0.1050
 6886SOL    HW132291   3.606   3.451   6.267  1.2714  1.4583 -1.3130
 6886SOL    HW232292   3.730   3.437   6.338 -3.3333  5.3009  0.2018
 6887SOL     OW32293   3.725   4.219  16.799 -0.3040  0.7785  0.4569
 6887SOL    HW132294   3.794   4.284  16.800  1.1790 -0.8073  1.2084
 6887SOL    HW232295   3.768   4.153  16.853 -0.5883 -0.8091 -1.2546
 6888SOL     OW32296   2.763   1.837   2.941  0.9679 -0.4384  0.4793
 6888SOL    HW132297   2.728   1.865   2.856  0.1397 -2.2780  0.2258
 6888SOL    HW232298   2.734   1.746   2.932  0.7703 -0.5627  2.4213
 6889SOL     OW32299   2.107   0.411  10.935  0.0151 -0.0769 -0.2144
 6889SOL    HW132300   2.198   0.437  10.921 -0.1521  0.8239  0.3111
 6889SOL    HW232301   2.095   0.446  11.024  1.0143  1.1325 -0.5466
 6890SOL     OW32302   4.144   0.592   1.129  0.1256 -0.5917  0.1011
 6890SOL    HW132303   4.079   0.653   1.164  2.6041  1.7806  0.5377
 6890SOL    HW232304   4.210   0.596   1.197 -0.7936 -1.3442  1.0370
 6891SOL     OW32305   0.732   2.776   9.051 -0.1014  0.0255 -0.1585
 6891SOL    HW132306   0.738   2.774   8.956 -0.3225 -0.4488 -0.1666
 6891SOL    HW232307   0.805   2.727   9.090 -1.3472  1.3892  3.9495
 6892SOL     OW32308   0.378   0.219  15.820  0.0512 -0.6184  0.0863
 6892SOL    HW132309   0.307   0.188  15.875 -0.4177  0.9952  0.4039
 6892SOL    HW232310   0.363   0.187  15.731 -1.3620  2.1841 -0.6644
 6893SOL     OW32311   3.862   3.203   3.769 -0.1791 -0.3763  0.1811
 6893SOL    HW132312   3.887   3.207   3.677 -0.4056  3.5446  0.2967
 6893SOL    HW232313   3.895   3.279   3.816 -0.4662  0.0972 -0.3804
 6894SOL     OW32314   1.389   1.161   1.761 -0.8112  0.0382  0.5461
 6894SOL    HW132315   1.459   1.218   1.791 -1.7103  2.2525 -1.5024
 6894SOL    HW232316   1.360   1.208   1.682 -3.1412 -0.2040  1.2631
 6895SOL     OW32317   2.360   1.814   6.238  0.1695 -0.9117  0.8021
 6895SOL    HW132318   2.287   1.855   6.284  0.9328  1.4244 -0.0984
 6895SOL    HW232319   2.332   1.723   6.227  0.9010 -0.8053 -1.9590
 6896SOL     OW32320   3.598   3.083  14.453 -0.0959  0.0717  0.0779
 6896SOL    HW132321   3.690   3.106  14.437  0.4003 -0.6016  1.9308
 6896SOL    HW232322   3.550   3.114  14.377 -0.7745 -1.3547 -0.0828
 6897SOL     OW32323   3.635   0.020   1.720  0.0407 -0.2716  0.4378
 6897SOL    HW132324   3.645   4.678   1.672  2.0874  1.4427 -2.0611
 6897SOL    HW232325   3.549   0.056   1.697  0.1165 -0.6433 -0.4446
 6898SOL     OW32326   3.578   4.686   6.259  0.1618 -0.2402 -0.0905
 6898SOL    HW132327   3.632   4.608   6.246 -0.8252 -1.2215  1.6345
 6898SOL    HW232328   3.501   4.665   6.206  0.1236  2.0738 -0.9588
 6899SOL     OW32329   0.306   3.886   6.666  0.1963 -0.0996  0.6008
 6899SOL    HW132330   0.379   3.840   6.707 -0.1692 -0.4566  0.8462
 6899SOL    HW232331   0.292   3.954   6.732 -1.1983  0.1740  0.0363
 6900SOL     OW32332   3.063   1.373   9.717 -0.1083  0.1669 -0.0126
 6900SOL    HW132333   3.069   1.339   9.628  1.6695  0.7687 -0.1343
 6900SOL    HW232334   3.092   1.464   9.705  0.5786 -0.1181 -0.5387
 6901SOL     OW32335   1.891   0.624   6.571  0.3916 -0.1420 -0.6777
 6901SOL    HW132336   1.814   0.653   6.620  0.4314 -2.0590  0.4985
 6901SOL    HW232337   1.876   0.676   6.492 -0.5497  0.5396 -0.0438
 6902SOL     OW32338   3.121   1.701   6.566 -0.3013  0.2750  0.6244
 6902SOL    HW132339   3.114   1.790   6.530 -2.7748  0.2739  1.1294
 6902SOL    HW232340   3.072   1.723   6.645  0.7525  0.5641  1.2071
 6903SOL     OW32341   4.427   3.240   5.259 -0.6388 -0.2934 -0.3664
 6903SOL    HW132342   4.398   3.300   5.327 -0.6122  0.9976 -1.5094
 6903SOL    HW232343   4.346   3.222   5.213 -1.2162 -0.3546  0.6825
 6904SOL     OW32344   0.448   1.674   9.037  0.0148  0.5929  0.5011
 6904SOL    HW132345   0.400   1.694   9.117 -0.4337 -2.7305  1.0498
 6904SOL    HW232346   0.539   1.673   9.065 -0.2268  0.9364  1.2784
 6905SOL     OW32347   1.809   1.051  12.407 -0.1113  0.2389 -0.4087
 6905SOL    HW132348   1.800   1.022  12.498 -0.6479 -2.1222 -1.2087
 6905SOL    HW232349   1.894   1.013  12.385 -1.9763 -3.2209 -1.6298
 6906SOL     OW32350   3.073   3.466   4.546 -0.3677 -0.1610  0.3220
 6906SOL    HW132351   3.078   3.370   4.551  2.5878  0.0770  1.5944
 6906SOL    HW232352   3.028   3.467   4.631  0.4412 -0.5157  0.7548
 6907SOL     OW32353   4.099   4.173  13.552 -0.0284 -0.2792 -0.2521
 6907SOL    HW132354   4.126   4.083  13.571  0.4635 -0.3459 -1.2819
 6907SOL    HW232355   4.156   4.202  13.481 -0.6752  1.1785 -0.1770
 6908SOL     OW32356   3.762   4.371  16.041  0.1622 -0.0806 -0.1871
 6908SOL    HW132357   3.731   4.294  15.993  1.1317 -0.6671  0.1366
 6908SOL    HW232358   3.738   4.344  16.129  1.4480  1.2832  0.5781
 6909SOL     OW32359   0.658   1.344  15.967  0.2741 -0.0646 -0.1937
 6909SOL    HW132360   0.748   1.311  15.966 -0.3224 -1.7550  0.9930
 6909SOL    HW232361   0.635   1.344  16.060  0.1457 -0.2823 -0.2241
 6910SOL     OW32362   1.330   0.974   0.122 -0.1845 -0.2852 -0.2170
 6910SOL    HW132363   1.323   0.939   0.211  1.2212 -0.1730 -0.0538
 6910SOL    HW232364   1.357   0.899   0.069  0.9675 -0.7107  0.9657
 6911SOL     OW32365   3.725   4.413   5.529 -0.4745  0.2802  0.6996
 6911SOL    HW132366   3.727   4.328   5.485 -1.2630  0.7997 -0.3488
 6911SOL    HW232367   3.810   4.450   5.509 -0.7011  0.0415 -0.6725
 6912SOL     OW32368   1.964   4.633   3.541  0.0807 -0.2785 -0.1777
 6912SOL    HW132369   2.051   4.642   3.580  0.7861 -1.1531 -1.5786
 6912SOL    HW232370   1.909   4.634   3.620  1.8181 -0.2888  1.0517
 6913SOL     OW32371   3.281   2.835   3.796  0.1540 -0.2356 -0.3623
 6913SOL    HW132372   3.347   2.885   3.748 -0.3366 -1.2815 -2.1123
 6913SOL    HW232373   3.249   2.766   3.738  0.0400 -0.8216  0.3918
 6914SOL     OW32374   1.247   3.560   1.553  0.2635  0.2103  0.1100
 6914SOL    HW132375   1.313   3.544   1.620 -0.0737 -0.6150  0.2440
 6914SOL    HW232376   1.251   3.655   1.547  0.1929  0.1121 -1.5892
 6915SOL     OW32377   3.979   4.453   5.049 -0.1286 -0.1171 -0.3449
 6915SOL    HW132378   3.971   4.392   4.975 -0.8202  0.6210 -0.8738
 6915SOL    HW232379   3.974   4.387   5.118 -0.1318  0.2909  0.0426
 6916SOL     OW32380   2.497   4.442  11.901 -1.0164 -0.3932 -0.1980
 6916SOL    HW132381   2.425   4.474  11.955 -1.6802 -1.4764 -0.4638
 6916SOL    HW232382   2.564   4.435  11.969 -1.9831 -2.9391  0.4787
 6917SOL     OW32383   1.252   3.327  14.729  0.2644  0.3999 -0.4350
 6917SOL    HW132384   1.203   3.306  14.650 -0.0596  2.3864 -0.7621
 6917SOL    HW232385   1.342   3.329  14.696  0.6658 -1.3144  0.5331
 6918SOL     OW32386   4.599   1.955  16.976 -0.2456  0.3009  0.1749
 6918SOL    HW132387   4.580   1.865  17.002 -1.2452  0.9175  1.5387
 6918SOL    HW232388   4.671   1.977  17.036 -0.9184 -1.0048  1.4622
 6919SOL     OW32389   0.869   4.458   7.277 -0.6116 -0.3678  0.0528
 6919SOL    HW132390   0.895   4.526   7.339 -0.0598 -0.4949 -0.0395
 6919SOL    HW232391   0.952   4.452   7.230 -1.1668 -1.2602 -0.8224
 6920SOL     OW32392   2.096   4.361   0.507 -0.2910 -0.3822 -0.2611
 6920SOL    HW132393   2.152   4.394   0.577 -0.4655  0.6094 -0.5924
 6920SOL    HW232394   2.161   4.361   0.437  1.2583  0.8010  1.2050
 6921SOL     OW32395   4.657   0.114   7.064  0.2158 -0.2368  0.2155
 6921SOL    HW132396   4.710   0.056   7.009 -0.4459 -0.8165  0.1898
 6921SOL    HW232397   4.631   0.063   7.140  0.0371  1.9990  1.6366
 6922SOL     OW32398   3.327   3.890   2.615 -0.2064  0.6862  0.0633
 6922SOL    HW132399   3.357   3.877   2.525  0.3531  2.3546  0.0104
 6922SOL    HW232400   3.396   3.949   2.645 -0.3575  0.4201  0.9123
 6923SOL     OW32401   0.377   0.477   9.690 -0.2010  0.1494 -0.5899
 6923SOL    HW132402   0.398   0.562   9.730 -4.9975  1.2047 -0.3461
 6923SOL    HW232403   0.284   0.470   9.708 -0.4333 -0.3782 -1.9785
 6924SOL     OW32404   4.682   0.399  17.655  0.3730  0.2648  0.1571
 6924SOL    HW132405   4.662   0.475  17.710 -0.4284 -1.3711  2.1087
 6924SOL    HW232406   0.017   0.355  17.694 -0.5640  0.3320  2.0408
 6925SOL     OW32407   2.960   1.877   3.128 -0.1374 -0.5409  0.3302
 6925SOL    HW132408   2.913   1.857   3.048 -1.2475  0.7606  0.6438
 6925SOL    HW232409   3.017   1.801   3.134  0.3772 -0.2709 -1.2790
 6926SOL     OW32410   2.410   2.169   8.058 -0.3255  0.1566  0.2285
 6926SOL    HW132411   2.354   2.122   8.119 -0.9063  0.6071  0.0383
 6926SOL    HW232412   2.443   2.091   8.012  0.4497  1.1824 -0.9458
 6927SOL     OW32413   4.106   1.001   7.592  0.0368 -0.5472  0.1109
 6927SOL    HW132414   4.161   1.036   7.522  0.8125 -2.3847 -0.1994
 6927SOL    HW232415   4.022   1.029   7.555  0.6562  2.5663  1.0076
 6928SOL     OW32416   1.568   1.096   3.076 -0.6041  0.0151 -0.0816
 6928SOL    HW132417   1.503   1.137   3.133  0.5829  0.6351  0.8388
 6928SOL    HW232418   1.519   1.084   2.995 -1.2215 -1.9484  0.5725
 6929SOL     OW32419   0.433   3.295   3.838  0.1670  0.4161  0.1581
 6929SOL    HW132420   0.513   3.336   3.805 -0.9017  2.1494 -0.2750
 6929SOL    HW232421   0.425   3.208   3.801  2.6310  0.5288 -0.6407
 6930SOL     OW32422   0.764   3.523   3.356 -0.3630  0.0497  0.3827
 6930SOL    HW132423   0.828   3.508   3.426  0.8111  0.1543 -0.6547
 6930SOL    HW232424   0.818   3.509   3.278  0.4078 -2.4903  1.3801
 6931SOL     OW32425   0.463   3.727   0.117  0.5200 -0.1772  0.0792
 6931SOL    HW132426   0.431   3.682   0.195 -0.5857 -1.6481 -1.2314
 6931SOL    HW232427   0.514   3.802   0.148  0.8476 -0.5211  0.3667
 6932SOL     OW32428   0.362   1.865   7.101  0.3535 -0.3916 -0.5301
 6932SOL    HW132429   0.329   1.908   7.022 -1.5366 -0.2673  0.3079
 6932SOL    HW232430   0.450   1.902   7.104 -0.5308  1.6345  0.9592
 6933SOL     OW32431   4.402   4.049   8.300 -0.1105 -0.6404  0.0787
 6933SOL    HW132432   4.342   4.109   8.254 -1.2175  0.6517  3.2353
 6933SOL    HW232433   4.422   3.990   8.228  0.8861  2.2444 -2.0299
 6934SOL     OW32434   0.020   3.495  17.747 -0.3016 -0.4381  0.7256
 6934SOL    HW132435   0.014   3.569   0.047 -0.8078 -0.0480  0.1905
 6934SOL    HW232436   4.705   3.536  17.681  0.4514 -1.1238 -0.3442
 6935SOL     OW32437   4.186   4.456   1.643  0.1492 -0.0663  0.6005
 6935SOL    HW132438   4.239   4.533   1.622 -0.7799  0.6792  0.9685
 6935SOL    HW232439   4.097   4.487   1.628  1.1841  2.5129 -0.2739
 6936SOL     OW32440   3.706   4.493   1.247  0.0853  0.3738 -0.2434
 6936SOL    HW132441   3.727   4.552   1.319  1.4883 -0.7102  0.2464
 6936SOL    HW232442   3.758   4.413   1.261 -2.9268 -1.5648 -0.1698
 6937SOL     OW32443   2.360   1.738   5.612 -0.2481 -0.0880 -0.1544
 6937SOL    HW132444   2.278   1.763   5.653  0.5205 -0.7876  1.8104
 6937SOL    HW232445   2.371   1.805   5.545  3.3229  0.3138  0.8187
 6938SOL     OW32446   1.974   0.971  17.213 -0.0265  0.5086  0.2319
 6938SOL    HW132447   1.981   1.039  17.146 -1.3908  0.6201  0.2113
 6938SOL    HW232448   1.889   0.986  17.254 -1.1832 -0.2707 -1.8916
 6939SOL     OW32449   2.252   2.181   6.697  0.3529  0.1614 -0.1365
 6939SOL    HW132450   2.217   2.109   6.748  0.5624 -0.5965 -1.0716
 6939SOL    HW232451   2.266   2.247   6.766 -1.8498 -0.5388  0.9836
 6940SOL     OW32452   3.125   2.942   4.856 -0.1703  0.8119 -0.1877
 6940SOL    HW132453   3.157   2.853   4.838 -0.8089  0.2050  1.6542
 6940SOL    HW232454   3.038   2.940   4.816 -0.0442  1.1378 -0.4769
 6941SOL     OW32455   4.320   1.247  17.468  0.3441  0.4218  0.7633
 6941SOL    HW132456   4.413   1.234  17.451  0.5424  0.6787  1.6450
 6941SOL    HW232457   4.280   1.222  17.385  0.0759  1.7848  0.4910
 6942SOL     OW32458   1.616   3.652   5.730 -0.0016 -0.0584 -0.3543
 6942SOL    HW132459   1.637   3.584   5.795  0.0448 -0.0562 -0.3674
 6942SOL    HW232460   1.591   3.720   5.793  0.4914 -0.7431  0.5828
 6943SOL     OW32461   2.599   0.947   2.095  0.9977 -0.7447  0.8666
 6943SOL    HW132462   2.645   0.991   2.024 -0.8209 -1.0355 -0.5090
 6943SOL    HW232463   2.512   0.947   2.056  0.6004 -0.6016  1.7491
 6944SOL     OW32464   4.237   2.794   8.072 -0.3570  0.1663 -0.0564
 6944SOL    HW132465   4.318   2.831   8.039  0.5372 -0.6710  1.1853
 6944SOL    HW232466   4.200   2.783   7.985 -0.8206  0.2307  0.1329
 6945SOL     OW32467   0.343   3.723   5.295  0.2894 -0.1176  0.0873
 6945SOL    HW132468   0.256   3.757   5.272  1.0848  0.1306 -2.4882
 6945SOL    HW232469   0.407   3.782   5.256 -1.2479  2.3074  1.2332
 6946SOL     OW32470   2.255   1.650   3.814 -0.5744  0.2081  0.4847
 6946SOL    HW132471   2.326   1.644   3.750 -0.8109 -0.4330  0.2819
 6946SOL    HW232472   2.273   1.739   3.846 -0.0698 -0.0680  0.9520
 6947SOL     OW32473   1.093   2.112   5.001 -0.2694 -0.0104 -1.2937
 6947SOL    HW132474   1.048   2.031   5.025  1.2307 -0.7748 -1.0919
 6947SOL    HW232475   1.112   2.087   4.911  1.3112  2.5403 -1.6737
 6948SOL     OW32476   2.185   0.025   1.377 -0.1334 -0.0757 -0.4552
 6948SOL    HW132477   2.248   0.015   1.448 -0.5676  0.4746  0.0085
 6948SOL    HW232478   2.232   0.088   1.322 -0.6688  1.0298  0.3343
 6949SOL     OW32479   2.599   2.784   6.485  0.0351 -0.4009  0.1039
 6949SOL    HW132480   2.572   2.762   6.574 -0.2671 -0.9181 -0.1146
 6949SOL    HW232481   2.553   2.728   6.422  0.8851 -0.5360 -0.3979
 6950SOL     OW32482   2.148   3.625   1.791 -0.4213  0.3197 -0.1343
 6950SOL    HW132483   2.107   3.549   1.831  0.7560 -0.3342 -0.1660
 6950SOL    HW232484   2.073   3.670   1.753 -0.7701 -0.0444  0.1184
 6951SOL     OW32485   3.186   0.755   7.648 -0.3969  0.1619 -0.0787
 6951SOL    HW132486   3.163   0.677   7.698  3.0396  0.1476  1.5054
 6951SOL    HW232487   3.248   0.717   7.586  0.1045  0.9296 -0.0500
 6952SOL     OW32488   1.656   1.713   5.023  0.2366 -0.1877  0.3964
 6952SOL    HW132489   1.698   1.799   5.015 -0.9834  0.4205  0.5618
 6952SOL    HW232490   1.651   1.688   4.931 -0.4446  3.0064 -0.4504
 6953SOL     OW32491   0.757   1.444   6.520 -0.0901  0.0497  0.0903
 6953SOL    HW132492   0.808   1.494   6.456 -0.5764  2.1074  1.3314
 6953SOL    HW232493   0.821   1.442   6.590 -0.3204  0.0386  0.3007
 6954SOL     OW32494   1.658   0.361   5.728  0.1074 -0.0816 -0.3480
 6954SOL    HW132495   1.742   0.319   5.745  0.0106 -1.1265 -2.4271
 6954SOL    HW232496   1.682   0.453   5.739 -2.1745  0.4718  0.1467
 6955SOL     OW32497   1.361   1.544  14.905 -0.5017  0.1066 -0.0435
 6955SOL    HW132498   1.327   1.476  14.964 -1.8657 -0.1623 -1.1198
 6955SOL    HW232499   1.417   1.504  14.839  1.7756  1.7454  0.9306
 6956SOL     OW32500   3.608   3.620   8.999 -0.4530 -0.5535 -0.5098
 6956SOL    HW132501   3.537   3.577   8.950 -0.5123 -2.8987  1.6392
 6956SOL    HW232502   3.632   3.689   8.937 -1.0793  0.4959  0.4137
 6957SOL     OW32503   0.786   2.859   6.735 -0.5175 -0.0187  0.2633
 6957SOL    HW132504   0.842   2.869   6.658  2.3624 -1.2786  2.2017
 6957SOL    HW232505   0.844   2.911   6.791  0.3701 -0.1276 -0.5687
 6958SOL     OW32506   1.438   0.568   8.115  0.6543 -0.3638  0.1491
 6958SOL    HW132507   1.419   0.602   8.202  1.5499 -0.3371  0.3377
 6958SOL    HW232508   1.349   0.568   8.082  1.2888  2.7674 -1.5270
 6959SOL     OW32509   0.413   3.764  10.553 -0.0860  0.0401  0.2095
 6959SOL    HW132510   0.319   3.757  10.536 -0.5829  2.4833  1.9686
 6959SOL    HW232511   0.435   3.845  10.507 -2.3060  0.5894  0.1401
 6960SOL     OW32512   3.722   2.297  12.841 -0.3797  0.2697  0.0781
 6960SOL    HW132513   3.644   2.257  12.879 -0.5081  1.4323  1.0422
 6960SOL    HW232514   3.716   2.391  12.857  1.7482  0.6607 -1.4006
 6961SOL     OW32515   4.242   1.916  15.507  0.3574  1.1267  0.9413
 6961SOL    HW132516   4.184   1.915  15.430  2.5553  0.0402 -0.7079
 6961SOL    HW232517   4.212   1.996  15.550  0.4779  1.0886  1.0957
 6962SOL     OW32518   1.590   1.407   9.163 -0.0153 -0.4011 -0.5777
 6962SOL    HW132519   1.667   1.458   9.191  0.3599 -0.9687 -0.5769
 6962SOL    HW232520   1.576   1.351   9.239  1.3894 -0.4375 -0.3358
 6963SOL     OW32521   0.013   2.107   9.166  0.5684  0.3283 -0.0425
 6963SOL    HW132522   4.723   2.056   9.241  0.4819  1.0536  0.4178
 6963SOL    HW232523   0.104   2.119   9.192  0.3437 -1.6950  1.7420
 6964SOL     OW32524   4.737   1.496   8.258  0.2757  0.3154 -0.4180
 6964SOL    HW132525   0.090   1.512   8.267  0.3930 -1.0661  0.7473
 6964SOL    HW232526   4.731   1.436   8.332 -2.6806  0.0671 -0.8690
 6965SOL     OW32527   0.635   3.874   2.923 -0.6095  0.1018  0.0032
 6965SOL    HW132528   0.557   3.916   2.889  0.7634  2.9362  0.3709
 6965SOL    HW232529   0.687   3.870   2.842 -1.2165  4.1233 -0.5509
 6966SOL     OW32530   1.816   2.723   4.481  0.1878 -1.2036  0.1856
 6966SOL    HW132531   1.902   2.690   4.507  0.3822  0.1416  1.2436
 6966SOL    HW232532   1.811   2.802   4.535  1.8067 -1.4522  0.6998
 6967SOL     OW32533   2.570   3.999  12.467  0.1820 -0.5650  0.1000
 6967SOL    HW132534   2.558   3.973  12.558  0.8026 -0.2069  0.2895
 6967SOL    HW232535   2.579   4.095  12.466 -1.3897 -0.4328 -1.5622
 6968SOL     OW32536   0.949   1.485   8.198  0.0940  0.2324  0.3276
 6968SOL    HW132537   0.974   1.396   8.171  3.1363  0.7279  1.5827
 6968SOL    HW232538   0.900   1.514   8.121  0.0815  1.2488  0.7194
 6969SOL     OW32539   1.939   2.747   8.233 -0.2449  0.1208  0.0411
 6969SOL    HW132540   1.970   2.771   8.320  0.8749 -0.5274 -0.1741
 6969SOL    HW232541   1.860   2.801   8.229 -0.0568  0.4848  1.4217
 6970SOL     OW32542   3.007   2.757   2.022  0.0874  0.1502  0.0895
 6970SOL    HW132543   2.954   2.736   1.945 -0.4329 -1.1075  0.7935
 6970SOL    HW232544   3.096   2.766   1.989 -0.4254  0.4135 -1.1911
 6971SOL     OW32545   2.044   2.834   2.098 -0.3768 -0.0947  0.5697
 6971SOL    HW132546   2.041   2.786   2.181  2.8296 -1.1687  0.0870
 6971SOL    HW232547   2.063   2.762   2.037  0.7345 -0.9335  1.8834
 6972SOL     OW32548   3.364   1.068   5.036  0.0657 -0.2322 -0.1742
 6972SOL    HW132549   3.450   1.031   5.058  0.1585 -0.0869 -0.2902
 6972SOL    HW232550   3.341   1.017   4.958 -1.1883  0.0254  0.0295
 6973SOL     OW32551   2.940   1.076   7.797  0.1029 -0.0769  0.8495
 6973SOL    HW132552   2.891   0.995   7.812  0.7127 -0.5271  0.4257
 6973SOL    HW232553   3.032   1.052   7.810  1.0320  3.1573  0.1739
 6974SOL     OW32554   3.810   3.506   6.493  0.3562 -0.2467 -0.3369
 6974SOL    HW132555   3.778   3.592   6.520  0.3680 -0.6923  1.1380
 6974SOL    HW232556   3.795   3.466   6.579 -0.7247  3.8480  1.3626
 6975SOL     OW32557   2.449   4.189  17.562  0.7627 -0.0967 -0.2557
 6975SOL    HW132558   2.385   4.257  17.585  0.7742  0.4769 -1.9659
 6975SOL    HW232559   2.518   4.222  17.620  0.6220  0.2920 -0.3119
 6976SOL     OW32560   2.811   0.396   5.052 -0.2326 -0.4241  0.3488
 6976SOL    HW132561   2.885   0.336   5.043  0.8044  0.6839  1.4985
 6976SOL    HW232562   2.846   0.477   5.015  1.0517  0.0716  2.6153
 6977SOL     OW32563   3.517   1.886   8.498 -0.6304  0.0146  0.2965
 6977SOL    HW132564   3.581   1.953   8.522 -0.2922 -0.7361  1.4750
 6977SOL    HW232565   3.462   1.889   8.576 -1.0016  0.1252  0.0304
 6978SOL     OW32566   0.786   0.828   8.933  0.3644  0.2755  0.3887
 6978SOL    HW132567   0.713   0.829   8.996 -1.1020 -0.6595 -1.2964
 6978SOL    HW232568   0.857   0.866   8.984 -1.4349  0.0385  3.0831
 6979SOL     OW32569   2.443   0.616   4.905  0.0453  0.4351  0.0748
 6979SOL    HW132570   2.453   0.582   4.817 -0.5547  0.5888 -0.0519
 6979SOL    HW232571   2.385   0.687   4.877 -2.0284 -1.8345 -1.3118
 6980SOL     OW32572   4.570   4.060   4.532  0.1438  0.4927 -0.0496
 6980SOL    HW132573   4.603   3.977   4.565  2.4533  1.1808 -0.5935
 6980SOL    HW232574   4.518   4.029   4.458  1.2786  2.5062 -1.6924
 6981SOL     OW32575   2.818   1.856   5.138 -0.4854  0.3510 -0.2525
 6981SOL    HW132576   2.789   1.770   5.169  1.3711 -0.2944 -0.3161
 6981SOL    HW232577   2.866   1.824   5.062 -1.5280  0.2003 -0.8528
 6982SOL     OW32578   2.005   2.206   6.519  0.1752  0.3511  0.0687
 6982SOL    HW132579   2.074   2.227   6.582  0.5477  1.4268 -0.6878
 6982SOL    HW232580   1.919   2.222   6.558  0.4065  4.0900 -0.9093
 6983SOL     OW32581   2.667   3.006   5.791  0.6393  0.3574 -0.2322
 6983SOL    HW132582   2.693   3.068   5.859  0.8914 -0.9854  0.9041
 6983SOL    HW232583   2.611   3.071   5.750  2.1020 -0.0105 -2.8262
 6984SOL     OW32584   3.523   0.587   4.240 -0.2192 -0.2035 -0.1251
 6984SOL    HW132585   3.609   0.548   4.223 -0.8152 -1.1549 -0.9091
 6984SOL    HW232586   3.530   0.604   4.334 -0.0815 -2.0992  0.2126
 6985SOL     OW32587   1.692   3.253   3.300 -0.2021  0.1647 -0.2925
 6985SOL    HW132588   1.696   3.303   3.218  1.3159  0.1856 -0.2123
 6985SOL    HW232589   1.773   3.290   3.335 -0.6385  0.8704 -0.0429
 6986SOL     OW32590   3.222   0.331   3.949 -0.1690  0.6128 -0.1013
 6986SOL    HW132591   3.136   0.301   3.978  0.0642 -0.2685 -0.2973
 6986SOL    HW232592   3.233   0.415   3.992 -1.9884 -0.2473  2.0461
 6987SOL     OW32593   3.732   4.080   3.589 -0.2848 -0.4430 -0.4047
 6987SOL    HW132594   3.671   4.149   3.613  0.3553 -0.0097 -0.0442
 6987SOL    HW232595   3.813   4.129   3.596  0.3928 -1.7037  0.6720
 6988SOL     OW32596   4.456   4.514  15.563 -0.1859  0.2404 -0.2499
 6988SOL    HW132597   4.405   4.436  15.541 -1.2061  0.5773  0.9272
 6988SOL    HW232598   4.474   4.488  15.653 -0.3428 -0.6757 -0.4814
 6989SOL     OW32599   3.901   2.556   8.271 -0.0228  0.2048 -0.7819
 6989SOL    HW132600   3.937   2.467   8.272 -0.5083  0.0056 -0.7651
 6989SOL    HW232601   3.953   2.606   8.334 -0.4303 -0.1103 -0.1930
 6990SOL     OW32602   4.212   2.916   5.779 -0.4142 -0.0683  0.1643
 6990SOL    HW132603   4.185   2.995   5.826  1.0285  0.6421 -0.2002
 6990SOL    HW232604   4.305   2.915   5.800 -0.4095  1.0945  0.2084
 6991SOL     OW32605   2.438   2.860   3.905 -0.1223 -0.1961 -0.6683
 6991SOL    HW132606   2.402   2.942   3.870 -0.3485  0.4850  1.1593
 6991SOL    HW232607   2.499   2.829   3.838 -0.3128  1.4993 -1.6367
 6992SOL     OW32608   3.652   2.443  16.340 -0.8731  0.2477  0.3233
 6992SOL    HW132609   3.650   2.424  16.434  1.8951 -1.2502  0.0888
 6992SOL    HW232610   3.600   2.368  16.311  0.0611 -1.1675  2.2986
 6993SOL     OW32611   4.402   3.723  15.805 -0.7200 -0.0308 -0.1684
 6993SOL    HW132612   4.409   3.757  15.715 -2.0430 -0.2632 -0.3593
 6993SOL    HW232613   4.394   3.629  15.785  2.0928  0.3271 -2.9761
 6994SOL     OW32614   0.649   1.748   1.290 -0.2622 -0.2298  0.3998
 6994SOL    HW132615   0.601   1.681   1.339  0.6788 -1.6108 -0.6051
 6994SOL    HW232616   0.703   1.773   1.365  2.2495 -0.6366 -1.2762
 6995SOL     OW32617   1.780   1.469   3.593  0.1072  0.1202  0.1286
 6995SOL    HW132618   1.863   1.503   3.627  1.1016  0.5121 -2.7298
 6995SOL    HW232619   1.734   1.552   3.578 -1.6557 -1.3764 -2.6297
 6996SOL     OW32620   2.915   2.058   5.291  0.5149 -0.0669  0.1872
 6996SOL    HW132621   2.830   2.037   5.252  0.7187 -1.3505  0.4422
 6996SOL    HW232622   2.973   1.988   5.260 -0.8668 -1.8864  1.7413
 6997SOL     OW32623   3.068   0.958  13.194 -0.1848  0.4122  0.1257
 6997SOL    HW132624   3.163   0.945  13.198 -0.2711  0.1996  1.5821
 6997SOL    HW232625   3.053   1.036  13.248 -1.8625  1.3213 -1.6945
 6998SOL     OW32626   3.797   2.122   4.162  0.1178  0.6290 -0.3359
 6998SOL    HW132627   3.874   2.163   4.200  0.1873 -1.0006  1.3306
 6998SOL    HW232628   3.835   2.048   4.115  0.0926 -0.2590  1.0132
 6999SOL     OW32629   2.823   2.432   5.750 -0.0504 -0.0678  0.5977
 6999SOL    HW132630   2.736   2.396   5.768  0.0501  1.0456  3.3846
 6999SOL    HW232631   2.886   2.365   5.777  2.0524  1.6854  0.0278
 7000SOL     OW32632   3.132   3.459  11.774  0.0160  0.3621 -0.0467
 7000SOL    HW132633   3.115   3.391  11.840  1.5440  0.2907  0.2527
 7000SOL    HW232634   3.053   3.453  11.720 -0.3939 -1.4168  0.7552
 7001SOL     OW32635   3.883   0.425  14.843  0.5288 -0.6406  0.9126
 7001SOL    HW132636   3.825   0.395  14.774  3.0551 -3.0262 -0.1939
 7001SOL    HW232637   3.962   0.426  14.790 -1.1859  2.2942 -1.5423
 7002SOL     OW32638   0.876   4.352   8.339  0.3166 -0.3159 -0.0354
 7002SOL    HW132639   0.804   4.407   8.308  0.1280  0.8017  2.4090
 7002SOL    HW232640   0.939   4.424   8.337  0.9890 -0.8689  1.9655
 7003SOL     OW32641   2.101   4.097   7.540 -0.0293 -0.5141  0.1028
 7003SOL    HW132642   2.097   4.101   7.636  1.1135 -1.7045  0.1988
 7003SOL    HW232643   2.195   4.084   7.523 -0.3209 -1.0278 -1.0908
 7004SOL     OW32644   3.049   0.351   8.074 -0.0224  0.2024  0.0491
 7004SOL    HW132645   3.029   0.443   8.054  2.3696  0.0858 -2.9654
 7004SOL    HW232646   3.040   0.338   8.169 -0.2075  1.5421  0.2161
 7005SOL     OW32647   2.619   4.338  12.769 -0.2199 -0.4308 -0.2993
 7005SOL    HW132648   2.681   4.411  12.771 -1.0943  0.3256 -0.7695
 7005SOL    HW232649   2.613   4.318  12.676  1.1184 -1.4275 -0.1704
 7006SOL     OW32650   1.078   4.660   2.162 -0.4319 -0.3120 -0.3391
 7006SOL    HW132651   1.133   4.733   2.134  0.0936 -1.3702 -2.0272
 7006SOL    HW232652   1.010   4.700   2.216 -0.8143 -0.9944 -0.3216
 7007SOL     OW32653   0.122   1.238  16.614  0.7160 -0.1671 -0.2537
 7007SOL    HW132654   0.210   1.202  16.598  0.5745 -0.9990  0.8713
 7007SOL    HW232655   0.141   1.275  16.700 -2.1128  1.1646 -0.2124
 7008SOL     OW32656   2.244   3.066   3.728 -0.2033  0.2585  0.5758
 7008SOL    HW132657   2.190   3.033   3.799 -0.6711  2.1683  1.1143
 7008SOL    HW232658   2.211   3.007   3.660  0.5196 -0.6105  0.9837
 7009SOL     OW32659   1.567   2.093   7.536  0.2543  0.1513 -0.6390
 7009SOL    HW132660   1.568   2.078   7.441  0.0835 -0.0385 -0.6139
 7009SOL    HW232661   1.651   2.137   7.548 -0.2561  0.4179  1.8990
 7010SOL     OW32662   1.288   0.746   4.172  0.0119 -0.5033  0.4201
 7010SOL    HW132663   1.225   0.808   4.135 -0.6428 -1.6714 -0.4329
 7010SOL    HW232664   1.365   0.790   4.138 -1.0347  0.1776 -1.0519
 7011SOL     OW32665   0.886   1.520  13.643  0.2216 -0.5176  0.1428
 7011SOL    HW132666   0.860   1.473  13.722  0.1923  0.6572  0.8308
 7011SOL    HW232667   0.964   1.569  13.668 -0.4216  0.0449  1.0168
 7012SOL     OW32668   1.512   1.636  12.532 -0.2629  0.0297  0.2538
 7012SOL    HW132669   1.444   1.590  12.482 -1.2246  0.6310  1.0251
 7012SOL    HW232670   1.502   1.717  12.481  1.1083  0.8485  1.3024
 7013SOL     OW32671   2.204   0.753   7.110  0.3067  0.4643 -0.8693
 7013SOL    HW132672   2.207   0.694   7.034  0.2585  1.3027 -1.5168
 7013SOL    HW232673   2.134   0.711   7.159 -0.3971  1.2346 -1.2333
 7014SOL     OW32674   0.852   1.472   7.260 -0.0541  0.8010  0.4854
 7014SOL    HW132675   0.882   1.486   7.170 -0.1163 -1.5245  0.1170
 7014SOL    HW232676   0.799   1.547   7.288 -0.5659  0.6850 -0.1581
 7015SOL     OW32677   3.199   0.573  15.731 -0.0734  0.3399 -0.2529
 7015SOL    HW132678   3.281   0.528  15.712 -0.3711 -0.1864 -0.2685
 7015SOL    HW232679   3.237   0.661  15.723 -0.4654  0.5554  0.2241
 7016SOL     OW32680   0.716   3.553   6.465  0.3022  0.4660 -0.2643
 7016SOL    HW132681   0.743   3.644   6.463  0.9584  0.2703 -0.5077
 7016SOL    HW232682   0.754   3.519   6.383 -0.7372  0.0946 -0.5962
 7017SOL     OW32683   4.679   3.049   1.807  0.0568 -0.8418  0.4035
 7017SOL    HW132684   4.616   3.095   1.752  1.9962  0.3113 -0.8315
 7017SOL    HW232685   4.721   3.127   1.842 -0.7376 -0.1143 -0.2747
 7018SOL     OW32686   3.960   4.284  17.068  0.4144  0.4556 -0.5429
 7018SOL    HW132687   3.935   4.328  16.987 -1.1364 -0.7618 -0.7176
 7018SOL    HW232688   4.009   4.208  17.038 -0.2872  0.1937 -1.0290
 7019SOL     OW32689   1.814   2.756   5.940  0.4544  0.4964 -0.4501
 7019SOL    HW132690   1.822   2.759   6.035  0.3717 -1.9655 -0.3654
 7019SOL    HW232691   1.879   2.819   5.907 -0.3109  0.8298 -1.3188
 7020SOL     OW32692   3.475   1.974  17.563 -0.6974 -0.8442 -0.2593
 7020SOL    HW132693   3.534   1.902  17.539  0.3499  0.0572 -0.3556
 7020SOL    HW232694   3.455   2.005  17.475  0.3519  1.5099  0.3513
 7021SOL     OW32695   2.367   2.015  10.925  0.2203  0.0948  0.1301
 7021SOL    HW132696   2.299   2.069  10.884 -0.3200 -0.7859 -0.1479
 7021SOL    HW232697   2.344   2.038  11.015 -1.0041  1.2222 -0.4665
 7022SOL     OW32698   1.990   0.814  15.403  0.1829  0.2367 -0.1968
 7022SOL    HW132699   2.076   0.845  15.372 -0.9722  2.4559 -1.1566
 7022SOL    HW232700   2.004   0.720  15.396  0.7236  0.1918  1.4994
 7023SOL     OW32701   3.414   2.597   4.280  0.4142 -0.1347 -0.0770
 7023SOL    HW132702   3.336   2.653   4.277  0.4418 -0.2385 -2.4958
 7023SOL    HW232703   3.408   2.550   4.197 -2.9783  0.8248 -0.3863
 7024SOL     OW32704   4.719   3.501  16.049  0.0766  0.7960 -0.1591
 7024SOL    HW132705   4.696   3.577  15.996 -2.1802 -0.6177 -1.2047
 7024SOL    HW232706   4.653   3.512  16.118 -1.6692  1.5572 -1.9385
 7025SOL     OW32707   0.857   1.947   9.589  0.5510 -0.2142 -0.1197
 7025SOL    HW132708   0.787   1.982   9.645  0.2406 -1.2243  0.1223
 7025SOL    HW232709   0.867   1.856   9.615 -1.0823  0.4302  2.8183
 7026SOL     OW32710   0.925   1.652   9.574 -0.0669  0.0775  0.4241
 7026SOL    HW132711   0.965   1.619   9.654  1.4680  3.3047  1.0214
 7026SOL    HW232712   0.842   1.606   9.576 -1.1437  1.9861  0.1553
 7027SOL     OW32713   0.552   0.913   1.208 -0.0039  0.5943  0.5227
 7027SOL    HW132714   0.480   0.952   1.258 -0.7008 -0.3650  0.2646
 7027SOL    HW232715   0.629   0.950   1.252  1.6536 -2.4430  0.1746
 7028SOL     OW32716   2.939   0.372   7.335  0.5196 -0.4032  0.7621
 7028SOL    HW132717   2.976   0.329   7.258  0.6587 -0.9670  1.1496
 7028SOL    HW232718   2.891   0.443   7.291  1.7091 -0.4035 -0.5373
 7029SOL     OW32719   1.241   0.228   0.113  0.4332  0.3902  0.3878
 7029SOL    HW132720   1.305   0.209   0.181  0.5296  1.4286  0.5881
 7029SOL    HW232721   1.204   0.311   0.145 -1.2541 -0.0816 -0.3153
 7030SOL     OW32722   0.554   1.841   6.123  0.9324 -0.2227 -0.4375
 7030SOL    HW132723   0.478   1.885   6.084  1.1282  0.3570 -0.1752
 7030SOL    HW232724   0.637   1.878   6.092  0.7929 -0.0166 -0.5661
 7031SOL     OW32725   4.610   1.562   9.884 -0.4316 -0.2507  0.1000
 7031SOL    HW132726   4.640   1.523   9.802 -1.5024  0.5441 -0.6730
 7031SOL    HW232727   4.662   1.640   9.903  0.4694 -0.9129  0.3482
 7032SOL     OW32728   4.222   2.065   6.162  0.2745 -0.1967 -0.4366
 7032SOL    HW132729   4.222   2.135   6.096 -0.9136 -0.9970 -1.2884
 7032SOL    HW232730   4.204   1.986   6.111  1.5175 -0.5551 -0.3230
 7033SOL     OW32731   1.820   1.164  15.785  0.3131  0.2242  0.2766
 7033SOL    HW132732   1.831   1.143  15.692  1.3034 -1.3792  0.7542
 7033SOL    HW232733   1.869   1.246  15.796  0.7205  0.1097 -0.6422
 7034SOL     OW32734   3.405   1.643   4.537 -0.0044  0.0285 -0.1458
 7034SOL    HW132735   3.448   1.658   4.453  2.2831  0.2020  1.0758
 7034SOL    HW232736   3.382   1.550   4.529  0.4857 -0.1439  0.4527
 7035SOL     OW32737   3.446   1.410   1.688 -0.1273 -0.4961  0.6956
 7035SOL    HW132738   3.485   1.364   1.762 -0.4820 -2.6122 -0.4469
 7035SOL    HW232739   3.352   1.407   1.704 -0.5173  0.1474 -1.3825
 7036SOL     OW32740   4.353   0.509   3.442  0.4546 -0.0769  0.4165
 7036SOL    HW132741   4.292   0.437   3.458 -0.4350  0.1277 -2.0449
 7036SOL    HW232742   4.355   0.494   3.348  1.5770 -1.1149  0.6110
 7037SOL     OW32743   0.033   3.676   2.458  0.3707 -0.9734  0.6152
 7037SOL    HW132744   0.053   3.593   2.414 -1.4526 -0.6619 -0.7960
 7037SOL    HW232745   4.712   3.715   2.397  1.3759  0.0956  0.2762
 7038SOL     OW32746   0.728   3.567   4.804 -0.0066 -0.5066  0.2148
 7038SOL    HW132747   0.792   3.561   4.875  0.8780 -1.5525 -0.6727
 7038SOL    HW232748   0.650   3.591   4.855 -1.5394 -1.6832 -1.5675
 7039SOL     OW32749   2.675   4.621   6.592 -0.2187 -0.3241  0.3257
 7039SOL    HW132750   2.600   4.668   6.555  1.1286  2.1621  0.8013
 7039SOL    HW232751   2.648   4.530   6.582 -2.1285  0.0947  1.5857
 7040SOL     OW32752   2.542   2.684   6.050 -0.6919  0.0475  0.5175
 7040SOL    HW132753   2.548   2.709   5.958  1.2177 -2.8276 -0.1365
 7040SOL    HW232754   2.558   2.771   6.088  1.2563 -1.1245  2.3536
 7041SOL     OW32755   3.024   4.550   6.731  0.5150 -0.1876  0.4511
 7041SOL    HW132756   3.071   4.484   6.783  0.2319 -1.0461 -0.3846
 7041SOL    HW232757   3.098   4.604   6.702 -2.3928  1.0882 -4.6690
 7042SOL     OW32758   2.719   2.109   0.758 -0.7588 -0.0029  0.4587
 7042SOL    HW132759   2.695   2.192   0.718  1.6331  0.2803 -0.3831
 7042SOL    HW232760   2.766   2.076   0.682 -3.1888  1.8049 -1.8216
 7043SOL     OW32761   2.970   0.873  17.574  0.1343  0.1480  0.5139
 7043SOL    HW132762   2.994   0.814  17.646 -1.8187 -2.0760 -0.6475
 7043SOL    HW232763   2.880   0.844  17.586 -0.1586  0.8068 -0.1212
 7044SOL     OW32764   3.418   3.269   3.388 -0.0194  0.0440 -0.0856
 7044SOL    HW132765   3.348   3.270   3.323  1.5045 -1.7163 -1.7778
 7044SOL    HW232766   3.373   3.284   3.471 -0.8128  0.6067 -0.6154
 7045SOL     OW32767   4.737   0.586  10.496 -0.2307  0.0291 -0.2492
 7045SOL    HW132768   0.048   0.561  10.420 -0.7883 -0.2856 -0.5326
 7045SOL    HW232769   4.706   0.498  10.518 -1.8246  1.0391  1.4758
 7046SOL     OW32770   1.495   1.353  16.318 -0.0515 -0.3297  0.5430
 7046SOL    HW132771   1.483   1.406  16.239  0.0663 -1.1832 -0.0374
 7046SOL    HW232772   1.574   1.393  16.355 -1.1283  0.9002  1.5384
 7047SOL     OW32773   3.433   0.475   6.141 -0.9166 -0.3161 -0.2190
 7047SOL    HW132774   3.353   0.423   6.134 -0.1970 -1.6527  1.5021
 7047SOL    HW232775   3.500   0.409   6.158 -1.3254 -1.2421 -2.2120
 7048SOL     OW32776   3.441   1.319   7.397  0.5365  0.0325  0.0462
 7048SOL    HW132777   3.406   1.389   7.453 -3.0652 -2.6240  1.1094
 7048SOL    HW232778   3.359   1.288   7.360  0.4420 -0.0363  0.3137
 7049SOL     OW32779   1.980   4.011   1.352 -0.4070 -0.4563 -0.0445
 7049SOL    HW132780   1.926   4.082   1.318 -0.8291 -1.4718 -1.5020
 7049SOL    HW232781   1.943   4.013   1.441  3.0652  3.1063  1.3074
 7050SOL     OW32782   2.355   3.410   3.829 -0.6311 -0.4411  0.4358
 7050SOL    HW132783   2.314   3.489   3.795 -0.2347 -1.6247 -2.7957
 7050SOL    HW232784   2.284   3.353   3.799  0.4095 -1.4445 -0.1610
 7051SOL     OW32785   1.748   4.101   8.780 -0.3038 -0.3721  0.0078
 7051SOL    HW132786   1.810   4.174   8.784 -0.5514 -0.2105  0.7409
 7051SOL    HW232787   1.808   4.026   8.773  0.7636  0.6815 -2.3281
 7052SOL     OW32788   1.579   2.451   3.651 -0.3609  0.1115  0.0791
 7052SOL    HW132789   1.636   2.525   3.673 -1.2963  1.1228 -0.9141
 7052SOL    HW232790   1.610   2.423   3.564 -0.4364 -2.5030  0.8827
 7053SOL     OW32791   2.953   3.714   2.819 -0.0575 -0.3357  0.1069
 7053SOL    HW132792   2.903   3.796   2.821 -0.1036 -0.3739  0.5944
 7053SOL    HW232793   2.974   3.710   2.726 -0.8412 -1.8114 -0.0110
 7054SOL     OW32794   0.009   0.205   4.383  0.1754 -0.0891 -0.2054
 7054SOL    HW132795   0.022   0.299   4.396  1.1040 -0.2955  0.3837
 7054SOL    HW232796   4.679   0.195   4.447  1.0957 -1.2595  0.6261
 7055SOL     OW32797   0.235   3.311   6.657 -0.2431  0.4126  0.5835
 7055SOL    HW132798   0.241   3.370   6.732  3.5504  1.4616 -0.5589
 7055SOL    HW232799   0.143   3.324   6.634  0.1271 -0.0267 -1.1057
 7056SOL     OW32800   1.417   3.203   5.403 -0.6917 -0.0050  0.4949
 7056SOL    HW132801   1.428   3.122   5.354 -1.7147  0.3877 -0.3766
 7056SOL    HW232802   1.420   3.269   5.334 -1.4780 -1.9569 -1.3888
 7057SOL     OW32803   4.171   4.510  16.067  0.7610 -0.1644  0.0718
 7057SOL    HW132804   4.115   4.547  15.999  0.6615  0.0901  0.2913
 7057SOL    HW232805   4.117   4.445  16.111 -1.9078  0.7696 -1.8423
 7058SOL     OW32806   1.913   1.687   5.106  0.2748  0.3621  0.0205
 7058SOL    HW132807   1.821   1.696   5.080 -0.0234 -0.9992  0.5864
 7058SOL    HW232808   1.944   1.648   5.024  0.6508  0.5936  0.0526
 7059SOL     OW32809   1.431   4.063   0.446  0.4038 -0.4371 -0.1045
 7059SOL    HW132810   1.373   4.139   0.446  0.5789 -0.3061  0.4744
 7059SOL    HW232811   1.475   4.073   0.531 -0.2209 -0.5842  0.2392
 7060SOL     OW32812   2.878   2.178  13.645 -0.2106  0.5805 -0.3083
 7060SOL    HW132813   2.814   2.241  13.680 -1.2269 -0.9253  0.5565
 7060SOL    HW232814   2.895   2.118  13.718 -2.5958  2.2684  1.6382
 7061SOL     OW32815   0.814   1.745   2.800  0.2311 -0.1742  0.1050
 7061SOL    HW132816   0.737   1.746   2.743  0.2035 -0.0261  0.1449
 7061SOL    HW232817   0.784   1.799   2.873  1.9491  0.6828  0.1657
 7062SOL     OW32818   4.170   0.125   4.292 -0.5486 -0.2819  0.3022
 7062SOL    HW132819   4.183   0.215   4.261  0.8133 -0.2015  1.0865
 7062SOL    HW232820   4.186   0.070   4.215 -0.2613 -0.2847  0.3647
 7063SOL     OW32821   1.994   2.227   2.120 -0.4223 -0.2885  0.0399
 7063SOL    HW132822   2.021   2.147   2.166 -1.0922 -0.7429 -0.3532
 7063SOL    HW232823   2.075   2.268   2.092 -0.5980 -1.1933 -1.7895
 7064SOL     OW32824   4.289   3.354   4.090 -0.0483 -0.2454  0.2329
 7064SOL    HW132825   4.248   3.332   4.173 -1.8737  2.1297 -0.0339
 7064SOL    HW232826   4.376   3.313   4.093  0.3194  0.5212  0.2006
 7065SOL     OW32827   2.131   3.055   9.556  0.1902  0.1938 -0.2244
 7065SOL    HW132828   2.154   2.981   9.612 -1.0577 -1.1220 -1.4284
 7065SOL    HW232829   2.149   3.135   9.604  1.2279 -0.5679  0.6384
 7066SOL     OW32830   1.189   3.762   8.785  0.1330 -0.2005 -0.3544
 7066SOL    HW132831   1.149   3.810   8.858 -0.5439 -1.7094  0.2664
 7066SOL    HW232832   1.282   3.752   8.805  0.2297  0.3400 -0.5372
 7067SOL     OW32833   3.056   3.185   4.641  0.3448 -0.3263  0.3976
 7067SOL    HW132834   2.964   3.164   4.627  1.1178 -4.8911  1.9543
 7067SOL    HW232835   3.092   3.101   4.671  2.0781  0.2775  0.0053
 7068SOL     OW32836   0.071   4.500   8.911 -0.3254 -0.0725 -0.5578
 7068SOL    HW132837   0.163   4.485   8.892 -0.1966  1.9386 -1.4528
 7068SOL    HW232838   0.069   4.594   8.931  3.0592 -0.0592 -0.3090
 7069SOL     OW32839   3.727   1.610   6.781 -0.2899 -0.3818  0.1318
 7069SOL    HW132840   3.634   1.590   6.798 -1.0186  2.2181 -0.8093
 7069SOL    HW232841   3.754   1.518   6.784  0.8492 -0.0547 -0.3013
 7070SOL     OW32842   2.195   0.710   5.651  0.0431 -0.0415  0.0965
 7070SOL    HW132843   2.234   0.714   5.564 -0.0264 -0.8930  0.0281
 7070SOL    HW232844   2.105   0.701   5.621  0.6610 -2.8465 -0.9660
 7071SOL     OW32845   1.969   0.825   8.186  0.2236  0.5847  0.0381
 7071SOL    HW132846   2.062   0.843   8.197  0.5365 -0.5445 -0.7203
 7071SOL    HW232847   1.935   0.914   8.178 -0.9607  0.2569  1.2502
 7072SOL     OW32848   0.909   4.179  10.310  0.0953 -0.0004  0.2496
 7072SOL    HW132849   0.961   4.183  10.390  2.5383 -0.5186 -1.3132
 7072SOL    HW232850   0.904   4.274  10.299  3.1365 -0.1734 -2.4394
 7073SOL     OW32851   3.302   2.491   9.556 -0.0661 -0.2706 -0.6377
 7073SOL    HW132852   3.332   2.459   9.640  0.0078  1.1125 -0.1391
 7073SOL    HW232853   3.237   2.427   9.529  1.7194 -1.7602 -1.3552
 7074SOL     OW32854   1.449   3.550   1.754 -0.0409 -0.6408  0.2130
 7074SOL    HW132855   1.543   3.556   1.736 -0.2345 -2.2133 -1.3030
 7074SOL    HW232856   1.464   3.460   1.784  1.7766 -0.2570  0.4695
 7075SOL     OW32857   3.092   0.185   0.319  0.4053  0.0716 -0.0048
 7075SOL    HW132858   3.101   0.158   0.228  0.5881 -2.0774  0.6640
 7075SOL    HW232859   3.104   0.280   0.328 -0.5654  0.0403  1.7213
 7076SOL     OW32860   4.164   1.274   6.116 -0.4648 -0.9104  0.1266
 7076SOL    HW132861   4.235   1.255   6.055  1.7558  0.0128  2.4277
 7076SOL    HW232862   4.137   1.191   6.154  1.6244 -1.9318 -0.6043
 7077SOL     OW32863   2.551   0.202   9.137 -0.1582  0.0112  0.3354
 7077SOL    HW132864   2.630   0.148   9.126  0.7921  1.4714 -0.0559
 7077SOL    HW232865   2.586   0.256   9.208 -2.1155  1.0517  0.4980
 7078SOL     OW32866   3.056   4.340   9.858  0.4529 -0.2348  0.2108
 7078SOL    HW132867   3.095   4.294   9.783 -0.5397 -1.1743  0.2630
 7078SOL    HW232868   2.965   4.313   9.854  0.4424  0.5087 -3.9671
 7079SOL     OW32869   3.646   0.504   3.291  0.3910 -0.1782  0.1649
 7079SOL    HW132870   3.673   0.591   3.321  3.4339 -0.8283 -0.6752
 7079SOL    HW232871   3.571   0.488   3.349  1.4034  0.8875  1.7861
 7080SOL     OW32872   0.478   2.359   8.243  0.0955  0.1292 -0.9438
 7080SOL    HW132873   0.503   2.343   8.152 -0.3623  0.0494 -1.0559
 7080SOL    HW232874   0.384   2.339   8.243 -0.4859  2.8670 -0.2920
 7081SOL     OW32875   0.254   1.210   0.820 -0.6263 -0.1770  0.5613
 7081SOL    HW132876   0.210   1.151   0.881  0.2362  2.1038  3.3686
 7081SOL    HW232877   0.242   1.169   0.734 -4.4587 -0.5251  1.2737
 7082SOL     OW32878   4.193   2.613  14.150  0.4106  0.2906 -0.0067
 7082SOL    HW132879   4.122   2.656  14.197 -0.7629 -2.1626  0.4821
 7082SOL    HW232880   4.180   2.525  14.185  2.0004 -0.3043 -0.9207
 7083SOL     OW32881   0.090   1.131   1.793 -0.3994  0.1191  0.2500
 7083SOL    HW132882   4.737   1.117   1.802 -0.5110  0.0185 -1.0376
 7083SOL    HW232883   0.117   1.089   1.712  0.5673  1.8286 -0.3314
 7084SOL     OW32884   3.097   3.585   7.600  0.1836  0.3313  0.2139
 7084SOL    HW132885   3.131   3.621   7.681  1.7935 -1.7135  0.4538
 7084SOL    HW232886   3.023   3.529   7.625 -0.0837  1.9470  2.9719
 7085SOL     OW32887   2.339   4.177  12.161  0.7077  0.6639  0.0613
 7085SOL    HW132888   2.413   4.162  12.103 -0.2922 -3.4242 -0.1422
 7085SOL    HW232889   2.264   4.132  12.122 -0.2652  2.8322 -0.6090
 7086SOL     OW32890   3.477   1.139   8.517  0.1054  0.3804  0.4590
 7086SOL    HW132891   3.494   1.086   8.439  1.6105  1.2785  0.1847
 7086SOL    HW232892   3.386   1.120   8.538 -0.3558 -0.4007 -2.2833
 7087SOL     OW32893   1.643   3.398   5.822 -0.3228 -0.9823 -0.3418
 7087SOL    HW132894   1.599   3.361   5.745  0.8957 -2.7986 -0.1633
 7087SOL    HW232895   1.731   3.419   5.790 -0.4589  1.2969  0.7629
 7088SOL     OW32896   1.208   3.485   6.006  0.1685 -0.1990 -0.2986
 7088SOL    HW132897   1.280   3.545   6.024  1.5348 -2.3012  1.1298
 7088SOL    HW232898   1.234   3.440   5.926  3.4031  2.0208 -0.4778
 7089SOL     OW32899   3.352   1.822   7.968  0.0001  0.0570  0.2431
 7089SOL    HW132900   3.330   1.839   8.060  0.6355 -1.6520  0.7171
 7089SOL    HW232901   3.377   1.730   7.972 -0.7386 -0.2008 -1.0873
 7090SOL     OW32902   3.420   1.571  16.156 -0.2053 -0.1264  0.6097
 7090SOL    HW132903   3.358   1.502  16.135  1.1567 -0.8142 -1.0791
 7090SOL    HW232904   3.430   1.616  16.072  1.6990  1.8561  1.8834
 7091SOL     OW32905   3.686   4.451  13.190  0.1921  0.6760 -0.4217
 7091SOL    HW132906   3.656   4.516  13.254 -0.0349  0.6434 -0.4927
 7091SOL    HW232907   3.781   4.446  13.200  0.1653  2.8216  0.9812
 7092SOL     OW32908   0.455   2.469  11.839 -0.3538 -0.0547 -0.1221
 7092SOL    HW132909   0.514   2.411  11.888 -1.2893 -1.4869 -0.6925
 7092SOL    HW232910   0.508   2.547  11.825 -0.6794  0.6647  2.5881
 7093SOL     OW32911   0.403   0.115   8.562 -0.1473 -0.4586 -0.9265
 7093SOL    HW132912   0.496   0.134   8.576 -0.1990  0.3841 -1.7646
 7093SOL    HW232913   0.389   0.156   8.477  1.1974  1.1056 -0.3731
 7094SOL     OW32914   4.430   0.853  14.115  0.1862 -0.2855  0.2223
 7094SOL    HW132915   4.387   0.828  14.196 -1.4086  0.5683 -0.3650
 7094SOL    HW232916   4.357   0.830  14.057 -1.9851 -0.3469  3.0160
 7095SOL     OW32917   4.353   1.193   6.991  0.5298 -0.1599  0.0814
 7095SOL    HW132918   4.366   1.288   6.998 -0.6966 -0.0745  1.1076
 7095SOL    HW232919   4.433   1.151   7.023  0.4257 -0.5939 -0.2359
 7096SOL     OW32920   2.864   1.928   3.855 -0.0557 -0.2146  0.0332
 7096SOL    HW132921   2.857   1.904   3.763 -0.2809 -2.7806  0.7304
 7096SOL    HW232922   2.862   1.845   3.903  0.7027 -0.5430 -0.5133
 7097SOL     OW32923   3.711   2.834   9.678  0.1985  0.5184  0.2685
 7097SOL    HW132924   3.726   2.834   9.773  1.0389  0.3821  0.1396
 7097SOL    HW232925   3.618   2.844   9.660  0.0553  1.7360  1.6287
 7098SOL     OW32926   1.182   0.511   5.187  1.0729  0.6870 -0.3203
 7098SOL    HW132927   1.223   0.564   5.119  0.9101 -1.0902 -1.8089
 7098SOL    HW232928   1.144   0.575   5.247 -0.4304 -2.0457  1.6648
 7099SOL     OW32929   1.309   3.004  14.084 -0.0849 -0.3389 -0.1487
 7099SOL    HW132930   1.353   3.031  14.003  2.5387 -1.4570  0.9006
 7099SOL    HW232931   1.382   2.995  14.144 -0.2656 -1.3085 -0.0693
 7100SOL     OW32932   4.543   1.456   6.245 -0.0915  0.1757  0.1280
 7100SOL    HW132933   4.579   1.535   6.287 -2.7602  1.7090 -0.4354
 7100SOL    HW232934   4.515   1.396   6.314  0.2553 -1.4804 -1.1866
 7101SOL     OW32935   1.504   3.846   3.118 -0.0788  0.2663  0.2161
 7101SOL    HW132936   1.598   3.825   3.125  0.6451  3.2110 -0.9722
 7101SOL    HW232937   1.484   3.850   3.212 -1.7578 -0.8911 -0.1037
 7102SOL     OW32938   1.668   3.333   6.369  0.2731 -0.3181  0.1434
 7102SOL    HW132939   1.683   3.420   6.334 -0.0812 -1.0888 -1.9057
 7102SOL    HW232940   1.743   3.327   6.428  1.6143  3.3944 -1.1984
 7103SOL     OW32941   0.892   2.116   8.906 -0.3684 -0.3744 -0.5665
 7103SOL    HW132942   0.960   2.049   8.906 -2.1762 -2.1733 -2.5246
 7103SOL    HW232943   0.819   2.072   8.864 -2.7185  1.2603  1.7830
 7104SOL     OW32944   1.913   4.183  17.171  0.0649  0.0862  0.0744
 7104SOL    HW132945   1.910   4.198  17.266 -1.2935 -0.2340  0.0818
 7104SOL    HW232946   2.004   4.156  17.172  0.2092  0.5852  1.8353
 7105SOL     OW32947   4.561   1.731   1.878 -0.2255 -0.1022 -0.0316
 7105SOL    HW132948   4.512   1.727   1.961  0.2263  0.4649  0.2649
 7105SOL    HW232949   4.492   1.692   1.824  1.2633 -2.0237 -0.5107
 7106SOL     OW32950   1.041   2.709   3.800  0.4542 -0.0780  0.1402
 7106SOL    HW132951   0.993   2.748   3.727 -0.2367  1.4018  1.3857
 7106SOL    HW232952   1.079   2.639   3.746  0.0612 -0.3100  0.1675
 7107SOL     OW32953   3.045   0.560   6.244  0.3206  0.2027  0.2541
 7107SOL    HW132954   2.966   0.562   6.298  0.3100  2.2990  0.1390
 7107SOL    HW232955   3.040   0.470   6.213 -1.2292 -0.4903  2.5112
 7108SOL     OW32956   4.266   1.521   6.252  0.2032 -0.4640  0.2287
 7108SOL    HW132957   4.339   1.541   6.310  1.5735 -0.4951 -1.4836
 7108SOL    HW232958   4.289   1.439   6.208 -0.2201  0.4006 -1.6044
 7109SOL     OW32959   1.632   4.036   9.013  0.3352 -0.5168 -0.1653
 7109SOL    HW132960   1.712   4.059   9.061 -0.3320  0.6500  0.3808
 7109SOL    HW232961   1.635   4.076   8.926 -3.4141 -0.4940 -0.2600
 7110SOL     OW32962   2.100   4.715   8.640  0.3961  0.3566  0.0559
 7110SOL    HW132963   2.124   0.012   8.724  0.6615 -2.2264  1.1300
 7110SOL    HW232964   2.034   0.041   8.619 -0.8527 -1.5117 -1.9305
 7111SOL     OW32965   1.910   3.029  11.762  0.2640 -0.4666  0.2417
 7111SOL    HW132966   1.820   3.001  11.745 -0.5738  1.2868  1.7462
 7111SOL    HW232967   1.949   3.031  11.675 -0.7321  0.4352 -0.1781
 7112SOL     OW32968   1.483   0.071   8.054  0.0144 -0.1864  0.1323
 7112SOL    HW132969   1.574   0.066   8.085  0.7318  0.0037 -1.9222
 7112SOL    HW232970   1.489   0.064   7.959 -0.0685  0.5216  0.0778
 7113SOL     OW32971   0.874   1.928   1.673 -0.1149  0.3965 -0.2474
 7113SOL    HW132972   0.900   2.009   1.630 -0.5115  0.3329 -0.5952
 7113SOL    HW232973   0.934   1.920   1.748  0.9444 -1.5763 -1.2911
 7114SOL     OW32974   2.754   1.171  11.650 -0.5051 -0.1824 -0.4972
 7114SOL    HW132975   2.683   1.126  11.604 -0.1489  0.3538 -1.5659
 7114SOL    HW232976   2.721   1.257  11.674 -0.5335  0.1803 -1.8115
 7115SOL     OW32977   2.784   0.553   7.190 -0.5305  0.3140  0.3792
 7115SOL    HW132978   2.756   0.514   7.107 -2.4920  0.2060  1.1052
 7115SOL    HW232979   2.693   0.559   7.219 -0.2506 -0.2068  1.3630
 7116SOL     OW32980   0.984   4.682  17.373  0.0491  0.2576 -0.1674
 7116SOL    HW132981   1.001   0.035  17.363 -1.4292  0.6336  0.7290
 7116SOL    HW232982   1.011   4.652  17.287 -0.1464  1.3849 -0.6243
 7117SOL     OW32983   2.328   1.007   2.398 -0.5742 -0.1993 -0.2863
 7117SOL    HW132984   2.382   0.965   2.465 -0.3628  3.1130  1.6142
 7117SOL    HW232985   2.272   1.062   2.452  0.7961 -0.3915  1.3101
 7118SOL     OW32986   2.469   3.149  11.327 -1.2010 -0.2968 -1.1317
 7118SOL    HW132987   2.517   3.230  11.310  0.8731 -1.4278 -0.7084
 7118SOL    HW232988   2.538   3.086  11.305 -2.0080 -1.8201  0.7432
 7119SOL     OW32989   4.700   0.176   4.715  0.1655  0.9146  0.5779
 7119SOL    HW132990   0.040   0.225   4.729  0.5509  0.6501 -0.6775
 7119SOL    HW232991   4.647   0.255   4.706 -0.6707  0.0965 -1.8555
 7120SOL     OW32992   2.410   0.611   8.867  0.4669 -0.0551  0.3455
 7120SOL    HW132993   2.440   0.523   8.843  0.7752  0.7283 -2.1763
 7120SOL    HW232994   2.433   0.612   8.960 -2.1966  0.2230  0.9720
 7121SOL     OW32995   4.031   0.422   7.745  0.6637  0.2647  0.0356
 7121SOL    HW132996   4.002   0.474   7.820  1.0232 -1.3542  1.2977
 7121SOL    HW232997   4.106   0.478   7.726  1.1505 -0.5565 -0.4300
 7122SOL     OW32998   0.291   1.114   7.404  0.3041  0.0432 -0.7688
 7122SOL    HW132999   0.296   1.024   7.371  0.7430  0.1240 -0.9235
 7122SOL    HW233000   0.196   1.126   7.409  0.4823  1.3924 -0.5416
 7123SOL     OW33001   1.670   2.155   4.869  0.2489 -0.0605  0.5788
 7123SOL    HW133002   1.722   2.231   4.842  1.7641 -0.7106  1.6663
 7123SOL    HW233003   1.585   2.198   4.857  1.6732  2.1973 -1.5095
 7124SOL     OW33004   0.636   1.959  14.741  0.5901 -0.6574 -0.1813
 7124SOL    HW133005   0.718   1.954  14.693  0.5429  2.0128 -0.5145
 7124SOL    HW233006   0.624   1.864  14.750  2.5382 -0.8214  0.8240
 7125SOL     OW33007   4.730   4.651   3.106  0.0198 -0.3929 -0.0419
 7125SOL    HW133008   0.008   4.676   3.196  1.7156 -2.7163  0.2571
 7125SOL    HW233009   0.073   4.662   3.062 -0.4233 -1.5432 -1.1950
 7126SOL     OW33010   1.222   0.653   2.238 -0.2105 -0.2254  0.1429
 7126SOL    HW133011   1.295   0.644   2.300 -0.3817  0.3196  0.4244
 7126SOL    HW233012   1.234   0.582   2.175 -3.1336 -1.1883  0.6841
 7127SOL     OW33013   1.819   4.246   9.135  0.0346 -0.0412 -0.2737
 7127SOL    HW133014   1.735   4.291   9.147 -0.2813 -0.7202  0.0871
 7127SOL    HW233015   1.833   4.200   9.217  0.1347 -0.9056 -0.7778
 7128SOL     OW33016   2.557   4.506   6.995 -1.1117 -0.0602 -0.3023
 7128SOL    HW133017   2.634   4.499   6.939  0.6555  1.7164  1.9433
 7128SOL    HW233018   2.605   4.494   7.077 -0.2598  2.4887 -0.4261
 7129SOL     OW33019   1.352   4.704   7.258 -0.1170 -0.5560  0.1958
 7129SOL    HW133020   1.361   0.059   7.253 -3.9444 -0.2155  0.2850
 7129SOL    HW233021   1.436   4.668   7.229 -0.1354  0.3739 -1.0024
 7130SOL     OW33022   1.436   3.172   4.806  0.1345  0.0587  0.1282
 7130SOL    HW133023   1.490   3.220   4.743  2.2310 -1.8884  0.4557
 7130SOL    HW233024   1.367   3.234   4.832 -0.0912 -0.1814  0.0980
 7131SOL     OW33025   0.797   1.004   3.194 -0.0065  0.2612  0.3498
 7131SOL    HW133026   0.885   0.971   3.212  0.0871 -0.0248 -0.6191
 7131SOL    HW233027   0.806   1.051   3.111 -0.7951 -1.0642 -0.4812
 7132SOL     OW33028   2.602   3.795  15.831  0.1346  0.6063  0.0714
 7132SOL    HW133029   2.641   3.852  15.764 -1.2359  1.8838  0.3488
 7132SOL    HW233030   2.667   3.725  15.832 -1.2547 -0.6710 -0.5805
 7133SOL     OW33031   4.548   2.410   1.182 -0.6473  0.9065  0.4424
 7133SOL    HW133032   4.634   2.376   1.156 -0.3641  0.2186  2.2787
 7133SOL    HW233033   4.571   2.501   1.163  0.4141  0.4514 -0.4767
 7134SOL     OW33034   1.935   3.475   0.453 -0.0483 -0.1620  0.1134
 7134SOL    HW133035   1.990   3.413   0.404  1.8659  0.3965  1.5456
 7134SOL    HW233036   1.848   3.452   0.420  0.2046  0.0798 -0.7365
 7135SOL     OW33037   3.156   0.321   6.044 -0.1707  0.4049  0.5469
 7135SOL    HW133038   3.188   0.242   6.000  0.5792  1.6937 -1.2507
 7135SOL    HW233039   3.116   0.277   6.118 -0.1971  0.4836  0.5787
 7136SOL     OW33040   0.795   0.977   1.413  0.1754 -0.2863  0.2258
 7136SOL    HW133041   0.878   0.992   1.369  0.6516  1.1215  1.6092
 7136SOL    HW233042   0.819   0.981   1.506  0.2274 -0.9600  0.2402
 7137SOL     OW33043   0.860   1.271   5.406  0.4641  0.5409 -0.1013
 7137SOL    HW133044   0.817   1.333   5.347 -0.4767  1.8370  1.9159
 7137SOL    HW233045   0.861   1.188   5.359 -2.7016  0.2571  0.2926
 7138SOL     OW33046   2.894   1.002   1.995  0.6953  0.1100  0.0992
 7138SOL    HW133047   2.866   0.913   2.015  2.0118 -0.3326 -0.0100
 7138SOL    HW233048   2.836   1.025   1.923  1.2072  1.6003  0.1496
 7139SOL     OW33049   0.655   3.113   2.491 -0.0872  0.2341  0.0708
 7139SOL    HW133050   0.587   3.150   2.547 -0.8923 -0.7567 -0.2433
 7139SOL    HW233051   0.614   3.113   2.404 -0.8611  0.3983  0.4388
 7140SOL     OW33052   0.364   1.275   2.455  0.4114 -0.1005  1.0465
 7140SOL    HW133053   0.441   1.276   2.398  0.1779 -1.9879  0.6921
 7140SOL    HW233054   0.296   1.236   2.399  0.6748  0.1030  0.5831
 7141SOL     OW33055   3.424   0.395   8.847 -0.0623 -0.4870  0.2640
 7141SOL    HW133056   3.345   0.368   8.893 -0.3331  0.6788  0.4716
 7141SOL    HW233057   3.383   0.432   8.769 -0.4858 -0.7144  0.3798
 7142SOL     OW33058   2.275   4.594   7.781  0.0057  0.1876 -0.0797
 7142SOL    HW133059   2.208   4.658   7.806 -2.0496 -2.1731  0.4778
 7142SOL    HW233060   2.358   4.642   7.785  0.0417 -0.0650  2.2728
 7143SOL     OW33061   1.298   3.395   2.736  0.2269 -0.8932 -0.3990
 7143SOL    HW133062   1.386   3.422   2.762  0.0574  0.3484 -1.0953
 7143SOL    HW233063   1.293   3.433   2.648 -2.5269 -0.3684 -0.0200
 7144SOL     OW33064   0.755   2.448   9.029  0.6675 -0.3728  0.1238
 7144SOL    HW133065   0.794   2.424   8.944 -1.5793  0.9571 -1.2771
 7144SOL    HW233066   0.820   2.507   9.067 -1.2048  0.8464  1.4163
 7145SOL     OW33067   0.068   4.581   6.738  0.6416  0.4828  0.3290
 7145SOL    HW133068   0.031   4.661   6.701  0.5475 -0.2637 -1.1977
 7145SOL    HW233069   0.066   4.600   6.831 -0.4207 -1.1370  0.6386
 7146SOL     OW33070   3.742   1.070  16.489  0.1037  0.0531  0.3760
 7146SOL    HW133071   3.741   0.991  16.543 -0.4774 -0.6704 -0.7009
 7146SOL    HW233072   3.829   1.071  16.451 -1.0683 -1.6610 -2.3409
 7147SOL     OW33073   0.993   3.926   5.259  0.3288 -0.1691 -0.0832
 7147SOL    HW133074   0.979   3.965   5.172  0.7038  0.9203  0.3436
 7147SOL    HW233075   0.924   3.859   5.253  1.8919 -1.7575 -0.3855
 7148SOL     OW33076   0.063   3.635   7.011  0.0573 -0.3197 -0.0635
 7148SOL    HW133077   0.085   3.606   7.099 -0.1671  1.2709  0.5253
 7148SOL    HW233078   4.721   3.682   7.018 -0.6566 -1.4863 -0.7456
 7149SOL     OW33079   2.404   4.302   5.500 -0.4711 -0.4306 -0.0336
 7149SOL    HW133080   2.425   4.376   5.557  1.5546  0.2881 -1.7191
 7149SOL    HW233081   2.394   4.226   5.557  0.4169 -0.2153  0.4054
 7150SOL     OW33082   3.640   1.867  11.273  0.2014  0.5614 -0.2445
 7150SOL    HW133083   3.583   1.814  11.217 -1.9034  2.1083  0.4094
 7150SOL    HW233084   3.648   1.814  11.352 -0.0808 -1.1981 -1.4043
 7151SOL     OW33085   2.971   1.497   6.191 -0.3220 -0.3252 -0.9905
 7151SOL    HW133086   2.923   1.435   6.137 -1.0556 -2.2445  1.8950
 7151SOL    HW233087   2.902   1.547   6.233  0.8231  1.5330 -1.3141
 7152SOL     OW33088   1.778   2.521   7.900  0.5426 -0.4621  0.0730
 7152SOL    HW133089   1.826   2.452   7.854  0.5454 -1.2991  1.3345
 7152SOL    HW233090   1.772   2.484   7.988  0.3104  1.1316  0.7321
 7153SOL     OW33091   4.465   2.627  13.298  0.4451 -0.7137  0.6223
 7153SOL    HW133092   4.464   2.683  13.221 -1.8470  0.4639  1.4905
 7153SOL    HW233093   4.376   2.627  13.333 -0.0121 -2.1966 -0.5318
 7154SOL     OW33094   2.734   1.604   4.012 -0.4811  0.5803 -0.2319
 7154SOL    HW133095   2.703   1.536   4.072  0.5584 -0.2582 -0.6472
 7154SOL    HW233096   2.662   1.665   3.998 -0.6258  0.5409  0.3357
 7155SOL     OW33097   1.167   3.192   8.149  0.6607  0.9015 -0.2341
 7155SOL    HW133098   1.078   3.207   8.182 -0.3485 -1.9972 -1.6157
 7155SOL    HW233099   1.197   3.115   8.196 -0.8149  0.9980  0.8839
 7156SOL     OW33100   4.321   4.322   7.136 -0.3096  0.8853 -0.3573
 7156SOL    HW133101   4.386   4.360   7.196 -1.8325  0.4003  1.5854
 7156SOL    HW233102   4.384   4.275   7.081 -0.6610 -0.2054  0.1769
 7157SOL     OW33103   3.726   0.814   2.675  0.9126 -0.1492  0.1063
 7157SOL    HW133104   3.644   0.793   2.719  0.2823  0.3269 -0.8574
 7157SOL    HW233105   3.717   0.765   2.593 -0.5756 -1.8823  1.3156
 7158SOL     OW33106   4.429   1.542   5.591 -0.2245 -0.7984 -0.5031
 7158SOL    HW133107   4.453   1.618   5.539  1.9011 -2.4365 -1.8949
 7158SOL    HW233108   4.405   1.595   5.668 -0.2926  0.2626 -1.2576
 7159SOL     OW33109   0.361   3.795   4.267  0.0794 -0.4517 -0.0674
 7159SOL    HW133110   0.290   3.851   4.300  0.3257 -0.7028  0.8871
 7159SOL    HW233111   0.434   3.820   4.323 -0.1214  0.4419 -0.2020
 7160SOL     OW33112   1.011   4.611   6.946 -0.3110 -0.5420  0.8068
 7160SOL    HW133113   1.011   4.530   6.896 -1.6994 -0.7211  1.0965
 7160SOL    HW233114   1.010   4.575   7.035 -0.6908 -1.0343  0.5954
 7161SOL     OW33115   2.963   4.655   3.528  0.2166 -0.4599 -0.5725
 7161SOL    HW133116   3.037   4.696   3.481  1.0217 -0.2666  0.8707
 7161SOL    HW233117   2.899   4.696   3.470 -3.1961 -2.5997  1.7638
 7162SOL     OW33118   1.565   1.226   6.717  0.4329 -0.1917  0.2662
 7162SOL    HW133119   1.577   1.257   6.807  0.9457  1.4047 -0.3559
 7162SOL    HW233120   1.643   1.171   6.714  0.6320  0.1592 -1.3174
 7163SOL     OW33121   0.057   3.785   5.234  0.1582 -0.5184  0.0940
 7163SOL    HW133122   4.731   3.802   5.301 -1.0856 -0.6644 -1.1144
 7163SOL    HW233123   0.008   3.759   5.156  1.0260 -2.6931  0.2738
 7164SOL     OW33124   0.818   3.742  17.405 -0.6885  0.0014  0.1804
 7164SOL    HW133125   0.773   3.789  17.476 -1.0963  1.4139 -1.0181
 7164SOL    HW233126   0.890   3.697  17.451  1.4241  1.8892 -1.3121
 7165SOL     OW33127   4.302   4.534  10.149 -0.1830 -0.2895  0.2602
 7165SOL    HW133128   4.338   4.491  10.226 -0.9641  1.1757  1.4481
 7165SOL    HW233129   4.360   4.512  10.076  1.7799  0.7461  1.5110
 7166SOL     OW33130   3.389   0.605   8.451 -0.5099  0.1529 -0.1794
 7166SOL    HW133131   3.372   0.653   8.370 -0.5414  0.6130  0.0984
 7166SOL    HW233132   3.484   0.610   8.460 -0.4041 -1.9184 -0.1978
 7167SOL     OW33133   2.363   2.960  13.282 -0.0065  0.2324  0.2970
 7167SOL    HW133134   2.355   2.866  13.269 -0.9736  0.4563 -0.7114
 7167SOL    HW233135   2.405   2.981  13.198 -0.6409  2.6102  0.5743
 7168SOL     OW33136   4.630   3.932   2.391 -0.6623 -0.6168  0.0367
 7168SOL    HW133137   4.570   3.936   2.466  1.4812  0.0148  1.7215
 7168SOL    HW233138   4.571   3.954   2.319  1.6078 -0.9863 -1.9547
 7169SOL     OW33139   2.007   2.565   2.219  0.0373  0.6207 -0.9243
 7169SOL    HW133140   2.021   2.503   2.291 -0.3798  1.0880 -0.4457
 7169SOL    HW233141   1.963   2.630   2.274 -2.2388 -0.6504 -1.2046
 7170SOL     OW33142   0.150   0.258   3.400 -0.3090  0.1435 -0.1927
 7170SOL    HW133143   0.175   0.348   3.420 -0.1616 -0.5989  2.9557
 7170SOL    HW233144   0.072   0.249   3.455 -0.4452 -0.8252 -0.5279
 7171SOL     OW33145   0.718   3.173   5.793 -0.1883  0.1427 -0.0465
 7171SOL    HW133146   0.694   3.100   5.736  0.4661 -1.3779  1.6236
 7171SOL    HW233147   0.663   3.159   5.869  1.1519  2.4099  1.3587
 7172SOL     OW33148   3.739   4.263   3.023 -0.4168 -0.3468 -0.2331
 7172SOL    HW133149   3.659   4.308   2.997  0.3110  0.3975 -1.1870
 7172SOL    HW233150   3.801   4.335   3.012 -1.4675  0.8042  1.3151
 7173SOL     OW33151   4.405   2.942  15.939 -0.6114 -0.2986 -0.4755
 7173SOL    HW133152   4.477   2.938  16.002 -1.3317 -0.3465  0.3507
 7173SOL    HW233153   4.450   2.952  15.856 -1.1771 -1.1745 -0.8870
 7174SOL     OW33154   3.193   3.528   1.604 -0.2747 -0.1997 -0.7166
 7174SOL    HW133155   3.138   3.605   1.590 -0.4430 -0.0541  0.6976
 7174SOL    HW233156   3.269   3.572   1.643 -0.7906 -1.0085  1.1755
 7175SOL     OW33157   0.118   0.889   9.217 -0.2986  0.5131 -0.3915
 7175SOL    HW133158   0.193   0.940   9.189 -0.8788  1.8002  0.4340
 7175SOL    HW233159   0.063   0.884   9.139  2.3363  2.5377 -2.3366
 7176SOL     OW33160   0.235   0.138  15.604  0.4760 -0.4262  0.0767
 7176SOL    HW133161   0.265   0.101  15.521 -2.5503  0.6513 -1.5008
 7176SOL    HW233162   0.149   0.173  15.583  0.8580  2.1435  2.8810
 7177SOL     OW33163   0.024   0.956  11.832 -0.9031  0.3467  0.2553
 7177SOL    HW133164   4.700   1.017  11.795 -0.8572  0.2016 -0.0690
 7177SOL    HW233165   4.725   0.869  11.837 -0.0247  0.0022  1.2871
 7178SOL     OW33166   1.584   1.110   2.436 -0.2166  0.6815 -0.6085
 7178SOL    HW133167   1.673   1.102   2.401  0.2271 -1.0429  0.8789
 7178SOL    HW233168   1.555   1.187   2.388  1.3194  3.0630  2.3302
 7179SOL     OW33169   1.379   1.279   4.601 -0.1004 -0.0359  0.2567
 7179SOL    HW133170   1.454   1.296   4.543  0.5389  0.1273  1.1314
 7179SOL    HW233171   1.325   1.227   4.542 -0.6749 -2.7945  3.2204
 7180SOL     OW33172   0.885   3.265   8.246 -0.1309  0.4051 -0.0803
 7180SOL    HW133173   0.802   3.236   8.207  0.3953 -0.4235 -0.5752
 7180SOL    HW233174   0.871   3.351   8.286  1.8411  2.1683 -3.2016
 7181SOL     OW33175   0.325   4.503   3.694  0.1909  0.2616 -0.0325
 7181SOL    HW133176   0.378   4.475   3.619 -1.0599  0.4182 -0.9738
 7181SOL    HW233177   0.295   4.593   3.678 -3.0777 -0.6859  0.7546
 7182SOL     OW33178   4.477   4.561   6.812  0.3451  0.0263  0.7944
 7182SOL    HW133179   4.462   4.572   6.906  3.1124 -3.8488  1.6540
 7182SOL    HW233180   4.563   4.602   6.800  0.0338  0.2434 -0.7189
 7183SOL     OW33181   1.658   0.183   2.076 -0.6641 -0.0322  0.0614
 7183SOL    HW133182   1.700   0.097   2.078 -0.1790  0.2039  0.0161
 7183SOL    HW233183   1.662   0.196   2.171 -1.5723 -1.3546  0.2869
 7184SOL     OW33184   3.367   3.679   7.178  0.0505 -0.4043 -0.1171
 7184SOL    HW133185   3.299   3.677   7.245 -0.0404 -0.8070 -0.2224
 7184SOL    HW233186   3.314   3.639   7.109 -0.1589  0.7869 -0.6461
 7185SOL     OW33187   2.813   3.325   9.402  0.1962  0.2523 -0.9498
 7185SOL    HW133188   2.733   3.373   9.425 -1.6425 -2.2060 -2.2121
 7185SOL    HW233189   2.878   3.343   9.470  0.5392  0.0045 -1.2083
 7186SOL     OW33190   0.856   4.027  10.075 -0.4012  0.2560  0.4431
 7186SOL    HW133191   0.804   3.953  10.107 -0.7969 -0.0274 -0.8493
 7186SOL    HW233192   0.899   4.045  10.159 -2.3861 -3.9289  2.3704
 7187SOL     OW33193   4.632   0.095  13.909  0.0617  0.2733 -0.7281
 7187SOL    HW133194   4.596   0.164  13.854 -0.1218  0.7212 -0.0557
 7187SOL    HW233195   4.653   0.137  13.993 -0.8371 -0.1521 -0.2959
 7188SOL     OW33196   4.677   2.859   6.098  0.3661  0.3468  0.2130
 7188SOL    HW133197   4.737   2.888   6.029  3.2087 -2.3024  1.5825
 7188SOL    HW233198   4.641   2.782   6.054  0.8292 -0.0979  0.6202
 7189SOL     OW33199   2.566   2.638   4.326  0.1463 -0.3227  0.6606
 7189SOL    HW133200   2.628   2.677   4.388 -0.4297 -1.4744  1.9757
 7189SOL    HW233201   2.622   2.601   4.258  0.8699 -0.3185  1.2501
 7190SOL     OW33202   1.952   0.603   7.470  0.1154 -0.0305  0.4095
 7190SOL    HW133203   1.867   0.584   7.511 -0.9709 -0.4734 -2.0688
 7190SOL    HW233204   2.022   0.582   7.533  0.9450  0.3442 -0.3987
 7191SOL     OW33205   2.046   4.009   4.879 -0.3749  0.1287  0.0427
 7191SOL    HW133206   2.035   3.963   4.962  1.5891  1.5931  1.1003
 7191SOL    HW233207   2.020   3.939   4.818  1.2049 -1.2549  0.9827
 7192SOL     OW33208   2.873   2.840   5.735  0.4017  0.1291 -0.2186
 7192SOL    HW133209   2.794   2.887   5.762 -0.5989 -2.8639  2.0724
 7192SOL    HW233210   2.879   2.843   5.639 -0.9890 -0.1109 -0.3117
 7193SOL     OW33211   1.164   1.251   0.973 -0.5324  0.6690  0.0890
 7193SOL    HW133212   1.173   1.156   0.973  2.1761  0.9271 -0.6983
 7193SOL    HW233213   1.135   1.278   0.886 -1.6055 -1.5830 -0.2521
 7194SOL     OW33214   0.038   1.084  17.010  0.8935 -0.2037 -0.1908
 7194SOL    HW133215   0.092   1.162  17.023 -3.1429  2.8861 -1.5913
 7194SOL    HW233216   0.052   1.046  17.096  0.1496  0.6096  0.2900
 7195SOL     OW33217   0.694   0.062   4.153  0.0086 -0.0237 -0.1193
 7195SOL    HW133218   0.717   0.032   4.241 -1.8079 -0.4833  0.2052
 7195SOL    HW233219   0.730   0.150   4.154  0.0754 -0.0795  2.0185
 7196SOL     OW33220   1.923   4.039   1.631 -0.3869  0.3455  0.0714
 7196SOL    HW133221   1.851   4.021   1.691 -0.9546  2.6016  0.0873
 7196SOL    HW233222   1.946   4.131   1.647  2.0212  0.0691 -1.8004
 7197SOL     OW33223   4.085   0.840   2.145 -0.4767 -0.0913 -0.1716
 7197SOL    HW133224   4.083   0.916   2.087  3.0213  0.4213  0.4223
 7197SOL    HW233225   4.179   0.838   2.161 -0.5309 -0.8103  0.0831
 7198SOL     OW33226   3.053   1.693   5.681  0.5398 -0.3817 -0.4941
 7198SOL    HW133227   3.142   1.669   5.710  0.5195  0.4300  0.2507
 7198SOL    HW233228   3.002   1.713   5.760  0.0327 -2.0779 -0.3814
 7199SOL     OW33229   4.061   3.778   1.165  0.0527  0.2737  0.3944
 7199SOL    HW133230   3.995   3.780   1.096  1.1351 -1.5569 -0.6868
 7199SOL    HW233231   4.136   3.732   1.128  0.4214  1.0755  0.1315
 7200SOL     OW33232   3.923   4.034   2.305  0.1484  0.1533  0.2536
 7200SOL    HW133233   3.844   4.035   2.250  0.4330  2.1009 -0.1238
 7200SOL    HW233234   3.903   4.098   2.372 -0.4546 -0.2721  0.4762
 7201SOL     OW33235   2.352   2.980  12.045  0.2481 -0.5380 -0.3230
 7201SOL    HW133236   2.275   2.989  11.990  0.4607 -2.6409 -0.9542
 7201SOL    HW233237   2.409   2.968  11.969 -0.2189  2.7385 -1.1858
 7202SOL     OW33238   4.311   2.231   6.380  0.3634  0.8211  0.3104
 7202SOL    HW133239   4.255   2.175   6.325 -1.1740  1.0565  1.6383
 7202SOL    HW233240   4.271   2.215   6.465  1.4622  2.2434  1.0950
 7203SOL     OW33241   3.545   4.400   0.908  0.0390 -0.3290 -0.3677
 7203SOL    HW133242   3.541   4.407   0.812  0.4486 -1.7175 -0.4921
 7203SOL    HW233243   3.493   4.474   0.938 -2.1722 -1.1083 -2.2696
 7204SOL     OW33244   2.639   1.099   0.112  0.2774 -0.1134 -0.0251
 7204SOL    HW133245   2.564   1.111   0.054 -0.8021 -0.8853  1.2166
 7204SOL    HW233246   2.635   1.007   0.140  1.8102 -0.6923 -1.6739
 7205SOL     OW33247   2.499   3.305   3.400 -0.2263  0.5405  0.0478
 7205SOL    HW133248   2.551   3.366   3.349 -0.6838  1.0415  0.1684
 7205SOL    HW233249   2.556   3.231   3.418  0.4136  0.5700 -1.8858
 7206SOL     OW33250   1.477   1.532   6.198 -0.1032  0.7156  0.1307
 7206SOL    HW133251   1.447   1.537   6.107 -1.5332  0.6904  0.6030
 7206SOL    HW233252   1.543   1.463   6.188  0.1447  0.9744 -0.0291
 7207SOL     OW33253   2.078   4.480   2.110 -0.1876 -0.0952 -0.4944
 7207SOL    HW133254   2.036   4.413   2.164 -3.1517  1.9122 -0.2920
 7207SOL    HW233255   2.022   4.464   2.034  1.5321  0.8656 -1.9611
 7208SOL     OW33256   2.671   1.199  11.971 -0.4332  0.4948  0.1461
 7208SOL    HW133257   2.653   1.267  11.906 -0.6360  1.7518  1.5218
 7208SOL    HW233258   2.763   1.175  11.956 -0.6932  1.0338 -2.2437
 7209SOL     OW33259   3.995   2.929   8.889 -0.1228 -0.6727 -0.0893
 7209SOL    HW133260   4.073   2.875   8.899  0.4323 -0.4893 -3.4604
 7209SOL    HW233261   3.991   2.990   8.963  2.6885  0.1131 -0.6014
 7210SOL     OW33262   0.765   3.460  12.048  0.1918 -0.1635 -0.0867
 7210SOL    HW133263   0.855   3.429  12.057  1.0214  2.1535 -0.5958
 7210SOL    HW233264   0.748   3.430  11.959  0.9378 -0.3349 -0.1674
 7211SOL     OW33265   3.599   0.625   4.596  0.2756 -0.5500 -0.5181
 7211SOL    HW133266   3.569   0.540   4.630 -1.1368  0.4792  0.8231
 7211SOL    HW233267   3.685   0.610   4.556  0.6521 -0.2621  0.1866
 7212SOL     OW33268   0.605   0.510   7.626  0.1888  0.1853  0.4447
 7212SOL    HW133269   0.566   0.428   7.652 -0.8858  1.0953  1.6684
 7212SOL    HW233270   0.694   0.507   7.661 -0.1877 -3.1011  1.0437
 7213SOL     OW33271   0.245   4.654   2.991  0.3058  0.6132 -0.2527
 7213SOL    HW133272   0.261   4.655   2.896 -3.1593  1.0588 -0.8542
 7213SOL    HW233273   0.284   4.577   3.031 -1.2026 -0.2889 -0.5158
 7214SOL     OW33274   2.902   4.191   7.608  0.1759 -0.3859 -0.3018
 7214SOL    HW133275   2.832   4.231   7.557  1.5305  0.3438 -1.5968
 7214SOL    HW233276   2.851   4.136   7.667 -0.8209  0.0448 -0.7634
 7215SOL     OW33277   4.623   4.177   8.734 -0.6754 -0.0715 -0.1845
 7215SOL    HW133278   4.589   4.200   8.647 -0.1641 -1.4886 -0.7727
 7215SOL    HW233279   4.597   4.258   8.778 -0.0918  1.6581 -3.0280
 7216SOL     OW33280   0.545   2.738   8.079  0.1369 -0.7328 -0.1810
 7216SOL    HW133281   0.585   2.795   8.144 -1.7311  0.5304 -0.1448
 7216SOL    HW233282   0.623   2.723   8.025 -0.0340 -0.3319 -0.5391
 7217SOL     OW33283   1.073   1.592   9.836  0.3355 -0.1328  0.1324
 7217SOL    HW133284   1.001   1.572   9.896 -1.6916  0.5346 -2.0860
 7217SOL    HW233285   1.156   1.586   9.883  1.1185 -1.1746 -1.3593
 7218SOL     OW33286   2.093   2.963   4.708 -0.0888  0.3682  0.8448
 7218SOL    HW133287   2.100   2.869   4.722  2.7264  0.1514 -2.0261
 7218SOL    HW233288   2.027   2.969   4.777 -0.7193 -1.0878  0.3625
 7219SOL     OW33289   3.201   0.316   6.471  1.0533  0.2365  0.9603
 7219SOL    HW133290   3.131   0.267   6.429  0.9702  1.4974 -0.3908
 7219SOL    HW233291   3.269   0.301   6.405  0.4944  1.3686  0.1249
 7220SOL     OW33292   3.534   4.290   4.323  0.9867 -0.1734  0.8428
 7220SOL    HW133293   3.582   4.347   4.383  0.8386  1.2845 -0.4501
 7220SOL    HW233294   3.556   4.207   4.367  0.0307 -0.2215  1.2252
 7221SOL     OW33295   2.713   0.643  15.376  0.2526 -0.0598  0.2165
 7221SOL    HW133296   2.687   0.734  15.359  0.7517  0.2386  1.0692
 7221SOL    HW233297   2.712   0.612  15.285  0.5752  0.4676  0.0338
 7222SOL     OW33298   2.033   3.292   2.283 -0.4027  0.4720  0.2411
 7222SOL    HW133299   1.989   3.209   2.298  2.3994 -1.2253 -0.9792
 7222SOL    HW233300   2.070   3.303   2.371 -0.7132  0.0019  0.4276
 7223SOL     OW33301   2.508   4.544   3.833 -0.0662  0.1083  0.7176
 7223SOL    HW133302   2.480   4.561   3.923 -1.1221  0.7709  0.2599
 7223SOL    HW233303   2.579   4.604   3.811  0.3088 -0.2382  0.9794
 7224SOL     OW33304   2.841   4.561  17.442  0.4245 -0.5221 -0.5255
 7224SOL    HW133305   2.813   4.559  17.350  1.4691  0.1116 -0.8577
 7224SOL    HW233306   2.767   4.614  17.471 -1.0651 -1.6384 -2.3161
 7225SOL     OW33307   4.732   3.442   4.307 -0.4038  0.6097 -0.0947
 7225SOL    HW133308   0.078   3.478   4.321 -0.8169  1.7999 -0.5632
 7225SOL    HW233309   4.723   3.463   4.214 -0.5556  1.2777  0.0724
 7226SOL     OW33310   4.545   3.778   3.147 -0.4005  0.3159 -0.1527
 7226SOL    HW133311   4.461   3.824   3.137 -0.5683  0.4517  1.7208
 7226SOL    HW233312   4.528   3.695   3.103  0.4072  0.1019 -0.0497
 7227SOL     OW33313   3.990   1.513  10.151 -0.2236  0.0737 -0.2241
 7227SOL    HW133314   3.963   1.538  10.063  1.0169 -2.6716 -1.3700
 7227SOL    HW233315   4.084   1.499  10.140 -0.2243  0.1248 -0.2953
 7228SOL     OW33316   3.542   4.210   6.077 -0.0697 -0.8222  0.2318
 7228SOL    HW133317   3.455   4.205   6.118 -0.3352  1.2949 -0.1093
 7228SOL    HW233318   3.528   4.151   6.002  0.1169  0.6593 -0.9782
 7229SOL     OW33319   3.470   2.365   1.417 -0.0740  0.0805  0.0434
 7229SOL    HW133320   3.560   2.375   1.446  0.4399  0.4523 -1.7078
 7229SOL    HW233321   3.417   2.421   1.474 -0.2021 -1.5142  1.4640
 7230SOL     OW33322   3.743   0.575   7.136 -0.5470  0.0763 -0.3396
 7230SOL    HW133323   3.699   0.583   7.052  1.1481 -0.6928 -1.3096
 7230SOL    HW233324   3.716   0.656   7.179 -0.0858  0.3066 -0.4891
 7231SOL     OW33325   4.049   1.741  14.286  0.5957  0.0238 -0.0725
 7231SOL    HW133326   4.019   1.666  14.337  0.6265  1.1990  1.6309
 7231SOL    HW233327   4.139   1.711  14.275  0.3804 -0.7882  0.3861
 7232SOL     OW33328   3.298   1.681  12.271 -0.3446 -0.1229 -0.3198
 7232SOL    HW133329   3.346   1.639  12.199  1.1028  0.4524  0.2997
 7232SOL    HW233330   3.213   1.642  12.253 -0.3005 -1.4818  2.4433
 7233SOL     OW33331   0.098   4.519  14.413  0.6608  0.1177  0.0085
 7233SOL    HW133332   0.111   4.474  14.329  0.2141  1.4880 -0.8065
 7233SOL    HW233333   0.164   4.472  14.463 -1.4186 -1.5494  1.2097
 7234SOL     OW33334   0.323   4.091   8.287 -0.3279 -0.0902  0.2453
 7234SOL    HW133335   0.294   4.017   8.340  2.7352 -2.2995 -1.1699
 7234SOL    HW233336   0.273   4.066   8.209 -1.4442  0.3961  0.7913
 7235SOL     OW33337   2.918   4.161   2.425  0.0906  0.0274 -0.3854
 7235SOL    HW133338   2.878   4.102   2.489  1.1105  0.8808  1.0264
 7235SOL    HW233339   3.006   4.180   2.456  0.0705  2.1103 -1.5600
 7236SOL     OW33340   3.971   4.738   8.304  0.4706  0.1211 -0.3084
 7236SOL    HW133341   4.015   0.010   8.388 -0.5522 -0.6074  0.3394
 7236SOL    HW233342   4.034   4.680   8.261 -0.8965 -1.5468 -0.0560
 7237SOL     OW33343   4.563   2.116   6.212  0.0655 -0.0265 -0.1057
 7237SOL    HW133344   4.477   2.156   6.220 -0.5467 -1.3769  0.0316
 7237SOL    HW233345   4.578   2.085   6.301  1.1498  2.4436  0.5908
 7238SOL     OW33346   0.777   0.397  16.429 -0.2778 -0.5744  0.3375
 7238SOL    HW133347   0.704   0.437  16.476  1.0166  1.7843  0.2806
 7238SOL    HW233348   0.846   0.449  16.468  0.9203 -1.4729 -0.5555
 7239SOL     OW33349   0.944   2.085   4.444  0.2946 -0.2547  0.1616
 7239SOL    HW133350   0.939   2.061   4.352  0.7881  2.3781 -0.5678
 7239SOL    HW233351   0.896   2.018   4.491  0.1345 -1.0317 -1.1097
 7240SOL     OW33352   1.278   2.528  11.000  0.4871 -0.5739  0.0198
 7240SOL    HW133353   1.293   2.433  10.995  2.9767 -0.1992  0.0849
 7240SOL    HW233354   1.275   2.537  11.096 -2.9766 -0.7654 -0.0712
 7241SOL     OW33355   2.434   0.924  12.130  0.0186  0.4108 -0.2463
 7241SOL    HW133356   2.466   0.839  12.161 -0.1805 -0.4226 -2.3070
 7241SOL    HW233357   2.455   0.984  12.201 -0.3123  2.8641 -2.2018
 7242SOL     OW33358   1.174   4.138   4.694 -0.8413 -0.3524  0.5190
 7242SOL    HW133359   1.238   4.184   4.640 -1.3410 -1.4566 -1.0172
 7242SOL    HW233360   1.227   4.123   4.772 -0.4424 -2.5586 -0.2047
 7243SOL     OW33361   1.526   4.404   0.364  0.1451  0.6651  0.4119
 7243SOL    HW133362   1.562   4.447   0.286  2.0334  0.7792  1.3432
 7243SOL    HW233363   1.601   4.348   0.387  2.6174  2.5572 -2.9039
 7244SOL     OW33364   0.171   0.173   5.863 -0.0244 -0.2723 -0.6452
 7244SOL    HW133365   0.248   0.220   5.893  0.8918 -1.0218 -1.8135
 7244SOL    HW233366   0.191   0.080   5.861  3.7331  0.5521 -1.9226
 7245SOL     OW33367   3.007   4.509   7.487 -0.3154  0.0536  0.1437
 7245SOL    HW133368   2.934   4.566   7.460 -0.3899 -0.5718 -0.9413
 7245SOL    HW233369   3.079   4.532   7.429 -0.4007 -0.5137 -0.1809
 7246SOL     OW33370   4.026   2.931  13.082 -0.0304 -0.2738  0.1476
 7246SOL    HW133371   3.983   3.016  13.094 -0.0112 -0.2957  0.3710
 7246SOL    HW233372   4.049   2.908  13.172 -1.0000 -0.8932  0.2424
 7247SOL     OW33373   2.452   4.212   3.336 -0.2860 -0.0850 -0.5216
 7247SOL    HW133374   2.380   4.173   3.386 -0.8947  1.4875 -0.1396
 7247SOL    HW233375   2.485   4.133   3.294 -1.1264 -0.8327  0.2108
 7248SOL     OW33376   2.826   3.099   8.944 -0.1403 -0.5229 -0.0327
 7248SOL    HW133377   2.785   3.130   8.863 -1.0025  0.1270  0.6654
 7248SOL    HW233378   2.758   3.086   9.010 -0.8815 -0.8518 -0.8607
 7249SOL     OW33379   2.597   2.388   7.821  0.6091 -0.4368  0.0164
 7249SOL    HW133380   2.532   2.419   7.884  0.4175 -0.0421 -0.3777
 7249SOL    HW233381   2.544   2.338   7.759  1.1678 -0.2691 -0.5999
 7250SOL     OW33382   2.708   4.397  12.087 -0.3431  0.0816  0.2353
 7250SOL    HW133383   2.678   4.307  12.100 -0.9481  0.2109 -0.2878
 7250SOL    HW233384   2.796   4.379  12.052  0.4166  0.4893  1.9639
 7251SOL     OW33385   2.230   1.153   3.101  0.3938  0.1559 -0.2749
 7251SOL    HW133386   2.289   1.226   3.081  1.1262 -0.1893  0.6466
 7251SOL    HW233387   2.210   1.158   3.194 -0.8965  3.4306 -0.7031
 7252SOL     OW33388   0.671   0.155   8.009 -0.2128 -0.0649  0.1505
 7252SOL    HW133389   0.695   0.185   8.097  2.4800  1.1939 -1.0124
 7252SOL    HW233390   0.624   0.233   7.980  0.9486  0.1722 -1.0791
 7253SOL     OW33391   3.075   3.834   4.970 -0.3320 -0.6702 -0.2765
 7253SOL    HW133392   3.065   3.811   5.063 -2.9352  1.9233  0.0944
 7253SOL    HW233393   3.169   3.844   4.957 -0.5686  0.7487 -0.9178
 7254SOL     OW33394   1.763   0.255   0.787 -0.2007 -0.5025 -0.2632
 7254SOL    HW133395   1.716   0.255   0.871 -0.4915 -0.7922 -0.4222
 7254SOL    HW233396   1.729   0.335   0.748  0.8920  0.5989  1.0658
 7255SOL     OW33397   1.204   4.245  11.099 -0.4962  0.3383 -0.1295
 7255SOL    HW133398   1.236   4.264  11.187  0.0918  0.6637 -0.4149
 7255SOL    HW233399   1.184   4.336  11.074 -2.0167  0.0629  0.0665
 7256SOL     OW33400   1.221   4.017   6.322 -0.0240 -0.7649  0.0569
 7256SOL    HW133401   1.315   4.023   6.340 -0.5150 -0.0359  2.3500
 7256SOL    HW233402   1.224   3.924   6.298  0.5308 -0.9165  0.7159
 7257SOL     OW33403   2.004   1.994   9.012 -0.3297  0.2595  0.5250
 7257SOL    HW133404   1.955   2.007   8.931  1.4096  0.3951 -0.4986
 7257SOL    HW233405   2.091   2.007   8.974 -1.8921  1.9316 -2.5239
 7258SOL     OW33406   3.594   0.222   1.265  0.5744 -0.6173 -0.1536
 7258SOL    HW133407   3.677   0.182   1.240  1.6223  1.5108 -0.0833
 7258SOL    HW233408   3.607   0.314   1.245 -0.8397 -0.3482  0.1615
 7259SOL     OW33409   0.626   2.589  12.758 -0.2797 -0.3548 -0.3391
 7259SOL    HW133410   0.667   2.670  12.787 -1.7379  0.3449 -0.2414
 7259SOL    HW233411   0.551   2.608  12.700  1.0886 -0.5111 -2.1737
 7260SOL     OW33412   2.829   3.935   2.974  0.0366 -0.9004  0.1679
 7260SOL    HW133413   2.912   3.900   3.005  0.6580 -0.2732 -0.7862
 7260SOL    HW233414   2.778   3.867   3.019 -0.8412 -1.1005 -1.1218
 7261SOL     OW33415   3.174   2.412   5.422  0.1672 -0.6103 -0.0617
 7261SOL    HW133416   3.111   2.458   5.478 -0.2314  2.2281 -2.8882
 7261SOL    HW233417   3.247   2.396   5.483 -0.1673 -0.6003  0.3376
 7262SOL     OW33418   3.677   2.437   8.116 -0.0064 -0.6921 -0.2495
 7262SOL    HW133419   3.629   2.516   8.143  0.0934 -0.4696 -0.7149
 7262SOL    HW233420   3.682   2.391   8.199  0.1285 -0.9724 -0.4166
 7263SOL     OW33421   2.509   2.398   6.055  0.0723  0.2803  0.1728
 7263SOL    HW133422   2.528   2.491   6.058 -0.6432  0.4545 -0.6353
 7263SOL    HW233423   2.418   2.383   6.030  0.4301 -1.0014 -0.3806
 7264SOL     OW33424   3.028   1.747   9.002  0.9741 -0.7306  0.6155
 7264SOL    HW133425   3.111   1.703   8.984  0.6808 -0.4335 -1.5216
 7264SOL    HW233426   3.023   1.738   9.097  1.9612  0.1066  0.7409
 7265SOL     OW33427   2.729   1.521   3.373 -0.3261  0.2378  1.0881
 7265SOL    HW133428   2.765   1.473   3.299 -0.2954 -0.1449  1.3498
 7265SOL    HW233429   2.809   1.567   3.400  0.6677 -1.6163  1.2860
 7266SOL     OW33430   2.277   0.402   3.960 -0.0126  0.5422  0.8922
 7266SOL    HW133431   2.331   0.389   4.038 -0.1957 -0.9181  0.7739
 7266SOL    HW233432   2.201   0.440   4.005 -0.2554 -1.2865  2.0477
 7267SOL     OW33433   1.629   1.401   4.965  0.6747  0.2884  0.4938
 7267SOL    HW133434   1.654   1.431   4.878 -1.4159  0.3309 -0.0758
 7267SOL    HW233435   1.708   1.357   4.999 -0.0081 -0.7379  0.7535
 7268SOL     OW33436   2.008   2.407   2.720 -0.0469 -0.3281  0.6040
 7268SOL    HW133437   1.914   2.413   2.703 -0.4959  0.4356  3.3780
 7268SOL    HW233438   2.043   2.436   2.636 -0.3483 -2.2573 -0.1937
 7269SOL     OW33439   2.295   3.911  16.763 -0.9414  0.6942 -0.3050
 7269SOL    HW133440   2.310   4.005  16.752 -0.5445  0.8503  1.6272
 7269SOL    HW233441   2.380   3.882  16.794 -0.2658  0.3898 -2.4191
 7270SOL     OW33442   2.961   2.683   9.603  0.3967  0.1984  0.1066
 7270SOL    HW133443   2.926   2.618   9.543  0.7402 -1.7622  2.0130
 7270SOL    HW233444   3.027   2.719   9.544  2.2502 -3.0338  0.2267
 7271SOL     OW33445   2.903   0.795   6.022  0.0657 -0.2662 -0.3689
 7271SOL    HW133446   2.947   0.716   5.989  1.3086 -0.1246  0.9565
 7271SOL    HW233447   2.962   0.831   6.088 -1.4204  0.4759  0.5667
 7272SOL     OW33448   1.598   2.692   4.748  0.9724  0.0994  0.1182
 7272SOL    HW133449   1.543   2.749   4.801 -0.2303 -2.4420  1.6117
 7272SOL    HW233450   1.552   2.691   4.664  2.2928  0.5958 -0.6121
 7273SOL     OW33451   3.148   4.159  10.944  0.4464  0.2851 -0.2187
 7273SOL    HW133452   3.098   4.198  10.872  2.2444 -1.4868 -2.4671
 7273SOL    HW233453   3.181   4.239  10.984  1.2386  0.5607 -1.4082
 7274SOL     OW33454   2.884   1.702   4.527  0.2226 -0.2158 -0.4479
 7274SOL    HW133455   2.795   1.718   4.495  0.2038  1.9068  0.6259
 7274SOL    HW233456   2.881   1.609   4.504  0.4234 -0.4383  0.4299
 7275SOL     OW33457   3.023   0.091   4.064 -0.3136 -0.1877 -0.0486
 7275SOL    HW133458   2.956   0.070   3.999  0.5797  1.4329 -1.4979
 7275SOL    HW233459   3.086   0.021   4.047 -1.0272 -0.5302 -1.2357
 7276SOL     OW33460   4.242   0.185  11.281  0.0017 -0.4027 -0.4175
 7276SOL    HW133461   4.238   0.149  11.193 -1.5406 -0.4418 -0.3365
 7276SOL    HW233462   4.259   0.107  11.333 -0.7035 -0.6476 -0.5506
 7277SOL     OW33463   1.886   3.875  13.197 -0.3928 -0.0718 -0.5379
 7277SOL    HW133464   1.950   3.899  13.264  0.4751 -0.3159 -1.2684
 7277SOL    HW233465   1.919   3.928  13.124 -0.5706 -1.6983 -1.8134
 7278SOL     OW33466   3.255   3.657   4.411 -0.4470  0.2715  0.5701
 7278SOL    HW133467   3.221   3.583   4.462  0.1546  1.5486  2.8353
 7278SOL    HW233468   3.343   3.624   4.390 -0.2442  1.4125 -0.3364
 7279SOL     OW33469   0.254   4.668   5.990  0.2021  0.3930 -0.4991
 7279SOL    HW133470   0.198   4.594   6.015  0.8584  0.9374  2.6290
 7279SOL    HW233471   0.343   4.639   6.007 -0.1128 -0.6583 -0.6612
 7280SOL     OW33472   3.216   1.653  13.198  0.1250  0.4597 -0.2106
 7280SOL    HW133473   3.200   1.742  13.230 -0.8702 -0.1618  1.0351
 7280SOL    HW233474   3.133   1.612  13.221  0.6592 -2.2296 -3.1561
 7281SOL     OW33475   0.323   0.604   9.439 -0.1554  0.1934 -0.0687
 7281SOL    HW133476   0.308   0.680   9.495  2.2237  1.1205 -0.6829
 7281SOL    HW233477   0.368   0.542   9.497  2.5650  0.8455 -1.4666
 7282SOL     OW33478   2.167   4.042   3.337  0.1665 -0.5366  0.7009
 7282SOL    HW133479   2.166   3.946   3.347 -2.3138 -0.4895  0.9872
 7282SOL    HW233480   2.086   4.057   3.385 -0.6772 -0.2651 -0.8334
 7283SOL     OW33481   2.450   0.161  16.896 -0.1332  0.4044 -0.1217
 7283SOL    HW133482   2.479   0.105  16.824 -1.6760  1.3785 -1.5039
 7283SOL    HW233483   2.516   0.139  16.962 -0.5866  0.8760  0.4864
 7284SOL     OW33484   0.036   2.713   7.903  0.5246  1.4210  0.7978
 7284SOL    HW133485   0.007   2.785   7.960  1.8147  1.8719  0.8666
 7284SOL    HW233486   0.121   2.688   7.940  0.3009 -1.0601 -0.3594
 7285SOL     OW33487   4.261   3.504   5.001 -0.3428 -0.4894  0.4135
 7285SOL    HW133488   4.312   3.572   4.957  1.6827 -2.2334  0.0347
 7285SOL    HW233489   4.270   3.429   4.941  0.4725  0.4085 -0.5904
 7286SOL     OW33490   1.769   0.798  17.620  1.0211  0.3453 -0.0505
 7286SOL    HW133491   1.828   0.798  17.696  2.7066  0.2205 -1.3690
 7286SOL    HW233492   1.835   0.795  17.552  0.7075 -0.4377 -0.3224
 7287SOL     OW33493   3.364   2.469   6.002  0.2632 -0.4568 -0.0019
 7287SOL    HW133494   3.449   2.473   5.958 -0.2658  0.4543 -0.9454
 7287SOL    HW233495   3.317   2.552   5.993  1.1210 -0.0703 -0.9025
 7288SOL     OW33496   2.090   0.111  15.335  0.3876  0.1376  0.1622
 7288SOL    HW133497   2.049   0.048  15.395 -1.2445  2.7227  1.7275
 7288SOL    HW233498   2.071   0.189  15.387 -1.2993 -0.3874  0.3301
 7289SOL     OW33499   0.239   3.551   7.673  0.3089 -0.1580 -0.1361
 7289SOL    HW133500   0.197   3.467   7.659 -1.8748  1.4321 -2.9528
 7289SOL    HW233501   0.319   3.542   7.621 -0.1273  0.7573 -0.9747
 7290SOL     OW33502   3.484   4.153   9.515 -0.4793  0.1156  0.5151
 7290SOL    HW133503   3.442   4.136   9.431  0.5174  1.9234 -0.3335
 7290SOL    HW233504   3.451   4.076   9.562 -2.0965  0.1099 -0.6173
 7291SOL     OW33505   0.772   2.335   6.485 -0.3304 -0.3979 -0.4626
 7291SOL    HW133506   0.698   2.294   6.528 -0.4784  0.7387  0.3446
 7291SOL    HW233507   0.731   2.387   6.416 -1.5282  0.7904  1.1399
 7292SOL     OW33508   0.654   0.990  12.501 -0.2110 -0.1862  0.7593
 7292SOL    HW133509   0.572   0.980  12.454 -0.3154  0.0651  0.8905
 7292SOL    HW233510   0.696   0.931  12.438 -2.2221 -1.7785  0.9150
 7293SOL     OW33511   0.648   2.528   9.320  0.2157 -0.0785  0.6291
 7293SOL    HW133512   0.670   2.532   9.227  1.3323 -2.1889  0.8022
 7293SOL    HW233513   0.560   2.565   9.321  0.1726 -0.0884 -5.5298
 7294SOL     OW33514   1.422   4.283   5.403  0.6230 -0.3005  0.1166
 7294SOL    HW133515   1.363   4.257   5.473  0.0447  0.5497 -0.0563
 7294SOL    HW233516   1.476   4.340   5.457 -0.4559  1.5825 -0.7849
 7295SOL     OW33517   2.293   3.734   8.225  0.0842 -0.2328 -0.1783
 7295SOL    HW133518   2.326   3.658   8.272 -0.1390 -0.9741 -1.2227
 7295SOL    HW233519   2.217   3.692   8.184 -0.3974 -1.6577  2.1662
 7296SOL     OW33520   2.631   0.453   7.453  0.0898  0.1038  0.3421
 7296SOL    HW133521   2.643   0.548   7.464 -2.0640  0.4411 -0.0651
 7296SOL    HW233522   2.600   0.440   7.363  1.9813  0.0374 -0.2878
 7297SOL     OW33523   2.626   4.707   5.316  0.3628 -0.2764  0.5101
 7297SOL    HW133524   2.545   4.659   5.329  0.6881 -0.8592  0.4102
 7297SOL    HW233525   2.676   4.643   5.264 -1.6213 -0.0771 -1.5875
 7298SOL     OW33526   0.455   2.302   3.206  0.2328 -0.6948 -0.3962
 7298SOL    HW133527   0.503   2.333   3.129 -1.0853 -1.7377 -1.6359
 7298SOL    HW233528   0.364   2.315   3.182  0.5394  0.4011 -0.9874
 7299SOL     OW33529   2.161   1.823   4.142  0.3796 -0.1760  0.1368
 7299SOL    HW133530   2.108   1.881   4.087  0.8957  1.2346  1.1363
 7299SOL    HW233531   2.154   1.742   4.092 -1.2986  1.0146 -1.5675
 7300SOL     OW33532   3.962   4.228   8.260 -0.7761  0.2173  0.3560
 7300SOL    HW133533   3.918   4.298   8.310  0.7374  1.3157  0.1310
 7300SOL    HW233534   3.913   4.151   8.288 -1.8385  0.9983  0.6862
 7301SOL     OW33535   1.691   2.843   8.213  0.1210  0.1614 -0.0147
 7301SOL    HW133536   1.636   2.770   8.240 -0.2167  0.1344 -0.7648
 7301SOL    HW233537   1.659   2.864   8.125 -0.7968 -2.7072 -0.3785
 7302SOL     OW33538   2.162   1.660   8.472 -0.0593 -0.1179  0.2314
 7302SOL    HW133539   2.219   1.736   8.463  1.4181 -1.3518 -0.9064
 7302SOL    HW233540   2.144   1.655   8.566 -0.4875 -1.3171  0.0836
 7303SOL     OW33541   3.890   2.914  11.839 -0.3052  0.2944 -0.1154
 7303SOL    HW133542   3.926   2.847  11.896 -0.8760  0.2788  0.2341
 7303SOL    HW233543   3.960   2.977  11.857  1.1183 -1.0767 -0.8924
 7304SOL     OW33544   2.850   0.639   0.635  0.6138  0.1000 -0.3014
 7304SOL    HW133545   2.824   0.722   0.676 -0.0045  0.1040 -0.7044
 7304SOL    HW233546   2.945   0.643   0.648  0.4339 -3.0116  1.8582
 7305SOL     OW33547   3.999   4.370  15.083 -0.0527 -0.8350  0.6908
 7305SOL    HW133548   4.071   4.405  15.136 -0.8733  4.2699 -1.4862
 7305SOL    HW233549   3.960   4.452  15.051  0.7385 -1.5834 -2.1992
 7306SOL     OW33550   3.624   2.270   2.250 -0.0461 -0.1713  0.0745
 7306SOL    HW133551   3.614   2.182   2.286 -2.7320 -0.0610 -0.3583
 7306SOL    HW233552   3.688   2.303   2.313 -0.3669  0.1485  0.2324
 7307SOL     OW33553   0.176   1.713   5.864  0.0241  0.1113 -0.0197
 7307SOL    HW133554   0.204   1.747   5.779 -1.3248  0.5610 -0.2802
 7307SOL    HW233555   0.084   1.739   5.868  0.1161  0.3488  0.5352
 7308SOL     OW33556   0.532   2.781   2.036 -0.1346 -0.3381  0.2187
 7308SOL    HW133557   0.474   2.818   2.103  1.0544  1.1189  0.4344
 7308SOL    HW233558   0.540   2.687   2.049 -0.2034 -0.5029 -0.9210
 7309SOL     OW33559   1.864   2.022   8.800 -0.3975 -0.0545  0.6889
 7309SOL    HW133560   1.890   2.043   8.710  0.9853  1.8349  1.5286
 7309SOL    HW233561   1.785   2.074   8.812  0.9333  1.3662  3.0839
 7310SOL     OW33562   2.398   3.283   9.462 -0.1629 -0.6238 -0.0272
 7310SOL    HW133563   2.471   3.222   9.474 -0.4601 -1.1046 -0.6531
 7310SOL    HW233564   2.354   3.277   9.547  1.9137  2.2894  1.2712
 7311SOL     OW33565   1.984   3.287   5.515 -0.2546 -0.1505 -0.5817
 7311SOL    HW133566   1.942   3.316   5.597 -0.9743 -1.4817 -0.4754
 7311SOL    HW233567   1.904   3.278   5.463 -0.8918  0.5933  0.2433
 7312SOL     OW33568   1.620   2.916   3.829 -0.0036  0.0526  0.4110
 7312SOL    HW133569   1.562   2.946   3.758 -0.5559  0.4608  1.0248
 7312SOL    HW233570   1.619   2.821   3.825 -0.6325  0.0105  1.5933
 7313SOL     OW33571   0.113   3.418   2.006  0.1735 -0.2603  0.5473
 7313SOL    HW133572   0.043   3.381   2.059  0.4042 -0.7489  0.5069
 7313SOL    HW233573   0.100   3.374   1.922  0.9886 -0.6028  0.5994
 7314SOL     OW33574   3.742   0.019   9.032 -0.6009  1.0443 -0.7646
 7314SOL    HW133575   3.663   4.706   9.028 -0.9971  1.8557 -3.3067
 7314SOL    HW233576   3.730   0.068   9.114 -0.6302  0.6729 -0.5458
 7315SOL     OW33577   4.626   0.629  10.875 -0.0792  0.3331  0.0499
 7315SOL    HW133578   4.700   0.660  10.824  0.0571  0.0640  0.0846
 7315SOL    HW233579   4.609   0.543  10.835  2.5989 -1.4140  2.6541
 7316SOL     OW33580   1.863   1.289   5.048 -0.5831 -0.3972  0.2444
 7316SOL    HW133581   1.874   1.194   5.041 -0.5718 -0.3462 -0.4307
 7316SOL    HW233582   1.952   1.309   5.019 -0.9067 -1.6602 -1.6065
 7317SOL     OW33583   0.469   1.205   1.340 -0.3355 -0.2762 -0.2898
 7317SOL    HW133584   0.444   1.296   1.353 -2.9445 -1.1561  1.0709
 7317SOL    HW233585   0.521   1.211   1.261 -1.6610 -0.1015 -1.1533
 7318SOL     OW33586   3.042   4.317   8.647 -0.2856  0.4124  0.3529
 7318SOL    HW133587   2.991   4.394   8.623 -2.3874 -0.7578  1.0300
 7318SOL    HW233588   3.118   4.356   8.689  0.7922 -0.9914 -0.3030
 7319SOL     OW33589   4.480   0.212   3.924 -0.2317  0.3039 -0.1703
 7319SOL    HW133590   4.432   0.153   3.982  1.2708 -0.4351  0.3057
 7319SOL    HW233591   4.461   0.175   3.837  0.2511  2.4996 -1.1982
 7320SOL     OW33592   3.193   4.464   3.350  0.2026  0.3426  0.3831
 7320SOL    HW133593   3.263   4.487   3.411  1.9926 -1.0757 -1.1306
 7320SOL    HW233594   3.221   4.515   3.274  0.4889 -0.1021  0.1889
 7321SOL     OW33595   0.403   2.555   0.916  0.4904 -0.0653  0.3758
 7321SOL    HW133596   0.414   2.575   0.824 -1.5656 -1.0449 -0.0871
 7321SOL    HW233597   0.433   2.464   0.908 -1.3176 -0.7935  1.6421
 7322SOL     OW33598   2.471   3.551   5.066  0.0870 -0.6225 -0.0867
 7322SOL    HW133599   2.388   3.598   5.061 -0.2796 -1.4300 -1.7567
 7322SOL    HW233600   2.447   3.473   5.015 -1.0493 -0.4094  0.1187
 7323SOL     OW33601   0.032   2.907   4.474 -0.2867 -0.7067 -0.4753
 7323SOL    HW133602   0.016   2.813   4.466 -1.5900 -0.4949 -0.3241
 7323SOL    HW233603   0.109   2.925   4.421 -0.5528 -0.8952 -0.9227
 7324SOL     OW33604   0.085   2.973  13.369 -0.6605  0.4700  0.9294
 7324SOL    HW133605   0.005   2.924  13.389 -0.0445 -0.8144  0.1837
 7324SOL    HW233606   0.117   2.965  13.459  2.5421  1.6302 -0.1340
 7325SOL     OW33607   4.273   0.027  16.138 -0.0129  0.1533 -0.3050
 7325SOL    HW133608   4.258   4.681  16.099  0.7504 -0.5946  1.0537
 7325SOL    HW233609   4.298   0.076  16.059  1.6247 -0.1683  0.0030
 7326SOL     OW33610   0.045   3.201   6.142 -0.1359  0.0813 -0.2523
 7326SOL    HW133611   0.116   3.138   6.151 -0.6893 -0.6219 -0.7714
 7326SOL    HW233612   0.104   3.273   6.120  1.8632 -1.1324  1.2312
 7327SOL     OW33613   4.180   4.207   8.458  0.7081  0.1252  0.2545
 7327SOL    HW133614   4.183   4.200   8.553  0.5201 -1.9367  0.1103
 7327SOL    HW233615   4.186   4.117   8.425 -1.1897  1.1118 -2.8129
 7328SOL     OW33616   2.887   3.831   9.465  0.7133 -0.6201 -0.9051
 7328SOL    HW133617   2.914   3.827   9.373  0.5225  1.7792 -1.0721
 7328SOL    HW233618   2.811   3.775   9.480  0.4185 -0.4437 -1.7647
 7329SOL     OW33619   3.972   0.508  14.457  0.2330 -0.1970 -0.3446
 7329SOL    HW133620   4.024   0.537  14.382 -0.4369  0.7055 -0.4619
 7329SOL    HW233621   3.899   0.460  14.418  0.9819 -1.4136 -0.2458
 7330SOL     OW33622   3.214   3.117   9.895  0.1063 -0.0743 -0.2545
 7330SOL    HW133623   3.201   3.036   9.945 -2.1114  0.6612  0.3856
 7330SOL    HW233624   3.308   3.131   9.904  0.3375 -0.9049 -1.4494
 7331SOL     OW33625   0.968   1.292   6.238 -0.0157  0.0180  0.5692
 7331SOL    HW133626   1.055   1.319   6.268  0.0577 -1.5014  1.7142
 7331SOL    HW233627   0.922   1.373   6.261  1.8065  0.9359  0.9542
 7332SOL     OW33628   1.546   1.944   4.448 -1.0957  0.9688 -0.2909
 7332SOL    HW133629   1.542   1.957   4.542  0.0010 -3.3053  0.3822
 7332SOL    HW233630   1.468   1.892   4.429 -1.3175  0.9933  0.5822
 7333SOL     OW33631   0.629   2.777   5.083 -0.2354 -0.0456 -0.7020
 7333SOL    HW133632   0.677   2.857   5.105 -1.1016 -0.0715  1.2693
 7333SOL    HW233633   0.695   2.709   5.070 -1.0953 -0.5415 -2.4265
 7334SOL     OW33634   0.613   1.683   2.615  0.2689  0.4167 -0.4877
 7334SOL    HW133635   0.637   1.736   2.539  1.2009 -1.2996 -1.3972
 7334SOL    HW233636   0.522   1.670   2.590 -0.3025 -0.9059  2.2365
 7335SOL     OW33637   3.259   1.887  17.196 -0.7145 -0.5698  0.5234
 7335SOL    HW133638   3.301   1.837  17.126 -3.8746 -0.8267 -1.1991
 7335SOL    HW233639   3.306   1.855  17.273 -2.2200 -0.8700  1.3249
 7336SOL     OW33640   0.392   1.500  10.088  0.2235  0.1696  0.2499
 7336SOL    HW133641   0.304   1.522  10.118 -0.0955  0.2635 -0.7592
 7336SOL    HW233642   0.408   1.589  10.058  0.8329 -0.4091 -1.1462
 7337SOL     OW33643   1.319   2.467   0.042 -0.2293 -0.4776 -0.1675
 7337SOL    HW133644   1.348   2.542  17.751 -1.5856  1.8869  2.5193
 7337SOL    HW233645   1.321   2.503   0.131  0.9501  1.4687 -0.9910
 7338SOL     OW33646   2.186   2.313  14.835  0.1256 -1.0234 -0.2013
 7338SOL    HW133647   2.239   2.234  14.846  1.0693 -0.6162 -1.9577
 7338SOL    HW233648   2.224   2.353  14.757  0.1475 -2.6970 -1.0536
 7339SOL     OW33649   2.118   3.802   2.185  0.0253 -0.0798 -0.0624
 7339SOL    HW133650   2.116   3.871   2.119  3.6769 -0.8986 -1.0388
 7339SOL    HW233651   2.180   3.843   2.245  1.0149 -0.3243 -0.9196
 7340SOL     OW33652   0.286   0.899   3.492  0.8281  0.9344 -0.1186
 7340SOL    HW133653   0.199   0.935   3.477  1.0679  0.3671 -2.8424
 7340SOL    HW233654   0.279   0.870   3.583 -0.5801 -0.3753 -0.6486
 7341SOL     OW33655   2.410   4.189  16.743 -0.5300  0.0983 -0.3438
 7341SOL    HW133656   2.422   4.185  16.648  2.4289  2.4480 -0.0329
 7341SOL    HW233657   2.335   4.248  16.752  0.0015  0.5849  0.8405
 7342SOL     OW33658   3.186   0.036   3.372  0.2534  0.0794  0.4969
 7342SOL    HW133659   3.249   0.007   3.306 -0.8378 -2.2595  0.4924
 7342SOL    HW233660   3.237   0.114   3.396  1.3436 -0.8456  1.1429
 7343SOL     OW33661   1.324   1.467   5.957 -0.2966 -0.5075 -0.0023
 7343SOL    HW133662   1.397   1.487   5.899 -1.7343  3.2634 -0.5641
 7343SOL    HW233663   1.285   1.387   5.923  0.1965 -0.6415 -0.2422
 7344SOL     OW33664   1.213   1.519   3.325 -0.5309  0.6607 -0.2352
 7344SOL    HW133665   1.160   1.448   3.288  0.3760  0.3299 -0.9036
 7344SOL    HW233666   1.305   1.504   3.302 -0.3376  0.5041  0.6200
 7345SOL     OW33667   1.134   4.643   4.468 -0.2473  0.0211 -0.0177
 7345SOL    HW133668   1.211   4.625   4.414 -0.4454 -0.0739 -0.2697
 7345SOL    HW233669   1.080   4.670   4.394 -2.7641 -0.0341  1.7800
 7346SOL     OW33670   0.132   2.039  17.480  0.0384 -1.0188 -0.4427
 7346SOL    HW133671   0.204   1.976  17.489  0.4914 -0.0630  2.5213
 7346SOL    HW233672   0.173   2.103  17.422  0.3160 -1.4241 -0.6899
 7347SOL     OW33673   0.477   2.616   8.406 -0.0885 -0.1547 -0.4542
 7347SOL    HW133674   0.417   2.667   8.460 -2.4959  1.4593 -4.7080
 7347SOL    HW233675   0.425   2.554   8.355 -1.1815 -0.3294  0.8686
 7348SOL     OW33676   4.525   2.654   5.988  0.6793 -0.4405  0.6680
 7348SOL    HW133677   4.471   2.586   6.029 -0.8165  0.1735 -0.3026
 7348SOL    HW233678   4.474   2.659   5.908  1.3268 -0.8270  0.2307
 7349SOL     OW33679   0.472   3.508   2.487 -0.7685 -0.6355  0.2301
 7349SOL    HW133680   0.446   3.588   2.441  0.8374 -0.5498 -0.5338
 7349SOL    HW233681   0.512   3.545   2.566  1.4986 -0.3878 -1.0348
 7350SOL     OW33682   2.692   0.705   2.708  0.5050  0.4549  0.1920
 7350SOL    HW133683   2.663   0.613   2.707 -1.3745  1.1086 -2.8353
 7350SOL    HW233684   2.758   0.698   2.639  1.9868  0.5154  1.6039
 7351SOL     OW33685   0.588   1.523   7.281 -0.2861  0.4229 -0.4802
 7351SOL    HW133686   0.537   1.442   7.272  0.7170 -0.0544 -1.8339
 7351SOL    HW233687   0.573   1.525   7.375 -0.1758 -1.1323 -0.4185
 7352SOL     OW33688   3.210   0.899   3.481 -0.3478  0.6053 -0.2370
 7352SOL    HW133689   3.134   0.854   3.444 -0.2765 -0.0760  0.4463
 7352SOL    HW233690   3.231   0.950   3.403 -0.0738 -0.5360 -0.9157
 7353SOL     OW33691   1.071   2.923   1.811 -0.4637 -0.5738 -0.7394
 7353SOL    HW133692   0.976   2.928   1.827 -0.2283  1.1397  0.1933
 7353SOL    HW233693   1.077   2.882   1.725  0.9190  1.0921 -1.4296
 7354SOL     OW33694   1.503   0.232   7.248 -0.0274  0.2435 -0.0184
 7354SOL    HW133695   1.494   0.316   7.202  1.5871  1.0904  1.1839
 7354SOL    HW233696   1.426   0.249   7.303  0.2324  0.7787  0.1820
 7355SOL     OW33697   4.640   3.855   3.564 -0.5883  0.0253  0.1374
 7355SOL    HW133698   4.558   3.895   3.592 -0.5803 -0.2296  0.5291
 7355SOL    HW233699   4.679   3.868   3.650 -1.3544 -0.2414  0.5258
 7356SOL     OW33700   1.255   3.790   3.854  0.0357 -0.7722 -0.0056
 7356SOL    HW133701   1.178   3.835   3.890  0.9911  0.6989  0.2296
 7356SOL    HW233702   1.303   3.766   3.933  1.0524 -0.0521 -0.4052
 7357SOL     OW33703   0.159   2.862   0.982 -0.3516 -0.6322 -0.4248
 7357SOL    HW133704   0.249   2.849   1.009 -0.7033 -0.8513  0.6412
 7357SOL    HW233705   0.114   2.885   1.063 -1.6119 -0.4341 -1.1733
 7358SOL     OW33706   3.210   0.960   5.768 -0.3562 -0.5401 -0.1318
 7358SOL    HW133707   3.133   1.006   5.734 -0.3368 -1.5993 -1.5838
 7358SOL    HW233708   3.279   0.985   5.706 -0.8701  0.4334 -0.3211
 7359SOL     OW33709   1.644   0.400   8.290  0.3855  0.2719 -0.4602
 7359SOL    HW133710   1.689   0.326   8.249  0.7249  0.1575  0.1229
 7359SOL    HW233711   1.640   0.468   8.223 -1.9695 -1.1508 -1.7576
 7360SOL     OW33712   2.497   3.532  10.060 -0.7373  0.1394  0.8682
 7360SOL    HW133713   2.488   3.452  10.009  1.2392  0.1152  0.5592
 7360SOL    HW233714   2.466   3.505  10.146 -1.1627 -1.3784  0.2233
 7361SOL     OW33715   0.421   1.983  12.127 -0.5923 -0.1853  0.3079
 7361SOL    HW133716   0.496   1.987  12.187 -1.2868 -1.6221  1.2846
 7361SOL    HW233717   0.411   2.073  12.096  1.8590  0.1416  0.4449
 7362SOL     OW33718   3.323   2.714  14.527 -0.3943  0.1913 -0.1380
 7362SOL    HW133719   3.408   2.672  14.515 -0.1806  0.7977 -0.7609
 7362SOL    HW233720   3.307   2.738  14.435 -0.0378  0.8561 -0.0316
 7363SOL     OW33721   4.425   1.767   8.071 -0.1056 -0.5465  0.3468
 7363SOL    HW133722   4.359   1.768   8.003  1.3140  2.6993 -1.0174
 7363SOL    HW233723   4.370   1.740   8.145  0.3335 -0.3126  0.7657
 7364SOL     OW33724   0.565   4.288   4.353  0.1040 -0.5225 -0.1355
 7364SOL    HW133725   0.516   4.306   4.273 -2.2755  0.3787  1.5237
 7364SOL    HW233726   0.493   4.286   4.416  0.0427 -0.3858 -0.2016
 7365SOL     OW33727   1.911   2.533   5.793 -0.4412 -0.4381  0.2425
 7365SOL    HW133728   2.005   2.551   5.783 -0.2940 -1.2569  0.1212
 7365SOL    HW233729   1.879   2.605   5.847 -0.2704  0.2080 -0.5206
 7366SOL     OW33730   2.254   0.411   2.595  0.5826  0.0014 -0.3097
 7366SOL    HW133731   2.214   0.438   2.677  1.2001 -1.0778  0.3450
 7366SOL    HW233732   2.194   0.448   2.530 -0.3591  0.8267  1.0238
 7367SOL     OW33733   2.510   4.291   4.065  0.7151 -0.1642  0.2777
 7367SOL    HW133734   2.565   4.293   3.987  1.0736 -0.7898  0.5051
 7367SOL    HW233735   2.525   4.372   4.114 -0.8910  0.9028 -1.0024
 7368SOL     OW33736   2.655   1.805   7.806 -0.3557 -0.6337 -0.5338
 7368SOL    HW133737   2.597   1.835   7.876  0.9088  0.6946 -0.0662
 7368SOL    HW233738   2.615   1.725   7.771  3.2481 -1.5441 -2.4596
 7369SOL     OW33739   4.512   0.589   1.595  0.2693  0.2064 -0.2093
 7369SOL    HW133740   4.605   0.565   1.593  0.0980 -0.8152  3.5505
 7369SOL    HW233741   4.466   0.512   1.561 -1.1300  0.4791  1.0710
 7370SOL     OW33742   0.191   1.556   8.942  0.0530  0.1328  0.2146
 7370SOL    HW133743   0.284   1.579   8.947  0.4804 -1.3977 -0.7850
 7370SOL    HW233744   0.174   1.520   9.029 -0.7011 -0.5064 -0.2012
 7371SOL     OW33745   1.340   4.134   1.181 -0.4010  0.4172 -0.1365
 7371SOL    HW133746   1.350   4.064   1.245 -2.2128  1.6541  1.4671
 7371SOL    HW233747   1.339   4.076   1.105  0.0036 -1.2434  1.1502
 7372SOL     OW33748   3.761   1.965   7.949 -0.3736  0.1894  0.0207
 7372SOL    HW133749   3.670   1.996   7.946 -0.3942  0.3578  2.2344
 7372SOL    HW233750   3.802   2.028   8.008 -1.4706 -0.7955  1.8405
 7373SOL     OW33751   4.235   4.546   5.898 -0.4607  0.0819 -0.7266
 7373SOL    HW133752   4.167   4.482   5.877 -2.3645  2.2865 -1.2951
 7373SOL    HW233753   4.193   4.611   5.954  1.0587  0.1224  0.3601
 7374SOL     OW33754   3.200   0.431   6.713 -0.6697 -0.5641  0.0674
 7374SOL    HW133755   3.166   0.362   6.771 -2.5772  0.4703  0.1801
 7374SOL    HW233756   3.212   0.382   6.632 -1.2832 -1.9978  0.8429
 7375SOL     OW33757   4.598   3.991  16.273 -0.8233  0.6707  0.1735
 7375SOL    HW133758   4.563   4.061  16.217 -0.2062  0.5033 -0.4104
 7375SOL    HW233759   4.692   3.986  16.256 -1.2573 -3.4605 -0.8504
 7376SOL     OW33760   4.603   2.045   2.663  0.0844 -0.0568 -0.1587
 7376SOL    HW133761   4.673   2.012   2.720  0.4476  0.9270 -0.0355
 7376SOL    HW233762   4.531   2.058   2.724 -0.5380  0.5433 -1.0391
 7377SOL     OW33763   3.353   4.469   7.812  0.2069  0.0157 -0.4878
 7377SOL    HW133764   3.280   4.421   7.772 -1.7068  1.6700  1.0344
 7377SOL    HW233765   3.361   4.553   7.768 -0.3796 -0.4636 -1.5107
 7378SOL     OW33766   0.872   3.525   5.109  0.7292  0.1228  0.0248
 7378SOL    HW133767   0.960   3.563   5.108  0.7156  0.1433 -0.4903
 7378SOL    HW233768   0.819   3.595   5.146  0.1018  0.0111 -0.6534
 7379SOL     OW33769   3.947   2.895   4.688  1.0944 -0.1330 -0.0051
 7379SOL    HW133770   3.892   2.963   4.727  2.1533  1.2076 -0.8360
 7379SOL    HW233771   3.898   2.824   4.729  3.3080 -0.3431  2.2816
 7380SOL     OW33772   1.918   1.983   6.348 -0.0247 -0.1801  0.1123
 7380SOL    HW133773   1.869   2.000   6.267  1.2868 -1.2151 -0.9000
 7380SOL    HW233774   1.932   2.071   6.382 -0.6725  0.3886 -1.1034
 7381SOL     OW33775   4.546   2.852  15.696  0.3788  0.6363  0.5384
 7381SOL    HW133776   4.626   2.800  15.693  0.2894  0.4106  1.8820
 7381SOL    HW233777   4.562   2.903  15.617  0.2903 -1.1550 -0.6363
 7382SOL     OW33778   0.709   2.434   7.288 -0.1719  0.6058 -0.1076
 7382SOL    HW133779   0.631   2.457   7.236 -0.1473  2.0753  0.5211
 7382SOL    HW233780   0.721   2.348   7.247  0.4858 -0.6410  2.7609
 7383SOL     OW33781   1.452   3.105   1.068 -0.6344 -0.4548 -0.0070
 7383SOL    HW133782   1.510   3.104   0.992  1.7578 -0.3447  1.8224
 7383SOL    HW233783   1.490   3.029   1.113  0.7267  0.1494 -0.1410
 7384SOL     OW33784   3.109   2.528   1.644 -0.0087  0.4771 -0.0361
 7384SOL    HW133785   3.093   2.464   1.575  0.6059  0.6237 -0.3159
 7384SOL    HW233786   3.032   2.516   1.699 -1.2602  2.7077 -1.3471
 7385SOL     OW33787   3.822   3.004  15.305  0.5100  0.4846 -0.0554
 7385SOL    HW133788   3.910   3.040  15.297 -0.6712  3.8248  2.0723
 7385SOL    HW233789   3.841   2.910  15.314 -0.1064  0.4659  1.0178
 7386SOL     OW33790   2.753   4.171   2.821 -0.2669  0.2811  0.0959
 7386SOL    HW133791   2.672   4.208   2.855 -0.2178  0.4884 -0.0121
 7386SOL    HW233792   2.774   4.098   2.879  2.1375 -0.3601 -1.5501
 7387SOL     OW33793   1.997   0.069   0.280 -0.9806 -0.0947  0.1735
 7387SOL    HW133794   2.036   4.724   0.297  1.1673  0.8501  0.0637
 7387SOL    HW233795   1.929   0.072   0.347 -0.3501 -0.2930  0.8334
 7388SOL     OW33796   2.595   4.029   7.253  0.0124  0.0604  0.2622
 7388SOL    HW133797   2.581   3.934   7.248  0.1862  0.0995 -1.1445
 7388SOL    HW233798   2.543   4.054   7.329  2.1863  1.5061  1.2579
 7389SOL     OW33799   1.512   3.730  17.380 -0.1730  0.1851 -0.1170
 7389SOL    HW133800   1.578   3.731  17.310 -2.1102 -1.5375 -1.9680
 7389SOL    HW233801   1.535   3.813  17.422  0.9021  1.0594 -2.4074
 7390SOL     OW33802   3.474   3.056   9.901 -0.3102  0.3018 -0.4678
 7390SOL    HW133803   3.487   3.130   9.961 -0.6980  0.0248 -0.0459
 7390SOL    HW233804   3.553   3.002   9.912  0.2787  1.3842  0.5689
 7391SOL     OW33805   3.727   3.275  15.792 -0.5796  0.5537  0.3476
 7391SOL    HW133806   3.688   3.343  15.737  0.2873 -0.2482 -1.2280
 7391SOL    HW233807   3.802   3.316  15.836  2.5055  0.3192 -4.7724
 7392SOL     OW33808   3.650   0.570   5.926  0.7172  0.1155 -0.0635
 7392SOL    HW133809   3.726   0.588   5.983  0.4268  1.3110 -0.0543
 7392SOL    HW233810   3.582   0.545   5.988  1.7787  0.0134  1.0638
 7393SOL     OW33811   2.257   1.248   4.575  0.2353  0.1906 -0.0322
 7393SOL    HW133812   2.294   1.300   4.503  2.7876 -0.3184  0.9008
 7393SOL    HW233813   2.284   1.300   4.651 -0.0701  0.3554 -0.0369
 7394SOL     OW33814   4.009   2.088  11.331  0.3183 -0.3577  0.0030
 7394SOL    HW133815   3.928   2.107  11.284 -0.9645 -0.4649  2.1459
 7394SOL    HW233816   4.030   2.179  11.356  1.3493 -0.3443 -0.8743
 7395SOL     OW33817   2.912   1.447  12.426 -0.4957  0.2104  0.3863
 7395SOL    HW133818   2.998   1.409  12.443 -0.5865  0.4358  1.4050
 7395SOL    HW233819   2.854   1.373  12.445  0.7250 -0.7458  0.3534
 7396SOL     OW33820   2.340   1.867   2.592  0.7201  0.2980  0.0736
 7396SOL    HW133821   2.412   1.886   2.531  1.1376 -1.6315 -0.0169
 7396SOL    HW233822   2.275   1.933   2.568 -1.3228 -1.7823 -0.0621
 7397SOL     OW33823   1.135   2.557   1.024  0.1461  0.1035 -0.3108
 7397SOL    HW133824   1.128   2.652   1.036  1.3986  0.3067 -1.2031
 7397SOL    HW233825   1.050   2.547   0.983 -0.2216  0.4309  0.3654
 7398SOL     OW33826   4.090   0.857   6.079 -0.8627 -0.0013  0.2821
 7398SOL    HW133827   4.109   0.773   6.121 -0.1174  0.1298  0.2089
 7398SOL    HW233828   4.125   0.839   5.991  0.2552  0.9814  0.5282
 7399SOL     OW33829   3.602   0.074  17.370  0.1513  0.2969 -0.1543
 7399SOL    HW133830   3.583   0.155  17.418  0.2116 -0.1909  0.6996
 7399SOL    HW233831   3.523   0.073  17.316 -1.3371 -0.2041  2.0139
 7400SOL     OW33832   0.264   0.780   3.753 -0.2203  0.0824  0.2168
 7400SOL    HW133833   0.270   0.689   3.780 -0.9336  0.0311  0.1925
 7400SOL    HW233834   0.265   0.821   3.840  2.3451  1.0902 -0.2799
 7401SOL     OW33835   3.834   0.147   3.999  1.1500  0.1638  0.2067
 7401SOL    HW133836   3.920   0.188   4.007  1.9623 -1.7688  1.3588
 7401SOL    HW233837   3.808   0.162   4.090  1.0505  0.3414  0.1498
 7402SOL     OW33838   0.606   0.745   3.114 -0.5986 -0.1572  0.6969
 7402SOL    HW133839   0.658   0.799   3.055  1.9615 -1.5290  1.7142
 7402SOL    HW233840   0.637   0.659   3.086 -0.0846  0.5427 -0.8510
 7403SOL     OW33841   0.809   2.660   2.051 -0.0610  0.4544 -0.2674
 7403SOL    HW133842   0.804   2.567   2.029  3.9766 -0.0576  0.9294
 7403SOL    HW233843   0.731   2.680   2.103  0.3776  2.8959 -0.5849
 7404SOL     OW33844   1.225   0.968   7.856 -0.0791 -0.1934  0.2656
 7404SOL    HW133845   1.312   0.970   7.816 -0.3670 -1.9588 -0.4505
 7404SOL    HW233846   1.225   1.056   7.894  0.4300 -0.0158 -0.1420
 7405SOL     OW33847   0.152   1.662   4.167 -0.2110  0.4379 -0.0417
 7405SOL    HW133848   0.094   1.585   4.173  1.2803 -0.9218 -3.2754
 7405SOL    HW233849   0.088   1.708   4.113 -2.4490 -1.2095  1.1483
 7406SOL     OW33850   2.534   0.296  15.603 -0.2325  0.0698 -0.0063
 7406SOL    HW133851   2.539   0.337  15.689 -0.2031 -0.1764  0.1086
 7406SOL    HW233852   2.476   0.350  15.550 -0.8206  1.5834  2.1840
 7407SOL     OW33853   1.042   0.118  17.726  0.8969  0.0951 -0.1212
 7407SOL    HW133854   1.090   0.038  17.705 -0.3358 -0.3060 -1.4285
 7407SOL    HW233855   1.091   0.154   0.039  1.3071 -1.5004  0.3694
 7408SOL     OW33856   4.709   0.412  17.382  0.1052 -0.4916  0.1395
 7408SOL    HW133857   0.003   0.499  17.399  0.7832 -1.2135  2.3818
 7408SOL    HW233858   4.710   0.374  17.470  0.0956 -2.4275 -0.7070
 7409SOL     OW33859   1.827   0.074   5.033 -0.2120 -0.3153  0.2298
 7409SOL    HW133860   1.849   0.130   4.958  1.2493  0.0245  0.9110
 7409SOL    HW233861   1.839   0.126   5.112 -0.1927 -0.2604  0.1910
 7410SOL     OW33862   1.540   4.480   2.719 -0.0987  0.6867  0.0221
 7410SOL    HW133863   1.491   4.542   2.772 -0.8389 -1.1936  1.5502
 7410SOL    HW233864   1.468   4.427   2.684  1.9863 -1.2109 -1.4206
 7411SOL     OW33865   2.717   0.361   5.418 -0.5514 -0.3276  0.1197
 7411SOL    HW133866   2.806   0.378   5.389 -1.1290  0.4566 -1.1630
 7411SOL    HW233867   2.671   0.430   5.370  0.0007 -0.4909 -0.6403
 7412SOL     OW33868   1.776   2.175   3.846  0.0443 -0.4798  0.1927
 7412SOL    HW133869   1.760   2.100   3.903  0.3859  1.2142  2.4957
 7412SOL    HW233870   1.870   2.178   3.863 -0.3094 -1.2402  2.2688
 7413SOL     OW33871   1.109   2.471   5.812  0.3236 -0.3892  0.3127
 7413SOL    HW133872   1.080   2.463   5.721 -0.8293  0.4205  0.6025
 7413SOL    HW233873   1.183   2.531   5.813  0.7520 -0.8318 -3.5039
 7414SOL     OW33874   0.486   0.899   6.562  0.1177 -0.0896  0.3649
 7414SOL    HW133875   0.529   0.945   6.634  0.1159  0.1007  0.2454
 7414SOL    HW233876   0.466   0.813   6.599  0.8284  0.4613  1.9855
 7415SOL     OW33877   0.934   2.076   7.862  0.1694  0.4618  0.1180
 7415SOL    HW133878   0.847   2.050   7.893  0.0466 -2.1916 -2.4304
 7415SOL    HW233879   0.979   1.994   7.881 -1.3945 -0.3076  0.5368
 7416SOL     OW33880   0.566   0.374   4.328 -0.5857 -0.1906  0.0225
 7416SOL    HW133881   0.619   0.316   4.382  0.1154  1.2478  0.9094
 7416SOL    HW233882   0.480   0.355   4.364  0.1290 -0.2274  1.7468
 7417SOL     OW33883   4.067   2.130   8.091  0.0039  0.1012 -0.3533
 7417SOL    HW133884   4.135   2.077   8.133 -0.5291  1.5812  2.3211
 7417SOL    HW233885   4.084   2.111   7.999  3.2444  0.3257  0.2063
 7418SOL     OW33886   4.230   3.665  16.215  0.1454 -0.2092  0.5066
 7418SOL    HW133887   4.323   3.687  16.224  0.5735 -1.3427 -1.0471
 7418SOL    HW233888   4.225   3.703  16.127 -1.6947  2.8988  1.9554
 7419SOL     OW33889   4.098   3.307   8.932 -0.5576 -0.0756 -0.0983
 7419SOL    HW133890   4.004   3.298   8.912 -0.5157 -1.8101  0.4866
 7419SOL    HW233891   4.101   3.320   9.026  1.5144 -2.7463  0.1873
 7420SOL     OW33892   0.171   1.413   9.943  0.1862  0.0712 -0.0120
 7420SOL    HW133893   0.147   1.326   9.911  0.1841 -0.6105  1.8317
 7420SOL    HW233894   0.264   1.397   9.934 -0.0833  0.4971 -3.7336
 7421SOL     OW33895   0.012   0.186   3.913 -0.7275  0.0048 -0.2840
 7421SOL    HW133896   4.663   0.209   3.938 -0.0169  0.7619  1.6046
 7421SOL    HW233897   0.044   0.276   3.926 -0.9449 -0.0142  0.3504
 7422SOL     OW33898   1.583   0.449   4.395 -0.4416 -0.1540 -0.0702
 7422SOL    HW133899   1.539   0.381   4.344 -1.2750  0.6539 -0.4356
 7422SOL    HW233900   1.536   0.450   4.479  0.6880 -1.2488  0.5732
 7423SOL     OW33901   2.037   2.702   9.922  0.3897  0.7914  0.3078
 7423SOL    HW133902   2.074   2.720  10.008  0.2149  1.7257  0.1831
 7423SOL    HW233903   1.945   2.727   9.933 -0.0439  0.0338 -1.4547
 7424SOL     OW33904   3.875   3.400   3.489 -0.4267  0.4690 -0.1636
 7424SOL    HW133905   3.957   3.356   3.465  1.0547  2.4728  1.1704
 7424SOL    HW233906   3.818   3.361   3.422 -1.4431 -1.5755  1.8816
 7425SOL     OW33907   2.022   3.249   8.379 -0.2816  0.5109  0.1696
 7425SOL    HW133908   2.107   3.209   8.399  0.2099  1.7112  0.5281
 7425SOL    HW233909   2.005   3.288   8.465  1.7763 -0.3418  0.9599
 7426SOL     OW33910   0.871   1.039  14.982 -0.1151  0.0466 -0.3229
 7426SOL    HW133911   0.819   0.998  14.912 -0.0844  3.0191 -2.0886
 7426SOL    HW233912   0.815   1.113  15.007 -1.7911 -1.6417  0.9757
 7427SOL     OW33913   3.774   2.413   8.596  0.0833 -0.2472 -0.6606
 7427SOL    HW133914   3.689   2.418   8.638  0.9369  0.8293  0.9343
 7427SOL    HW233915   3.807   2.497   8.628  0.4275 -0.2413 -1.0261
 7428SOL     OW33916   4.595   2.859  13.432  0.5795  0.7192 -0.0076
 7428SOL    HW133917   4.520   2.896  13.386  0.8315  1.4985  0.2152
 7428SOL    HW233918   4.593   2.779  13.379 -0.2538 -0.7199  2.1902
 7429SOL     OW33919   2.085   1.767   8.227  0.6407  0.0496 -0.0437
 7429SOL    HW133920   2.058   1.690   8.177 -0.6574  1.4716 -1.5064
 7429SOL    HW233921   2.146   1.720   8.284 -1.1569 -0.7621  1.2196
 7430SOL     OW33922   3.261   0.590   8.022 -0.1035  0.4313 -0.0891
 7430SOL    HW133923   3.211   0.623   7.948  0.1540 -0.1974 -0.5430
 7430SOL    HW233924   3.238   0.640   8.100 -1.7921 -0.2119 -0.1848
 7431SOL     OW33925   3.805   2.273   2.029  0.9023  1.0392  0.1278
 7431SOL    HW133926   3.754   2.210   1.979  1.0220  1.5445 -0.6303
 7431SOL    HW233927   3.749   2.271   2.107 -0.2691 -1.3211 -0.8025
 7432SOL     OW33928   3.624   4.487  11.737  0.0740 -0.4704  0.3860
 7432SOL    HW133929   3.720   4.482  11.733  0.1680  0.7055  1.0579
 7432SOL    HW233930   3.601   4.575  11.766  3.6410  0.2252  1.1429
 7433SOL     OW33931   4.395   1.842   9.672 -0.0318 -0.1764  0.1097
 7433SOL    HW133932   4.321   1.813   9.618 -1.2512  1.3191  0.9881
 7433SOL    HW233933   4.393   1.935   9.652  0.0002 -0.3056 -0.5262
 7434SOL     OW33934   1.930   0.902   8.639  0.1558  0.1347 -0.4341
 7434SOL    HW133935   1.900   0.827   8.588  0.0633  0.3306 -0.6668
 7434SOL    HW233936   1.994   0.940   8.579  0.2391 -1.5211 -1.3894
 7435SOL     OW33937   2.510   4.650  13.655 -0.3278  0.5218  0.1957
 7435SOL    HW133938   2.447   4.712  13.618 -0.2806  0.0002 -0.7782
 7435SOL    HW233939   2.465   4.613  13.730  0.1882 -0.0691  0.2159
 7436SOL     OW33940   2.125   0.507  14.737 -0.8421 -0.2925  0.1983
 7436SOL    HW133941   2.084   0.560  14.806  2.4261  0.6937  1.3787
 7436SOL    HW233942   2.197   0.467  14.785 -0.4145  0.9022  0.5730
 7437SOL     OW33943   1.486   0.508   4.946 -0.5441 -0.0714  0.0888
 7437SOL    HW133944   1.524   0.424   4.920 -1.3006 -0.0088 -1.2046
 7437SOL    HW233945   1.528   0.507   5.032 -2.2233  0.0043  0.9118
 7438SOL     OW33946   4.355   0.527   6.891 -0.4778 -0.4910 -0.2149
 7438SOL    HW133947   4.350   0.456   6.826  2.0767 -0.8919  0.0268
 7438SOL    HW233948   4.333   0.491   6.977  1.8323 -0.5175  0.3467
 7439SOL     OW33949   1.243   3.714  17.288  0.5295 -0.3323  0.6132
 7439SOL    HW133950   1.227   3.804  17.317 -2.8702  0.0667 -2.6075
 7439SOL    HW233951   1.334   3.699  17.316  0.3057 -2.5319  0.1761
 7440SOL     OW33952   3.981   3.232   7.832 -0.5946 -0.0660 -0.3205
 7440SOL    HW133953   3.930   3.153   7.816 -1.4720  0.2963  0.6838
 7440SOL    HW233954   4.066   3.206   7.796 -0.4325 -0.2466  0.1935
 7441SOL     OW33955   3.443   0.509   9.878 -0.1704  0.2014  0.4562
 7441SOL    HW133956   3.355   0.541   9.862 -0.6021 -2.5757 -2.6839
 7441SOL    HW233957   3.481   0.581   9.929  1.2758  0.3837 -0.9034
 7442SOL     OW33958   4.036   1.078   1.991 -0.2220 -0.0896 -0.7353
 7442SOL    HW133959   4.038   1.154   2.049  3.1798  0.5568 -1.6798
 7442SOL    HW233960   3.962   1.103   1.936 -1.7483  1.1090  1.8283
 7443SOL     OW33961   2.660   4.154  15.163  0.0140 -0.5311 -0.0550
 7443SOL    HW133962   2.619   4.120  15.084  1.7369 -1.8382 -0.4057
 7443SOL    HW233963   2.585   4.129  15.216  1.0158 -2.3065  0.5335
 7444SOL     OW33964   3.798   2.577   9.194 -0.3072  0.5536  0.2374
 7444SOL    HW133965   3.875   2.530   9.160 -0.8541 -0.0962 -0.0986
 7444SOL    HW233966   3.832   2.661   9.226  1.4041 -0.6239  1.5351
 7445SOL     OW33967   2.732   1.511   7.821 -0.1554  0.1076  0.8717
 7445SOL    HW133968   2.733   1.444   7.889 -1.9368 -1.1208 -0.3031
 7445SOL    HW233969   2.814   1.556   7.838 -0.6354  1.3511 -0.1210
 7446SOL     OW33970   1.891   0.447  15.211 -0.0134  0.1345  0.2042
 7446SOL    HW133971   1.868   0.400  15.131  3.2279 -0.3673 -0.4455
 7446SOL    HW233972   1.838   0.407  15.280  2.2253 -1.2724  1.0836
 7447SOL     OW33973   3.285   2.652  13.449  0.4166 -0.4659 -0.4598
 7447SOL    HW133974   3.302   2.570  13.402  0.6896  0.7569 -2.5302
 7447SOL    HW233975   3.357   2.654  13.511 -1.2078 -2.3246  1.5106
 7448SOL     OW33976   1.081   4.061   7.768 -0.3692  0.4070  0.2931
 7448SOL    HW133977   1.173   4.035   7.763 -0.3014  0.7516 -0.2276
 7448SOL    HW233978   1.056   4.050   7.860  0.3418  0.7228  0.5190
 7449SOL     OW33979   1.859   0.157  13.151 -0.2656 -0.2422  0.0154
 7449SOL    HW133980   1.920   0.104  13.203  2.0021  0.6956 -1.6730
 7449SOL    HW233981   1.849   0.232  13.209  0.7968  1.4980 -2.0508
 7450SOL     OW33982   1.629   3.940  17.515  0.1999  0.3847  0.5968
 7450SOL    HW133983   1.708   3.923  17.566 -1.6852 -3.7416  2.1248
 7450SOL    HW233984   1.576   3.990  17.577 -1.6735  0.5199 -1.0880
 7451SOL     OW33985   0.643   3.466  12.285  0.1714  0.1892 -0.1784
 7451SOL    HW133986   0.707   3.456  12.214 -0.6925 -1.0646 -0.7863
 7451SOL    HW233987   0.563   3.462  12.234  0.2744 -1.0941 -0.2206
 7452SOL     OW33988   2.897   2.976   3.965 -0.3447  0.2704  0.4893
 7452SOL    HW133989   2.818   2.933   3.998 -1.2731  1.7340  0.2002
 7452SOL    HW233990   2.886   3.064   4.001 -0.0656  0.7413 -0.5749
 7453SOL     OW33991   0.500   0.477   8.378 -0.1559  0.2293  0.0767
 7453SOL    HW133992   0.448   0.397   8.372  0.1671  0.1342 -1.6677
 7453SOL    HW233993   0.502   0.490   8.283  0.0816 -0.7646 -0.0638
 7454SOL     OW33994   3.686   1.328  11.196  0.4641 -0.4714  0.0932
 7454SOL    HW133995   3.774   1.316  11.231  0.5409  0.1198  0.1041
 7454SOL    HW233996   3.694   1.422  11.179  0.5319 -0.8644 -2.0696
 7455SOL     OW33997   3.994   0.772   1.316 -0.0225  0.3614 -0.4287
 7455SOL    HW133998   3.931   0.776   1.387 -0.2485 -0.0363 -0.6021
 7455SOL    HW233999   3.938   0.726   1.253  1.2826 -1.0588 -0.5613
 7456SOL     OW34000   3.197   3.440  16.871  0.1369  0.1491  0.7124
 7456SOL    HW134001   3.159   3.514  16.823 -0.9889 -1.4156 -0.8358
 7456SOL    HW234002   3.274   3.469  16.920  0.3955  2.0852 -0.8094
 7457SOL     OW34003   2.773   1.962   2.271  0.3247 -0.2296 -0.6747
 7457SOL    HW134004   2.825   1.977   2.350 -2.5244  4.5988  0.2847
 7457SOL    HW234005   2.753   2.048   2.233 -1.4665 -0.9811 -1.4124
 7458SOL     OW34006   4.237   4.593  16.447 -0.0874  0.2260 -0.5027
 7458SOL    HW134007   4.301   4.536  16.405  1.9377 -0.1502  3.0589
 7458SOL    HW234008   4.156   4.552  16.417 -1.1848  1.4801  0.7491
 7459SOL     OW34009   2.780   0.577   3.726  0.1630  0.0701  0.0473
 7459SOL    HW134010   2.804   0.490   3.758 -2.1753 -1.1841 -1.6375
 7459SOL    HW234011   2.811   0.638   3.793 -0.1944 -0.9958  1.1763
 7460SOL     OW34012   2.394   2.858  11.801  0.4784 -0.7355 -0.3927
 7460SOL    HW134013   2.436   2.900  11.725  2.7115  0.5221  1.5320
 7460SOL    HW234014   2.456   2.785  11.809  1.4677  0.1940  0.4377
 7461SOL     OW34015   0.245   0.225  10.931  0.2105 -0.2399 -0.0771
 7461SOL    HW134016   0.212   0.288  10.995  1.3278  0.9521 -0.6764
 7461SOL    HW234017   0.160   0.193  10.899  0.6144 -1.5946  0.1708
 7462SOL     OW34018   2.381   0.160   2.947 -0.2641  0.6681  0.0916
 7462SOL    HW134019   2.348   0.162   2.858 -1.7628  1.7053  0.6759
 7462SOL    HW234020   2.447   0.091   2.953  1.2404  2.0502 -0.4800
 7463SOL     OW34021   0.390   2.984   1.881  0.3714  0.3839 -0.2166
 7463SOL    HW134022   0.302   2.963   1.912 -0.0838  2.6226  0.0081
 7463SOL    HW234023   0.446   2.916   1.917 -1.5625 -1.3590 -0.5397
 7464SOL     OW34024   1.465   3.350  14.543 -0.1294  0.0069 -0.1936
 7464SOL    HW134025   1.547   3.355  14.494 -0.3797  4.2989 -0.1967
 7464SOL    HW234026   1.422   3.431  14.517  0.6591  0.4867  0.0042
 7465SOL     OW34027   0.836   3.923  13.506  0.2386 -0.2669  0.2204
 7465SOL    HW134028   0.813   3.858  13.439 -2.5281 -1.0710  1.9741
 7465SOL    HW234029   0.819   3.877  13.588  2.1305 -0.0647  0.7298
 7466SOL     OW34030   1.644   3.566   5.205 -0.2103 -0.4750 -0.0673
 7466SOL    HW134031   1.671   3.644   5.255  0.4295 -0.8433  0.1646
 7466SOL    HW234032   1.726   3.523   5.180 -0.4107 -0.6725 -0.3728
 7467SOL     OW34033   4.216   3.532   5.654 -0.2989  0.1525 -0.2313
 7467SOL    HW134034   4.236   3.569   5.740  2.8086 -1.9933 -0.0607
 7467SOL    HW234035   4.144   3.589   5.626 -1.3112 -0.8566  0.3214
 7468SOL     OW34036   0.726   1.059   2.593  0.1005 -0.0069 -0.3512
 7468SOL    HW134037   0.640   1.032   2.625  0.8811 -1.3272  0.6109
 7468SOL    HW234038   0.756   1.142   2.631 -0.5574 -0.1074  0.3859
 7469SOL     OW34039   2.522   3.196   1.254  0.6721  0.1965 -0.6260
 7469SOL    HW134040   2.576   3.271   1.228 -0.6139  0.7563 -1.6896
 7469SOL    HW234041   2.460   3.241   1.312  2.3869 -0.7578  1.9219
 7470SOL     OW34042   4.590   1.297  12.759  0.0524  0.0407  0.2628
 7470SOL    HW134043   4.634   1.375  12.792  1.1011 -0.0204 -0.9825
 7470SOL    HW234044   4.507   1.289  12.807  1.2379  1.5105  2.5468
 7471SOL     OW34045   0.482   1.073  12.301  0.4831  0.5982  0.2260
 7471SOL    HW134046   0.547   1.032  12.244 -1.3261  1.2148 -2.2903
 7471SOL    HW234047   0.464   1.141  12.236 -0.8381 -2.9952 -3.1582
 7472SOL     OW34048   0.707   3.321  14.431  0.3918  0.8901  0.2359
 7472SOL    HW134049   0.713   3.295  14.339  0.3641 -0.2862  0.5625
 7472SOL    HW234050   0.755   3.248  14.470 -0.4637  0.1980  0.0005
 7473SOL     OW34051   2.563   1.826   3.933 -0.3422 -0.0533 -0.3807
 7473SOL    HW134052   2.587   1.915   3.903 -0.4620  0.8641  2.2985
 7473SOL    HW234053   2.564   1.852   4.025 -0.9139  0.7076 -0.5811
 7474SOL     OW34054   4.144   3.578   5.240 -0.1227 -0.4686 -0.2162
 7474SOL    HW134055   4.153   3.555   5.148  0.9094  0.9458 -0.4639
 7474SOL    HW234056   4.213   3.526   5.282 -0.0202 -0.2421 -0.1035
 7475SOL     OW34057   4.152   1.817   0.369 -0.0336  0.3818 -0.1625
 7475SOL    HW134058   4.201   1.738   0.343  0.0872  0.3927  0.0300
 7475SOL    HW234059   4.177   1.874   0.296  1.4620 -2.3148 -1.7801
 7476SOL     OW34060   3.905   2.233   1.238 -0.8328 -0.1163 -0.0675
 7476SOL    HW134061   3.847   2.266   1.170 -0.1531  0.9378 -0.1292
 7476SOL    HW234062   3.913   2.306   1.299  0.6428 -2.3959  2.4881
 7477SOL     OW34063   3.893   0.782   4.287  0.5414 -0.2433  0.4162
 7477SOL    HW134064   3.861   0.700   4.250 -1.2315  0.3506  0.6621
 7477SOL    HW234065   3.910   0.769   4.381 -0.9669 -1.6871  0.4727
 7478SOL     OW34066   2.784   1.364   2.733 -0.3527 -1.1955 -0.0572
 7478SOL    HW134067   2.876   1.342   2.721  0.0414  0.8923 -0.9865
 7478SOL    HW234068   2.749   1.320   2.655  0.8935  0.3228 -1.4747
 7479SOL     OW34069   4.551   2.221   1.636  0.2235  0.2254  0.1079
 7479SOL    HW134070   4.606   2.259   1.567 -0.3429 -0.8243 -0.9208
 7479SOL    HW234071   4.492   2.165   1.585  0.1442 -0.6350  1.1497
 7480SOL     OW34072   1.126   4.248   8.461  0.2373 -0.6478 -0.1331
 7480SOL    HW134073   1.111   4.238   8.367 -1.8390  2.8116 -0.1901
 7480SOL    HW234074   1.138   4.158   8.490 -1.2589 -0.9870 -0.5973
 7481SOL     OW34075   2.829   0.103   8.375  0.0377  0.4480  0.5561
 7481SOL    HW134076   2.786   0.126   8.293 -1.5757  2.6233  2.0170
 7481SOL    HW234077   2.899   0.048   8.338 -0.9550 -0.8629  0.6381
 7482SOL     OW34078   1.066   0.532  10.641  0.6764 -0.4777 -0.3983
 7482SOL    HW134079   0.981   0.566  10.612  1.7598  2.2158 -0.4137
 7482SOL    HW234080   1.109   0.615  10.661 -1.0019 -0.1147  1.6601
 7483SOL     OW34081   2.059   3.834  15.980 -0.2799  0.7032  0.1506
 7483SOL    HW134082   1.993   3.789  16.033  1.5664 -1.3029  0.7471
 7483SOL    HW234083   2.118   3.759  15.970  0.0080  0.7942  1.2325
 7484SOL     OW34084   0.870   2.136  11.433  0.0170  0.7336 -0.3098
 7484SOL    HW134085   0.799   2.197  11.410 -0.3551 -0.6263 -2.7173
 7484SOL    HW234086   0.889   2.090  11.351 -1.6697 -0.0151 -0.2867
 7485SOL     OW34087   2.747   0.292   1.919 -0.2023  0.1398  0.2338
 7485SOL    HW134088   2.753   0.207   1.877  1.4084  0.3061  0.1238
 7485SOL    HW234089   2.758   0.342   1.838 -2.0079  0.3122  0.0945
 7486SOL     OW34090   3.057   4.144   6.604 -0.0262  0.1536  0.2084
 7486SOL    HW134091   2.994   4.123   6.673  1.0739 -1.5003  0.6954
 7486SOL    HW234092   3.005   4.214   6.563 -0.6679  0.4951  1.6156
 7487SOL     OW34093   1.476   0.892  14.754  0.4320  0.1309 -0.3224
 7487SOL    HW134094   1.389   0.902  14.717  0.8192  1.2277 -0.9308
 7487SOL    HW234095   1.462   0.814  14.807  0.5886  1.3093  1.4346
 7488SOL     OW34096   1.796   1.458   1.986 -0.6545  0.3588  0.3157
 7488SOL    HW134097   1.873   1.507   1.958 -0.2796  0.0573  0.8271
 7488SOL    HW234098   1.785   1.477   2.079  0.9895  0.5996  0.4465
 7489SOL     OW34099   1.956   3.335   8.624  0.2269  0.1036  0.0117
 7489SOL    HW134100   1.863   3.318   8.640  0.9937 -3.1863  1.0778
 7489SOL    HW234101   1.995   3.299   8.704 -0.4093  0.3850  0.4444
 7490SOL     OW34102   1.973   0.813  11.441 -0.2478  0.1112 -0.3005
 7490SOL    HW134103   1.995   0.893  11.392 -1.3311 -0.1034 -1.1434
 7490SOL    HW234104   2.022   0.830  11.522 -2.8554 -1.1752  1.5381
 7491SOL     OW34105   4.336   1.220   3.146 -0.0089 -0.1337  0.1288
 7491SOL    HW134106   4.302   1.286   3.206 -0.7633  0.4142 -0.9047
 7491SOL    HW234107   4.304   1.257   3.064  0.0602 -1.9237 -0.7112
 7492SOL     OW34108   1.740   4.210   5.377  0.1617  0.1826  0.3596
 7492SOL    HW134109   1.724   4.303   5.392 -0.7634  0.0529  0.1811
 7492SOL    HW234110   1.713   4.169   5.459  2.0812 -2.8319 -0.5210
 7493SOL     OW34111   3.975   0.466   4.988  0.2868  0.2175 -0.2378
 7493SOL    HW134112   4.061   0.484   4.952  1.1007 -2.3231  0.3831
 7493SOL    HW234113   3.972   0.547   5.039 -1.1607 -0.0357  0.0814
 7494SOL     OW34114   0.177   4.336   8.300 -0.0779 -0.2473  0.2655
 7494SOL    HW134115   0.208   4.246   8.292  1.1903  0.1384  0.7555
 7494SOL    HW234116   0.227   4.369   8.375 -1.3857  1.6254  0.3128
 7495SOL     OW34117   2.141   1.959   7.925  0.4214  0.3077  0.0509
 7495SOL    HW134118   2.048   1.964   7.905  0.3798  0.7489  0.3754
 7495SOL    HW234119   2.180   2.001   7.848  2.1296 -3.2164 -1.0469
 7496SOL     OW34120   2.298   4.675   2.061  0.5027  0.4096  0.3304
 7496SOL    HW134121   2.294   0.003   2.128  2.4389 -0.3863  1.2620
 7496SOL    HW234122   2.226   4.617   2.087  0.3184  0.5138  0.0510
 7497SOL     OW34123   0.669   4.740  13.847  0.3398  0.4200 -0.0976
 7497SOL    HW134124   0.713   4.657  13.865  0.6293  0.5200 -0.3357
 7497SOL    HW234125   0.705   0.058  13.913 -1.9905  1.2807  0.4114
 7498SOL     OW34126   1.871   2.315  10.573 -0.1872  0.0089  0.2009
 7498SOL    HW134127   1.847   2.407  10.580  0.4345  0.0539  1.7150
 7498SOL    HW234128   1.836   2.294  10.487 -1.1750  1.1983  0.3140
 7499SOL     OW34129   2.868   3.233   4.069  0.9568  0.0863  0.2624
 7499SOL    HW134130   2.830   3.303   4.016  2.6910  0.1194 -0.9209
 7499SOL    HW234131   2.826   3.256   4.151  0.5561  0.0921  0.0554
 7500SOL     OW34132   0.601   0.600   4.852  0.0529  0.0365  0.0436
 7500SOL    HW134133   0.665   0.651   4.902  0.0199  0.6697 -0.5592
 7500SOL    HW234134   0.532   0.664   4.834 -1.6674 -1.7278  0.3600
 7501SOL     OW34135   2.141   1.621  10.443 -0.1169 -0.0278 -0.2068
 7501SOL    HW134136   2.165   1.542  10.394 -1.0793 -1.5466  1.7696
 7501SOL    HW234137   2.197   1.619  10.521  0.5404  2.9350 -0.6298
 7502SOL     OW34138   4.132   1.962   4.395 -0.1700 -0.2974  0.0547
 7502SOL    HW134139   4.041   1.938   4.414 -0.5073 -2.2579 -4.0014
 7502SOL    HW234140   4.129   1.978   4.301  1.0458 -1.1714 -0.1159
 7503SOL     OW34141   3.486   2.759   6.105 -0.0692 -0.2989  0.6057
 7503SOL    HW134142   3.552   2.749   6.037 -0.9008  1.9898 -0.5332
 7503SOL    HW234143   3.410   2.724   6.059 -0.5603 -1.1657  2.0529
 7504SOL     OW34144   1.698   0.367  13.763  0.3321 -0.5865 -0.1664
 7504SOL    HW134145   1.676   0.298  13.826 -0.4955  1.2771  1.5678
 7504SOL    HW234146   1.617   0.347  13.715 -0.2215  0.5620  0.3062
 7505SOL     OW34147   1.473   1.966   5.223 -0.0518  0.3987  0.2844
 7505SOL    HW134148   1.563   1.939   5.242 -0.3029 -0.6000  0.0133
 7505SOL    HW234149   1.442   1.964   5.314 -1.7721  1.1081 -0.2846
 7506SOL     OW34150   2.685   2.354   0.636 -0.3041 -0.1842  0.7766
 7506SOL    HW134151   2.637   2.435   0.622  0.6060  0.2962  0.4704
 7506SOL    HW234152   2.757   2.373   0.576 -1.1383 -2.7106 -1.0187
 7507SOL     OW34153   0.773   2.746   6.412  0.3814 -0.2973 -0.3576
 7507SOL    HW134154   0.834   2.727   6.484 -0.6048 -0.6124  0.3874
 7507SOL    HW234155   0.705   2.682   6.430 -1.5931  1.8089 -0.2671
 7508SOL     OW34156   4.134   1.455   1.953  0.1079 -0.3414 -0.0752
 7508SOL    HW134157   4.179   1.371   1.949  2.0252  0.7515 -1.3237
 7508SOL    HW234158   4.175   1.498   2.029 -0.4798  0.0678  0.0125
 7509SOL     OW34159   1.451   0.120  12.556  0.3099  0.3386 -0.2416
 7509SOL    HW134160   1.424   0.122  12.648  3.8293  0.3338  0.7970
 7509SOL    HW234161   1.367   0.136  12.512  0.3224  0.0466 -0.3719
 7510SOL     OW34162   3.656   1.093  15.544 -0.7807  0.7038 -0.4081
 7510SOL    HW134163   3.573   1.081  15.498  0.5005 -1.0075 -2.2556
 7510SOL    HW234164   3.670   1.187  15.553  0.4531  0.4628  0.2130
 7511SOL     OW34165   1.281   3.352   3.248 -0.3240  0.5149  0.7255
 7511SOL    HW134166   1.205   3.346   3.191 -0.1188 -2.3567  0.7707
 7511SOL    HW234167   1.333   3.392   3.177 -2.3275 -1.2878 -1.7576
 7512SOL     OW34168   2.833   3.688   7.194  0.2026  0.1488  0.0937
 7512SOL    HW134169   2.822   3.597   7.165  1.6262 -0.5917  1.8376
 7512SOL    HW234170   2.849   3.671   7.287 -0.1137  0.7432  0.2547
 7513SOL     OW34171   1.575   3.031   2.662 -0.0303 -0.5677 -0.5746
 7513SOL    HW134172   1.504   3.077   2.618 -0.7077  1.8362  2.9804
 7513SOL    HW234173   1.571   2.942   2.629 -2.1470 -1.6099  2.5173
 7514SOL     OW34174   3.011   0.457  12.414  0.5169  0.1067  0.2503
 7514SOL    HW134175   3.043   0.388  12.355  0.2448 -0.6896  1.0302
 7514SOL    HW234176   2.942   0.510  12.374 -1.5027 -1.6004  1.4792
 7515SOL     OW34177   2.780   2.501   7.609 -0.1399 -0.6030 -0.3637
 7515SOL    HW134178   2.715   2.456   7.662 -0.3231  2.1683  1.7445
 7515SOL    HW234179   2.843   2.430   7.594 -0.3805 -1.0796  0.9014
 7516SOL     OW34180   3.071   0.472   3.572 -0.4010  0.4151 -0.3396
 7516SOL    HW134181   3.095   0.510   3.487 -0.0664  0.1773 -0.3514
 7516SOL    HW234182   2.980   0.500   3.581 -0.3223 -0.2351  2.3530
 7517SOL     OW34183   2.301   4.401  15.072 -0.7840  0.3205 -0.4722
 7517SOL    HW134184   2.206   4.411  15.068 -1.0680 -2.9814 -1.8803
 7517SOL    HW234185   2.324   4.455  15.148  0.0252  0.5321 -0.8692
 7518SOL     OW34186   1.201   4.100   5.901 -0.0259  0.1232 -0.2811
 7518SOL    HW134187   1.204   4.172   5.839 -0.5850 -1.3815 -2.0611
 7518SOL    HW234188   1.253   4.127   5.977 -1.1804 -1.9973  1.2721
 7519SOL     OW34189   3.047   1.227  13.300  0.0403  0.4153 -0.1681
 7519SOL    HW134190   3.004   1.310  13.280 -0.2474 -0.0436 -1.4750
 7519SOL    HW234191   3.130   1.258  13.335  0.8009 -1.1493 -0.5951
 7520SOL     OW34192   4.608   2.437   7.964 -0.0165 -0.7591  0.8786
 7520SOL    HW134193   4.684   2.379   7.969 -0.6139 -1.8194 -2.5028
 7520SOL    HW234194   4.640   2.522   7.932  0.4724 -1.5878 -0.8230
 7521SOL     OW34195   2.791   0.944   3.387  0.9181  0.2687 -0.9747
 7521SOL    HW134196   2.802   0.855   3.420 -1.2030 -0.3646 -1.9354
 7521SOL    HW234197   2.729   0.971   3.455 -0.8585 -1.0200 -2.0802
 7522SOL     OW34198   0.251   1.463   3.720 -0.7024  0.2665  0.1090
 7522SOL    HW134199   0.250   1.529   3.651  1.5497  1.7216  1.4316
 7522SOL    HW234200   0.168   1.416   3.710  0.1971 -1.1090 -0.9986
 7523SOL     OW34201   2.645   0.964   3.611  0.2232  0.4570 -0.3385
 7523SOL    HW134202   2.723   0.983   3.664 -0.8897  0.0977  1.4108
 7523SOL    HW234203   2.581   1.002   3.670  0.9965 -0.0592  0.8382
 7524SOL     OW34204   0.825   2.525   6.069  0.7267  0.6714 -0.4895
 7524SOL    HW134205   0.866   2.604   6.103  1.2519 -0.9003  2.5845
 7524SOL    HW234206   0.759   2.552   6.005  0.0023 -1.6045 -0.7336
 7525SOL     OW34207   0.562   2.156   6.337 -0.5776 -0.0554  0.7712
 7525SOL    HW134208   0.512   2.133   6.258  0.7519  0.5996 -0.2662
 7525SOL    HW234209   0.562   2.250   6.320  1.7308  0.0510  1.2662
 7526SOL     OW34210   0.841   2.646   3.998  0.4387  0.4294  0.5723
 7526SOL    HW134211   0.906   2.698   3.949 -0.7782  0.2134 -1.2584
 7526SOL    HW234212   0.789   2.716   4.036  2.6206  1.0718  2.3888
 7527SOL     OW34213   0.399   4.204   6.042 -0.1709  0.1284  0.5305
 7527SOL    HW134214   0.432   4.164   6.123  0.6560 -1.7554 -0.7351
 7527SOL    HW234215   0.343   4.267   6.086 -2.2687 -1.5467  0.3014
 7528SOL     OW34216   0.798   2.387   2.054 -0.3488 -0.3773 -0.4045
 7528SOL    HW134217   0.736   2.318   2.073 -1.5164  0.7767 -0.0234
 7528SOL    HW234218   0.841   2.393   2.139 -1.0591 -2.2055  0.0599
 7529SOL     OW34219   3.018   2.933  16.014 -0.2995 -0.0705  0.2719
 7529SOL    HW134220   2.978   3.018  16.027 -0.9880 -0.7824  2.7338
 7529SOL    HW234221   3.018   2.928  15.918 -0.8934 -1.5569  0.3488
 7530SOL     OW34222   0.511   2.332   7.089  0.3756 -0.9836  0.7086
 7530SOL    HW134223   0.551   2.247   7.109 -0.4865 -2.2576 -3.0006
 7530SOL    HW234224   0.488   2.319   6.997  0.2739  0.2032  0.5658
 7531SOL     OW34225   3.593   2.003   2.321  0.2632 -0.0152  0.4065
 7531SOL    HW134226   3.563   1.942   2.253 -0.5338 -0.0585  0.8065
 7531SOL    HW234227   3.532   1.984   2.392 -0.1067 -0.0389  0.0763
 7532SOL     OW34228   3.758   3.368   3.073 -0.7225 -0.5606 -0.2864
 7532SOL    HW134229   3.760   3.347   3.167 -0.6741  0.8275  0.0221
 7532SOL    HW234230   3.849   3.351   3.047 -0.8257 -0.4643 -0.6950
 7533SOL     OW34231   2.041   4.296   3.620 -0.5966 -0.4034  0.0668
 7533SOL    HW134232   2.024   4.335   3.706 -1.2244 -0.9998  0.2190
 7533SOL    HW234233   2.027   4.372   3.565  0.9964 -0.3085 -0.2238
 7534SOL     OW34234   4.099   2.472  16.342  0.1230  0.5288 -0.5209
 7534SOL    HW134235   4.033   2.532  16.376 -1.8154 -0.2902 -2.8749
 7534SOL    HW234236   4.135   2.526  16.271  3.1973 -0.4700  0.2946
 7535SOL     OW34237   2.030   0.014  10.058 -0.5152 -0.1281 -0.3844
 7535SOL    HW134238   2.059   0.035  10.147 -0.0999 -0.9884 -0.3179
 7535SOL    HW234239   2.071   4.669  10.050 -1.0695 -0.4039 -0.2057
 7536SOL     OW34240   3.244   4.030   7.254  0.1057  0.1198  0.0969
 7536SOL    HW134241   3.226   4.042   7.347 -0.4401 -0.7871  0.1013
 7536SOL    HW234242   3.225   3.940   7.228 -0.3966  0.2379  0.0572
 7537SOL     OW34243   3.801   3.315   8.052  0.1853 -0.2722 -0.5018
 7537SOL    HW134244   3.716   3.303   8.095  0.6192  0.0594  0.4510
 7537SOL    HW234245   3.831   3.225   8.062 -0.2477 -0.4383 -0.6964
 7538SOL     OW34246   3.423   0.401   8.183  0.1941  0.2723  0.3394
 7538SOL    HW134247   3.480   0.416   8.107 -0.1152  1.4675  0.3385
 7538SOL    HW234248   3.343   0.399   8.131  1.8656  0.2976 -2.2239
 7539SOL     OW34249   0.508   0.700   1.050  0.0296 -0.3134  0.0985
 7539SOL    HW134250   0.469   0.656   1.126 -2.6375 -0.2982 -1.2400
 7539SOL    HW234251   0.522   0.789   1.083  0.1227  0.2896 -1.5583
 7540SOL     OW34252   1.212   0.497   8.005 -0.5058  0.4887  0.0533
 7540SOL    HW134253   1.221   0.498   7.909 -0.1013 -0.2751  0.0782
 7540SOL    HW234254   1.140   0.433   8.013  0.0137  0.0042  0.8661
 7541SOL     OW34255   1.006   4.151   9.605 -0.2233  0.2725  0.2662
 7541SOL    HW134256   1.023   4.168   9.698  1.4712 -0.8617  0.1712
 7541SOL    HW234257   1.010   4.055   9.600 -0.5628  0.3708 -1.7815
 7542SOL     OW34258   0.599   2.673   6.727  0.2646 -0.4003  0.9944
 7542SOL    HW134259   0.648   2.593   6.748  0.8457 -0.3375 -0.1258
 7542SOL    HW234260   0.666   2.742   6.724 -1.2070  0.9533 -0.4741
 7543SOL     OW34261   3.038   0.476   3.018 -0.4231  0.0016  0.1007
 7543SOL    HW134262   2.976   0.542   3.048  2.1245  1.8598  1.2799
 7543SOL    HW234263   3.027   0.473   2.923  0.6378 -2.0678  0.0444
 7544SOL     OW34264   1.107   2.505   8.830 -0.2277  0.2753  0.6008
 7544SOL    HW134265   1.019   2.513   8.866 -0.2671  0.4944  0.4585
 7544SOL    HW234266   1.115   2.410   8.822  2.0410  0.6664 -1.8645
 7545SOL     OW34267   0.065   1.730   8.782 -0.0224 -0.2985  0.2834
 7545SOL    HW134268   0.150   1.734   8.737 -0.6508 -1.0067 -0.9462
 7545SOL    HW234269   0.097   1.689   8.863 -3.7705 -2.9179  0.4305
 7546SOL     OW34270   1.822   0.117   0.484  0.4647  0.0035  0.0364
 7546SOL    HW134271   1.729   0.126   0.503  0.5377 -0.6953  0.7064
 7546SOL    HW234272   1.861   0.086   0.566 -1.1446 -1.7135  0.1420
 7547SOL     OW34273   2.736   3.456   9.114 -0.2333 -0.1445  0.3695
 7547SOL    HW134274   2.817   3.467   9.164  1.7859 -1.4034 -2.6072
 7547SOL    HW234275   2.711   3.366   9.139  0.7127 -0.8085 -1.1114
 7548SOL     OW34276   3.713   2.659   6.834 -0.6916 -0.0449 -0.0587
 7548SOL    HW134277   3.736   2.749   6.809  1.7252 -0.8831 -0.8666
 7548SOL    HW234278   3.654   2.683   6.906  0.4542 -2.2202  1.6058
 7549SOL     OW34279   4.459   0.033   6.080 -0.9122 -0.0059  0.0131
 7549SOL    HW134280   4.387   4.712   6.092 -1.6199  1.1133  1.5323
 7549SOL    HW234281   4.410   0.115   6.088  1.1694  1.4596 -2.1339
 7550SOL     OW34282   2.006   2.112   4.609 -0.7353 -0.0823  0.3100
 7550SOL    HW134283   1.911   2.099   4.606 -0.9372  1.4720  0.2395
 7550SOL    HW234284   2.024   2.183   4.548 -0.9096 -1.8042 -1.7359
 7551SOL     OW34285   4.188   4.067   4.456  0.0871 -0.0463  0.2078
 7551SOL    HW134286   4.218   4.078   4.546 -0.3371  1.2178  0.2010
 7551SOL    HW234287   4.253   4.114   4.404  1.6316 -0.7360  1.5152
 7552SOL     OW34288   0.146   2.442   5.366 -0.1662 -0.1983 -0.3596
 7552SOL    HW134289   0.151   2.535   5.348 -0.3310  0.0647  0.9487
 7552SOL    HW234290   0.094   2.412   5.291  0.5685  0.0225 -0.9623
 7553SOL     OW34291   2.401   2.443   5.706 -0.3652  0.3428  0.0579
 7553SOL    HW134292   2.436   2.399   5.628 -1.2281 -0.1505 -0.0501
 7553SOL    HW234293   2.476   2.450   5.765 -1.5997  2.3400  1.4092
 7554SOL     OW34294   1.531   1.514   0.108  0.4548  0.0320 -0.1050
 7554SOL    HW134295   1.626   1.512   0.106  0.4675  0.0265  0.3984
 7554SOL    HW234296   1.513   1.445   0.172  1.9980 -1.3410 -1.1937
 7555SOL     OW34297   1.643   4.424   8.172  0.4266 -0.0330 -0.0864
 7555SOL    HW134298   1.698   4.384   8.239  0.8717  1.0824  0.2259
 7555SOL    HW234299   1.568   4.450   8.226 -1.1004 -5.2265  0.3134
 7556SOL     OW34300   0.746   0.627   5.238  0.3032  0.4504  0.0321
 7556SOL    HW134301   0.714   0.539   5.219 -0.9361  0.7570  0.6858
 7556SOL    HW234302   0.685   0.646   5.309  0.9247 -0.0446  0.6997
 7557SOL     OW34303   2.834   3.014   1.871  0.0564  0.2401 -0.1415
 7557SOL    HW134304   2.863   3.076   1.938 -1.1865  0.4614  0.1825
 7557SOL    HW234305   2.919   2.998   1.830 -0.6795 -1.2261 -1.1140
 7558SOL     OW34306   3.774   3.549   7.927 -0.7580  0.5074  0.2875
 7558SOL    HW134307   3.798   3.522   7.838 -1.1580  1.3793 -0.0844
 7558SOL    HW234308   3.790   3.472   7.981 -0.9038  0.4096  0.1920
 7559SOL     OW34309   3.758   4.227   2.428 -0.5380  0.6119 -0.0202
 7559SOL    HW134310   3.675   4.244   2.384 -0.8809  1.1134  0.8057
 7559SOL    HW234311   3.809   4.307   2.417  1.1800 -0.7030 -1.5360
 7560SOL     OW34312   4.244   0.141  16.919  0.0218  0.0308  0.2763
 7560SOL    HW134313   4.201   0.184  16.993 -0.1694  0.2617  0.0308
 7560SOL    HW234314   4.178   0.073  16.906 -1.9776  1.6308  2.0751
 7561SOL     OW34315   0.818   0.471   5.722 -0.0062 -0.1916 -0.4977
 7561SOL    HW134316   0.772   0.436   5.646 -1.9243 -0.1591  0.6301
 7561SOL    HW234317   0.746   0.503   5.777 -1.0193  0.3429 -2.1445
 7562SOL     OW34318   2.642   4.027   9.011  0.0771 -0.2037  0.4096
 7562SOL    HW134319   2.703   4.067   9.073  0.0548 -0.1396  0.3902
 7562SOL    HW234320   2.676   3.937   9.003  3.3754  1.1546 -0.9400
 7563SOL     OW34321   4.419   4.202   0.313 -0.4486 -0.4029  0.1196
 7563SOL    HW134322   4.452   4.247   0.391 -0.4595  1.5028 -0.9547
 7563SOL    HW234323   4.342   4.252   0.286 -0.3379 -0.5140 -0.3969
 7564SOL     OW34324   3.072   3.843   9.265  0.3571 -0.0697  0.2123
 7564SOL    HW134325   3.142   3.848   9.200 -0.0238 -1.3956 -0.3024
 7564SOL    HW234326   3.125   3.861   9.343  1.3339 -0.8813 -0.2701
 7565SOL     OW34327   4.085   0.506  10.345 -0.3145  0.2946 -0.5070
 7565SOL    HW134328   4.089   0.574  10.412 -1.6377  1.7906 -1.9322
 7565SOL    HW234329   4.006   0.466  10.381 -1.6254  3.3737  0.0361
 7566SOL     OW34330   0.356   2.620  12.108 -0.6348 -0.4175  0.3830
 7566SOL    HW134331   0.408   2.543  12.086 -2.8069 -1.6956 -0.2848
 7566SOL    HW234332   0.418   2.651  12.174 -0.3419  1.4513 -0.7480
 7567SOL     OW34333   2.557   1.000   5.591 -0.3037 -0.3266  0.2686
 7567SOL    HW134334   2.503   1.003   5.513 -0.1666 -1.4414  0.1303
 7567SOL    HW234335   2.645   0.987   5.554 -0.1904  0.8764  0.1232
 7568SOL     OW34336   2.611   2.153   2.882  0.3784 -0.6007 -0.0454
 7568SOL    HW134337   2.627   2.084   2.817  4.7730 -0.0617  0.4971
 7568SOL    HW234338   2.696   2.194   2.897  0.2003 -0.5832  0.9150
 7569SOL     OW34339   1.015   1.909   8.401  0.0405 -0.9089  0.1406
 7569SOL    HW134340   0.986   1.998   8.421 -0.4695 -1.3304  1.2530
 7569SOL    HW234341   0.938   1.861   8.430 -1.3313  2.0878  1.4305
 7570SOL     OW34342   2.540   0.333   7.691 -0.6238  0.3729 -0.1290
 7570SOL    HW134343   2.621   0.283   7.702 -0.4098  0.8558  0.4952
 7570SOL    HW234344   2.564   0.372   7.607 -0.3292 -0.9507 -0.6635
 7571SOL     OW34345   4.358   3.885   3.392  0.1731  0.6433  0.3308
 7571SOL    HW134346   4.443   3.922   3.368  0.6615 -0.6149  0.1244
 7571SOL    HW234347   4.367   3.883   3.487 -1.2012  0.1848  0.4502
 7572SOL     OW34348   2.170   3.541   2.139 -0.1812  0.1029 -0.1015
 7572SOL    HW134349   2.223   3.516   2.215  1.1372  0.1646 -0.9944
 7572SOL    HW234350   2.138   3.629   2.160 -2.7787 -0.7657 -0.4785
 7573SOL     OW34351   4.522   2.148   3.298  0.9398 -0.1550 -0.7630
 7573SOL    HW134352   4.616   2.158   3.279  1.5435 -1.5487  1.4447
 7573SOL    HW234353   4.503   2.237   3.324  2.7693 -0.1798  0.6909
 7574SOL     OW34354   3.572   0.954   7.926  0.5224 -0.0698 -0.0838
 7574SOL    HW134355   3.479   0.975   7.916  0.0045 -2.8349 -0.9368
 7574SOL    HW234356   3.615   1.039   7.937 -0.7873  0.7504 -1.2187
 7575SOL     OW34357   4.511   4.730  14.995 -0.0783  0.1067 -0.0216
 7575SOL    HW134358   4.559   4.697  14.918 -2.7180  1.3652 -2.1969
 7575SOL    HW234359   4.586   4.732  15.055  0.0092  2.3694 -0.2079
 7576SOL     OW34360   4.624   1.499   5.275  0.1599  0.5309  0.6002
 7576SOL    HW134361   4.568   1.549   5.335 -0.4886 -0.1100  0.5305
 7576SOL    HW234362   4.562   1.437   5.236 -0.6116  2.7282 -1.6462
 7577SOL     OW34363   4.231   0.739   1.754 -0.1345  0.2704 -0.2044
 7577SOL    HW134364   4.310   0.773   1.796 -0.7427  2.0802 -0.5224
 7577SOL    HW234365   4.240   0.783   1.670  1.2409  0.7485  0.1853
 7578SOL     OW34366   0.309   3.316   8.684  0.3244  0.0624 -0.0730
 7578SOL    HW134367   0.282   3.239   8.734  0.3670 -0.7998 -1.3788
 7578SOL    HW234368   0.226   3.352   8.652  1.2643  0.0015 -2.5058
 7579SOL     OW34369   1.466   2.048   5.749 -0.5896  0.1952  0.4462
 7579SOL    HW134370   1.447   2.134   5.784  0.6975  0.5451  0.2736
 7579SOL    HW234371   1.415   1.987   5.802  0.4676  0.9938  2.3384
 7580SOL     OW34372   0.359   4.567   8.204 -0.1998  0.0926 -0.7153
 7580SOL    HW134373   0.328   4.476   8.212 -1.4511  0.7474  2.0576
 7580SOL    HW234374   0.333   4.599   8.118  0.3689 -0.8164 -1.2260
 7581SOL     OW34375   4.507   3.203   7.058 -0.0602  0.2917  0.1022
 7581SOL    HW134376   4.487   3.189   7.151 -0.4857 -0.1756 -0.0608
 7581SOL    HW234377   4.556   3.126   7.029 -1.4523 -0.1080 -1.1397
 7582SOL     OW34378   2.910   1.669  12.233  0.0458  0.1425 -0.4620
 7582SOL    HW134379   2.991   1.646  12.188  1.1258  0.2262  1.3961
 7582SOL    HW234380   2.904   1.613  12.311  0.1131 -1.3098 -1.4973
 7583SOL     OW34381   0.115   3.748  10.532  0.1856  0.3840 -0.4447
 7583SOL    HW134382   0.103   3.673  10.473  0.0940  0.5435 -0.6281
 7583SOL    HW234383   0.073   3.822  10.488  1.3137  0.4391 -1.4088
 7584SOL     OW34384   3.579   4.671  12.206  0.2392  0.0174 -0.0759
 7584SOL    HW134385   3.528   4.724  12.145  0.6687 -2.6483 -2.7873
 7584SOL    HW234386   3.583   4.589  12.157  2.4721 -1.3841  2.4012
 7585SOL     OW34387   3.595   4.046   8.988 -0.1423 -0.0259 -0.0531
 7585SOL    HW134388   3.683   4.075   9.014 -0.5163  0.5173  0.6120
 7585SOL    HW234389   3.574   4.127   8.942 -0.7795  0.6032  1.3441
 7586SOL     OW34390   4.421   3.229   8.565 -0.7142  0.5258  0.0473
 7586SOL    HW134391   4.404   3.251   8.657 -0.5691 -1.0700  0.4558
 7586SOL    HW234392   4.334   3.204   8.534 -2.1985  2.5750  2.4724
 7587SOL     OW34393   3.361   1.645  12.935  0.2226 -0.4983  0.0766
 7587SOL    HW134394   3.331   1.726  12.894 -0.5125 -0.0700  1.4596
 7587SOL    HW234395   3.328   1.644  13.025  1.8184 -0.3869  0.6487
 7588SOL     OW34396   3.763   0.278  13.316  0.7883  0.0330  0.2063
 7588SOL    HW134397   3.671   0.251  13.306 -0.1228  2.5609  1.8797
 7588SOL    HW234398   3.755   0.338  13.390 -0.9877 -1.2420  1.0422
 7589SOL     OW34399   4.127   3.333   8.060 -0.2573  0.0641 -0.0661
 7589SOL    HW134400   4.051   3.311   8.113 -1.3751  3.2333 -0.2998
 7589SOL    HW234401   4.088   3.298   7.980 -0.7931  2.9915 -1.1208
 7590SOL     OW34402   4.160   4.331  13.780  0.4009  0.3534 -0.2328
 7590SOL    HW134403   4.132   4.262  13.720 -1.0150 -0.3547  1.2568
 7590SOL    HW234404   4.135   4.408  13.728 -0.5942  0.9734  1.1678
 7591SOL     OW34405   0.560   2.949   9.142  0.5254 -0.3392  0.0565
 7591SOL    HW134406   0.614   3.024   9.166  0.1024  0.9893 -3.0914
 7591SOL    HW234407   0.619   2.885   9.102  2.0745  1.2844 -0.2422
 7592SOL     OW34408   0.571   3.995   0.112 -0.6533 -0.3407  0.5644
 7592SOL    HW134409   0.565   4.070   0.054  2.7419  0.7810  1.6217
 7592SOL    HW234410   0.480   3.999   0.141 -0.7714 -1.0038  0.2711
 7593SOL     OW34411   0.394   3.213   7.498 -0.1992 -0.0800  0.5690
 7593SOL    HW134412   0.307   3.173   7.503  0.4861 -1.4709  1.3427
 7593SOL    HW234413   0.424   3.192   7.587 -2.1247  1.1554  1.5002
 7594SOL     OW34414   3.642   1.862  17.154  0.2605 -0.2697 -0.4925
 7594SOL    HW134415   3.631   1.814  17.236  0.0836 -0.3731 -0.5763
 7594SOL    HW234416   3.681   1.943  17.186  1.4315  0.0485 -2.6901
 7595SOL     OW34417   3.488   1.497   6.773  0.2159  0.3863  0.4525
 7595SOL    HW134418   3.444   1.413   6.785 -0.7630  0.7500 -0.6142
 7595SOL    HW234419   3.440   1.519   6.694 -0.8555 -0.3814  0.8860
 7596SOL     OW34420   3.915   4.544   7.238 -0.2056  0.3916 -0.1236
 7596SOL    HW134421   4.010   4.549   7.239 -0.0807 -2.3251  0.8049
 7596SOL    HW234422   3.902   4.477   7.305 -0.8821  2.2982  1.6683
 7597SOL     OW34423   1.070   3.256  16.410  0.0276  0.7659 -0.5756
 7597SOL    HW134424   1.108   3.222  16.329 -0.0557 -1.9587  0.5407
 7597SOL    HW234425   0.976   3.246  16.395  0.1172 -2.3158  1.0564
 7598SOL     OW34426   4.191   2.633   9.145  0.0014  0.0189 -0.0223
 7598SOL    HW134427   4.160   2.702   9.086 -0.5424  0.1580  0.4305
 7598SOL    HW234428   4.167   2.679   9.226 -2.3864  1.5001 -1.5588
 7599SOL     OW34429   3.922   4.496   1.730  0.3745 -0.5222  0.0254
 7599SOL    HW134430   3.916   4.445   1.811  0.8563  0.5049  0.7025
 7599SOL    HW234431   3.871   4.440   1.671 -1.5989  1.9803 -0.6070
 7600SOL     OW34432   1.426   4.398   7.565  0.4133 -0.5275 -0.8757
 7600SOL    HW134433   1.408   4.346   7.643 -0.1593  0.4421 -0.3547
 7600SOL    HW234434   1.519   4.419   7.567  0.2944 -0.0570 -0.3789
 7601SOL     OW34435   1.375   3.512   6.389  0.0785  0.1681  0.2418
 7601SOL    HW134436   1.446   3.547   6.442  0.1680  0.4970 -0.0967
 7601SOL    HW234437   1.372   3.425   6.430  1.7744 -0.5386 -1.1476
 7602SOL     OW34438   4.481   3.966   5.127  0.0515  0.3283 -0.3429
 7602SOL    HW134439   4.508   3.874   5.127  1.8867  0.8831 -0.8511
 7602SOL    HW234440   4.442   3.987   5.043  3.2578 -1.9383 -2.3954
 7603SOL     OW34441   1.820   1.239  14.197 -0.3229 -0.6544 -0.5042
 7603SOL    HW134442   1.789   1.312  14.143 -1.5953 -1.2359 -0.5560
 7603SOL    HW234443   1.845   1.178  14.128  2.3527 -0.7063  0.5254
 7604SOL     OW34444   4.603   2.138  15.941  0.4484 -0.0379  0.4667
 7604SOL    HW134445   4.671   2.071  15.941 -0.7020 -1.2043 -1.3104
 7604SOL    HW234446   4.581   2.149  16.034 -0.2970  0.9602  0.1668
 7605SOL     OW34447   2.860   1.653  14.030 -0.1494  0.4660  0.2478
 7605SOL    HW134448   2.783   1.604  14.000  1.2079 -0.5147 -1.6121
 7605SOL    HW234449   2.914   1.575  14.045 -0.2954  0.1832 -0.7037
 7606SOL     OW34450   4.204   3.586   2.579  0.1314 -0.3556 -0.2948
 7606SOL    HW134451   4.170   3.671   2.553  0.4926 -0.0851  0.1124
 7606SOL    HW234452   4.214   3.591   2.674  0.7032 -1.2469 -0.3063
 7607SOL     OW34453   0.353   1.621   1.670  0.3411  0.0690  0.2362
 7607SOL    HW134454   0.407   1.580   1.737  0.3692  1.7248  1.2207
 7607SOL    HW234455   0.371   1.711   1.697  2.0539 -0.6214  1.3754
 7608SOL     OW34456   0.726   1.843   2.416 -0.2779  0.0913 -0.6238
 7608SOL    HW134457   0.764   1.922   2.453  0.5221 -1.0388  0.9870
 7608SOL    HW234458   0.803   1.817   2.365 -0.2468  1.3757 -1.2311
 7609SOL     OW34459   1.230   0.340   4.580 -0.5086  0.0423  0.0383
 7609SOL    HW134460   1.258   0.410   4.639 -1.7868 -1.0848  1.9699
 7609SOL    HW234461   1.303   0.281   4.600  0.1544  0.9524  0.3143
 7610SOL     OW34462   3.945   1.414   5.186 -0.6262  0.3337 -0.3565
 7610SOL    HW134463   4.000   1.488   5.163 -1.0595  0.7673  0.0053
 7610SOL    HW234464   3.933   1.439   5.278 -1.7951 -0.6715 -0.2336
 7611SOL     OW34465   3.954   0.041  11.988 -0.0159 -0.0326 -0.2213
 7611SOL    HW134466   4.016   0.113  11.984 -0.1674 -0.0162 -1.9819
 7611SOL    HW234467   3.876   0.097  11.980 -1.3187 -1.4438  2.4559
 7612SOL     OW34468   4.247   2.216  16.315 -0.2316 -0.6643 -0.9487
 7612SOL    HW134469   4.174   2.275  16.332  1.0162  0.4734  0.5633
 7612SOL    HW234470   4.261   2.188  16.406  0.9648  0.5176 -0.7487
 7613SOL     OW34471   2.993   2.892  10.105  0.1349 -0.2396 -0.8838
 7613SOL    HW134472   2.916   2.926  10.059  1.1541  1.4031 -1.3710
 7613SOL    HW234473   2.962   2.813  10.149  0.4002  0.2474  0.1890
 7614SOL     OW34474   4.296   3.255   5.678  0.4906  0.0354  0.6420
 7614SOL    HW134475   4.373   3.245   5.734  0.5511  0.4481  0.6328
 7614SOL    HW234476   4.269   3.345   5.693 -0.4659 -0.0186 -0.7116
 7615SOL     OW34477   1.409   4.478  17.321 -0.1646  0.1937 -0.2848
 7615SOL    HW134478   1.343   4.525  17.371 -0.4487 -0.0126 -0.4700
 7615SOL    HW234479   1.437   4.536  17.250  0.1119  1.3357  0.7441
 7616SOL     OW34480   3.293   1.379  13.358  0.2114  0.1965  0.5529
 7616SOL    HW134481   3.278   1.460  13.310  0.8020 -0.4669 -0.7649
 7616SOL    HW234482   3.252   1.405  13.441 -1.9302  1.3964 -0.8906
 7617SOL     OW34483   1.924   0.867  10.693  0.6316  0.2901 -0.4050
 7617SOL    HW134484   1.897   0.911  10.612  2.3239 -0.7170 -1.5242
 7617SOL    HW234485   2.004   0.825  10.661  0.6227 -0.5287  0.6579
 7618SOL     OW34486   0.878   3.875  17.172  0.3060 -0.1287  0.4368
 7618SOL    HW134487   0.803   3.820  17.149  1.3796 -1.7960  0.9111
 7618SOL    HW234488   0.877   3.855  17.266  0.5544 -3.8592 -0.3586
 7619SOL     OW34489   0.530   3.589   2.828 -0.0879  0.3385  0.1959
 7619SOL    HW134490   0.624   3.606   2.821  0.1829 -0.0884  2.7132
 7619SOL    HW234491   0.532   3.511   2.885  0.0143  1.2543  1.4581
 7620SOL     OW34492   0.375   0.669  13.521  0.3806 -0.1032  0.2317
 7620SOL    HW134493   0.295   0.619  13.501 -0.1686  1.2971 -1.0938
 7620SOL    HW234494   0.371   0.734  13.451  0.8867 -1.0837 -0.7085
 7621SOL     OW34495   4.734   1.786   9.910 -0.4178 -0.1917 -0.0833
 7621SOL    HW134496   4.726   1.795  10.005 -0.5512 -1.5199  0.0224
 7621SOL    HW234497   0.061   1.849   9.887  0.4734 -0.8523  0.7362
 7622SOL     OW34498   0.172   4.162  14.078 -0.3317 -0.6745 -0.0693
 7622SOL    HW134499   0.153   4.104  14.004 -1.7130  0.5114 -0.6491
 7622SOL    HW234500   0.130   4.238  14.037  0.1046 -1.1352 -1.3558
 7623SOL     OW34501   3.289   4.600   5.393  0.1154  1.0613  0.4273
 7623SOL    HW134502   3.273   4.614   5.486  2.3161 -1.5809  1.1837
 7623SOL    HW234503   3.238   4.672   5.355 -3.3012 -2.3766 -1.4612
 7624SOL     OW34504   4.252   4.453   8.280  0.3421  0.0944 -0.6390
 7624SOL    HW134505   4.223   4.387   8.343  2.3952 -1.5453 -1.4010
 7624SOL    HW234506   4.318   4.489   8.340 -0.3077 -1.3479  0.9324
 7625SOL     OW34507   2.822   1.373   3.164  0.6914  0.5244  0.2799
 7625SOL    HW134508   2.862   1.299   3.210  3.1113  0.1686 -2.3977
 7625SOL    HW234509   2.779   1.321   3.096  2.5661  3.4538 -3.1354
 7626SOL     OW34510   0.512   2.475  11.560 -0.2983 -0.3198  0.1695
 7626SOL    HW134511   0.574   2.536  11.600 -0.9221  0.7162 -0.4453
 7626SOL    HW234512   0.449   2.459  11.630  0.0536  3.3060  1.2764
 7627SOL     OW34513   1.132   3.172  16.134 -0.0422 -0.3989 -0.1559
 7627SOL    HW134514   1.223   3.201  16.129 -0.2854 -0.0300 -2.4290
 7627SOL    HW234515   1.142   3.095  16.078  1.5181 -0.5222  0.3232
 7628SOL     OW34516   4.277   2.173   8.361 -0.0495 -0.3915  0.0788
 7628SOL    HW134517   4.218   2.105   8.329 -0.0833 -0.4050  0.1703
 7628SOL    HW234518   4.348   2.123   8.401  2.1801  1.9586 -0.9584
 7629SOL     OW34519   0.667   0.529   2.577 -0.4655  0.2243  0.3726
 7629SOL    HW134520   0.704   0.616   2.560 -1.8469  0.6943 -0.1716
 7629SOL    HW234521   0.573   0.541   2.588 -0.3928  1.7709 -0.7159
 7630SOL     OW34522   3.825   0.233   4.257 -0.3968 -0.3786 -0.4385
 7630SOL    HW134523   3.730   0.245   4.268 -0.2596 -0.0089  0.4017
 7630SOL    HW234524   3.863   0.223   4.345 -0.3344 -1.2736 -0.5665
 7631SOL     OW34525   1.749   4.269   0.430  0.4230  0.2511 -0.1630
 7631SOL    HW134526   1.838   4.239   0.413  0.0198 -1.2774  0.3836
 7631SOL    HW234527   1.778   4.346   0.478  0.5656  0.3211 -0.3644
 7632SOL     OW34528   2.440   2.907   9.525 -0.4107  0.1743  0.1193
 7632SOL    HW134529   2.355   2.897   9.483 -0.8782  3.3258  0.3322
 7632SOL    HW234530   2.493   2.843   9.477  0.4764 -0.2259  1.6524
 7633SOL     OW34531   3.204   3.351   6.653 -0.0108 -0.0684 -0.0412
 7633SOL    HW134532   3.144   3.424   6.665  0.5544  0.2138  1.1167
 7633SOL    HW234533   3.144   3.278   6.666 -0.7265  0.6188  0.5195
 7634SOL     OW34534   1.594   1.360   1.865  0.2748 -0.8558 -0.4946
 7634SOL    HW134535   1.658   1.407   1.919  1.4280 -1.3564 -1.4095
 7634SOL    HW234536   1.641   1.304   1.803 -0.4838 -3.5588  1.4063
 7635SOL     OW34537   4.271   1.397   3.359 -0.0035 -0.1947 -0.0530
 7635SOL    HW134538   4.205   1.456   3.322 -0.3675 -0.6432 -0.1129
 7635SOL    HW234539   4.293   1.434   3.445 -0.3670  2.8777 -1.2743
 7636SOL     OW34540   1.726   1.875   2.412 -0.2083  0.0187  0.3870
 7636SOL    HW134541   1.772   1.818   2.473 -0.9648  0.2135  1.1423
 7636SOL    HW234542   1.768   1.957   2.440 -1.3847  0.6351  0.3286
 7637SOL     OW34543   0.856   1.288   2.748  0.2297 -0.2587 -0.2685
 7637SOL    HW134544   0.943   1.300   2.710  1.2819 -1.9223  1.6139
 7637SOL    HW234545   0.852   1.379   2.778 -1.4915  0.0690 -1.4806
 7638SOL     OW34546   4.207   4.568   4.647 -0.1703 -0.1433 -0.1137
 7638SOL    HW134547   4.172   4.642   4.696  0.9761  0.5552 -0.3559
 7638SOL    HW234548   4.235   4.509   4.717 -1.9178  0.2243  0.9017
 7639SOL     OW34549   0.416   4.242   4.121  0.0255 -0.3475 -0.1432
 7639SOL    HW134550   0.386   4.319   4.073 -4.7864 -2.6964 -0.8321
 7639SOL    HW234551   0.422   4.171   4.057  3.6681 -0.0750 -0.1161
 7640SOL     OW34552   3.138   4.674   7.274  0.7370  0.2700  0.2046
 7640SOL    HW134553   3.199   4.601   7.286 -0.1777 -0.2846  1.3967
 7640SOL    HW234554   3.163   4.711   7.189 -1.3298 -0.9336 -0.9358
 7641SOL     OW34555   3.192   1.372   8.595  0.1608 -0.0185 -0.2138
 7641SOL    HW134556   3.114   1.403   8.642  0.7612  0.1967  0.6368
 7641SOL    HW234557   3.178   1.277   8.592 -0.0805  0.1602 -4.4605
 7642SOL     OW34558   1.734   0.650   5.392 -0.2128 -0.2972 -0.0741
 7642SOL    HW134559   1.791   0.641   5.468  2.1509 -0.6293 -1.8967
 7642SOL    HW234560   1.806   0.648   5.328 -0.3650 -2.3361 -0.1851
 7643SOL     OW34561   1.065   4.391  13.773  0.0053 -0.8898  0.4209
 7643SOL    HW134562   1.137   4.417  13.715 -1.7068 -0.4271 -1.4817
 7643SOL    HW234563   1.111   4.360  13.851  0.0251  0.6127  1.0235
 7644SOL     OW34564   0.419   2.248  12.253  0.0883 -0.4577 -0.1363
 7644SOL    HW134565   0.514   2.263  12.253  0.3573 -2.1370  0.0287
 7644SOL    HW234566   0.414   2.213  12.341  3.4248 -1.7732 -0.4506
 7645SOL     OW34567   0.001   4.633   2.296  0.0699 -0.0816 -0.1354
 7645SOL    HW134568   0.076   4.610   2.239 -0.1245 -0.8776 -0.0778
 7645SOL    HW234569   0.061   4.648   2.369  2.5996 -2.0763 -1.7563
 7646SOL     OW34570   0.690   1.705   3.452  0.1815 -0.4523 -0.1273
 7646SOL    HW134571   0.634   1.627   3.445 -0.2215 -0.2023  0.3349
 7646SOL    HW234572   0.622   1.764   3.485  1.7476  0.3634  1.6175
 7647SOL     OW34573   2.692   2.384   7.237 -0.2885 -0.4160  0.4365
 7647SOL    HW134574   2.756   2.316   7.256  0.6865 -0.5413 -3.3547
 7647SOL    HW234575   2.748   2.450   7.195  0.7417 -1.7771 -0.3265
 7648SOL     OW34576   1.875   3.404   6.916 -0.1119  0.3237 -0.3461
 7648SOL    HW134577   1.970   3.402   6.901 -0.1283 -0.5569 -0.3590
 7648SOL    HW234578   1.858   3.315   6.947  0.1270  1.1257  2.0688
 7649SOL     OW34579   0.227   2.381  10.130  0.0821 -0.0106 -0.6844
 7649SOL    HW134580   0.150   2.331  10.157  1.1903 -0.7032  1.1935
 7649SOL    HW234581   0.262   2.415  10.212 -0.7404 -0.2905 -0.2203
 7650SOL     OW34582   0.710   4.150  11.378 -0.4169 -0.1771  1.1008
 7650SOL    HW134583   0.672   4.138  11.466 -0.3791 -0.3912  1.0866
 7650SOL    HW234584   0.785   4.091  11.384  0.0467  0.2306 -0.6582
 7651SOL     OW34585   0.145   3.360   2.508  0.0916  0.3565 -0.4375
 7651SOL    HW134586   0.151   3.273   2.468  3.8539 -0.6257  2.2229
 7651SOL    HW234587   0.182   3.414   2.439 -0.8185  0.9974 -0.4272
 7652SOL     OW34588   2.287   2.924   4.447 -1.0091 -1.1702 -0.5313
 7652SOL    HW134589   2.280   2.900   4.540  1.5943 -1.0312 -0.2884
 7652SOL    HW234590   2.323   3.012   4.457 -1.1013 -0.9620 -2.0145
 7653SOL     OW34591   3.385   1.880   8.256 -0.3898  0.0290  0.6810
 7653SOL    HW134592   3.433   1.855   8.335  0.3754  0.7741  0.4586
 7653SOL    HW234593   3.372   1.974   8.270  0.8994  0.3764 -0.3805
 7654SOL     OW34594   2.815   2.188   3.432 -0.0362  0.1748  0.4794
 7654SOL    HW134595   2.889   2.245   3.452  1.2843 -0.6651 -2.0204
 7654SOL    HW234596   2.800   2.223   3.344  1.8729  1.5084  0.7088
 7655SOL     OW34597   1.300   2.885   5.366  0.4660 -0.3531 -0.1171
 7655SOL    HW134598   1.205   2.882   5.356  0.4012  1.4760 -0.1390
 7655SOL    HW234599   1.305   2.791   5.380  0.2887 -0.2805  0.4384
 7656SOL     OW34600   3.518   0.904   3.317 -0.3843 -0.0641 -0.0506
 7656SOL    HW134601   3.448   0.897   3.252  0.7092  0.7021 -1.2915
 7656SOL    HW234602   3.496   0.991   3.351 -2.8546 -0.0519 -1.6886
 7657SOL     OW34603   1.976   0.264  13.753 -0.2618  0.1944  0.0365
 7657SOL    HW134604   1.884   0.292  13.749 -0.4889 -0.3815  1.1540
 7657SOL    HW234605   2.010   0.330  13.813  0.4375 -1.4759  1.4914
 7658SOL     OW34606   2.245   1.175   3.374  0.3400 -0.5209 -0.5354
 7658SOL    HW134607   2.238   1.128   3.457  2.1299  1.2428  0.6284
 7658SOL    HW234608   2.334   1.213   3.370  0.2402 -0.0631  1.5536
 7659SOL     OW34609   4.338   1.928   7.398  0.4722 -0.2081 -0.6447
 7659SOL    HW134610   4.407   1.985   7.433 -0.7238  0.8457  0.0092
 7659SOL    HW234611   4.376   1.843   7.420 -0.7041 -0.6902 -0.4671
 7660SOL     OW34612   0.429   0.414  10.776  0.8744 -0.0129 -0.0105
 7660SOL    HW134613   0.513   0.378  10.804  0.7093  2.0474  3.2461
 7660SOL    HW234614   0.387   0.417  10.863 -0.6578  1.6792 -0.8170
 7661SOL     OW34615   1.813   0.711   2.788  0.2331  0.2978  0.6978
 7661SOL    HW134616   1.851   0.651   2.852  0.6172  1.5035  1.6095
 7661SOL    HW234617   1.766   0.772   2.845 -0.5876  2.3834 -2.1669
 7662SOL     OW34618   0.328   1.067   9.663  0.0285 -0.1600  0.0531
 7662SOL    HW134619   0.337   1.106   9.576 -0.3227 -2.3702 -0.9722
 7662SOL    HW234620   0.303   0.976   9.647 -0.9401 -0.1853  1.7005
 7663SOL     OW34621   3.041   0.351   9.196  0.3179  0.1526  0.2184
 7663SOL    HW134622   2.953   0.314   9.203  0.0639  0.2092 -2.8057
 7663SOL    HW234623   3.011   0.437   9.223 -1.1209  0.2993 -1.8183
 7664SOL     OW34624   2.476   4.584   0.047 -0.1625  0.6434  0.3848
 7664SOL    HW134625   2.385   4.573   0.020 -0.1495  3.1684 -0.7007
 7664SOL    HW234626   2.474   4.664   0.099 -0.4241 -0.7324  2.5039
 7665SOL     OW34627   2.544   0.654  15.637  0.4459 -0.3880  0.1450
 7665SOL    HW134628   2.481   0.641  15.566  2.8292 -1.8048 -1.7532
 7665SOL    HW234629   2.621   0.682  15.587 -0.3873  0.8147 -0.4523
 7666SOL     OW34630   2.469   3.161   5.995 -0.3340  0.3412  0.2299
 7666SOL    HW134631   2.442   3.234   5.940  0.5380  0.0597 -0.5667
 7666SOL    HW234632   2.558   3.183   6.024 -0.1947 -2.7407  2.2518
 7667SOL     OW34633   2.390   0.800  11.487 -0.3438  0.2376  0.3533
 7667SOL    HW134634   2.458   0.821  11.552  0.7191  0.7014 -0.9086
 7667SOL    HW234635   2.376   0.706  11.502  2.2051 -0.4311 -1.4792
 7668SOL     OW34636   0.592   2.688   4.431  0.1040  0.2134  0.3206
 7668SOL    HW134637   0.675   2.694   4.384  0.2906 -2.6535  0.2908
 7668SOL    HW234638   0.612   2.719   4.520  1.4202 -0.0434  0.1066
 7669SOL     OW34639   4.534   0.149   3.161 -0.3363 -0.7188 -0.5394
 7669SOL    HW134640   4.462   0.120   3.217  0.4088 -0.7502  0.4042
 7669SOL    HW234641   4.579   0.068   3.138 -0.9888 -0.7580 -1.6808
 7670SOL     OW34642   3.483   0.286   8.481  0.1153  0.2024 -0.1546
 7670SOL    HW134643   3.418   0.238   8.431  0.2315  2.1964 -2.2024
 7670SOL    HW234644   3.448   0.375   8.485 -1.5767 -0.4396 -1.0208
 7671SOL     OW34645   2.408   1.416  14.893  0.2517 -0.0621  0.1310
 7671SOL    HW134646   2.342   1.404  14.961  2.2078 -0.7996  1.8746
 7671SOL    HW234647   2.379   1.351  14.829 -2.6674  0.5769  0.7743
 7672SOL     OW34648   1.229   2.817   4.551  0.0002  0.4254  0.0007
 7672SOL    HW134649   1.195   2.804   4.462  0.9620 -0.8670 -0.1751
 7672SOL    HW234650   1.304   2.759   4.540  0.6488  1.0823  0.9900
 7673SOL     OW34651   3.553   2.197   5.995  0.4837  0.2488  0.2248
 7673SOL    HW134652   3.561   2.244   6.077  0.6942  0.2786  0.1874
 7673SOL    HW234653   3.634   2.145   5.992  0.1182 -0.3105 -0.0694
 7674SOL     OW34654   1.540   4.521   6.848  0.2614 -0.2155  0.1029
 7674SOL    HW134655   1.552   4.559   6.762  1.4847  0.3548  0.5273
 7674SOL    HW234656   1.496   4.595   6.890 -0.7028  0.1575 -1.5527
 7675SOL     OW34657   4.411   2.531   2.462 -0.4712 -0.0182 -0.3474
 7675SOL    HW134658   4.433   2.610   2.513  0.3807 -0.5312  0.0860
 7675SOL    HW234659   4.441   2.463   2.522  0.9932 -0.4754 -1.5898
 7676SOL     OW34660   1.701   2.992   3.346 -0.1123 -0.0368  0.3931
 7676SOL    HW134661   1.791   2.997   3.377 -0.4424 -0.7587  1.4618
 7676SOL    HW234662   1.683   3.080   3.313  1.0829  0.2495  0.4949
 7677SOL     OW34663   2.085   0.867   0.464  0.0271 -0.3739 -0.2542
 7677SOL    HW134664   2.162   0.844   0.412 -0.5751 -1.1661 -0.7785
 7677SOL    HW234665   2.119   0.892   0.550 -1.5458  2.4206 -0.4399
 7678SOL     OW34666   1.305   0.323   1.532 -0.0792  0.5787 -0.1719
 7678SOL    HW134667   1.365   0.329   1.606 -1.0401 -2.2171  0.8475
 7678SOL    HW234668   1.222   0.336   1.577 -0.0481 -0.4632  0.2008
 7679SOL     OW34669   4.153   2.318   4.636  0.2597  0.3982  0.2079
 7679SOL    HW134670   4.121   2.228   4.643 -2.9573  1.5816  0.6889
 7679SOL    HW234671   4.247   2.313   4.654  0.1738  1.2313  0.8724
 7680SOL     OW34672   1.410   1.362   3.498 -0.0890 -0.4860 -0.1995
 7680SOL    HW134673   1.478   1.429   3.509  0.0483 -0.8747  1.2975
 7680SOL    HW234674   1.422   1.343   3.405  0.4694 -1.1813  0.0165
 7681SOL     OW34675   0.454   4.654   4.270 -0.0812 -0.6977 -0.1760
 7681SOL    HW134676   0.497   4.713   4.208 -0.5171 -1.1019 -0.8735
 7681SOL    HW234677   0.453   4.692   4.357  0.8925  0.4432 -0.6671
 7682SOL     OW34678   4.064   3.393   1.739  0.1454 -0.0421  0.4148
 7682SOL    HW134679   4.077   3.303   1.769 -1.8528 -0.0992  1.1316
 7682SOL    HW234680   4.068   3.376   1.645 -0.0776  1.1997  0.1829
 7683SOL     OW34681   0.564   1.035  14.414  0.5220  0.1877  0.3443
 7683SOL    HW134682   0.531   0.946  14.427 -0.4128  0.3903 -0.7297
 7683SOL    HW234683   0.495   1.085  14.458 -0.0133  0.2602 -0.5958
 7684SOL     OW34684   3.490   0.762   5.642  0.0079 -0.4490 -0.3408
 7684SOL    HW134685   3.423   0.745   5.709  0.8549  2.4185  1.2227
 7684SOL    HW234686   3.532   0.678   5.622  1.4608  0.1452  0.1438
 7685SOL     OW34687   4.016   2.238   7.406  0.3621  0.1019 -0.6680
 7685SOL    HW134688   4.106   2.241   7.436  0.3032 -0.9757 -0.3863
 7685SOL    HW234689   3.978   2.168   7.458 -1.9601 -0.0500 -2.5156
 7686SOL     OW34690   3.586   0.293  13.006  0.7066 -0.0069 -0.1852
 7686SOL    HW134691   3.642   0.223  12.972  0.3810 -0.4019  0.0889
 7686SOL    HW234692   3.558   0.266  13.093 -0.3728  0.3615 -0.4201
 7687SOL     OW34693   1.755   3.621   4.113 -0.4228  0.1071  0.0966
 7687SOL    HW134694   1.774   3.657   4.199 -0.0656 -0.2574  0.1682
 7687SOL    HW234695   1.791   3.532   4.119  0.2461  0.4398  0.9935
 7688SOL     OW34696   0.791   4.408   4.250 -0.5002 -0.2696  0.2107
 7688SOL    HW134697   0.721   4.352   4.283  1.9323 -1.9033  2.7174
 7688SOL    HW234698   0.751   4.467   4.186 -0.1718  3.1344  3.1298
 7689SOL     OW34699   3.456   3.501   6.321 -0.1371  0.4072  0.1746
 7689SOL    HW134700   3.413   3.430   6.367  1.4338  0.5935  1.9449
 7689SOL    HW234701   3.388   3.560   6.351 -0.9604  0.2628 -1.3995
 7690SOL     OW34702   1.624   4.054   2.715 -0.5989  0.1020  0.1692
 7690SOL    HW134703   1.531   4.061   2.735 -0.5222  0.4465  0.4087
 7690SOL    HW234704   1.655   3.995   2.784 -1.0700  1.7195  1.7596
 7691SOL     OW34705   1.113   0.292   3.816 -0.3152  0.3842 -0.5425
 7691SOL    HW134706   1.206   0.306   3.796 -0.7941  2.1486 -1.5764
 7691SOL    HW234707   1.079   0.382   3.819 -2.3480 -0.4695  1.2909
 7692SOL     OW34708   2.521   3.905  13.960 -0.2219  0.0153 -0.0862
 7692SOL    HW134709   2.446   3.872  13.911 -1.9932  1.5549  1.6013
 7692SOL    HW234710   2.486   3.982  14.004  2.0294  2.5100 -2.6716
 7693SOL     OW34711   4.464   4.355   1.648 -1.0055  0.6911 -0.3643
 7693SOL    HW134712   4.370   4.362   1.637 -1.4254 -1.0147  2.1688
 7693SOL    HW234713   4.469   4.373   1.742  0.1334 -1.1195 -0.0687
 7694SOL     OW34714   2.050   2.524   1.578  0.2026  0.0469 -0.6251
 7694SOL    HW134715   2.042   2.514   1.484 -1.9962 -1.1772 -0.2955
 7694SOL    HW234716   2.116   2.593   1.584  2.8612 -2.5357 -0.0352
 7695SOL     OW34717   4.349   3.754   4.833 -0.3544  0.1025 -0.0077
 7695SOL    HW134718   4.270   3.808   4.834 -0.3998 -0.0140  2.4869
 7695SOL    HW234719   4.354   3.721   4.743  2.0791 -2.6650  1.1751
 7696SOL     OW34720   2.876   0.402   2.557 -0.1739 -0.0954  0.4031
 7696SOL    HW134721   2.865   0.471   2.492 -1.9821  0.0028  0.7897
 7696SOL    HW234722   2.808   0.418   2.623  1.2914  1.7708  1.4317
 7697SOL     OW34723   1.567   2.622   6.207 -0.0150 -0.4857  0.3429
 7697SOL    HW134724   1.525   2.706   6.227  0.5202 -0.0876 -0.1764
 7697SOL    HW234725   1.560   2.632   6.112 -3.5288 -0.4929  0.6269
 7698SOL     OW34726   0.058   2.423   3.340  0.4424  0.3010 -0.6731
 7698SOL    HW134727   0.072   2.458   3.428  0.7853  1.4916 -1.2043
 7698SOL    HW234728   4.706   2.437   3.324 -0.4511 -4.2903  0.3603
 7699SOL     OW34729   0.020   2.918   8.111 -0.1133  0.4128  0.1127
 7699SOL    HW134730   4.709   2.999   8.118  0.7798  0.9071  0.9720
 7699SOL    HW234731   0.107   2.956   8.126  1.1131 -3.0541  1.5643
 7700SOL     OW34732   2.540   0.665  14.599 -0.0968 -0.0530  0.0165
 7700SOL    HW134733   2.466   0.708  14.642 -1.1327 -0.4278 -1.3869
 7700SOL    HW234734   2.568   0.734  14.539 -1.3425 -0.6314 -1.2269
 7701SOL     OW34735   4.405   2.361   5.415 -0.1288 -0.1934  0.3606
 7701SOL    HW134736   4.403   2.455   5.395  0.1797 -0.3158 -0.2359
 7701SOL    HW234737   4.400   2.332   5.324 -0.6776 -0.1478  0.3761
 7702SOL     OW34738   3.107   1.531  10.152 -0.1872  0.3217 -0.1678
 7702SOL    HW134739   3.082   1.450  10.108 -0.5031  1.0186 -1.2687
 7702SOL    HW234740   3.192   1.502  10.185 -0.8920 -0.6492  0.8009
 7703SOL     OW34741   4.241   3.477   9.631 -0.2551  0.2757  0.3258
 7703SOL    HW134742   4.201   3.462   9.545  1.0011  0.4957 -0.3006
 7703SOL    HW234743   4.332   3.452   9.612 -1.2994 -3.5746  0.4837
 7704SOL     OW34744   1.542   1.218  10.130  0.3398  0.3760 -0.0591
 7704SOL    HW134745   1.502   1.292  10.085 -0.4930 -0.6738 -1.0468
 7704SOL    HW234746   1.501   1.152  10.074  0.7023 -0.0701  0.2007
 7705SOL     OW34747   4.350   0.261   1.101 -0.0281  0.3653  0.0291
 7705SOL    HW134748   4.327   0.190   1.041 -1.2274  1.3565 -0.6693
 7705SOL    HW234749   4.445   0.259   1.110 -0.2109  0.1136  1.9335
 7706SOL     OW34750   2.393   4.147   2.109 -0.1985 -0.1562  0.2249
 7706SOL    HW134751   2.393   4.094   2.188  1.5491  1.6926  1.4533
 7706SOL    HW234752   2.330   4.094   2.060 -0.8021  0.1978  0.6250
 7707SOL     OW34753   2.656   3.713   1.278  0.2757  0.0019 -0.0637
 7707SOL    HW134754   2.667   3.803   1.308  2.0488 -0.5276  0.9202
 7707SOL    HW234755   2.561   3.705   1.283  0.0773  1.7584 -1.3804
 7708SOL     OW34756   2.587   3.920   8.468  0.1802  0.4092  0.2987
 7708SOL    HW134757   2.583   4.015   8.470  0.0246  0.3934  0.6849
 7708SOL    HW234758   2.668   3.903   8.420  0.1072  1.2585 -0.1169
 7709SOL     OW34759   1.302   0.809  11.189  0.4966  0.3790 -0.2536
 7709SOL    HW134760   1.236   0.873  11.165  0.4494  0.0551 -0.9940
 7709SOL    HW234761   1.342   0.846  11.267  0.4981  0.8241 -0.4635
 7710SOL     OW34762   4.263   0.002   7.034 -0.1453  0.9442  0.0272
 7710SOL    HW134763   4.336   4.712   7.088 -1.1680 -1.1019  0.2543
 7710SOL    HW234764   4.222   0.063   7.095  1.7690  0.9511  1.3198
 7711SOL     OW34765   1.672   1.823   7.524 -0.3373 -0.1045  0.1053
 7711SOL    HW134766   1.587   1.867   7.515 -1.4555 -2.1220  0.7658
 7711SOL    HW234767   1.673   1.782   7.611 -1.3427 -2.2566 -0.8761
 7712SOL     OW34768   2.184   2.803  12.573 -0.4182 -0.0818  0.5979
 7712SOL    HW134769   2.094   2.796  12.603 -0.7169 -0.2469 -0.3524
 7712SOL    HW234770   2.189   2.898  12.558 -1.7068 -0.1613 -0.3306
 7713SOL     OW34771   2.498   0.071   7.389  0.2123  0.0740 -0.3253
 7713SOL    HW134772   2.458   4.726   7.372 -1.9514  1.2130 -1.0141
 7713SOL    HW234773   2.578   0.052   7.341 -1.3358  0.7278 -3.1547
 7714SOL     OW34774   4.684   0.566   2.768 -0.1992 -0.9920  0.6495
 7714SOL    HW134775   0.034   0.575   2.798 -0.2838  2.3369 -0.0292
 7714SOL    HW234776   4.647   0.501   2.828  2.8673 -3.4444 -0.1422
 7715SOL     OW34777   4.419   0.310   6.324  0.1161  0.4392 -0.7799
 7715SOL    HW134778   4.426   0.246   6.396  1.0334  0.3840 -0.9093
 7715SOL    HW234779   4.339   0.358   6.343 -1.7916 -1.6895 -3.4777
 7716SOL     OW34780   1.219   2.161  10.192 -0.1654 -0.0523 -0.2430
 7716SOL    HW134781   1.159   2.123  10.256  1.5254 -0.0725  1.3373
 7716SOL    HW234782   1.182   2.140  10.106 -2.7689  1.1865  0.5589
 7717SOL     OW34783   4.283   3.248   2.276  0.1464  0.0791  0.4452
 7717SOL    HW134784   4.297   3.304   2.199 -2.2023 -1.6506 -1.2301
 7717SOL    HW234785   4.188   3.237   2.271  0.0228  1.4944 -0.4738
 7718SOL     OW34786   0.227   0.749   2.905  0.7424 -0.0275  0.0847
 7718SOL    HW134787   0.209   0.655   2.911  1.4195 -0.2319 -1.1886
 7718SOL    HW234788   0.284   0.758   2.982 -1.2385 -0.0401  1.5351
 7719SOL     OW34789   2.912   3.928   7.885 -0.0898 -0.3794  0.3597
 7719SOL    HW134790   2.862   3.851   7.914 -0.0752 -0.8806 -0.9875
 7719SOL    HW234791   2.864   4.004   7.918 -0.3555  0.2140 -1.4350
 7720SOL     OW34792   2.540   2.932  11.581  0.0459 -0.2038  0.0304
 7720SOL    HW134793   2.575   2.896  11.499 -1.3669  1.4872 -1.3197
 7720SOL    HW234794   2.523   3.021  11.550 -0.0708 -0.2538 -0.0447
 7721SOL     OW34795   2.301   2.215   8.908  0.8620 -0.1633 -0.9370
 7721SOL    HW134796   2.295   2.157   8.832  1.5118 -0.7831 -0.5199
 7721SOL    HW234797   2.221   2.266   8.900 -0.2476 -1.6795  0.4238
 7722SOL     OW34798   3.665   3.791   5.887  0.6619 -0.1181 -0.0108
 7722SOL    HW134799   3.759   3.785   5.907  0.1694 -1.5238  1.8050
 7722SOL    HW234800   3.627   3.739   5.957 -0.0924 -2.2547 -2.0081
 7723SOL     OW34801   1.908   3.497   5.696 -0.7974  0.3290 -0.3547
 7723SOL    HW134802   1.931   3.577   5.742  0.5303  0.7172 -1.6930
 7723SOL    HW234803   1.949   3.521   5.613 -0.4396  2.1361  0.3479
 7724SOL     OW34804   4.646   3.837   8.286 -0.4790 -0.0707  0.3805
 7724SOL    HW134805   4.689   3.800   8.209 -1.5989 -1.8040  0.5800
 7724SOL    HW234806   4.557   3.830   8.250  0.6513  1.3504 -2.6572
 7725SOL     OW34807   3.124   0.310   8.349  0.0781 -0.0768  0.4091
 7725SOL    HW134808   3.066   0.282   8.420 -2.0618  3.0253 -0.1321
 7725SOL    HW234809   3.119   0.404   8.363  2.9944  0.3688 -1.4847
 7726SOL     OW34810   3.937   4.382  13.022  0.3541 -0.3672 -0.0347
 7726SOL    HW134811   3.992   4.460  13.013  3.4298 -2.3381  1.8510
 7726SOL    HW234812   3.859   4.427  12.988  1.6339  0.7503 -1.4860
 7727SOL     OW34813   4.286   1.451   7.433 -0.1382  0.4315 -0.0841
 7727SOL    HW134814   4.303   1.380   7.371 -0.2619  0.9050 -0.6557
 7727SOL    HW234815   4.210   1.482   7.385 -0.4325 -0.1237  0.0273
 7728SOL     OW34816   2.441   0.997   2.940  0.0078  0.5700 -0.0724
 7728SOL    HW134817   2.469   0.942   3.013  2.3024 -0.3078 -1.6451
 7728SOL    HW234818   2.354   1.028   2.967 -0.1444  0.2708 -0.2238
 7729SOL     OW34819   1.619   3.813   4.688 -0.2829 -0.8832 -0.4747
 7729SOL    HW134820   1.571   3.872   4.630  0.3162  0.1131  0.0488
 7729SOL    HW234821   1.612   3.861   4.771 -0.8404 -1.8756  0.0492
 7730SOL     OW34822   0.347   2.859  13.834  0.0768  0.1467  0.6699
 7730SOL    HW134823   0.270   2.825  13.788 -0.3845  0.8816  0.8982
 7730SOL    HW234824   0.358   2.926  13.767 -1.9323 -0.5385 -0.3426
 7731SOL     OW34825   4.154   1.350   1.527 -0.2289 -0.2411 -0.4547
 7731SOL    HW134826   4.085   1.370   1.591 -0.7186 -1.3314 -0.6507
 7731SOL    HW234827   4.138   1.261   1.496  0.5384  0.2056 -2.1387
 7732SOL     OW34828   3.869   0.917   5.279  0.0182  0.5410 -0.0093
 7732SOL    HW134829   3.837   0.868   5.354 -0.7150  0.2585 -0.5053
 7732SOL    HW234830   3.817   0.997   5.282 -0.4555  0.1920  0.8481
 7733SOL     OW34831   0.513   1.838   1.813 -0.0396 -0.4602 -0.2112
 7733SOL    HW134832   0.572   1.818   1.886 -0.4230  0.2272  0.2970
 7733SOL    HW234833   0.514   1.934   1.815  1.1999 -0.4723 -0.9677
 7734SOL     OW34834   1.352   2.381  12.904 -0.1350  0.0597  0.3319
 7734SOL    HW134835   1.277   2.435  12.930 -0.3020 -1.1168  2.2958
 7734SOL    HW234836   1.334   2.290  12.927  2.2427 -0.5326 -0.1807
 7735SOL     OW34837   3.142   2.811   6.679 -0.1666  0.3875  0.2905
 7735SOL    HW134838   3.137   2.716   6.684  0.8269  0.3411  0.4776
 7735SOL    HW234839   3.062   2.847   6.716 -1.2955 -2.0234  0.1490
 7736SOL     OW34840   1.377   1.946   7.031  0.1385 -0.1053 -0.1695
 7736SOL    HW134841   1.322   2.016   7.067 -1.0257 -1.5655  0.9257
 7736SOL    HW234842   1.382   1.986   6.944 -0.8928  0.5976  0.0853
 7737SOL     OW34843   3.806   2.115   5.880 -0.2211  0.2265 -0.3764
 7737SOL    HW134844   3.898   2.090   5.875 -0.3797 -0.0625 -1.8517
 7737SOL    HW234845   3.785   2.170   5.804 -0.7439  1.2899  0.5216
 7738SOL     OW34846   1.309   1.853   4.044 -0.0195  0.2712  0.8714
 7738SOL    HW134847   1.311   1.814   4.131  1.3384  2.4612  1.8189
 7738SOL    HW234848   1.240   1.918   4.055  0.4881  0.8227  0.7478
 7739SOL     OW34849   0.355   2.843   2.466 -0.5721  0.4585 -0.2540
 7739SOL    HW134850   0.347   2.765   2.521 -0.0671  0.0571 -0.7503
 7739SOL    HW234851   0.374   2.909   2.533  1.6493 -1.3720  0.9333
 7740SOL     OW34852   0.381   2.205   4.673 -0.0011 -0.0435 -0.0866
 7740SOL    HW134853   0.293   2.233   4.649  0.4646 -0.3984 -2.2616
 7740SOL    HW234854   0.356   2.159   4.753 -0.0569  0.7222  0.3365
 7741SOL     OW34855   1.790   0.433   7.029 -0.1289  0.0700 -0.1384
 7741SOL    HW134856   1.825   0.449   6.942 -1.0896  1.3292 -0.2877
 7741SOL    HW234857   1.815   0.343   7.053  0.6505  0.9003  2.2022
 7742SOL     OW34858   1.689   4.603   5.131 -0.3189  0.2139 -0.6344
 7742SOL    HW134859   1.724   4.680   5.086  0.5625  1.3855  2.0499
 7742SOL    HW234860   1.768   4.569   5.173 -0.5873  2.3552  1.6454
 7743SOL     OW34861   3.097   0.798  16.106  0.3992  0.0950 -0.1570
 7743SOL    HW134862   3.156   0.815  16.180  0.3868 -1.5573  0.2305
 7743SOL    HW234863   3.161   0.822  16.040 -0.7129  2.4310 -0.3734
 7744SOL     OW34864   0.640   1.721   7.706  0.2006  0.1810 -0.3155
 7744SOL    HW134865   0.603   1.769   7.780 -0.0630  0.1340 -0.4163
 7744SOL    HW234866   0.713   1.772   7.673  0.4838  0.8790  1.3859
 7745SOL     OW34867   2.655   4.375  15.678 -0.4793  0.7919  0.0573
 7745SOL    HW134868   2.720   4.380  15.748 -0.9937  1.5513  0.4779
 7745SOL    HW234869   2.712   4.392  15.603  0.5592 -0.4856  0.5573
 7746SOL     OW34870   2.693   3.049   3.706 -0.5715  0.2280 -0.1378
 7746SOL    HW134871   2.671   2.957   3.718  0.0560  0.0656 -0.2150
 7746SOL    HW234872   2.641   3.091   3.774 -0.1793 -2.0943  1.6108
 7747SOL     OW34873   1.384   2.111   3.136 -0.5449  0.6936 -0.2004
 7747SOL    HW134874   1.435   2.138   3.212 -1.3723 -0.9928  0.9655
 7747SOL    HW234875   1.324   2.056   3.186  1.1235  0.3579  1.4654
 7748SOL     OW34876   3.515   2.938   6.863 -0.2715  0.0489  0.2737
 7748SOL    HW134877   3.587   2.970   6.808  0.3987 -0.2636  0.9701
 7748SOL    HW234878   3.440   2.971   6.813  1.1315  2.1943 -0.4256
 7749SOL     OW34879   4.275   2.056  11.301  0.1516  0.0842 -0.8130
 7749SOL    HW134880   4.280   2.106  11.382 -0.9910  0.2821 -0.8683
 7749SOL    HW234881   4.181   2.058  11.283 -0.3553 -2.0450  1.5132
 7750SOL     OW34882   3.265   1.332   4.306 -0.0416 -0.1960 -0.0045
 7750SOL    HW134883   3.233   1.352   4.395  1.3254 -2.6165  1.0303
 7750SOL    HW234884   3.291   1.241   4.322  1.1117 -0.0272 -0.9969
 7751SOL     OW34885   0.783   1.666   8.066 -0.4382 -0.3651 -0.0190
 7751SOL    HW134886   0.856   1.720   8.098 -0.3197 -1.8647  2.2042
 7751SOL    HW234887   0.725   1.661   8.142 -0.9965 -0.5777 -0.4600
 7752SOL     OW34888   0.935   4.705   3.962 -0.1024 -0.5165 -0.0825
 7752SOL    HW134889   0.887   0.047   3.971  0.4820 -0.4258  2.1260
 7752SOL    HW234890   0.905   4.663   4.042  4.3913 -0.7748  1.4674
 7753SOL     OW34891   0.575   2.461   4.955 -0.4123 -1.1446 -0.3551
 7753SOL    HW134892   0.650   2.518   4.972 -0.9923 -0.7556  0.9058
 7753SOL    HW234893   0.585   2.456   4.860 -1.1233 -1.7229 -0.3959
 7754SOL     OW34894   1.469   0.032   3.139 -0.3139 -0.0216 -0.1204
 7754SOL    HW134895   1.479   0.104   3.202 -0.2727 -2.6434  2.8272
 7754SOL    HW234896   1.521   4.700   3.173 -0.1050 -0.4530 -1.3787
 7755SOL     OW34897   0.641   0.722   1.497 -0.0547  0.7684  0.6010
 7755SOL    HW134898   0.558   0.737   1.451  0.3565  0.0608 -0.3835
 7755SOL    HW234899   0.694   0.796   1.466  1.1290  0.3471  1.6255
 7756SOL     OW34900   0.284   2.159   2.127 -0.3540 -0.2196  0.0307
 7756SOL    HW134901   0.278   2.104   2.049 -0.5177  1.8552 -1.4243
 7756SOL    HW234902   0.276   2.242   2.079 -0.2736 -0.9629 -1.2615
 7757SOL     OW34903   1.358   2.303  15.873 -0.3823 -0.5716 -0.3758
 7757SOL    HW134904   1.365   2.305  15.777 -2.3453  2.5032 -0.4479
 7757SOL    HW234905   1.307   2.383  15.887 -0.8775 -1.1322  1.0267
 7758SOL     OW34906   4.649   2.732  13.815  0.5529 -0.0806  0.3763
 7758SOL    HW134907   4.573   2.690  13.853 -0.1966  2.8693  2.0939
 7758SOL    HW234908   4.684   2.657  13.766  2.0431  0.3237  0.8245
 7759SOL     OW34909   1.269   4.559  11.510  0.0323 -0.1462  0.0829
 7759SOL    HW134910   1.199   4.494  11.507 -1.0551  1.0248  0.0700
 7759SOL    HW234911   1.220   4.635  11.480 -0.5427  0.2159  1.9387
 7760SOL     OW34912   2.246   3.323   7.810 -0.0465  0.2533 -0.3877
 7760SOL    HW134913   2.234   3.406   7.854  1.3323  1.7466 -2.8343
 7760SOL    HW234914   2.195   3.261   7.863 -2.5269  1.2140 -1.6692
 7761SOL     OW34915   3.572   3.337   3.848 -0.2005  0.2956 -0.3564
 7761SOL    HW134916   3.567   3.391   3.770 -2.2640 -0.6664 -0.9140
 7761SOL    HW234917   3.573   3.404   3.916 -2.7797  1.4241 -1.4090
 7762SOL     OW34918   0.044   4.039   7.129 -0.3235  0.2708 -0.7220
 7762SOL    HW134919   4.736   3.977   7.183 -1.4506  0.6916 -1.2486
 7762SOL    HW234920   4.716   4.094   7.090 -1.3508 -0.8500 -0.4980
 7763SOL     OW34921   1.474   2.622   4.509 -0.0611 -0.1435  0.3473
 7763SOL    HW134922   1.437   2.536   4.492  0.2097 -0.0668 -0.6057
 7763SOL    HW234923   1.542   2.626   4.442 -1.1341  0.2580 -0.7217
 7764SOL     OW34924   1.858   0.208   7.142  0.3863  0.5565  0.4775
 7764SOL    HW134925   1.837   0.160   7.221  0.9773 -0.7673 -0.1591
 7764SOL    HW234926   1.948   0.180   7.126  0.6876  0.4651  2.3680
 7765SOL     OW34927   3.067   1.047   4.497 -0.2491  0.4863  0.1195
 7765SOL    HW134928   3.155   1.058   4.462  0.3416  1.0338  1.7683
 7765SOL    HW234929   3.069   0.957   4.530  0.9046 -0.6608 -3.1780
 7766SOL     OW34930   1.605   1.936   6.403 -0.9219 -0.3176 -0.1475
 7766SOL    HW134931   1.671   1.986   6.354  0.5102 -2.2514 -0.2007
 7766SOL    HW234932   1.529   1.937   6.344 -1.8171 -1.5651  1.0055
 7767SOL     OW34933   1.706   4.414   4.654  0.3129 -0.2048 -0.6101
 7767SOL    HW134934   1.762   4.460   4.592  2.9373 -1.5488  0.7746
 7767SOL    HW234935   1.750   4.445   4.734 -1.2165 -0.1374  0.2143
 7768SOL     OW34936   0.250   1.522   8.355  0.3616 -0.5045  0.2125
 7768SOL    HW134937   0.303   1.457   8.309  0.4968 -0.4032  0.2258
 7768SOL    HW234938   0.251   1.478   8.440  2.1963  2.4132  1.6896
 7769SOL     OW34939   2.904   4.169  15.026 -0.4193  0.1824  0.0261
 7769SOL    HW134940   2.818   4.155  15.068  0.4688 -0.0093  1.7844
 7769SOL    HW234941   2.915   4.264  15.021  1.4438 -0.0654 -0.3315
 7770SOL     OW34942   2.475   1.577   4.568  0.4134 -0.3672  0.0576
 7770SOL    HW134943   2.536   1.641   4.530 -0.6969  0.3119 -0.5976
 7770SOL    HW234944   2.397   1.602   4.518  0.6760 -0.5804 -0.4592
 7771SOL     OW34945   3.500   4.028   5.888 -0.2506  0.2956  0.0135
 7771SOL    HW134946   3.560   3.971   5.936  0.4013  0.1871 -0.9394
 7771SOL    HW234947   3.410   4.011   5.918 -0.7764  2.3205 -0.4420
 7772SOL     OW34948   3.910   4.422   7.479  0.1120  0.1262  0.1553
 7772SOL    HW134949   3.961   4.445   7.556 -3.4554  2.0164  1.9420
 7772SOL    HW234950   3.895   4.329   7.495  0.8374  0.0482  0.3930
 7773SOL     OW34951   2.133   2.511   8.092  0.1476  0.1405  0.1959
 7773SOL    HW134952   2.111   2.424   8.126 -1.1795 -0.0018 -1.0701
 7773SOL    HW234953   2.116   2.573   8.163 -2.5748 -1.4470  0.9276
 7774SOL     OW34954   3.343   2.496   9.884 -0.4032  0.2842  0.2475
 7774SOL    HW134955   3.433   2.482   9.857  0.2939  0.8855  2.2688
 7774SOL    HW234956   3.309   2.407   9.871  2.6633 -0.4785 -2.4059
 7775SOL     OW34957   2.931   4.081   8.536  1.0137  0.0982 -0.1595
 7775SOL    HW134958   2.989   4.151   8.565 -0.6233  0.3059  2.6220
 7775SOL    HW234959   2.843   4.098   8.569  0.6719 -3.1445  0.5338
 7776SOL     OW34960   2.907   2.096   6.099 -0.3228 -0.6247 -0.0054
 7776SOL    HW134961   2.920   2.191   6.091 -0.1775 -0.5188  1.5247
 7776SOL    HW234962   2.908   2.074   6.006  0.6183  0.9270 -0.3700
 7777SOL     OW34963   4.502   3.270   9.804  0.1747  0.1566 -0.0304
 7777SOL    HW134964   4.560   3.207   9.848 -0.2141  0.5692  1.0876
 7777SOL    HW234965   4.553   3.346   9.778  1.7444 -0.0613  2.4303
 7778SOL     OW34966   3.795   0.372  15.089 -0.6043  0.4415  0.3201
 7778SOL    HW134967   3.830   0.404  15.006 -3.3506 -0.4721 -1.2267
 7778SOL    HW234968   3.830   0.433  15.154 -0.9517  0.3809  0.5688
 7779SOL     OW34969   0.690   1.955   5.666  0.3956  0.3610  0.0251
 7779SOL    HW134970   0.683   1.861   5.653  2.8322  0.0639  0.7668
 7779SOL    HW234971   0.783   1.975   5.679  0.6675 -1.0980  0.2213
 7780SOL     OW34972   4.449   0.688   4.932 -0.4481  0.4522 -0.4805
 7780SOL    HW134973   4.404   0.755   4.982  0.4680  0.2407  0.6172
 7780SOL    HW234974   4.386   0.675   4.861 -0.8647 -1.5443  0.2378
 7781SOL     OW34975   0.751   3.822   6.105  0.0351  0.0511 -0.0973
 7781SOL    HW134976   0.820   3.876   6.144  1.3112 -1.2016 -0.6336
 7781SOL    HW234977   0.782   3.820   6.015  1.8594  0.4250  0.5172
 7782SOL     OW34978   0.724   0.340   8.630 -0.0767  0.1600  0.0190
 7782SOL    HW134979   0.726   0.281   8.705  1.8533  1.3084  0.8754
 7782SOL    HW234980   0.675   0.413   8.668 -0.2356 -1.0298  2.0556
 7783SOL     OW34981   2.146   3.995   1.988 -0.8390  0.3244 -0.1400
 7783SOL    HW134982   2.211   3.966   1.924 -0.0702 -0.0653  0.8156
 7783SOL    HW234983   2.064   3.956   1.957  0.4594 -1.9621 -0.7291
 7784SOL     OW34984   3.768   3.514   1.551 -0.1684  0.8729 -0.2964
 7784SOL    HW134985   3.712   3.456   1.499  2.0083 -0.6079 -1.0049
 7784SOL    HW234986   3.838   3.450   1.567 -0.7014  0.1908 -0.6941
 7785SOL     OW34987   2.658   0.427   1.030 -0.1684  0.4426 -0.0660
 7785SOL    HW134988   2.629   0.370   0.958  0.7005  1.3247 -1.1196
 7785SOL    HW234989   2.662   0.366   1.104  0.2917  1.7154  0.9541
 7786SOL     OW34990   0.233   0.019   2.011 -0.1395 -0.1517 -0.6515
 7786SOL    HW134991   0.172   0.074   2.059 -2.1575 -2.0662 -1.0113
 7786SOL    HW234992   0.222   4.674   2.051 -0.7397  0.9806  1.5761
 7787SOL     OW34993   2.776   2.067   9.097  0.3447 -0.0127  0.9010
 7787SOL    HW134994   2.841   2.137   9.099 -0.0764  0.5107 -3.0786
 7787SOL    HW234995   2.700   2.125   9.103 -1.6101 -2.5414  0.6667
 7788SOL     OW34996   3.170   2.728   9.452  0.6331  0.6604 -0.5733
 7788SOL    HW134997   3.197   2.637   9.467 -1.1997 -0.0381 -1.4660
 7788SOL    HW234998   3.243   2.772   9.408  0.5037 -0.5438 -2.0177
 7789SOL     OW34999   2.784   4.197   9.860 -0.1725  0.0858  0.2484
 7789SOL    HW135000   2.733   4.249   9.799  0.0519  0.0542  0.0328
 7789SOL    HW235001   2.814   4.131   9.798 -2.0725 -0.0019 -0.5590
 7790SOL     OW35002   0.089   3.409  11.929  0.4038 -0.6553 -0.1092
 7790SOL    HW135003   0.181   3.385  11.928  0.7163  0.4947  0.7365
 7790SOL    HW235004   0.055   3.433  11.843  0.6920 -1.6777 -0.5060
 7791SOL     OW35005   2.665   3.805  16.462 -0.2339 -0.1083  0.4590
 7791SOL    HW135006   2.609   3.730  16.480 -0.5715 -0.2983 -1.3805
 7791SOL    HW235007   2.743   3.758  16.434 -0.6039 -0.4869  0.0620
 7792SOL     OW35008   2.498   1.959  15.877  0.2947  0.0918 -0.3754
 7792SOL    HW135009   2.497   1.993  15.788 -0.8446 -2.3343 -1.2984
 7792SOL    HW235010   2.432   1.891  15.863 -1.3175  1.6785 -0.4522
 7793SOL     OW35011   3.374   3.061   8.543  0.3218  0.0182 -0.3640
 7793SOL    HW135012   3.455   3.080   8.592 -0.5951 -0.7540  1.4727
 7793SOL    HW235013   3.401   3.036   8.455  1.4904  1.1373 -0.3395
 7794SOL     OW35014   3.410   1.068   3.038  0.3832 -0.2145  0.5880
 7794SOL    HW135015   3.387   1.156   3.067 -0.8808 -0.0833 -0.7891
 7794SOL    HW235016   3.321   1.032   3.040 -0.6468  2.3380  0.1576
 7795SOL     OW35017   0.500   1.575   4.446 -0.1537  0.4195 -0.6499
 7795SOL    HW135018   0.459   1.523   4.377  0.3976  1.5989 -1.8574
 7795SOL    HW235019   0.561   1.638   4.408 -0.1955  0.9265  0.1199
 7796SOL     OW35020   0.468   4.221   4.976  0.2962  0.1556  0.1696
 7796SOL    HW135021   0.512   4.305   4.989 -0.6501  0.8486 -1.0749
 7796SOL    HW235022   0.461   4.181   5.063 -3.4633 -0.3372 -0.3597
 7797SOL     OW35023   4.520   3.030   3.114  0.3229 -0.6786  0.3482
 7797SOL    HW135024   4.442   3.086   3.111  2.6610  2.5767  1.0288
 7797SOL    HW235025   4.574   3.087   3.167  1.6883 -2.0308  0.4074
 7798SOL     OW35026   3.111   3.962  15.238 -0.0048 -0.1343  0.0003
 7798SOL    HW135027   3.107   3.871  15.268  0.5554 -0.0664  0.2877
 7798SOL    HW235028   3.042   4.009  15.285 -2.3752 -0.2825 -3.3409
 7799SOL     OW35029   1.946   0.151  17.019 -0.5664 -0.2590 -0.4111
 7799SOL    HW135030   1.939   0.245  17.035  1.6381 -0.0469 -0.7384
 7799SOL    HW235031   1.892   0.142  16.940 -1.8160  1.8368  0.2155
 7800SOL     OW35032   0.866   2.727   3.284  0.0781 -0.0168 -0.2017
 7800SOL    HW135033   0.780   2.705   3.320 -1.4017  2.3092 -2.2899
 7800SOL    HW235034   0.902   2.648   3.244  1.7978 -0.3521  1.9868
 7801SOL     OW35035   4.734   1.581   3.526  0.5655  0.0265  0.3865
 7801SOL    HW135036   0.010   1.533   3.445 -0.1514  1.4909 -0.6130
 7801SOL    HW235037   4.668   1.649   3.511 -0.8991 -0.8610  2.7288
 7802SOL     OW35038   1.905   3.110   0.495 -0.5254  0.2703 -0.0379
 7802SOL    HW135039   1.991   3.138   0.464  0.4012 -0.4082  1.9301
 7802SOL    HW235040   1.925   3.016   0.494 -3.3972 -0.3352  1.4894
 7803SOL     OW35041   3.503   0.347  11.968 -0.5003 -0.7919  0.0192
 7803SOL    HW135042   3.439   0.415  11.990  0.5972 -0.2004  1.4114
 7803SOL    HW235043   3.523   0.371  11.878  0.9602 -0.9585  0.3022
 7804SOL     OW35044   1.230   2.094   9.502  0.0079  0.0831  0.1583
 7804SOL    HW135045   1.260   2.184   9.490 -1.7466  0.4683 -1.4610
 7804SOL    HW235046   1.306   2.036   9.498 -0.9810 -1.3090  1.4245
 7805SOL     OW35047   0.721   1.733   1.965  0.1871  0.4074  0.2185
 7805SOL    HW135048   0.650   1.733   2.028  0.0343 -1.0241  0.0494
 7805SOL    HW235049   0.764   1.650   1.984 -0.2807  0.5418  1.8127
 7806SOL     OW35050   4.415   4.149   7.898 -0.3859  1.0080  0.4705
 7806SOL    HW135051   4.333   4.102   7.912  1.0523 -1.1488  1.6605
 7806SOL    HW235052   4.427   4.134   7.805 -1.3470 -0.8097  0.6431
 7807SOL     OW35053   3.857   0.973   3.719 -0.1078 -0.1892  0.7174
 7807SOL    HW135054   3.788   1.039   3.707  2.4330  2.7968  2.5680
 7807SOL    HW235055   3.891   1.007   3.802 -4.0263  1.3267  1.7119
 7808SOL     OW35056   0.652   3.521   0.834 -0.1127  0.5028 -0.6940
 7808SOL    HW135057   0.559   3.539   0.844  0.2390  0.5446  2.5209
 7808SOL    HW235058   0.689   3.513   0.922  1.1814  1.3449 -1.1590
 7809SOL     OW35059   0.404   3.077  11.640  0.3308  0.4713 -0.4122
 7809SOL    HW135060   0.349   3.000  11.629 -0.5146  1.0591 -0.2517
 7809SOL    HW235061   0.346   3.129  11.696 -0.5858  0.1116 -1.0405
 7810SOL     OW35062   4.384   3.792   5.573  0.1248 -0.1004  0.1769
 7810SOL    HW135063   4.305   3.739   5.574 -0.6992  1.0594 -3.3520
 7810SOL    HW235064   4.354   3.883   5.566  1.0094  0.2651  0.9982
 7811SOL     OW35065   2.215   0.515   3.100  0.3468 -0.0813 -0.6474
 7811SOL    HW135066   2.214   0.595   3.152 -0.6389 -0.8625  0.5406
 7811SOL    HW235067   2.153   0.455   3.141 -0.3527  1.5558  0.6882
 7812SOL     OW35068   0.520   3.434   6.139  0.4627  0.2117 -0.8481
 7812SOL    HW135069   0.508   3.525   6.112 -4.7524 -0.7565 -1.8562
 7812SOL    HW235070   0.612   3.443   6.163  1.6836 -1.5307 -5.0302
 7813SOL     OW35071   3.881   3.373   5.527 -0.4053  0.3647  0.0502
 7813SOL    HW135072   3.879   3.388   5.621  2.4890 -0.0995  0.1897
 7813SOL    HW235073   3.928   3.289   5.522  0.3992  0.7854  0.5239
 7814SOL     OW35074   0.609   1.806   9.752 -0.3251 -0.2027 -0.0245
 7814SOL    HW135075   0.615   1.875   9.818 -2.5106 -0.8854  0.8920
 7814SOL    HW235076   0.542   1.839   9.692  0.5811 -0.1529 -1.0052
 7815SOL     OW35077   2.723   1.024   8.134 -0.4934  0.7137 -0.3639
 7815SOL    HW135078   2.816   1.019   8.116 -0.5704 -0.3261 -0.5131
 7815SOL    HW235079   2.699   0.959   8.067  0.4126  0.4267 -0.4049
 7816SOL     OW35080   3.471   3.429   4.511 -0.2818  0.5748 -0.4353
 7816SOL    HW135081   3.512   3.380   4.583 -2.5236 -0.8225 -0.1216
 7816SOL    HW235082   3.440   3.352   4.463  0.2116  0.4419 -0.5381
 7817SOL     OW35083   2.396   0.656   2.192 -0.3854 -0.0802  0.1948
 7817SOL    HW135084   2.479   0.611   2.175  1.1567  2.8082  0.1266
 7817SOL    HW235085   2.410   0.692   2.279  0.3316  1.1962 -0.4439
 7818SOL     OW35086   3.809   2.961   9.447  0.2035  0.5647 -0.0248
 7818SOL    HW135087   3.794   2.939   9.539 -1.6750  0.5576 -0.3446
 7818SOL    HW235088   3.725   2.989   9.411  0.4461  2.1137  0.6216
 7819SOL     OW35089   4.408   0.759  12.767  0.3037  0.4727  0.2235
 7819SOL    HW135090   4.413   0.670  12.802  1.8539  1.0665  1.4826
 7819SOL    HW235091   4.454   0.808  12.835 -0.6003 -0.8190  1.7662
 7820SOL     OW35092   0.398   0.710   5.344  0.3030  0.5515 -0.0234
 7820SOL    HW135093   0.349   0.770   5.401 -1.3172  2.0521 -3.0234
 7820SOL    HW235094   0.478   0.719   5.396  0.2930 -0.3999  0.1617
 7821SOL     OW35095   1.707   2.869  15.551  0.4220 -0.0967  0.3623
 7821SOL    HW135096   1.666   2.800  15.602  2.0688 -0.9217  0.5820
 7821SOL    HW235097   1.630   2.915  15.517  0.8257 -1.7290 -2.7564
 7822SOL     OW35098   1.966   2.837  15.624 -0.3815 -0.0364  0.4768
 7822SOL    HW135099   2.002   2.749  15.632 -0.8787 -0.2960 -0.1392
 7822SOL    HW235100   1.871   2.831  15.617 -0.1996 -3.2193  0.6336
 7823SOL     OW35101   3.269   2.730   5.949  0.4512 -0.3385 -0.0008
 7823SOL    HW135102   3.230   2.799   6.003  0.7950  0.2529 -0.5063
 7823SOL    HW235103   3.248   2.764   5.861  2.2151 -0.6528 -0.5388
 7824SOL     OW35104   4.734   3.942  12.536  0.2159  0.1665 -0.3754
 7824SOL    HW135105   4.730   3.848  12.521  0.5816  0.2061 -0.7437
 7824SOL    HW235106   4.683   3.983  12.466  1.1800  0.6655 -0.7872
 7825SOL     OW35107   1.547   2.611   5.914  0.0926  0.3107  0.5929
 7825SOL    HW135108   1.583   2.529   5.946 -1.1710 -0.2972  0.4578
 7825SOL    HW235109   1.624   2.659   5.885  0.5553 -0.3358  0.7675
 7826SOL     OW35110   0.027   2.344  11.325  0.3774  0.6801 -0.3311
 7826SOL    HW135111   0.003   2.422  11.274  0.0457  0.6224 -0.2614
 7826SOL    HW235112   4.686   2.333  11.372  0.1929 -1.0640 -1.0612
 7827SOL     OW35113   3.984   2.704   5.041 -0.0285  0.5215  0.2393
 7827SOL    HW135114   4.070   2.746   5.042  1.2502 -2.1063  0.4882
 7827SOL    HW235115   3.959   2.695   4.949  1.3526 -3.5415  0.2579
 7828SOL     OW35116   3.555   4.516   7.155 -0.2613 -0.1754 -0.4263
 7828SOL    HW135117   3.619   4.575   7.195 -0.1396  0.8305 -2.0910
 7828SOL    HW235118   3.574   4.430   7.194  1.2526  0.9522  1.2925
 7829SOL     OW35119   2.719   1.683   2.211  0.7547  0.1946  0.7625
 7829SOL    HW135120   2.625   1.695   2.224  0.5482 -0.6856  0.0941
 7829SOL    HW235121   2.744   1.775   2.209 -2.4816  1.0603  0.1608
 7830SOL     OW35122   2.520   3.256   8.428 -0.2402  0.1869 -0.7472
 7830SOL    HW135123   2.589   3.195   8.404  1.2402  1.8809 -0.8203
 7830SOL    HW235124   2.542   3.263   8.521  0.1751  2.3863 -0.9941
 7831SOL     OW35125   4.212   2.295  14.734 -0.4735 -0.2000 -0.0009
 7831SOL    HW135126   4.267   2.370  14.753 -2.6584  1.6277 -0.8181
 7831SOL    HW235127   4.253   2.218  14.773  0.4715  0.4190  0.2255
 7832SOL     OW35128   4.200   3.777  15.968  0.1545 -0.3143 -0.4815
 7832SOL    HW135129   4.275   3.764  15.910  0.6050 -2.5228  0.5702
 7832SOL    HW235130   4.128   3.731  15.925 -1.3089 -0.5004  2.1171
 7833SOL     OW35131   1.154   2.730  10.121  0.1656  0.1175 -0.5222
 7833SOL    HW135132   1.206   2.721  10.041 -0.3903 -0.6244 -0.7984
 7833SOL    HW235133   1.128   2.820  10.105  0.6133  0.0447 -1.6521
 7834SOL     OW35134   1.951   3.728  17.067 -0.0020 -0.1960  0.0191
 7834SOL    HW135135   1.947   3.823  17.051 -1.8779 -0.1956  0.4852
 7834SOL    HW235136   2.044   3.711  17.052  0.4913  2.2491  0.2120
 7835SOL     OW35137   1.148   1.165  13.387 -0.0170 -0.2086  0.1133
 7835SOL    HW135138   1.194   1.203  13.461  1.0791  0.7432 -1.0601
 7835SOL    HW235139   1.212   1.149  13.317 -0.9532  0.1447 -0.8253
 7836SOL     OW35140   0.253   2.035   7.493  0.0710  0.1570 -0.0651
 7836SOL    HW135141   0.241   1.941   7.479  0.7346 -0.2285  1.9573
 7836SOL    HW235142   0.348   2.043   7.485 -0.0084  2.1216  0.8076
 7837SOL     OW35143   0.364   3.706   2.300  0.3950  0.3864 -0.6429
 7837SOL    HW135144   0.331   3.794   2.313  1.8432  0.9487 -0.7958
 7837SOL    HW235145   0.436   3.712   2.238  0.0516  0.3766 -1.0452
 7838SOL     OW35146   1.658   2.306   9.971 -0.3819  0.1165  0.0944
 7838SOL    HW135147   1.615   2.221   9.983  1.0641 -0.6455 -0.1777
 7838SOL    HW235148   1.583   2.365   9.979  1.2167  2.2290 -0.6261
 7839SOL     OW35149   1.170   4.003   6.801 -0.1929  0.1185 -0.4223
 7839SOL    HW135150   1.134   3.921   6.833 -0.2061 -0.1033 -0.9959
 7839SOL    HW235151   1.228   3.973   6.730 -0.0139  0.0240 -0.2367
 7840SOL     OW35152   4.232   3.220   8.363 -0.3388 -0.2345  0.3541
 7840SOL    HW135153   4.196   3.132   8.365 -1.6472  0.3448  1.7576
 7840SOL    HW235154   4.319   3.206   8.324 -0.3520  2.0756 -0.5101
 7841SOL     OW35155   2.490   0.186   6.225 -0.0227  0.4948 -0.6243
 7841SOL    HW135156   2.464   0.094   6.226  0.7830  0.2867  1.4072
 7841SOL    HW235157   2.428   0.226   6.164 -1.5531 -0.2199  0.4503
 7842SOL     OW35158   1.664   0.911   7.274  0.0318  0.1868 -0.0334
 7842SOL    HW135159   1.682   0.933   7.183  0.1653 -0.7965 -0.2412
 7842SOL    HW235160   1.602   0.838   7.269  0.8601 -0.5377  0.2743
 7843SOL     OW35161   0.885   1.012   4.163  0.1550 -0.5216 -0.1465
 7843SOL    HW135162   0.871   0.944   4.229 -0.5254 -0.7078 -0.4864
 7843SOL    HW235163   0.798   0.995   4.127  0.8528 -1.6429 -1.3394
 7844SOL     OW35164   2.379   3.741  11.314  0.1016  0.1881 -0.6631
 7844SOL    HW135165   2.389   3.681  11.240 -1.0711 -0.2345 -0.4659
 7844SOL    HW235166   2.347   3.688  11.387 -0.4283 -1.1615 -1.8862
 7845SOL     OW35167   2.491   0.356   4.117 -0.1654  0.1532 -1.1026
 7845SOL    HW135168   2.556   0.427   4.111  2.2882 -1.8030  2.7235
 7845SOL    HW235169   2.553   0.289   4.148 -0.6352  0.2676  0.0798
 7846SOL     OW35170   0.257   0.772   8.691 -0.6425  0.0975 -0.1954
 7846SOL    HW135171   0.241   0.689   8.646 -2.7063  0.3844  0.0005
 7846SOL    HW235172   0.167   0.802   8.703 -0.4743  0.4540  0.1640
 7847SOL     OW35173   3.061   2.074   4.071  0.4171 -0.2541  0.5437
 7847SOL    HW135174   3.094   2.055   3.983 -1.7305 -0.4950 -0.1975
 7847SOL    HW235175   3.136   2.070   4.130  1.5601 -0.8286 -0.9463
 7848SOL     OW35176   4.507   1.600  13.741 -0.1230  0.4261  0.2997
 7848SOL    HW135177   4.484   1.683  13.783  0.4828  1.1107 -0.7328
 7848SOL    HW235178   4.601   1.611  13.728 -0.0005 -2.9184 -1.7523
 7849SOL     OW35179   3.687   0.146   8.668  0.2993  0.0551  0.5161
 7849SOL    HW135180   3.697   0.124   8.576 -0.7487 -0.0676  0.4294
 7849SOL    HW235181   3.627   0.219   8.655 -1.3284 -1.4377 -0.2528
 7850SOL     OW35182   4.367   2.306   3.716  0.4566 -0.3037  0.0680
 7850SOL    HW135183   4.399   2.326   3.804  0.7760  1.8348 -0.5158
 7850SOL    HW235184   4.274   2.314   3.734  0.6709 -1.7865  1.7002
 7851SOL     OW35185   1.933   2.970   7.700  0.7225  0.1150  0.0788
 7851SOL    HW135186   1.917   2.933   7.787 -0.4037  0.0250 -0.1599
 7851SOL    HW235187   1.954   2.886   7.659 -1.5037  1.7989 -4.4638
 7852SOL     OW35188   3.701   2.237   4.618 -0.3312 -0.6709  0.0952
 7852SOL    HW135189   3.620   2.188   4.600 -0.0751 -0.8005 -0.7159
 7852SOL    HW235190   3.736   2.189   4.692  0.1208 -0.3936  0.0596
 7853SOL     OW35191   1.500   3.110   3.675 -0.4171  0.0927  0.4247
 7853SOL    HW135192   1.473   3.182   3.618  1.1632 -0.0487 -0.5163
 7853SOL    HW235193   1.591   3.098   3.648 -0.3741  3.7539 -1.0980
 7854SOL     OW35194   1.878   2.540   1.971 -0.6852  0.7941 -0.3323
 7854SOL    HW135195   1.944   2.592   1.926 -0.1493 -0.5196 -1.0692
 7854SOL    HW235196   1.901   2.552   2.063 -0.5416  1.0794 -0.4058
 7855SOL     OW35197   2.941   3.585   9.807  0.0634 -0.7158  0.4646
 7855SOL    HW135198   2.996   3.521   9.852  1.3794 -2.3944 -3.5502
 7855SOL    HW235199   2.968   3.582   9.715 -0.8556 -0.6347  0.1818
 7856SOL     OW35200   2.789   1.041   4.390 -0.0529 -0.4016 -0.6026
 7856SOL    HW135201   2.879   1.014   4.405 -0.7857 -2.2747  0.3384
 7856SOL    HW235202   2.737   0.984   4.447 -0.9005  0.2692 -0.6942
 7857SOL     OW35203   2.530   4.297   6.831  0.0845  0.1251 -0.0160
 7857SOL    HW135204   2.497   4.373   6.879  1.1891  0.8847 -0.4630
 7857SOL    HW235205   2.514   4.224   6.891 -0.5184  0.0143 -0.3092
 7858SOL     OW35206   0.968   2.585   9.196 -0.5831 -0.1494  0.0524
 7858SOL    HW135207   1.039   2.522   9.197 -1.4966 -1.1953 -0.6273
 7858SOL    HW235208   1.011   2.669   9.213  1.8110 -0.8219 -2.7458
 7859SOL     OW35209   0.638   2.930   2.952 -1.0040 -0.4235  0.5604
 7859SOL    HW135210   0.574   2.933   3.023 -0.2751 -2.3145  1.2866
 7859SOL    HW235211   0.618   3.015   2.914 -1.3693 -0.7508  0.0333
 7860SOL     OW35212   2.179   1.192  16.841  0.2475  0.3547  0.2039
 7860SOL    HW135213   2.194   1.207  16.748  0.3440  1.3564  0.3847
 7860SOL    HW235214   2.146   1.102  16.835  0.2560  0.3615  0.0569
 7861SOL     OW35215   3.572   3.407   8.588 -0.0060  0.2382  0.5405
 7861SOL    HW135216   3.535   3.410   8.677 -2.3101  1.9236 -0.4735
 7861SOL    HW235217   3.667   3.411   8.600 -0.2448  0.5839  2.3868
 7862SOL     OW35218   1.643   0.649   4.189  0.0219 -0.3168 -0.1863
 7862SOL    HW135219   1.646   0.594   4.111  1.5260  3.4877 -2.7974
 7862SOL    HW235220   1.631   0.587   4.261 -1.7381  0.5554  0.2589
 7863SOL     OW35221   3.812   3.915  11.872 -0.5620  0.4624  0.3768
 7863SOL    HW135222   3.853   3.991  11.914  0.3620  0.0749  0.1530
 7863SOL    HW235223   3.850   3.919  11.785 -1.5318 -1.2618 -0.1362
 7864SOL     OW35224   3.511   1.563  12.593  0.3843  0.4986 -0.8102
 7864SOL    HW135225   3.523   1.472  12.617 -0.6119  0.5779 -0.0157
 7864SOL    HW235226   3.563   1.617  12.653 -0.2974  1.8067 -1.3835
 7865SOL     OW35227   0.102   1.567   1.890  0.3444  0.1419 -0.2536
 7865SOL    HW135228   0.051   1.647   1.902 -0.3636 -0.7208  2.4976
 7865SOL    HW235229   0.073   1.552   1.800 -0.8033  1.3903 -0.0850
 7866SOL     OW35230   0.241   0.843   1.747 -0.1003  0.3891  0.1025
 7866SOL    HW135231   0.248   0.933   1.780  2.3196  0.4632 -0.6516
 7866SOL    HW235232   0.156   0.838   1.703 -1.6558  1.9616  2.9296
 7867SOL     OW35233   4.366   0.460  11.960 -0.2291 -0.0370  0.3137
 7867SOL    HW135234   4.382   0.520  11.887 -0.6606 -0.2580  0.0452
 7867SOL    HW235235   4.363   0.518  12.036 -1.6707 -2.0668  1.7978
 7868SOL     OW35236   1.799   2.615   3.213 -0.4077 -0.1691 -0.1224
 7868SOL    HW135237   1.794   2.585   3.122 -2.1000  1.6049 -0.5954
 7868SOL    HW235238   1.741   2.690   3.208  0.1014  0.0395 -2.7595
 7869SOL     OW35239   3.550   0.832   4.092 -0.1804  0.2131 -0.3024
 7869SOL    HW135240   3.529   0.798   4.005 -0.1799  1.5746 -0.8404
 7869SOL    HW235241   3.509   0.768   4.151 -0.2876  0.1278 -0.4699
 7870SOL     OW35242   4.003   0.337   7.423  0.2842 -0.3246  0.0549
 7870SOL    HW135243   3.989   0.282   7.501 -1.8458 -1.1005 -0.8583
 7870SOL    HW235244   4.027   0.423   7.458 -1.1065 -0.1085  0.4884
 7871SOL     OW35245   2.046   4.589  11.551 -0.2764  0.2183 -0.2731
 7871SOL    HW135246   2.092   4.520  11.599 -0.7062 -0.9119 -1.4839
 7871SOL    HW235247   1.987   4.629  11.614  0.9683  2.6575 -0.6392
 7872SOL     OW35248   2.019   0.561   8.722 -0.9046 -0.0076 -0.0357
 7872SOL    HW135249   2.051   0.641   8.763 -1.7052  0.3810 -0.1622
 7872SOL    HW235250   1.977   0.592   8.642  0.3759  0.3794 -0.5542
 7873SOL     OW35251   2.921   4.674  17.738 -0.1734  0.2914  0.6478
 7873SOL    HW135252   2.938   4.740  17.671  1.2560 -1.0521 -0.3009
 7873SOL    HW235253   2.975   4.601  17.707  0.9020  0.1929  2.6913
 7874SOL     OW35254   4.197   1.229   8.741  0.4906  0.3120 -0.1651
 7874SOL    HW135255   4.256   1.153   8.749 -0.0224 -0.3727 -2.9444
 7874SOL    HW235256   4.132   1.201   8.806  0.8877  2.0958  0.9982
 7875SOL     OW35257   3.631   2.419   5.310 -0.4001 -0.1064  0.0808
 7875SOL    HW135258   3.681   2.495   5.282  2.9369 -2.4662 -0.3585
 7875SOL    HW235259   3.709   2.372   5.339 -1.0695  0.1670  2.3575
 7876SOL     OW35260   2.779   2.364   3.813 -0.2816 -0.1732 -0.2994
 7876SOL    HW135261   2.798   2.334   3.902 -1.2970 -0.9659 -0.3528
 7876SOL    HW235262   2.833   2.442   3.803 -1.8048  0.8226 -0.7513
 7877SOL     OW35263   4.064   2.315  13.993 -0.1049  0.7115 -0.5041
 7877SOL    HW135264   3.986   2.366  14.012  0.6294  2.2786 -1.7847
 7877SOL    HW235265   4.100   2.301  14.081 -2.3372  2.9957  0.7795
 7878SOL     OW35266   4.194   3.548   7.203 -0.0783 -0.1231  0.5382
 7878SOL    HW135267   4.267   3.488   7.189  0.7689  1.2015 -0.7753
 7878SOL    HW235268   4.156   3.559   7.116  1.0482  0.2315  0.0869
 7879SOL     OW35269   2.518   3.846  13.037  0.1943 -0.4965  0.3001
 7879SOL    HW135270   2.564   3.868  12.955 -1.6219  0.9118 -0.3570
 7879SOL    HW235271   2.521   3.751  13.030  0.8310 -0.5438  1.3027
 7880SOL     OW35272   1.437   1.020  14.485  0.4343 -0.4091 -0.2368
 7880SOL    HW135273   1.383   0.984  14.556  2.4675 -2.0399  0.4750
 7880SOL    HW235274   1.434   1.110  14.516 -1.6715 -1.1803  1.8829
 7881SOL     OW35275   2.721   4.029  17.394 -0.4029  0.1962  0.0659
 7881SOL    HW135276   2.754   4.062  17.478  1.6784  0.3633 -0.8224
 7881SOL    HW235277   2.750   4.096  17.333 -0.8040  1.2116  0.9930
 7882SOL     OW35278   3.335   2.676   3.567  0.2558 -0.1385 -0.7197
 7882SOL    HW135279   3.422   2.709   3.548  0.3638 -0.4505 -0.7629
 7882SOL    HW235280   3.315   2.647   3.478 -0.6457 -1.5462 -0.0626
 7883SOL     OW35281   2.312   3.800   1.558 -0.4273  0.1311 -0.5142
 7883SOL    HW135282   2.313   3.877   1.501 -1.7911  1.2184  0.9249
 7883SOL    HW235283   2.301   3.728   1.497  0.7429  0.5049 -1.1650
 7884SOL     OW35284   2.058   2.275   8.213  0.3276  0.5719 -0.5238
 7884SOL    HW135285   2.111   2.197   8.197  3.4515  2.1301  2.1621
 7884SOL    HW235286   1.971   2.249   8.183 -0.4126  0.6775  1.5017
 7885SOL     OW35287   1.432   4.184   0.894  0.3433 -0.6344  0.0933
 7885SOL    HW135288   1.453   4.107   0.946 -3.0293 -2.0409 -0.6004
 7885SOL    HW235289   1.462   4.257   0.947 -1.7745  0.5037 -0.2654
 7886SOL     OW35290   0.730   4.110  12.348  0.5611  0.3583 -0.1671
 7886SOL    HW135291   0.761   4.054  12.420 -0.1795  0.6564  0.3805
 7886SOL    HW235292   0.641   4.076  12.343  0.4364  1.1972 -3.2840
 7887SOL     OW35293   2.336   2.789   0.643 -0.1014  0.0079 -0.5237
 7887SOL    HW135294   2.410   2.738   0.611  0.0640 -0.1407  0.0873
 7887SOL    HW235295   2.266   2.737   0.605 -1.6831  0.3909  1.8418
 7888SOL     OW35296   0.290   1.204   8.359 -0.1222 -0.1210 -0.2729
 7888SOL    HW135297   0.259   1.205   8.268  1.7245 -1.6502 -0.9306
 7888SOL    HW235298   0.216   1.155   8.394 -0.8977  0.7768 -0.6688
 7889SOL     OW35299   3.444   0.163   3.984 -0.1312  0.0530 -0.0635
 7889SOL    HW135300   3.355   0.180   3.955  0.7140  2.2350 -1.3736
 7889SOL    HW235301   3.476   0.253   3.986  0.8728 -0.3184  0.8812
 7890SOL     OW35302   0.083   2.728   6.579  0.0830  0.2797 -0.4663
 7890SOL    HW135303   0.016   2.783   6.539 -1.5857 -1.3448  0.0701
 7890SOL    HW235304   0.164   2.772   6.552 -0.1117  0.0446 -1.4438
 7891SOL     OW35305   4.547   2.462   3.286 -1.4393 -0.6955 -0.2560
 7891SOL    HW135306   4.531   2.434   3.196  2.1373 -1.2916 -0.6772
 7891SOL    HW235307   4.464   2.501   3.315 -0.4086  1.7699 -0.6358
 7892SOL     OW35308   2.084   1.352   2.813 -0.9073  0.7722 -0.4951
 7892SOL    HW135309   1.992   1.373   2.799 -1.4360 -1.5528 -0.4612
 7892SOL    HW235310   2.121   1.423   2.761 -0.5770 -0.2383 -1.6321
 7893SOL     OW35311   0.207   3.149   5.034 -0.2179  0.0561 -0.0385
 7893SOL    HW135312   0.212   3.141   4.939 -0.3409  0.5334 -0.0852
 7893SOL    HW235313   0.138   3.216   5.038  0.2686  0.4779  1.3905
 7894SOL     OW35314   4.537   0.253   5.079 -0.2562  0.0749 -0.1367
 7894SOL    HW135315   4.552   0.309   5.155  0.9716 -1.0539  0.4537
 7894SOL    HW235316   4.612   0.194   5.080  0.0198  0.4634  2.9726
 7895SOL     OW35317   0.485   3.709   6.150 -0.5708  0.4174 -0.1225
 7895SOL    HW135318   0.560   3.757   6.114  1.0955 -0.4664  2.2344
 7895SOL    HW235319   0.493   3.729   6.243  0.4830 -1.0964  0.1072
 7896SOL     OW35320   1.602   4.722   6.636 -0.1354  0.1037 -0.2992
 7896SOL    HW135321   1.649   4.738   6.553  0.4267 -2.4690 -0.4597
 7896SOL    HW235322   1.677   4.715   6.695 -0.6646 -0.2720  0.3262
 7897SOL     OW35323   0.818   3.580   2.875 -0.1706  0.2400 -0.1390
 7897SOL    HW135324   0.813   3.546   2.965 -1.2792  1.4610  0.2737
 7897SOL    HW235325   0.888   3.645   2.878 -0.2245  0.3772 -2.3361
 7898SOL     OW35326   0.326   1.442   8.637  0.4904  0.4184 -0.1372
 7898SOL    HW135327   0.363   1.526   8.664 -2.0998  1.3947  0.4382
 7898SOL    HW235328   0.408   1.404   8.608 -0.0289 -0.3154 -0.6543
 7899SOL     OW35329   4.215   3.822   8.888 -0.4647  0.0112 -0.1657
 7899SOL    HW135330   4.213   3.753   8.954  0.8713 -0.1459 -0.2927
 7899SOL    HW235331   4.148   3.797   8.825 -0.8632  3.0335 -0.9654
 7900SOL     OW35332   3.692   1.049  17.127 -0.4978  0.3582  0.2282
 7900SOL    HW135333   3.611   1.100  17.124 -1.0618 -0.5576 -0.1583
 7900SOL    HW235334   3.722   1.044  17.036 -0.5978  0.5447  0.1846
 7901SOL     OW35335   0.410   2.218   0.550  0.0991  0.4375 -0.2687
 7901SOL    HW135336   0.350   2.291   0.563  0.6701  0.7001  0.9500
 7901SOL    HW235337   0.364   2.147   0.505 -0.1749 -0.3066  1.1838
 7902SOL     OW35338   4.538   3.032   2.066 -0.2147  0.2589  0.1318
 7902SOL    HW135339   4.584   3.012   1.984  1.4382  1.1602  0.8501
 7902SOL    HW235340   4.446   3.038   2.041 -0.2622 -0.0252  0.2437
 7903SOL     OW35341   1.901   1.263   6.505  0.1604  1.0349 -0.3728
 7903SOL    HW135342   1.853   1.309   6.575 -2.7987 -0.0291 -1.7005
 7903SOL    HW235343   1.910   1.328   6.436 -1.5549  3.2735  1.5007
 7904SOL     OW35344   0.105   2.248  17.264  0.3596 -0.1679  0.7430
 7904SOL    HW135345   0.127   2.182  17.198  0.8248 -0.6068  1.3439
 7904SOL    HW235346   0.010   2.235  17.261  0.3834 -0.2145  0.0579
 7905SOL     OW35347   0.483   3.991   9.096  0.0189 -0.0294  0.6116
 7905SOL    HW135348   0.420   3.989   9.168 -0.3977 -1.0708  0.2121
 7905SOL    HW235349   0.559   3.953   9.141  0.9117  1.2616  0.1972
 7906SOL     OW35350   0.295   0.184   6.906  0.1887 -0.5293  0.0311
 7906SOL    HW135351   0.306   0.189   7.001  0.5501 -1.4474  0.0424
 7906SOL    HW235352   0.349   0.108   6.886 -0.1510 -1.1809  1.6139
 7907SOL     OW35353   2.473   0.064   7.691 -0.2133 -0.4165  0.5457
 7907SOL    HW135354   2.482   0.137   7.752 -0.1279  2.9713 -3.5129
 7907SOL    HW235355   2.499   0.107   7.609 -0.9965 -0.0872  0.4678
 7908SOL     OW35356   4.412   3.683  12.746 -0.0621 -0.1840 -0.4967
 7908SOL    HW135357   4.480   3.737  12.786 -0.7170  0.2087  0.1093
 7908SOL    HW235358   4.389   3.615  12.809  1.5749 -0.9949 -0.7975
 7909SOL     OW35359   2.948   3.560   3.168 -0.2259  0.0874 -0.0501
 7909SOL    HW135360   2.975   3.647   3.200 -0.6884 -0.0305  0.6702
 7909SOL    HW235361   2.876   3.582   3.109 -0.3777 -0.7927 -0.1936
 7910SOL     OW35362   0.766   2.320   1.381  0.2883 -0.2401 -0.5170
 7910SOL    HW135363   0.704   2.382   1.418  0.0027  0.0419 -1.4577
 7910SOL    HW235364   0.773   2.350   1.290  0.1888  0.2041 -0.3802
 7911SOL     OW35365   0.844   0.431   8.405 -0.0022 -0.5023  0.4049
 7911SOL    HW135366   0.834   0.388   8.490  3.4354 -2.7404 -0.3298
 7911SOL    HW235367   0.779   0.501   8.409 -0.2179 -0.7767  1.7738
 7912SOL     OW35368   2.605   4.385  13.606  0.0542  0.3464  0.0585
 7912SOL    HW135369   2.556   4.356  13.684  0.2135  0.0129  0.0365
 7912SOL    HW235370   2.576   4.475  13.592  1.3799  0.1791 -3.8179
 7913SOL     OW35371   3.538   2.385  10.355 -0.2466  0.0165  0.0570
 7913SOL    HW135372   3.492   2.398  10.438 -0.5497  0.3160 -0.1599
 7913SOL    HW235373   3.483   2.319  10.312 -2.0001  1.6633 -0.1895
 7914SOL     OW35374   0.908   2.252   5.837 -0.1352 -0.3680  0.1679
 7914SOL    HW135375   0.988   2.304   5.847 -0.8129  0.3674  1.7928
 7914SOL    HW235376   0.944   2.163   5.834 -0.0645 -0.2899 -1.2872
 7915SOL     OW35377   1.273   2.575  15.914  0.2382 -0.3032 -0.2394
 7915SOL    HW135378   1.288   2.595  16.007  0.5045 -1.5964  0.0043
 7915SOL    HW235379   1.271   2.659  15.870  0.4677 -0.0488  0.2348
 7916SOL     OW35380   0.278   4.041   6.916  0.1064  0.5173 -0.5526
 7916SOL    HW135381   0.239   4.128   6.911 -0.4234  0.1708 -2.4960
 7916SOL    HW235382   0.239   4.010   6.998  2.0599 -1.3612 -0.3152
 7917SOL     OW35383   4.566   0.776   5.803 -0.2422  0.3534 -0.0170
 7917SOL    HW135384   4.488   0.776   5.747 -1.9764 -1.4025  2.3910
 7917SOL    HW235385   4.538   0.748   5.890  0.5332 -1.6114 -0.4034
 7918SOL     OW35386   1.660   3.912   8.185  0.1353 -0.2958  0.4816
 7918SOL    HW135387   1.570   3.919   8.153 -0.1149  2.5681  1.7542
 7918SOL    HW235388   1.701   3.855   8.121  0.0342  1.2256 -0.9364
 7919SOL     OW35389   2.418   0.222   5.299 -0.0852  0.5742  0.1128
 7919SOL    HW135390   2.474   0.147   5.280  0.0879  1.3222 -2.2752
 7919SOL    HW235391   2.443   0.278   5.226 -0.4247 -1.3671 -1.4937
 7920SOL     OW35392   4.643   0.224   1.689  0.0216  0.0427 -0.4182
 7920SOL    HW135393   4.729   0.232   1.731 -0.0305 -0.0287 -0.2981
 7920SOL    HW235394   4.672   0.192   1.604  0.8610 -2.9146  0.9529
 7921SOL     OW35395   4.175   3.313  11.714 -0.8633 -0.3487 -0.4055
 7921SOL    HW135396   4.115   3.337  11.784 -1.6021 -2.7311 -0.2215
 7921SOL    HW235397   4.120   3.326  11.636  1.3422 -0.1925 -1.9429
 7922SOL     OW35398   2.763   1.082  12.200  0.1567 -0.6800 -0.6210
 7922SOL    HW135399   2.725   1.134  12.129  0.9907  2.1698  1.0283
 7922SOL    HW235400   2.781   0.998  12.157  2.8427 -0.0938 -0.6049
 7923SOL     OW35401   3.003   1.054   8.135  0.1488 -0.0808  0.0710
 7923SOL    HW135402   3.059   1.041   8.059 -0.9957 -1.3388 -0.5562
 7923SOL    HW235403   3.065   1.107   8.186 -0.2303 -0.1649  0.6191
 7924SOL     OW35404   4.485   4.701   9.290 -0.0059  0.2674  0.1255
 7924SOL    HW135405   4.397   4.666   9.279 -0.0987  1.0288 -1.4215
 7924SOL    HW235406   4.475   0.050   9.259  4.4387  0.2140 -1.5284
 7925SOL     OW35407   2.970   4.558   7.981 -0.0493  0.0133 -0.7409
 7925SOL    HW135408   3.001   4.468   7.996  0.1138  0.1369 -0.3201
 7925SOL    HW235409   3.015   4.583   7.900  0.0229 -0.6740 -0.9099
 7926SOL     OW35410   1.917   3.721  16.191 -0.3794 -0.3735  0.4236
 7926SOL    HW135411   1.930   3.764  16.275 -0.6376 -0.5534  0.5544
 7926SOL    HW235412   1.988   3.656  16.190 -1.1674 -1.2172  0.1102
 7927SOL     OW35413   4.630   0.684  12.304 -0.0635 -0.4586  0.2234
 7927SOL    HW135414   4.653   0.645  12.388  1.0335  1.5946  0.8648
 7927SOL    HW235415   4.598   0.768  12.338  1.9660  0.2415  0.3886
 7928SOL     OW35416   0.257   2.362   6.875  0.0568  0.7972 -0.3485
 7928SOL    HW135417   0.205   2.397   6.803  1.2598  2.7325 -0.2668
 7928SOL    HW235418   0.198   2.375   6.949 -1.7124  0.1485 -1.6333
 7929SOL     OW35419   2.303   1.540  13.129 -0.0117  0.1501  0.4469
 7929SOL    HW135420   2.244   1.561  13.057 -0.5668 -1.8357  0.3281
 7929SOL    HW235421   2.283   1.608  13.193  0.3860  0.3116  0.4033
 7930SOL     OW35422   3.219   4.739  13.240  0.2607  0.2270  0.3586
 7930SOL    HW135423   3.262   0.013  13.156  0.0863  2.7217  0.7219
 7930SOL    HW235424   3.212   0.083  13.284  0.4664  0.5774 -0.2829
 7931SOL     OW35425   1.852   0.041  14.223  0.1915 -0.3562 -0.3287
 7931SOL    HW135426   1.800   4.701  14.222  2.0382 -1.5343 -0.7139
 7931SOL    HW235427   1.914   0.038  14.150 -0.9119 -0.9737 -1.2492
 7932SOL     OW35428   3.049   3.203  12.424  0.2615  1.1207  0.3204
 7932SOL    HW135429   2.999   3.137  12.473  2.0709  1.5419  2.7605
 7932SOL    HW235430   2.995   3.282  12.427 -0.6673  0.5191 -0.7113
 7933SOL     OW35431   0.239   2.088  13.661 -0.5189 -0.1706 -0.5227
 7933SOL    HW135432   0.161   2.136  13.688  0.4326 -0.5345  2.7779
 7933SOL    HW235433   0.198   2.038  13.590  0.1549  1.7988 -2.2954
 7934SOL     OW35434   3.230   1.118   3.320  0.0185 -0.3068  0.1684
 7934SOL    HW135435   3.154   1.097   3.265 -0.8922  0.7311  1.0169
 7934SOL    HW235436   3.268   1.198   3.286 -0.3946 -0.4099 -0.5413
 7935SOL     OW35437   1.733   3.451   1.777  0.0566 -0.3961 -0.1590
 7935SOL    HW135438   1.785   3.372   1.764  2.9115  1.6212 -0.9808
 7935SOL    HW235439   1.776   3.496   1.850  0.2902  3.2634 -2.5120
 7936SOL     OW35440   2.027   2.145  13.693  0.4967  0.4467  0.3024
 7936SOL    HW135441   2.111   2.150  13.646 -0.2597  1.4037 -0.9603
 7936SOL    HW235442   1.993   2.229  13.662  3.1190  1.0072 -1.0912
 7937SOL     OW35443   3.558   4.261   8.796 -0.3462 -0.4278  0.0052
 7937SOL    HW135444   3.556   4.248   8.701 -1.3179  3.1379 -0.4563
 7937SOL    HW235445   3.623   4.330   8.808  1.2522 -2.0482  0.7121
 7938SOL     OW35446   2.536   1.269   1.348 -0.1703 -0.5254  0.1265
 7938SOL    HW135447   2.618   1.265   1.298 -0.6604 -0.8918 -0.6571
 7938SOL    HW235448   2.573   1.302   1.430  0.7480 -3.0753  0.7340
 7939SOL     OW35449   4.351   1.195   5.920  1.1783  0.3665 -0.2799
 7939SOL    HW135450   4.405   1.144   5.979 -1.7854 -0.9872  1.2703
 7939SOL    HW235451   4.419   1.229   5.862  0.5463  1.6474 -0.2845
 7940SOL     OW35452   0.006   1.951   3.247  0.1183 -0.1896 -0.0141
 7940SOL    HW135453   0.091   1.930   3.207 -0.1451 -1.0983 -0.0861
 7940SOL    HW235454   0.041   1.995   3.325  0.2429  1.4450 -0.9824
 7941SOL     OW35455   0.615   2.976   6.994 -0.4825  0.3837  0.2952
 7941SOL    HW135456   0.590   3.043   7.058 -2.3064  1.6346 -1.6785
 7941SOL    HW235457   0.577   3.009   6.912  0.7148 -1.1234 -0.8662
 7942SOL     OW35458   2.156   0.399   7.327  0.1557  0.4479  0.0802
 7942SOL    HW135459   2.209   0.452   7.387 -0.1700  0.9231 -0.0442
 7942SOL    HW235460   2.093   0.469   7.307  0.4083  0.1845 -1.6295
 7943SOL     OW35461   1.348   1.740   9.247 -0.2043 -0.0048  0.1740
 7943SOL    HW135462   1.341   1.836   9.242 -0.1838  0.0387  0.9621
 7943SOL    HW235463   1.374   1.728   9.339 -1.5170  0.9514  0.6646
 7944SOL     OW35464   2.147   3.134   6.517 -0.1092 -0.0680 -0.2698
 7944SOL    HW135465   2.202   3.176   6.451  1.0113  0.0154  0.7105
 7944SOL    HW235466   2.206   3.073   6.562 -0.6951  0.1205  0.7610
 7945SOL     OW35467   4.288   0.926   8.209 -0.1875  0.1936  0.1286
 7945SOL    HW135468   4.348   0.915   8.135 -2.8972  0.7439 -2.1522
 7945SOL    HW235469   4.226   0.859   8.180  0.0909  1.0386 -2.4340
 7946SOL     OW35470   0.197   3.120   7.127  0.1916  0.4833 -0.3945
 7946SOL    HW135471   0.283   3.112   7.169  1.0361 -0.6162 -2.3460
 7946SOL    HW235472   0.231   3.114   7.038 -1.0830 -1.5413 -0.7362
 7947SOL     OW35473   0.223   0.143   3.099 -0.1373  0.0867 -0.0094
 7947SOL    HW135474   0.183   0.177   3.019  2.8159 -0.1975 -1.6222
 7947SOL    HW235475   0.239   0.051   3.076 -1.0080  0.1623 -0.9232
 7948SOL     OW35476   1.003   2.475  13.582 -0.0905 -0.0924  0.0669
 7948SOL    HW135477   0.999   2.388  13.542  0.5650 -1.1938  2.4057
 7948SOL    HW235478   0.935   2.466  13.650  0.2581 -1.3041  0.2529
 7949SOL     OW35479   3.746   2.962   6.404 -0.2845 -0.2171  0.3576
 7949SOL    HW135480   3.743   2.869   6.378  0.9402  0.5081 -2.4121
 7949SOL    HW235481   3.818   2.995   6.350 -0.6109 -1.1150 -0.6283
 7950SOL     OW35482   4.310   3.157   4.350  0.1633  0.5399  0.1014
 7950SOL    HW135483   4.393   3.197   4.324 -0.7334  1.6147 -1.0942
 7950SOL    HW235484   4.337   3.084   4.406  1.0985  0.6677 -0.1859
 7951SOL     OW35485   1.559   3.146   7.799 -0.0786  0.1114  0.3277
 7951SOL    HW135486   1.587   3.138   7.890 -1.7977  0.7000  0.9131
 7951SOL    HW235487   1.473   3.105   7.796  0.9419 -2.0917  0.6357
 7952SOL     OW35488   3.873   3.955   7.166 -0.0133  0.1600 -0.1998
 7952SOL    HW135489   3.855   3.882   7.225  0.3936 -2.6278 -3.4640
 7952SOL    HW235490   3.856   3.902   7.087  0.8333 -0.7049  0.1997
 7953SOL     OW35491   4.421   2.814   4.185  0.0927  0.4955  0.2496
 7953SOL    HW135492   4.346   2.868   4.209 -0.9023 -1.1442  0.7549
 7953SOL    HW235493   4.398   2.807   4.092 -0.7215 -0.5761  0.5291
 7954SOL     OW35494   2.255   4.549   0.931 -0.3086  0.7670  0.1314
 7954SOL    HW135495   2.173   4.598   0.927  0.6359  2.4270  0.6178
 7954SOL    HW235496   2.259   4.540   1.026 -0.1906 -2.1871 -0.1818
 7955SOL     OW35497   2.240   3.730   0.113  0.5081  0.1378  0.0401
 7955SOL    HW135498   2.309   3.732   0.046  0.1993  1.1569 -0.2427
 7955SOL    HW235499   2.225   3.637   0.129 -0.1275  0.8604  3.5827
 7956SOL     OW35500   1.565   3.876  13.791  0.2867 -0.0204 -0.5077
 7956SOL    HW135501   1.475   3.896  13.816  1.3728  2.5750  1.3725
 7956SOL    HW235502   1.565   3.865  13.696  1.7365  1.6667 -0.6999
 7957SOL     OW35503   0.852   2.946   8.223 -0.2114  0.4920  0.4815
 7957SOL    HW135504   0.898   2.998   8.288  0.6337 -0.0809  0.3512
 7957SOL    HW235505   0.794   2.902   8.284  0.6823 -0.8455  0.3738
 7958SOL     OW35506   1.079   4.011   0.563  0.7050 -0.7014 -0.5232
 7958SOL    HW135507   1.101   4.009   0.470  1.1846 -0.0781 -0.4280
 7958SOL    HW235508   1.007   3.949   0.564 -1.7960  2.2110 -1.2080
 7959SOL     OW35509   3.684   2.388  16.623  0.3677 -0.4507  0.2146
 7959SOL    HW135510   3.769   2.347  16.606  0.5266 -0.8521  2.0447
 7959SOL    HW235511   3.671   2.354  16.711  0.8531 -0.2376  0.3665
 7960SOL     OW35512   3.686   3.657  17.019  0.1183 -0.1139 -0.0365
 7960SOL    HW135513   3.668   3.704  16.938  0.8110  0.1991 -0.0128
 7960SOL    HW235514   3.780   3.669  17.036  0.8502 -1.5065 -3.0992
 7961SOL     OW35515   1.227   4.430   6.785  0.1383  0.0445  0.1010
 7961SOL    HW135516   1.274   4.364   6.836  1.4614 -0.0580 -1.2512
 7961SOL    HW235517   1.174   4.368   6.735 -1.1614 -0.8893  2.6505
 7962SOL     OW35518   4.187   4.143  11.306  0.3220 -0.3948 -0.6553
 7962SOL    HW135519   4.236   4.118  11.385  1.4134  0.4468 -1.0738
 7962SOL    HW235520   4.101   4.153  11.346  0.7566  2.4676 -0.3892
 7963SOL     OW35521   1.774   3.946   5.281  0.4859  0.2823 -0.2372
 7963SOL    HW135522   1.775   4.032   5.325 -2.3188 -1.0336  2.4584
 7963SOL    HW235523   1.766   3.887   5.356  0.7726 -0.8726 -1.1340
 7964SOL     OW35524   4.293   4.302  17.251  0.6644 -0.3491 -0.1621
 7964SOL    HW135525   4.334   4.375  17.204 -3.2067  0.9154 -1.5932
 7964SOL    HW235526   4.362   4.238  17.268  0.9452  0.0254  0.0989
 7965SOL     OW35527   0.345   0.462   5.733  0.3454 -0.3055  0.1724
 7965SOL    HW135528   0.278   0.407   5.693 -1.4412  1.7107  0.4407
 7965SOL    HW235529   0.376   0.407   5.806  3.9948 -3.3452 -3.6969
 7966SOL     OW35530   4.066   3.487   6.411  0.3785 -0.0680  0.4087
 7966SOL    HW135531   4.087   3.410   6.357  1.4313  0.4494  0.0867
 7966SOL    HW235532   3.973   3.487   6.434  0.1265  1.3530 -0.5797
 7967SOL     OW35533   0.045   0.091  10.813 -0.3369  0.2820  0.1090
 7967SOL    HW135534   4.693   0.082  10.835 -0.4648  2.1965  0.3291
 7967SOL    HW235535   0.061   0.016  10.754 -1.9537 -1.5024  1.9614
 7968SOL     OW35536   2.839   2.465   2.662  0.1289  0.1317 -0.1803
 7968SOL    HW135537   2.803   2.406   2.596  1.7812  0.0255 -0.9836
 7968SOL    HW235538   2.759   2.512   2.690 -0.2960 -0.0898 -1.0302
 7969SOL     OW35539   1.829   1.445   7.159 -0.2741 -0.9469  0.0734
 7969SOL    HW135540   1.869   1.479   7.079  2.4752 -1.0786  1.3924
 7969SOL    HW235541   1.798   1.527   7.199  1.5080 -0.1451 -0.2047
 7970SOL     OW35542   4.216   1.745   6.024 -0.6695 -0.0633 -0.2204
 7970SOL    HW135543   4.311   1.741   6.028 -0.6297 -0.9309 -1.9541
 7970SOL    HW235544   4.197   1.653   6.046 -0.2449  0.0339  0.5518
 7971SOL     OW35545   2.961   1.718   2.603 -0.3882 -0.1043  0.0385
 7971SOL    HW135546   2.995   1.649   2.546  2.0354  1.5306 -0.5203
 7971SOL    HW235547   3.029   1.731   2.669 -1.3202  0.5051  0.8769
 7972SOL     OW35548   3.913   0.586   2.182 -0.2535 -0.0057  0.2329
 7972SOL    HW135549   3.981   0.623   2.126 -0.9540  0.7698 -0.1133
 7972SOL    HW235550   3.937   0.494   2.194 -1.3239 -0.1601  1.1811
 7973SOL     OW35551   0.555   2.198   5.597 -0.0184  0.3228  0.0283
 7973SOL    HW135552   0.536   2.180   5.505  0.3603 -0.8287  0.1719
 7973SOL    HW235553   0.584   2.109   5.618 -0.9436  0.7848  3.3941
 7974SOL     OW35554   1.996   1.260  11.288 -0.1555 -0.4988  0.1234
 7974SOL    HW135555   2.089   1.250  11.270 -0.0190  0.6842  0.1583
 7974SOL    HW235556   1.972   1.168  11.283  3.2641 -1.4676  1.4197
 7975SOL     OW35557   3.297   4.621  15.503  0.0614  0.3533 -0.6752
 7975SOL    HW135558   3.241   4.683  15.550 -1.0515 -0.9345 -0.3065
 7975SOL    HW235559   3.264   4.538  15.537  1.3943  0.4299  0.7663
 7976SOL     OW35560   1.120   1.534  10.961 -0.3330 -0.2153  0.8982
 7976SOL    HW135561   1.191   1.514  11.021 -0.3723 -0.9138  0.7206
 7976SOL    HW235562   1.040   1.511  11.009 -1.1794  0.4310 -0.1935
 7977SOL     OW35563   2.393   4.279  12.410  0.0183 -0.5802  0.3247
 7977SOL    HW135564   2.365   4.234  12.330 -1.1324 -1.8582  1.4574
 7977SOL    HW235565   2.474   4.320  12.380 -0.5507  0.6480  0.4841
 7978SOL     OW35566   2.827   2.401   1.961 -0.6033 -0.0076  0.1658
 7978SOL    HW135567   2.898   2.338   1.945 -1.5208 -1.2254  0.8763
 7978SOL    HW235568   2.847   2.437   2.048 -0.9359  1.7082 -0.4663
 7979SOL     OW35569   1.458   0.329  17.365  0.4314  0.3433 -0.1216
 7979SOL    HW135570   1.373   0.374  17.370  1.2933  1.8791  0.7053
 7979SOL    HW235571   1.466   0.282  17.448  3.6307 -0.2566 -0.7937
 7980SOL     OW35572   4.485   0.959  10.872  0.3392 -0.4644 -0.0096
 7980SOL    HW135573   4.514   0.916  10.953 -1.9642  2.8802  2.6103
 7980SOL    HW235574   4.431   0.888  10.839  1.7830 -2.0464  1.0314
 7981SOL     OW35575   0.196   3.857   3.976  0.0727 -0.0435 -0.2378
 7981SOL    HW135576   0.262   3.922   4.001 -1.3362  1.7050 -1.1310
 7981SOL    HW235577   0.256   3.782   3.989  1.5845  1.0244 -1.0401
 7982SOL     OW35578   4.540   3.365   5.049 -0.4758 -0.3350  0.3747
 7982SOL    HW135579   4.516   3.303   5.118  0.4124 -2.0792 -0.9281
 7982SOL    HW235580   4.475   3.347   4.982 -0.7938 -0.9132  0.8375
 7983SOL     OW35581   2.190   4.682   4.588 -0.2358  0.2357  0.1436
 7983SOL    HW135582   2.182   0.015   4.648  0.0407  0.8788 -0.6153
 7983SOL    HW235583   2.251   4.623   4.633 -2.0281  1.5322  4.2690
 7984SOL     OW35584   2.799   2.986  15.555 -0.2821 -0.2687 -0.2556
 7984SOL    HW135585   2.781   2.993  15.648  2.1844 -0.5348  0.2408
 7984SOL    HW235586   2.787   3.078  15.532  0.8615 -0.2973 -0.9471
 7985SOL     OW35587   1.983   2.279   4.922  0.2245 -0.0977  0.1304
 7985SOL    HW135588   1.919   2.323   4.865  2.1978 -0.3054 -2.2497
 7985SOL    HW235589   2.001   2.195   4.878  1.9462 -0.2020  1.0569
 7986SOL     OW35590   2.697   0.292   9.362 -0.2062  0.1388  0.2824
 7986SOL    HW135591   2.709   0.199   9.381 -1.6508  0.5011  2.9624
 7986SOL    HW235592   2.735   0.326   9.444  0.4375  0.4996 -0.1694
 7987SOL     OW35593   2.215   2.659   0.391 -0.7120  0.3549 -0.4127
 7987SOL    HW135594   2.157   2.669   0.316  0.1798 -0.0902 -1.1611
 7987SOL    HW235595   2.147   2.629   0.452 -1.3212 -0.1569 -1.3327
 7988SOL     OW35596   2.509   0.041  12.313 -0.3009 -0.0613 -0.6297
 7988SOL    HW135597   2.448   4.735  12.371  2.2463 -0.4033  1.7573
 7988SOL    HW235598   2.474   0.130  12.301  0.2054 -0.0491 -2.0924
 7989SOL     OW35599   1.703   2.204   6.319  0.1559 -0.1166  0.4450
 7989SOL    HW135600   1.689   2.275   6.382 -0.1448  0.3877 -0.1873
 7989SOL    HW235601   1.637   2.227   6.253  2.2995  3.2691 -0.4891
 7990SOL     OW35602   2.831   0.915   2.831  0.0871  0.2415  0.4570
 7990SOL    HW135603   2.761   0.975   2.805 -0.2106 -1.1538 -1.9891
 7990SOL    HW235604   2.822   0.838   2.774  1.0843 -0.0900  0.7548
 7991SOL     OW35605   1.749   4.223   2.506  0.6552  0.1868  0.0819
 7991SOL    HW135606   1.660   4.257   2.491  1.2229  1.7084  0.1991
 7991SOL    HW235607   1.734   4.182   2.591 -1.2506  1.3251  0.3026
 7992SOL     OW35608   1.180   4.091   3.314  0.1775  0.5192  0.1156
 7992SOL    HW135609   1.108   4.027   3.318  0.8832 -0.2488  0.4463
 7992SOL    HW235610   1.211   4.074   3.226  0.3989  0.7367  0.1531
 7993SOL     OW35611   0.962   0.725   1.860  0.2485  0.3704 -0.4563
 7993SOL    HW135612   0.946   0.794   1.924  0.6511 -0.0789  0.1376
 7993SOL    HW235613   0.973   0.649   1.918  0.6086  0.0329 -0.9723
 7994SOL     OW35614   3.615   2.122  12.530 -0.0187  0.0228  0.0834
 7994SOL    HW135615   3.530   2.088  12.559 -0.1478  0.2589 -0.0107
 7994SOL    HW235616   3.678   2.087  12.592  1.7363  0.7919 -1.2747
 7995SOL     OW35617   0.733   3.563   0.319 -0.7232  0.0150  0.0273
 7995SOL    HW135618   0.654   3.614   0.301 -0.5403 -1.2644 -4.6616
 7995SOL    HW235619   0.735   3.561   0.414  1.6765  2.9745  0.0560
 7996SOL     OW35620   1.380   4.188   8.578 -0.4919  0.1913  0.0938
 7996SOL    HW135621   1.286   4.204   8.572 -0.5383 -0.5834 -1.2298
 7996SOL    HW235622   1.412   4.274   8.608 -0.9533  0.6768 -0.8001
 7997SOL     OW35623   3.532   1.678   1.710 -0.1348  0.0448  1.5978
 7997SOL    HW135624   3.497   1.589   1.702 -1.4780  0.8960 -1.9152
 7997SOL    HW235625   3.543   1.684   1.615 -1.1446 -0.5298  1.4417
 7998SOL     OW35626   3.188   1.229   7.272  0.5607  0.1454  0.0501
 7998SOL    HW135627   3.186   1.267   7.184 -0.3469  0.2771  0.1340
 7998SOL    HW235628   3.119   1.276   7.317  1.9245  1.0701  1.1754
 7999SOL     OW35629   4.233   0.720  10.247 -0.1254  0.2356  0.1233
 7999SOL    HW135630   4.318   0.676  10.244  0.5328  1.3854  1.8324
 7999SOL    HW235631   4.173   0.650  10.271 -1.8155  1.6298  0.0098
 8000SOL     OW35632   3.359   4.406  14.755 -1.1133 -0.3210  0.4873
 8000SOL    HW135633   3.365   4.366  14.668 -0.4563 -0.5363  0.6308
 8000SOL    HW235634   3.374   4.328  14.810 -0.3273 -1.3861 -1.2460
 8001SOL     OW35635   2.405   1.799   2.920  0.0458  0.5124 -0.2274
 8001SOL    HW135636   2.330   1.749   2.886 -0.0614  0.1087  0.6093
 8001SOL    HW235637   2.367   1.852   2.990  3.2265 -0.1831  1.9979
 8002SOL     OW35638   2.566   2.941   2.201  0.3306  0.2013 -0.5301
 8002SOL    HW135639   2.483   2.939   2.154 -0.0037  1.0040  0.0145
 8002SOL    HW235640   2.603   3.008   2.144  0.7892 -0.5492 -1.1095
 8003SOL     OW35641   4.156   2.894   4.176  0.0142  0.6728 -0.4657
 8003SOL    HW135642   4.101   2.884   4.254  0.8607 -2.0791 -0.2406
 8003SOL    HW235643   4.104   2.957   4.126 -1.8951  1.2984  2.3028
 8004SOL     OW35644   0.235   2.635  12.875  0.1644  0.0295 -0.2894
 8004SOL    HW135645   0.164   2.671  12.821  1.6049  1.3107 -1.3399
 8004SOL    HW235646   0.310   2.694  12.869 -0.1721  0.3376 -1.5190
 8005SOL     OW35647   0.697   3.043   3.934 -0.8724 -0.4052  0.3150
 8005SOL    HW135648   0.735   3.121   3.974 -0.5980 -0.7428  0.7073
 8005SOL    HW235649   0.764   3.024   3.869 -0.7009 -0.1251  0.4101
 8006SOL     OW35650   0.568   2.685   6.139 -0.0361 -0.0163  0.3613
 8006SOL    HW135651   0.491   2.640   6.173  0.0850 -1.9996 -1.9967
 8006SOL    HW235652   0.549   2.710   6.048  2.2164 -1.4160 -0.5156
 8007SOL     OW35653   3.085   4.123   9.640 -0.1818  0.3550 -0.3157
 8007SOL    HW135654   3.104   4.030   9.629 -0.7838  0.0069  1.5903
 8007SOL    HW235655   2.992   4.107   9.656 -0.1777  0.9803  0.3712
 8008SOL     OW35656   4.694   1.699   1.369 -0.4882  0.3492 -0.0562
 8008SOL    HW135657   4.631   1.731   1.434  1.0748 -2.5554  2.8664
 8008SOL    HW235658   4.667   1.757   1.297 -0.9526 -2.1298 -1.8729
 8009SOL     OW35659   3.616   3.091  13.220 -0.0670 -0.0410  0.6931
 8009SOL    HW135660   3.543   3.043  13.260 -0.9857  0.4216 -0.4587
 8009SOL    HW235661   3.636   3.149  13.294 -1.7482 -1.2670  2.0956
 8010SOL     OW35662   3.297   3.565   9.385  0.3336  0.2304  0.2268
 8010SOL    HW135663   3.300   3.573   9.289  3.3132  1.3119  0.4329
 8010SOL    HW235664   3.321   3.473   9.399 -1.1183 -0.1371  0.3040
 8011SOL     OW35665   2.537   1.995   7.114  0.0892 -0.0459  0.2161
 8011SOL    HW135666   2.496   2.036   7.190  1.3640 -0.4492  1.1130
 8011SOL    HW235667   2.628   1.984   7.143  0.1745  0.8882  0.3013
 8012SOL     OW35668   4.395   1.448   7.046  0.0539 -0.3762  0.1665
 8012SOL    HW135669   4.406   1.522   6.986 -1.3431  0.7111  1.2345
 8012SOL    HW235670   4.302   1.447   7.068 -0.1957  0.5776 -0.8749
 8013SOL     OW35671   0.223   1.708   5.230  0.8358  0.1565  0.6613
 8013SOL    HW135672   0.200   1.755   5.309  0.5761  0.7624  0.2212
 8013SOL    HW235673   0.180   1.623   5.238 -0.0072  0.2280 -2.7936
 8014SOL     OW35674   4.621   0.352  11.502  0.0531 -0.3235  0.1369
 8014SOL    HW135675   4.637   0.380  11.592  0.5998  0.5006 -0.2158
 8014SOL    HW235676   4.617   0.440  11.465 -2.0135  1.3320  4.3409
 8015SOL     OW35677   4.058   0.039  14.145  0.1392 -0.0400 -0.5465
 8015SOL    HW135678   4.019   0.126  14.148 -0.7722 -0.4574 -0.4989
 8015SOL    HW235679   4.123   0.046  14.216 -1.0944  1.0844  0.4566
 8016SOL     OW35680   4.101   3.652   1.827 -0.2769 -0.2621  0.2360
 8016SOL    HW135681   4.138   3.646   1.915  1.7535  2.0607 -0.4572
 8016SOL    HW235682   4.111   3.564   1.791  1.2288 -0.2511  0.6337
 8017SOL     OW35683   1.071   3.003   3.994  0.0927 -0.1581 -0.1529
 8017SOL    HW135684   1.025   3.026   3.913 -0.5228 -0.9362 -0.0241
 8017SOL    HW235685   1.139   2.947   3.954  0.8747 -0.5673  1.7656
 8018SOL     OW35686   2.539   3.196   2.029  0.2380 -0.4222  0.7355
 8018SOL    HW135687   2.590   3.168   1.953  0.3447 -0.0722  0.6782
 8018SOL    HW235688   2.449   3.197   1.996  0.3030  2.7620  0.6987
 8019SOL     OW35689   3.119   3.100   8.930 -0.2578 -0.2239  0.1327
 8019SOL    HW135690   3.141   3.021   8.979  0.2999  0.2093  0.5818
 8019SOL    HW235691   3.025   3.102   8.949 -0.1625  0.6004  0.5119
 8020SOL     OW35692   1.506   2.335  16.769  0.1646 -0.6440 -0.0552
 8020SOL    HW135693   1.555   2.297  16.842 -0.1796 -3.6154 -1.4011
 8020SOL    HW235694   1.533   2.426  16.754 -1.0620 -0.2620  0.0293
 8021SOL     OW35695   2.707   4.215  11.551  0.1255 -0.1714  0.4761
 8021SOL    HW135696   2.727   4.207  11.458 -4.3168 -0.1045 -0.4760
 8021SOL    HW235697   2.613   4.213  11.535 -0.0958  0.2185  1.6805
 8022SOL     OW35698   0.034   2.759  12.719  0.4391 -0.6217 -0.1916
 8022SOL    HW135699   0.022   2.853  12.705 -0.5440 -0.7819 -0.4514
 8022SOL    HW235700   4.721   2.719  12.651  2.5475 -0.9596 -1.6656
 8023SOL     OW35701   1.356   3.734   4.366  0.1564 -0.5519 -0.0633
 8023SOL    HW135702   1.375   3.786   4.444  0.1625 -1.1042  0.3037
 8023SOL    HW235703   1.296   3.672   4.409  0.1076  0.6470  1.5970
 8024SOL     OW35704   0.613   2.369   9.952 -0.2975  0.3963  0.2032
 8024SOL    HW135705   0.707   2.363   9.936 -0.1137  3.4333  0.0730
 8024SOL    HW235706   0.601   2.303  10.021 -2.3417 -0.5625 -1.0584
 8025SOL     OW35707   2.031   3.207  10.366 -0.4980 -0.4325  0.4178
 8025SOL    HW135708   2.012   3.215  10.459  1.4844  1.1628  0.6954
 8025SOL    HW235709   1.942   3.214  10.332  0.3260  1.0568 -1.4728
 8026SOL     OW35710   2.685   1.079   7.471 -0.2040  0.5273 -0.0445
 8026SOL    HW135711   2.724   1.149   7.524 -0.2953 -0.0295  0.7590
 8026SOL    HW235712   2.594   1.075   7.501  0.3665  0.4188  1.6696
 8027SOL     OW35713   4.398   1.278   6.413 -0.3321 -0.5783  0.3769
 8027SOL    HW135714   4.457   1.256   6.485  0.1408 -1.0360 -0.1459
 8027SOL    HW235715   4.334   1.208   6.425 -0.7621 -0.1741  0.4253
 8028SOL     OW35716   1.116   2.138   2.444 -0.7101  0.6500 -0.1133
 8028SOL    HW135717   1.095   2.155   2.352  1.3436  2.1653 -0.2892
 8028SOL    HW235718   1.140   2.224   2.478  1.8872  0.0467 -0.4348
 8029SOL     OW35719   1.865   2.004   7.827  0.3921 -0.1758  0.6853
 8029SOL    HW135720   1.860   1.908   7.823 -2.0301  0.0281 -1.6097
 8029SOL    HW235721   1.888   2.027   7.737  2.2110  0.0722  1.2188
 8030SOL     OW35722   1.584   2.763   3.467  0.5106  0.1163 -0.7852
 8030SOL    HW135723   1.500   2.759   3.513  1.5968  1.2545  1.2719
 8030SOL    HW235724   1.585   2.858   3.452 -1.8027  0.1685 -0.6925
 8031SOL     OW35725   0.955   4.463   9.154 -0.7602 -0.1143 -0.2434
 8031SOL    HW135726   0.972   4.419   9.237 -0.6229  0.9765  0.3146
 8031SOL    HW235727   0.861   4.475   9.162 -0.4102  2.9458 -0.5110
 8032SOL     OW35728   2.478   0.464   2.983  0.3808 -0.5737 -0.2682
 8032SOL    HW135729   2.394   0.493   3.021  1.5251 -0.0906  1.9075
 8032SOL    HW235730   2.480   0.373   3.012 -1.0195 -0.6980 -0.5677
 8033SOL     OW35731   0.953   2.620   1.304  0.1094  0.4868  0.4128
 8033SOL    HW135732   0.936   2.708   1.271  0.9575  0.7843  0.7548
 8033SOL    HW235733   0.884   2.612   1.370  0.0550 -0.6860  0.2173
 8034SOL     OW35734   1.580   1.076   4.467 -0.0549  0.0504  0.1292
 8034SOL    HW135735   1.613   1.166   4.473  1.0723 -0.2414 -1.8172
 8034SOL    HW235736   1.537   1.082   4.382 -2.4990 -0.8149  1.3232
 8035SOL     OW35737   2.085   2.510   4.999  0.6820 -0.0654 -0.6646
 8035SOL    HW135738   2.040   2.426   4.999  0.0847  0.2505  0.7284
 8035SOL    HW235739   2.171   2.478   4.970  1.1503  0.2735  0.3627
 8036SOL     OW35740   3.609   1.663   4.050  0.3872 -0.2020 -0.5568
 8036SOL    HW135741   3.547   1.676   4.121  2.5351  1.9467  0.9351
 8036SOL    HW235742   3.551   1.634   3.979 -0.4087 -0.5817  0.2594
 8037SOL     OW35743   2.430   3.798   6.480  0.5385 -0.3611  0.7984
 8037SOL    HW135744   2.348   3.847   6.483  0.7222 -0.0479  0.7352
 8037SOL    HW235745   2.465   3.822   6.395 -0.9061 -0.2370  0.2491
 8038SOL     OW35746   3.731   1.939   9.062  0.1356 -0.2819 -0.4197
 8038SOL    HW135747   3.734   1.936   8.967  2.1975  3.6056 -0.4583
 8038SOL    HW235748   3.761   2.029   9.069  0.6683 -0.4367 -0.7036
 8039SOL     OW35749   2.526   1.634  16.839  0.1046  0.0506  0.0119
 8039SOL    HW135750   2.573   1.696  16.895  1.6703  1.2606 -2.5823
 8039SOL    HW235751   2.575   1.650  16.758 -0.2921 -2.0820 -0.6354
 8040SOL     OW35752   4.093   2.942   8.280  0.0477  0.5598  0.0474
 8040SOL    HW135753   4.051   2.901   8.356  0.0795 -0.4377 -0.4824
 8040SOL    HW235754   4.132   2.863   8.242  0.3734  0.5239  0.4487
 8041SOL     OW35755   4.619   0.984  13.165  0.3375 -0.4043 -0.2773
 8041SOL    HW135756   4.691   0.968  13.225  1.0067  0.3882 -0.8674
 8041SOL    HW235757   4.574   1.050  13.217  0.6477  0.2576 -0.8498
 8042SOL     OW35758   0.452   0.319   2.649 -0.4366  0.1499  0.0843
 8042SOL    HW135759   0.428   0.362   2.731 -1.3284  1.2798 -0.7771
 8042SOL    HW235760   0.547   0.325   2.659 -0.1867 -0.3061 -1.9744
 8043SOL     OW35761   1.039   1.256   8.095  0.1167  0.0005  0.1314
 8043SOL    HW135762   1.016   1.175   8.139 -0.7198 -0.0989 -0.4856
 8043SOL    HW235763   1.127   1.248   8.058  0.8324  0.1460  1.8105
 8044SOL     OW35764   3.337   0.911  17.290 -0.3805 -0.4701  0.6715
 8044SOL    HW135765   3.298   0.973  17.352  1.4766  0.6609  0.7139
 8044SOL    HW235766   3.290   0.941  17.212  1.1109  1.9304  0.6790
 8045SOL     OW35767   0.636   3.688  16.756 -0.5385 -0.1719 -0.5781
 8045SOL    HW135768   0.678   3.758  16.707  0.5440 -0.6249 -0.2883
 8045SOL    HW235769   0.708   3.680  16.818 -0.6048  0.1454 -0.4579
 8046SOL     OW35770   3.461   2.831   0.249 -0.0517 -0.5645 -0.3988
 8046SOL    HW135771   3.439   2.739   0.237 -2.0674 -0.0298 -0.8147
 8046SOL    HW235772   3.474   2.836   0.343  1.7105 -0.5832 -0.6418
 8047SOL     OW35773   2.206   0.798  17.125  0.8747  0.5728 -0.2408
 8047SOL    HW135774   2.255   0.845  17.058  0.5545 -0.7832 -1.4174
 8047SOL    HW235775   2.165   0.874  17.167  0.7551  1.0507 -1.2386
 8048SOL     OW35776   1.843   4.293   7.260 -0.2422  0.3896 -0.0627
 8048SOL    HW135777   1.771   4.339   7.217 -0.0565 -0.2618 -1.0874
 8048SOL    HW235778   1.912   4.358   7.267 -1.9370  2.1630 -0.0263
 8049SOL     OW35779   0.546   4.027   4.632 -0.3188 -0.2391 -0.2077
 8049SOL    HW135780   0.494   3.947   4.625 -0.6455 -0.1020  0.6322
 8049SOL    HW235781   0.607   4.014   4.560 -1.9127  1.8680 -1.9385
 8050SOL     OW35782   3.196   3.573   7.000 -0.1051 -0.3296  0.2479
 8050SOL    HW135783   3.173   3.481   7.010 -0.6128 -0.2776 -0.4420
 8050SOL    HW235784   3.154   3.593   6.916  0.6027 -1.8284 -0.4535
 8051SOL     OW35785   2.315   4.111   5.315  0.8456 -0.1010  0.0328
 8051SOL    HW135786   2.366   4.181   5.355 -2.9727  1.5022  2.0695
 8051SOL    HW235787   2.295   4.060   5.393 -1.7205 -0.7939 -1.0966
 8052SOL     OW35788   0.593   2.993  15.596 -0.0379 -0.9240  0.6478
 8052SOL    HW135789   0.515   3.046  15.606 -1.2997 -2.3160 -1.8081
 8052SOL    HW235790   0.637   3.015  15.678  0.9140  1.9508 -0.6205
 8053SOL     OW35791   2.237   0.999   3.608  0.0506  0.8892 -0.2226
 8053SOL    HW135792   2.223   0.998   3.702 -0.7616  1.4980 -0.3340
 8053SOL    HW235793   2.150   0.970   3.580  1.4539 -4.0431  0.5515
 8054SOL     OW35794   4.296   4.027   0.608 -0.3346 -0.3789  0.1463
 8054SOL    HW135795   4.294   3.993   0.698 -0.7756 -0.3075  0.1624
 8054SOL    HW235796   4.208   4.057   0.587 -0.4362  0.2703  1.4612
 8055SOL     OW35797   2.661   4.737   8.802  0.0600 -0.1397  0.1313
 8055SOL    HW135798   2.573   0.033   8.797  0.2360  0.5029  1.6272
 8055SOL    HW235799   2.665   4.685   8.722  0.3687 -1.7358  1.1649
 8056SOL     OW35800   2.921   2.043   6.370  0.7153  0.0099  0.7449
 8056SOL    HW135801   2.939   1.953   6.345 -0.6303 -0.6634  2.2188
 8056SOL    HW235802   2.906   2.069   6.279  1.2727 -3.8747 -0.4599
 8057SOL     OW35803   2.849   3.821   1.961  0.3415  0.3524 -0.0031
 8057SOL    HW135804   2.766   3.867   1.962 -0.3380 -0.8943  1.1497
 8057SOL    HW235805   2.819   3.732   1.944  2.7625 -0.1055 -1.8423
 8058SOL     OW35806   2.427   1.056   5.974 -0.0004  0.1917  0.6565
 8058SOL    HW135807   2.398   1.052   5.882  0.2726 -0.7776  0.6100
 8058SOL    HW235808   2.413   0.968   6.009  2.6144 -1.4452 -2.4476
 8059SOL     OW35809   0.930   3.870   8.296  0.0804 -0.1953 -0.0633
 8059SOL    HW135810   0.988   3.807   8.338 -2.3740 -1.5089  1.3034
 8059SOL    HW235811   0.914   3.934   8.365 -0.0412 -0.2059 -0.0811
 8060SOL     OW35812   4.042   3.534   4.570  0.2529  0.0699  0.0142
 8060SOL    HW135813   4.038   3.588   4.648  0.1415 -1.5110  1.1016
 8060SOL    HW235814   4.021   3.601   4.504 -1.0582  0.1826  0.5519
 8061SOL     OW35815   4.096   2.445   7.165 -0.0007  0.2488  0.3132
 8061SOL    HW135816   4.148   2.375   7.205 -0.1202 -0.6393 -1.0708
 8061SOL    HW235817   4.006   2.428   7.193 -0.5814  2.3519 -0.3471
 8062SOL     OW35818   2.446   1.394   2.234 -0.3735 -0.3668  0.1442
 8062SOL    HW135819   2.397   1.323   2.191 -0.4882  1.5390 -2.8419
 8062SOL    HW235820   2.466   1.453   2.162  0.9279 -1.2508 -0.2363
 8063SOL     OW35821   3.364   3.157  14.615 -0.3191  0.0395  0.1554
 8063SOL    HW135822   3.433   3.165  14.680  0.3150 -0.8012 -0.4251
 8063SOL    HW235823   3.410   3.148  14.531 -1.2394  2.2983 -0.6033
 8064SOL     OW35824   0.070   2.318   4.466  0.3155 -0.0819  0.8269
 8064SOL    HW135825   0.053   2.303   4.373 -1.4656 -3.0924  1.6095
 8064SOL    HW235826   0.125   2.394   4.452 -0.7250  0.7425  1.2422
 8065SOL     OW35827   1.778   0.167  16.799 -0.1619  0.4643 -0.0067
 8065SOL    HW135828   1.691   0.183  16.836  0.8661  0.9549  2.1621
 8065SOL    HW235829   1.763   0.207  16.713 -0.5408 -1.0079 -0.6179
 8066SOL     OW35830   0.645   1.033   3.988  0.2513 -0.2488 -0.7520
 8066SOL    HW135831   0.678   1.080   3.911  0.9808 -1.2256 -1.0458
 8066SOL    HW235832   0.642   0.941   3.961  0.9506 -0.7349  0.8350
 8067SOL     OW35833   1.186   3.384   2.994 -0.5292 -0.0024 -0.1082
 8067SOL    HW135834   1.229   3.404   2.910 -1.2197  2.9461  0.2629
 8067SOL    HW235835   1.106   3.348   2.955 -0.9056  0.8369 -0.1011
 8068SOL     OW35836   4.587   2.896   6.607  0.3234  0.3131 -0.0269
 8068SOL    HW135837   4.566   2.989   6.606 -1.1751 -0.0151  0.2572
 8068SOL    HW235838   4.588   2.873   6.514 -1.6295  0.0852 -0.0034
 8069SOL     OW35839   3.250   4.033   1.816 -0.7986 -0.0889 -0.2830
 8069SOL    HW135840   3.160   4.004   1.803 -0.6860 -0.6433  0.1706
 8069SOL    HW235841   3.267   3.969   1.885  0.5842 -0.3666 -0.8988
 8070SOL     OW35842   2.265   4.689  13.503 -0.3050  0.2966  0.1579
 8070SOL    HW135843   2.244   4.599  13.478  0.3259 -0.2247  1.5006
 8070SOL    HW235844   2.271   4.730  13.417 -1.7081  2.3209  1.0291
 8071SOL     OW35845   2.597   1.493   4.842 -0.1332  0.1917  0.3505
 8071SOL    HW135846   2.673   1.439   4.862  1.9438  2.9685 -0.1422
 8071SOL    HW235847   2.637   1.577   4.822  1.7766 -0.5622  0.9823
 8072SOL     OW35848   4.124   1.894  16.665 -0.3078  0.5048  0.5584
 8072SOL    HW135849   4.213   1.879  16.697 -0.5134 -0.2361  0.7589
 8072SOL    HW235850   4.076   1.822  16.705  0.5832 -0.2796  0.2306
 8073SOL     OW35851   2.486   0.916  16.189 -0.5782 -0.4534  0.1757
 8073SOL    HW135852   2.568   0.964  16.177 -0.4458 -0.5756  0.6192
 8073SOL    HW235853   2.432   0.983  16.147 -0.0521 -0.6690 -0.8547
 8074SOL     OW35854   3.649   3.616   3.058  0.2584  0.5782 -0.4188
 8074SOL    HW135855   3.731   3.653   3.023  0.7929 -1.2939 -1.1675
 8074SOL    HW235856   3.672   3.523   3.052 -1.7660  0.0980 -0.4952
 8075SOL     OW35857   2.213   3.872  17.042  0.5083  0.0519  0.5047
 8075SOL    HW135858   2.210   3.867  16.946 -0.9687  2.5202  0.4057
 8075SOL    HW235859   2.304   3.851  17.061  0.5928  0.6770  0.7765
 8076SOL     OW35860   3.947   2.987   0.296  0.1592  0.0905  0.4525
 8076SOL    HW135861   3.911   2.979   0.384  0.0603 -1.2971  0.2864
 8076SOL    HW235862   3.871   2.965   0.241  1.3096 -0.3731 -0.9541
 8077SOL     OW35863   2.237   2.666   6.137  0.1089 -0.2626 -0.2980
 8077SOL    HW135864   2.238   2.762   6.140  1.0818 -0.2139 -1.8490
 8077SOL    HW235865   2.314   2.656   6.081  1.7220  1.4726  1.6298
 8078SOL     OW35866   1.289   0.273   7.434 -0.3425  0.0223 -0.1889
 8078SOL    HW135867   1.224   0.212   7.468  1.6582 -1.1303  1.5523
 8078SOL    HW235868   1.331   0.316   7.508  1.3367 -0.1094 -1.0605
 8079SOL     OW35869   3.334   0.516   4.775 -0.3541  0.6943 -0.1530
 8079SOL    HW135870   3.380   0.511   4.858  0.5994  0.2550 -0.7110
 8079SOL    HW235871   3.339   0.608   4.750 -1.3126  1.1188  1.2217
 8080SOL     OW35872   1.698   2.405   4.238  0.2161 -0.1198  0.0334
 8080SOL    HW135873   1.625   2.413   4.178 -0.8215 -0.5337  1.2314
 8080SOL    HW235874   1.751   2.482   4.216  1.2134 -1.0021 -0.6434
 8081SOL     OW35875   1.813   3.391  10.418  0.0232 -0.0145  0.3999
 8081SOL    HW135876   1.872   3.441  10.361 -0.2413 -1.2321 -0.9384
 8081SOL    HW235877   1.736   3.447  10.407 -0.2951 -0.9106 -1.9270
 8082SOL     OW35878   3.570   0.422  12.749  0.4241  0.7043 -0.2651
 8082SOL    HW135879   3.496   0.365  12.732  1.7315 -0.9689 -0.3526
 8082SOL    HW235880   3.594   0.391  12.837  2.1755  1.4178 -0.4759
 8083SOL     OW35881   2.898   0.745   7.601  0.2068  0.4379 -0.4513
 8083SOL    HW135882   2.860   0.792   7.526  2.2230  3.5568  0.4809
 8083SOL    HW235883   2.987   0.779   7.594 -0.1740  0.9361 -3.0251
 8084SOL     OW35884   3.521   1.577   5.921 -0.8844 -0.2215  0.3713
 8084SOL    HW135885   3.614   1.588   5.939 -0.9231 -0.0905  0.4877
 8084SOL    HW235886   3.487   1.560   6.009  1.6356 -1.3398  1.1380
 8085SOL     OW35887   3.274   2.576   3.293 -0.0982 -0.7016 -0.1732
 8085SOL    HW135888   3.279   2.623   3.209 -0.7587 -0.1206  0.1173
 8085SOL    HW235889   3.181   2.558   3.302 -0.2837  0.2629 -0.2381
 8086SOL     OW35890   4.610   4.047  14.022 -0.1819  0.4596  0.4213
 8086SOL    HW135891   4.525   4.089  14.010 -0.1399  0.2510 -0.6407
 8086SOL    HW235892   4.590   3.954  14.031 -2.2840  0.7872 -0.7542
 8087SOL     OW35893   0.459   2.221   5.340  0.2367 -0.3185  0.2632
 8087SOL    HW135894   0.433   2.311   5.363 -1.7184 -0.5880 -0.8942
 8087SOL    HW235895   0.508   2.240   5.260 -0.8865 -0.8319 -0.5446
 8088SOL     OW35896   2.524   3.444   5.896 -0.4241  0.6523 -0.0441
 8088SOL    HW135897   2.589   3.442   5.826  1.0378 -0.5674  1.3223
 8088SOL    HW235898   2.439   3.440   5.852  1.3612 -0.1265 -3.3810
 8089SOL     OW35899   1.177   0.689   9.936  0.2909  0.4173  0.1936
 8089SOL    HW135900   1.137   0.708  10.021 -0.5391 -2.1610  0.3869
 8089SOL    HW235901   1.125   0.750   9.884 -2.8547 -1.1266  1.5399
 8090SOL     OW35902   2.570   2.609  15.602  0.0438 -0.3796 -0.4503
 8090SOL    HW135903   2.661   2.602  15.573 -0.0186  0.4444 -0.8438
 8090SOL    HW235904   2.541   2.522  15.574  0.4793 -0.6872  0.0388
 8091SOL     OW35905   0.342   0.485   2.356  0.1579  0.0646 -0.1612
 8091SOL    HW135906   0.328   0.561   2.413  1.8424  0.3152 -0.0984
 8091SOL    HW235907   0.364   0.524   2.271 -0.8373 -0.3315 -0.6028
 8092SOL     OW35908   0.995   3.991  17.590  0.9349  0.5994  0.1605
 8092SOL    HW135909   0.993   4.077  17.549  0.1317  0.6029  0.2146
 8092SOL    HW235910   1.070   3.962  17.539 -0.4334 -0.3500 -1.3041
 8093SOL     OW35911   3.446   2.940  11.847  0.6029 -0.0378 -0.3837
 8093SOL    HW135912   3.506   2.881  11.893 -0.8399 -1.8936 -0.8997
 8093SOL    HW235913   3.478   2.937  11.756 -1.5219  0.9795 -1.1667
 8094SOL     OW35914   0.823   3.949   2.413  0.4199  0.6197  0.1798
 8094SOL    HW135915   0.908   3.993   2.418 -0.1205  1.5245  1.4572
 8094SOL    HW235916   0.849   3.880   2.352 -0.6697  0.2287  0.1527
 8095SOL     OW35917   3.372   2.325   4.657 -0.1373 -0.0113  0.1906
 8095SOL    HW135918   3.410   2.237   4.665 -4.1395 -1.5726  2.3984
 8095SOL    HW235919   3.399   2.358   4.743 -0.5978  0.8684  0.0040
 8096SOL     OW35920   3.613   2.204   7.741  0.1658  0.3276  0.4846
 8096SOL    HW135921   3.680   2.245   7.795  1.8652 -0.5497 -0.9783
 8096SOL    HW235922   3.569   2.156   7.811  2.2857 -1.3253  0.6687
 8097SOL     OW35923   4.474   2.579   4.317 -0.0607  0.1996  0.1151
 8097SOL    HW135924   4.567   2.600   4.326 -0.7269  2.5809  1.4230
 8097SOL    HW235925   4.443   2.652   4.264  0.1972  1.6567  1.9681
 8098SOL     OW35926   0.879   2.005   4.183  0.0861 -0.1787 -0.3386
 8098SOL    HW135927   0.842   2.044   4.104 -2.4327 -1.5356  0.1964
 8098SOL    HW235928   0.871   1.913   4.158  0.0836 -0.0358 -0.8773
 8099SOL     OW35929   3.643   0.883   2.276 -0.0661  0.1687  0.0527
 8099SOL    HW135930   3.706   0.836   2.331 -0.0870 -0.7735 -0.7070
 8099SOL    HW235931   3.568   0.824   2.286  0.6155 -0.3641  1.8667
 8100SOL     OW35932   1.927   0.430   6.793  0.1257 -0.0442 -0.2954
 8100SOL    HW135933   1.922   0.371   6.717 -1.3188 -0.9447  0.4908
 8100SOL    HW235934   1.923   0.514   6.749 -0.2822 -0.4755 -1.0867
 8101SOL     OW35935   1.302   4.138   9.892 -0.5770 -0.1473  0.0257
 8101SOL    HW135936   1.282   4.191   9.970 -0.7781 -0.7864  0.4153
 8101SOL    HW235937   1.215   4.110   9.862 -0.7457 -0.0067  0.3721
 8102SOL     OW35938   2.836   2.608   9.829 -0.7693  0.1823 -0.1085
 8102SOL    HW135939   2.793   2.545   9.771 -0.3727  1.0434 -1.3416
 8102SOL    HW235940   2.897   2.645   9.765 -0.4732 -1.0997 -0.5693
 8103SOL     OW35941   0.170   0.598   9.181  0.1889  0.0936 -0.1145
 8103SOL    HW135942   0.126   0.683   9.171  0.7716  0.5448  1.1896
 8103SOL    HW235943   0.218   0.610   9.263  0.3027  0.4317 -0.2302
 8104SOL     OW35944   3.412   2.307   3.304  0.1456  0.1744  0.7436
 8104SOL    HW135945   3.419   2.298   3.399 -1.5530  1.1550  0.9605
 8104SOL    HW235946   3.405   2.403   3.298 -1.0544 -0.0969 -2.3556
 8105SOL     OW35947   1.121   1.550   7.520 -0.3877 -0.3270  0.0415
 8105SOL    HW135948   1.127   1.503   7.603 -0.0833  2.3890  1.5674
 8105SOL    HW235949   1.071   1.625   7.553 -2.9776 -0.2355 -4.1613
 8106SOL     OW35950   1.480   2.722  14.074  0.2530 -0.1601 -0.4778
 8106SOL    HW135951   1.451   2.702  13.985  3.3281  2.0520 -1.9690
 8106SOL    HW235952   1.396   2.745  14.114  0.2541 -0.2150 -0.4444
 8107SOL     OW35953   4.027   1.501   2.788 -0.2784 -0.5133  0.1572
 8107SOL    HW135954   3.974   1.481   2.711  1.4026  0.1727 -1.1545
 8107SOL    HW235955   3.996   1.586   2.818 -0.7528 -0.7702  0.3997
 8108SOL     OW35956   3.084   1.524   4.212  0.2341 -0.1965 -0.1802
 8108SOL    HW135957   3.022   1.453   4.227  0.3034 -0.2862 -0.3143
 8108SOL    HW235958   3.157   1.481   4.257  1.2098 -0.2520 -1.7806
 8109SOL     OW35959   2.391   4.221   1.523 -0.6555 -0.2254 -0.7701
 8109SOL    HW135960   2.473   4.178   1.546 -0.2794  0.4466 -0.8484
 8109SOL    HW235961   2.353   4.155   1.465 -1.6621 -0.5040  0.2246
 8110SOL     OW35962   4.319   0.449   5.695  0.1398 -0.1272 -0.4753
 8110SOL    HW135963   4.270   0.453   5.613  0.4354 -1.4654 -0.7137
 8110SOL    HW235964   4.338   0.355   5.694 -2.1038 -0.5820  0.8202
 8111SOL     OW35965   1.890   2.444   5.513  0.2596 -0.1521  0.0001
 8111SOL    HW135966   1.870   2.437   5.606 -4.6217  0.4055 -1.0486
 8111SOL    HW235967   1.957   2.513   5.512 -0.6956  0.7699  0.2890
 8112SOL     OW35968   4.131   2.564   5.324  0.0547 -0.0838  0.7301
 8112SOL    HW135969   4.191   2.565   5.249  1.4874 -3.4125  1.8712
 8112SOL    HW235970   4.072   2.632   5.291 -0.6940 -0.0638  2.1441
 8113SOL     OW35971   2.855   2.828   3.453  0.3867  0.3451 -0.0352
 8113SOL    HW135972   2.859   2.920   3.425  1.0559  0.0786 -0.8231
 8113SOL    HW235973   2.904   2.827   3.536 -0.1063  0.5793  0.2608
 8114SOL     OW35974   0.221   0.526   5.229 -0.1477 -0.0761  0.0767
 8114SOL    HW135975   0.131   0.556   5.244  0.4204  2.1045 -0.7722
 8114SOL    HW235976   0.273   0.597   5.266  0.1499 -0.6131  0.6853
 8115SOL     OW35977   4.210   0.683  11.162  0.5262  0.8990  0.0612
 8115SOL    HW135978   4.211   0.632  11.243 -0.1944  2.5387  1.0955
 8115SOL    HW235979   4.297   0.667  11.125  1.1649  0.5539  1.7235
 8116SOL     OW35980   0.594   3.677  15.013 -0.1205  0.1763 -0.1932
 8116SOL    HW135981   0.506   3.712  14.999 -0.7427 -0.9697  0.8493
 8116SOL    HW235982   0.619   3.647  14.925 -0.6205 -2.2590  0.4971
 8117SOL     OW35983   4.207   4.447  15.250  0.3189 -0.0614  0.1378
 8117SOL    HW135984   4.276   4.509  15.274 -1.0847  1.4973  0.1210
 8117SOL    HW235985   4.235   4.363  15.285 -1.1259 -0.3456  0.5998
 8118SOL     OW35986   3.407   3.299   6.489 -0.0171 -0.1408 -0.5022
 8118SOL    HW135987   3.346   3.319   6.560  1.4739 -1.2352  1.0738
 8118SOL    HW235988   3.420   3.204   6.490 -0.7333 -0.2144  1.2894
 8119SOL     OW35989   3.537   4.250   3.690 -0.0233  0.3515 -0.1295
 8119SOL    HW135990   3.572   4.324   3.739 -0.6379 -1.0490  2.4509
 8119SOL    HW235991   3.490   4.303   3.626 -0.4013 -0.2843 -0.3790
 8120SOL     OW35992   4.211   1.071   1.744  0.2457  0.8125  0.4107
 8120SOL    HW135993   4.202   1.060   1.839 -0.7238 -0.7340  0.1372
 8120SOL    HW235994   4.130   1.031   1.713 -0.2372  0.6664  1.8596
 8121SOL     OW35995   4.117   0.175  12.327  0.4746 -0.5438 -0.6631
 8121SOL    HW135996   4.129   0.123  12.407  1.5169  0.5612 -0.0970
 8121SOL    HW235997   4.032   0.134  12.311 -0.0050 -0.0354  0.5590
 8122SOL     OW35998   3.677   1.016   6.841 -0.7693  0.2533 -0.2101
 8122SOL    HW135999   3.734   1.061   6.903  0.2371 -3.5438  1.6485
 8122SOL    HW236000   3.746   0.971   6.793 -1.8257  0.1711 -1.6307
 8123SOL     OW36001   0.641   0.959   8.113  0.2766 -0.1015  0.1895
 8123SOL    HW136002   0.565   0.916   8.151  1.2245 -2.3371 -0.4718
 8123SOL    HW236003   0.606   0.995   8.032  0.4203 -1.7777 -0.6110
 8124SOL     OW36004   2.368   4.590   7.348  0.3553 -0.2126  0.3957
 8124SOL    HW136005   2.288   4.589   7.400  0.3661 -3.3651  0.3098
 8124SOL    HW236006   2.436   4.549   7.401  1.8434  2.6596  0.7475
 8125SOL     OW36007   1.451   0.786  16.330  0.6193  0.2949 -0.1796
 8125SOL    HW136008   1.400   0.845  16.275  0.0874 -1.0775 -1.1651
 8125SOL    HW236009   1.524   0.843  16.353  0.5479 -0.1721  1.1969
 8126SOL     OW36010   1.727   4.706   7.458  0.0666  0.2199 -0.0908
 8126SOL    HW136011   1.810   4.720   7.504 -0.3718  0.9394  0.4803
 8126SOL    HW236012   1.690   4.625   7.493  1.5194 -0.4309 -0.0483
 8127SOL     OW36013   0.934   2.519   7.847  0.2955  0.4609  0.1885
 8127SOL    HW136014   0.897   2.476   7.770 -0.4564  2.4958 -0.5773
 8127SOL    HW236015   1.016   2.555   7.814  1.4073 -1.0971  1.2634
 8128SOL     OW36016   4.665   4.191  11.852  0.0620 -0.7111  0.5084
 8128SOL    HW136017   4.706   4.173  11.936  0.2356 -0.6281  0.4410
 8128SOL    HW236018   4.710   4.273  11.832  0.5180 -1.1374 -0.2137
 8129SOL     OW36019   4.115   1.091   6.827  0.2923  0.1723  0.4509
 8129SOL    HW136020   4.193   1.110   6.879  0.6020 -1.2804  0.5126
 8129SOL    HW236021   4.067   1.039   6.892 -2.0477  1.9602  0.1900
 8130SOL     OW36022   3.277   1.199  11.239 -0.6676  0.3119  0.1025
 8130SOL    HW136023   3.205   1.166  11.186 -1.7187 -1.6472  2.7081
 8130SOL    HW236024   3.329   1.123  11.268 -0.0135  1.0984  1.0202
 8131SOL     OW36025   1.766   2.537   1.660 -0.6802  0.3661 -0.2641
 8131SOL    HW136026   1.847   2.528   1.610 -0.0470  3.3376  0.1712
 8131SOL    HW236027   1.724   2.617   1.626 -0.3763  1.1985  1.2924
 8132SOL     OW36028   1.124   4.407  15.262  0.1707 -0.5779 -0.1983
 8132SOL    HW136029   1.096   4.488  15.219  0.7906 -0.3019 -0.0844
 8132SOL    HW236030   1.191   4.437  15.324 -0.9069  1.0654  0.1818
 8133SOL     OW36031   3.178   1.985   3.665  0.3129  0.0990  0.1722
 8133SOL    HW136032   3.143   1.898   3.648  0.6457 -0.1338  0.7008
 8133SOL    HW236033   3.107   2.048   3.676 -0.9160 -1.2419 -0.1435
 8134SOL     OW36034   1.832   0.880  10.416  0.2560 -0.0757  0.2332
 8134SOL    HW136035   1.833   0.788  10.442  0.0142 -0.3891 -0.8410
 8134SOL    HW236036   1.739   0.902  10.412  0.5124  0.8890 -0.3712
 8135SOL     OW36037   1.677   0.146  17.577 -0.0027  0.1649 -0.2760
 8135SOL    HW136038   1.695   0.210  17.509 -0.3827  2.5540  1.8538
 8135SOL    HW236039   1.764   0.140  17.617 -0.1719 -2.0971 -0.2379
 8136SOL     OW36040   0.514   3.776   7.364 -0.1762 -0.1529 -0.2453
 8136SOL    HW136041   0.599   3.760   7.323  0.9078  2.0047  1.1620
 8136SOL    HW236042   0.483   3.852   7.314  0.5500  0.3516  0.0744
 8137SOL     OW36043   2.131   0.880   7.839  0.1541  0.2496  0.0867
 8137SOL    HW136044   2.102   0.945   7.775 -1.8753 -1.0360 -0.3058
 8137SOL    HW236045   2.052   0.826   7.839  0.5304 -0.2925 -0.3965
 8138SOL     OW36046   1.757   2.669   6.638  0.2663  0.1236  0.0504
 8138SOL    HW136047   1.715   2.642   6.556 -0.1186  1.5095 -0.2061
 8138SOL    HW236048   1.684   2.680   6.700 -0.8220  1.5366 -1.4971
 8139SOL     OW36049   4.735   3.001  12.646  0.5776  0.0275  0.1011
 8139SOL    HW136050   4.692   3.069  12.593 -1.8363  0.6620  2.8828
 8139SOL    HW236051   0.076   3.045  12.668  0.4714  0.3373 -0.1265
 8140SOL     OW36052   1.985   0.733   0.049  0.3788  0.0520 -0.4157
 8140SOL    HW136053   1.969   0.691   0.134 -0.0306  0.2861 -0.3775
 8140SOL    HW236054   2.033   0.804   0.092 -1.5343  1.8875 -1.2868
 8141SOL     OW36055   0.697   2.114   9.773 -0.2083  0.4133  0.1587
 8141SOL    HW136056   0.737   2.201   9.783  0.6872  0.0184 -0.0123
 8141SOL    HW236057   0.735   2.071   9.850  0.6153 -0.4646 -0.7392
 8142SOL     OW36058   3.883   0.225  14.178  0.2008  0.4379  0.0033
 8142SOL    HW136059   3.834   0.305  14.161 -0.3343 -0.0062 -0.5563
 8142SOL    HW236060   3.824   0.154  14.152  0.9563  0.1759 -1.0070
 8143SOL     OW36061   3.630   1.326   3.373  0.7276  0.4144 -0.5329
 8143SOL    HW136062   3.622   1.412   3.332  0.2739  0.3688 -0.5405
 8143SOL    HW236063   3.550   1.317   3.426  1.2631 -0.4267  0.1303
 8144SOL     OW36064   0.839   3.719   8.537 -0.0720 -0.6664 -0.6755
 8144SOL    HW136065   0.820   3.730   8.630 -1.8588 -1.1923 -0.9670
 8144SOL    HW236066   0.920   3.668   8.541  0.8176  0.9647  1.8028
 8145SOL     OW36067   1.126   1.446   4.474  0.6437  0.9707 -0.2009
 8145SOL    HW136068   1.064   1.384   4.511 -0.0349  0.5874 -1.9556
 8145SOL    HW236069   1.181   1.460   4.551 -1.2202  1.6375  1.0042
 8146SOL     OW36070   2.179   4.362   1.596  0.5888 -0.1517  0.7041
 8146SOL    HW136071   2.251   4.347   1.535 -1.3220 -2.2075 -1.0342
 8146SOL    HW236072   2.199   4.300   1.666  1.1497 -1.0805 -0.2804
 8147SOL     OW36073   0.776   4.551   2.766  0.4194  0.3017 -0.2482
 8147SOL    HW136074   0.692   4.521   2.733  0.3101 -0.8509  1.0740
 8147SOL    HW236075   0.763   4.532   2.859  0.8659 -1.7787 -0.6104
 8148SOL     OW36076   1.545   1.757   2.653 -0.0027 -0.2468  0.9111
 8148SOL    HW136077   1.485   1.698   2.699 -0.1294  0.5242  1.7454
 8148SOL    HW236078   1.504   1.756   2.567  1.4032  1.1483  0.2293
 8149SOL     OW36079   2.245   3.169  11.717 -0.0186 -0.5153 -0.5929
 8149SOL    HW136080   2.326   3.175  11.665 -1.2733  1.3248 -2.3065
 8149SOL    HW236081   2.195   3.247  11.695 -0.0852  0.0485  1.5394
 8150SOL     OW36082   1.911   1.835  10.054  0.3161 -0.5582  0.0196
 8150SOL    HW136083   1.909   1.806   9.962  0.8896  1.5510 -0.6573
 8150SOL    HW236084   1.892   1.752  10.097 -1.8783  0.3886  0.8826
 8151SOL     OW36085   0.478   1.769   6.784 -0.3272  0.4805 -0.1207
 8151SOL    HW136086   0.414   1.708   6.820 -0.1242  0.5766  0.3926
 8151SOL    HW236087   0.489   1.730   6.697  0.2282  0.2316  0.0674
 8152SOL     OW36088   3.489   2.940   5.075 -0.6550 -0.4119 -0.2290
 8152SOL    HW136089   3.399   2.964   5.099 -0.6139 -1.5500  1.0843
 8152SOL    HW236090   3.498   2.971   4.985  1.8607  1.2385  0.5774
 8153SOL     OW36091   3.733   0.107   7.799  0.2153  0.2492  0.6105
 8153SOL    HW136092   3.783   0.029   7.826  2.2781  1.7739  1.2477
 8153SOL    HW236093   3.655   0.089   7.851 -1.2209  1.1064 -1.2777
 8154SOL     OW36094   3.674   1.020  13.435 -0.8351  0.2211  0.0072
 8154SOL    HW136095   3.702   1.070  13.512 -0.3453  0.1940 -0.1577
 8154SOL    HW236096   3.607   1.079  13.400 -0.2204  1.3872  0.7899
 8155SOL     OW36097   2.364   2.891   4.928 -0.4113 -0.2240 -0.1265
 8155SOL    HW136098   2.390   2.981   4.951  0.4981 -0.5026 -0.0799
 8155SOL    HW236099   2.285   2.877   4.981 -0.9651 -0.0375 -0.9037
 8156SOL     OW36100   2.584   2.455  15.927  0.0827  0.1361 -0.2978
 8156SOL    HW136101   2.570   2.395  16.000 -0.5641  0.2514 -0.3190
 8156SOL    HW236102   2.638   2.390  15.882 -1.2265 -0.9890 -0.2289
 8157SOL     OW36103   2.620   1.931   0.977  0.1659 -0.3742 -0.2726
 8157SOL    HW136104   2.692   1.868   0.967  2.5423  2.2606  0.2866
 8157SOL    HW236105   2.637   1.992   0.905  0.0985  1.2460  1.0868
 8158SOL     OW36106   2.835   0.691   3.469 -0.7693 -0.2411 -0.1211
 8158SOL    HW136107   2.800   0.640   3.541 -2.1571  0.5707 -0.2112
 8158SOL    HW236108   2.867   0.618   3.416 -1.3453  1.3690 -2.7224
 8159SOL     OW36109   3.772   0.925   6.494  0.1254  0.2482  0.1563
 8159SOL    HW136110   3.801   0.872   6.419 -1.1552  1.5312 -1.2482
 8159SOL    HW236111   3.837   0.994   6.482 -0.9381  1.5467  1.9860
 8160SOL     OW36112   3.753   4.263   1.618  0.4932 -0.5135 -0.1800
 8160SOL    HW136113   3.824   4.200   1.606  1.1219 -0.4831  3.6420
 8160SOL    HW236114   3.679   4.203   1.624  2.1534 -2.3973  1.1522
 8161SOL     OW36115   2.827   0.127   1.706  0.3908  0.5829  0.4663
 8161SOL    HW136116   2.886   0.062   1.668 -0.5101  0.6804 -1.0616
 8161SOL    HW236117   2.845   0.201   1.649  0.6895  0.0277 -0.1532
 8162SOL     OW36118   0.563   2.147   7.666  0.4889 -0.5003  0.0545
 8162SOL    HW136119   0.528   2.213   7.605  1.8028  0.7264  0.6292
 8162SOL    HW236120   0.656   2.161   7.653  0.5631 -0.1802  0.9185
 8163SOL     OW36121   0.718   2.125  10.495  0.0182  0.0666  0.1063
 8163SOL    HW136122   0.768   2.052  10.457  1.0973  1.0103 -0.2775
 8163SOL    HW236123   0.691   2.097  10.582  0.8101 -0.3187  0.2299
 8164SOL     OW36124   0.308   4.440   8.529  0.0380 -0.2903 -0.5128
 8164SOL    HW136125   0.325   4.533   8.514 -1.1650  0.3909  2.2148
 8164SOL    HW236126   0.335   4.439   8.621  2.4646 -1.1094 -1.2299
 8165SOL     OW36127   0.601   1.468   5.549  0.0883 -0.1099  0.0599
 8165SOL    HW136128   0.658   1.534   5.589 -0.5475  0.3981  0.1285
 8165SOL    HW236129   0.522   1.477   5.602  1.4320  2.5522  1.6220
 8166SOL     OW36130   2.686   3.509   9.642  0.1120 -0.8471 -0.4074
 8166SOL    HW136131   2.742   3.555   9.704 -1.4053 -0.5991  0.7742
 8166SOL    HW236132   2.680   3.418   9.670 -1.4349  0.3414  3.1154
 8167SOL     OW36133   0.540   2.306  15.962  0.3691 -0.1447 -0.5285
 8167SOL    HW136134   0.492   2.266  15.889  0.2906 -0.4970 -0.2866
 8167SOL    HW236135   0.475   2.359  16.008  0.8685 -0.6084  0.7333
 8168SOL     OW36136   2.124   1.448   2.123 -0.3911 -0.1941 -0.3468
 8168SOL    HW136137   2.139   1.448   2.029 -1.9159 -0.3923 -0.5908
 8168SOL    HW236138   2.139   1.356   2.142  1.7318  0.0802 -0.7397
 8169SOL     OW36139   2.569   0.453   6.426  0.2017 -0.0740  0.4831
 8169SOL    HW136140   2.500   0.438   6.362  0.0671  0.2029  0.5593
 8169SOL    HW236141   2.621   0.373   6.433 -0.0297 -0.1814  1.0514
 8170SOL     OW36142   4.468   1.489   8.210 -0.0612 -0.2616  0.1453
 8170SOL    HW136143   4.480   1.539   8.130 -0.1814  0.6634  0.7139
 8170SOL    HW236144   4.560   1.482   8.235  0.3073  0.7360 -0.9837
 8171SOL     OW36145   0.355   2.507  16.115 -0.1222 -0.1027  0.1509
 8171SOL    HW136146   0.430   2.567  16.119 -0.9974  0.9449  0.9026
 8171SOL    HW236147   0.302   2.556  16.052 -0.9737 -0.6915  0.4113
 8172SOL     OW36148   1.763   2.469  13.466 -0.8060  0.4833  0.8388
 8172SOL    HW136149   1.746   2.530  13.395  1.7687  1.5520  1.1357
 8172SOL    HW236150   1.734   2.389  13.423  1.8785  0.8430 -1.6287
 8173SOL     OW36151   3.885   1.238   5.868  0.0786  0.2534  0.0872
 8173SOL    HW136152   3.867   1.167   5.930 -0.6400 -0.2772 -0.7313
 8173SOL    HW236153   3.980   1.230   5.873  0.0060 -0.1604  0.7855
 8174SOL     OW36154   3.686   2.855  14.539  0.0637 -0.6918 -0.3338
 8174SOL    HW136155   3.644   2.778  14.501  1.3585 -1.0795 -0.9984
 8174SOL    HW236156   3.646   2.934  14.502 -0.4889 -0.5985  0.4619
 8175SOL     OW36157   0.884   1.053   6.514 -0.5805  0.3281  0.2650
 8175SOL    HW136158   0.854   1.020   6.429  0.5408 -0.7365  0.2838
 8175SOL    HW236159   0.897   0.965   6.549 -0.4186  0.1984 -0.1244
 8176SOL     OW36160   2.717   4.011   4.194 -0.3562  0.0066 -0.3734
 8176SOL    HW136161   2.771   4.081   4.230 -0.4056 -0.7052  1.0462
 8176SOL    HW236162   2.760   3.984   4.113  0.4971 -1.3135  0.5240
 8177SOL     OW36163   2.559   4.275  16.262  0.0403 -0.6693 -0.2972
 8177SOL    HW136164   2.588   4.303  16.175  0.8720  0.6561  0.4172
 8177SOL    HW236165   2.614   4.197  16.271 -0.9042 -1.1338  1.4340
 8178SOL     OW36166   3.604   2.108   1.891 -0.3642 -0.2661 -0.1427
 8178SOL    HW136167   3.583   2.100   1.798  3.1946  0.9900 -1.0471
 8178SOL    HW236168   3.517   2.107   1.932  0.1933  0.6444  1.0737
 8179SOL     OW36169   0.315   1.937   2.286 -0.0922  0.5006  0.2958
 8179SOL    HW136170   0.387   1.884   2.251  0.3954  0.6033  1.1260
 8179SOL    HW236171   0.304   2.001   2.216  0.4076  0.2674  0.0033
 8180SOL     OW36172   2.149   3.928   0.555 -0.4158 -0.1516  0.2949
 8180SOL    HW136173   2.161   3.841   0.517  1.3909  1.5178 -3.0163
 8180SOL    HW236174   2.241   3.954   0.561 -0.6374  0.2312  1.9191
 8181SOL     OW36175   0.563   2.393   2.966 -0.0009 -0.1146  0.2540
 8181SOL    HW136176   0.508   2.419   2.892 -0.6532 -2.2882 -0.0436
 8181SOL    HW236177   0.607   2.476   2.985 -0.8199  1.2961 -4.0339
 8182SOL     OW36178   4.438   2.999   1.486 -0.3620  0.0727 -0.3917
 8182SOL    HW136179   4.455   3.072   1.545 -2.5892 -0.0855  0.4621
 8182SOL    HW236180   4.363   2.952   1.523  1.0316  0.4940  2.9246
 8183SOL     OW36181   0.269   4.682   7.384 -0.1730  0.1248 -0.0967
 8183SOL    HW136182   0.266   0.028   7.425  0.0300 -0.4987  1.2592
 8183SOL    HW236183   0.335   4.706   7.320 -0.2951  0.4772 -0.0889
 8184SOL     OW36184   2.699   2.998   3.158 -0.2654  0.1026  0.0714
 8184SOL    HW136185   2.633   3.044   3.106  0.3303 -0.7776 -1.4696
 8184SOL    HW236186   2.711   3.039   3.244  0.8938 -0.4482  0.1693
 8185SOL     OW36187   0.267   3.007   8.227 -0.7739 -0.2039  0.0322
 8185SOL    HW136188   0.238   3.098   8.225  0.2253  0.1001 -0.7625
 8185SOL    HW236189   0.243   2.973   8.313  0.5083  0.6613  0.7363
 8186SOL     OW36190   4.656   4.701   5.920  0.0684  0.3038  0.0588
 8186SOL    HW136191   4.593   4.738   5.982 -0.6501 -0.7269 -0.0544
 8186SOL    HW236192   4.673   0.040   5.869 -0.7546 -0.3182 -1.1900
 8187SOL     OW36193   2.846   4.482  15.902  0.3998 -0.2785 -0.2286
 8187SOL    HW136194   2.877   4.506  15.814  1.9994  2.0726  0.9892
 8187SOL    HW236195   2.892   4.547  15.955 -1.6518 -0.9285  2.3641
 8188SOL     OW36196   4.250   2.392   1.632 -0.3334 -0.0468 -0.0398
 8188SOL    HW136197   4.301   2.343   1.567 -0.2517 -1.7997  1.3375
 8188SOL    HW236198   4.260   2.335   1.709 -1.3223 -0.0768  0.0643
 8189SOL     OW36199   2.855   2.728   8.977  0.5344 -0.0986  0.1637
 8189SOL    HW136200   2.834   2.788   8.905  0.3858  1.2783  1.3420
 8189SOL    HW236201   2.876   2.789   9.048  1.1591  0.4892 -0.5272
 8190SOL     OW36202   1.669   0.251  16.570  0.2116 -0.5665 -0.5973
 8190SOL    HW136203   1.579   0.234  16.542 -0.2789  0.0295  0.6063
 8190SOL    HW236204   1.714   0.202  16.501  0.0610 -0.6020 -0.6687
 8191SOL     OW36205   3.272   3.542   3.081  0.1300 -0.0151  0.4035
 8191SOL    HW136206   3.280   3.583   3.167 -1.8817  2.7354 -0.6812
 8191SOL    HW236207   3.358   3.504   3.069 -1.1050 -2.0397 -1.9079
 8192SOL     OW36208   0.291   2.513   9.636  0.1672 -0.1131 -0.3373
 8192SOL    HW136209   0.269   2.420   9.647  0.3287 -0.1255 -0.1190
 8192SOL    HW236210   0.245   2.558   9.707  2.1526  0.5003  0.5604
 8193SOL     OW36211   1.746   2.840   5.523  0.2239 -0.8277  0.3827
 8193SOL    HW136212   1.713   2.758   5.558 -0.0182 -0.6478  0.5756
 8193SOL    HW236213   1.676   2.904   5.532  1.6799  0.5645  1.7109
 8194SOL     OW36214   0.782   0.735   8.509 -0.4782 -0.1079  0.6620
 8194SOL    HW136215   0.859   0.703   8.555  0.5895  0.2036 -0.9021
 8194SOL    HW236216   0.791   0.827   8.533 -0.5937  0.0282  0.1763
 8195SOL     OW36217   3.909   3.304   7.473 -0.7905  0.7633 -0.1863
 8195SOL    HW136218   3.959   3.240   7.423  1.5532  1.4046  1.3569
 8195SOL    HW236219   3.843   3.327   7.408  0.0332  2.4705 -0.4089
 8196SOL     OW36220   2.835   0.599   8.592  0.0131 -0.3332  0.0435
 8196SOL    HW136221   2.929   0.611   8.607 -0.3434  1.3401  0.9516
 8196SOL    HW236222   2.792   0.641   8.667 -2.9364 -3.7382  0.2060
 8197SOL     OW36223   0.908   4.309   1.045 -0.3477 -0.2461  0.2758
 8197SOL    HW136224   0.979   4.370   1.060 -1.3324  1.1362 -0.7032
 8197SOL    HW236225   0.953   4.225   1.034 -0.2809  0.0367 -1.7438
 8198SOL     OW36226   1.924   3.880   1.909  0.3975 -0.4510 -0.3711
 8198SOL    HW136227   1.900   3.795   1.947 -2.0163  2.0045  3.6069
 8198SOL    HW236228   1.860   3.893   1.840 -0.2323  1.5968  0.6049
 8199SOL     OW36229   4.529   4.133  17.317  0.0301 -0.0290 -0.4098
 8199SOL    HW136230   4.624   4.131  17.326 -0.0985 -0.5239  0.8877
 8199SOL    HW236231   4.498   4.164  17.402  0.1239 -0.6865 -0.1380
 8200SOL     OW36232   0.114   2.481   2.560  0.6901 -0.3520  0.2743
 8200SOL    HW136233   0.079   2.416   2.621 -0.8107 -0.0156 -0.2285
 8200SOL    HW236234   0.102   2.445   2.472 -1.1613 -1.5650  1.0401
 8201SOL     OW36235   1.220   4.425  13.546  0.1640  0.1050 -0.4456
 8201SOL    HW136236   1.200   4.334  13.524  0.0458 -0.2796  1.2383
 8201SOL    HW236237   1.309   4.430  13.512  1.5029 -0.8280  2.9118
 8202SOL     OW36238   3.023   2.574   4.105  0.8141 -0.5032  0.6239
 8202SOL    HW136239   2.993   2.528   4.183 -1.1735  0.2651  0.3141
 8202SOL    HW236240   3.036   2.662   4.139  0.0670 -0.5620  1.0562
 8203SOL     OW36241   2.806   3.398   7.220  0.3450 -0.4652  0.1277
 8203SOL    HW136242   2.800   3.302   7.222 -1.8064 -0.3323  0.0807
 8203SOL    HW236243   2.842   3.404   7.132 -0.2480 -4.0569 -0.3655
 8204SOL     OW36244   3.884   1.448   5.441  0.2310  0.1133 -0.3397
 8204SOL    HW136245   3.808   1.496   5.476  0.5416  0.3602 -0.0017
 8204SOL    HW236246   3.933   1.437   5.523 -1.7443  0.6265  0.9339
 8205SOL     OW36247   2.674   0.002  15.620  0.4428 -0.2455 -0.0577
 8205SOL    HW136248   2.655   0.093  15.596  3.1607 -0.3786 -2.8247
 8205SOL    HW236249   2.647   0.002  15.711  1.7040 -2.0995  0.3181
 8206SOL     OW36250   3.516   1.344   5.451  0.6638  0.6142  0.1051
 8206SOL    HW136251   3.526   1.337   5.545 -1.2401  1.2423  0.3564
 8206SOL    HW236252   3.498   1.438   5.456 -1.0092  0.2114  1.2630
 8207SOL     OW36253   2.618   0.817  16.634 -0.0177 -0.2241  0.6642
 8207SOL    HW136254   2.549   0.793  16.572  0.9122  1.2545 -0.9299
 8207SOL    HW236255   2.696   0.803  16.581  1.4669  1.8165  2.2978
 8208SOL     OW36256   3.561   2.198   4.014  0.0289 -0.2932  0.8553
 8208SOL    HW136257   3.576   2.117   3.965  0.3393  0.7766 -0.7975
 8208SOL    HW236258   3.611   2.172   4.092  0.8078 -2.2339 -0.2998
 8209SOL     OW36259   2.214   1.280  13.091 -0.3073  0.0660  0.3100
 8209SOL    HW136260   2.269   1.356  13.113 -0.1447  0.3011 -0.9272
 8209SOL    HW236261   2.176   1.299  13.005 -2.6679 -0.0704  1.3219
 8210SOL     OW36262   4.497   1.220   9.402 -0.0465 -0.9909 -0.2409
 8210SOL    HW136263   4.475   1.209   9.309  3.6796 -2.5364 -0.9336
 8210SOL    HW236264   4.553   1.143   9.414  0.0893 -0.6388  1.3573
 8211SOL     OW36265   3.648   4.221  13.375 -0.3324  0.0339  0.4172
 8211SOL    HW136266   3.599   4.264  13.305  1.0568 -1.8231 -1.6931
 8211SOL    HW236267   3.735   4.260  13.366 -0.4714  1.1905  4.0658
 8212SOL     OW36268   1.838   1.181  11.547  0.4962  0.1954 -0.2677
 8212SOL    HW136269   1.904   1.149  11.486  0.6109  2.6235 -1.3880
 8212SOL    HW236270   1.882   1.254  11.590 -1.3027  0.1642  1.6688
 8213SOL     OW36271   4.693   2.424   0.498  0.5518 -0.0436  0.0498
 8213SOL    HW136272   4.652   2.498   0.453  2.6161  0.4120 -1.1170
 8213SOL    HW236273   4.624   2.389   0.553 -0.6446  3.3782  0.7486
 8214SOL     OW36274   0.204   4.669  15.398 -0.3085  0.2089 -0.6607
 8214SOL    HW136275   0.233   4.584  15.366 -1.2229  0.5116 -2.3010
 8214SOL    HW236276   0.116   4.639  15.420  0.1915  0.5312  1.7424
 8215SOL     OW36277   0.024   4.133   6.711 -0.3057 -0.2521  0.2010
 8215SOL    HW136278   4.697   4.065   6.708 -0.4603 -0.1493  1.7405
 8215SOL    HW236279   4.717   4.204   6.668 -0.4095 -0.6523 -0.3496
 8216SOL     OW36280   0.161   0.067  16.276 -0.0691 -0.2046  0.2236
 8216SOL    HW136281   0.252   0.057  16.304  0.2559 -0.1492 -0.8245
 8216SOL    HW236282   0.134   0.092  16.365 -0.2513  0.4418 -0.0120
 8217SOL     OW36283   4.253   3.407   3.687  0.4382  0.3629 -0.6228
 8217SOL    HW136284   4.302   3.324   3.682  0.0074  0.1822 -1.8655
 8217SOL    HW236285   4.177   3.386   3.741  0.6727 -0.8942 -0.7735
 8218SOL     OW36286   0.029   3.946   0.284 -0.7181 -0.3817  0.0480
 8218SOL    HW136287   4.729   4.012   0.229 -2.3605 -1.8093 -0.4247
 8218SOL    HW236288   0.011   3.981   0.372 -0.8895 -3.7242  1.3636
 8219SOL     OW36289   0.990   4.453   5.107  0.0119 -0.4282 -0.4625
 8219SOL    HW136290   0.997   4.377   5.164 -1.8920  0.0156  0.3532
 8219SOL    HW236291   1.017   4.412   5.025 -0.5845 -1.3150 -0.2151
 8220SOL     OW36292   2.323   2.937   2.074 -0.7040 -0.1583 -0.0968
 8220SOL    HW136293   2.268   2.889   2.136 -0.5151  0.4029  0.4978
 8220SOL    HW236294   2.272   3.018   2.076  1.2104  1.0259  0.4295
 8221SOL     OW36295   4.690   4.332  10.012  0.1183 -0.0714  0.4163
 8221SOL    HW136296   0.038   4.324  10.048 -0.7975 -1.0716  2.4403
 8221SOL    HW236297   4.657   4.243  10.023  0.6238 -0.3192 -0.0999
 8222SOL     OW36298   2.149   0.463   5.787  0.4285  0.6077 -0.2832
 8222SOL    HW136299   2.169   0.555   5.770  0.3669  0.3411 -1.8305
 8222SOL    HW236300   2.203   0.418   5.721  1.0518 -1.1517  1.4127
 8223SOL     OW36301   0.822   0.683   7.827  0.6322  0.3098 -0.2855
 8223SOL    HW136302   0.902   0.732   7.808 -0.3132  1.7911 -0.4308
 8223SOL    HW236303   0.851   0.641   7.908 -2.2518  0.0381  0.6185
 8224SOL     OW36304   1.329   1.526  12.705 -0.1559 -0.7598 -0.1347
 8224SOL    HW136305   1.421   1.500  12.710  0.2038  0.0507 -2.5147
 8224SOL    HW236306   1.336   1.620  12.719 -1.1134 -0.5891 -0.8573
 8225SOL     OW36307   2.403   0.899  16.954  0.0429  0.2179 -0.5354
 8225SOL    HW136308   2.478   0.852  16.990  1.0202  1.8530 -0.4139
 8225SOL    HW236309   2.443   0.986  16.953  1.4134 -0.4214 -1.3377
 8226SOL     OW36310   4.384   0.876   7.936  0.2223 -0.5903 -0.1922
 8226SOL    HW136311   4.329   0.935   7.884  1.5996 -0.8745 -1.9662
 8226SOL    HW236312   4.462   0.862   7.882 -1.3107 -0.5883 -2.3952
 8227SOL     OW36313   4.049   4.384  17.296 -0.3723 -0.2446  0.3140
 8227SOL    HW136314   4.014   4.360  17.211  0.5796 -2.2592  0.4904
 8227SOL    HW236315   4.135   4.344  17.284 -0.0252  0.2587  1.0929
 8228SOL     OW36316   2.214   1.944   3.138  0.7330 -0.2065  0.7731
 8228SOL    HW136317   2.170   2.010   3.191  0.7808  3.7810 -4.1296
 8228SOL    HW236318   2.302   1.982   3.140  0.5386  0.1543  2.4375
 8229SOL     OW36319   2.431   0.857  16.433  0.5236 -0.3328  0.1106
 8229SOL    HW136320   2.464   0.882  16.347  1.7255 -2.3437 -0.0217
 8229SOL    HW236321   2.338   0.849  16.416  0.1842  1.4255  1.2031
 8230SOL     OW36322   4.603   1.017  15.892  0.0480  0.0291 -0.2939
 8230SOL    HW136323   4.611   1.104  15.853 -0.0357 -0.0201 -0.4205
 8230SOL    HW236324   4.512   1.021  15.923 -0.2639 -0.2711 -1.1581
 8231SOL     OW36325   3.872   0.225   1.441 -0.4333 -0.6444  0.1830
 8231SOL    HW136326   3.966   0.207   1.448 -0.1765  1.0436  0.9268
 8231SOL    HW236327   3.881   0.299   1.381  0.4572 -0.9348 -0.0366
 8232SOL     OW36328   4.460   0.098  14.323  0.6674 -0.5766  0.1527
 8232SOL    HW136329   4.526   0.048  14.372  0.3576 -0.9823  0.1561
 8232SOL    HW236330   4.497   0.187  14.324 -0.8645  0.0225  2.5936
 8233SOL     OW36331   1.091   0.157   5.182  0.3181  0.1724  0.1152
 8233SOL    HW136332   1.048   0.203   5.254  0.0089 -0.7429  0.5140
 8233SOL    HW236333   1.019   0.111   5.138 -0.4245  0.4444  1.0600
 8234SOL     OW36334   0.728   0.808   5.013 -0.3067  0.1468  0.4818
 8234SOL    HW136335   0.649   0.855   5.041 -0.8045 -0.9356  0.9112
 8234SOL    HW236336   0.740   0.757   5.093  0.3907  0.4028  0.5352
 8235SOL     OW36337   3.792   0.832   5.513 -0.1217  0.2808 -0.2815
 8235SOL    HW136338   3.781   0.859   5.605 -0.4171 -0.3582 -0.1272
 8235SOL    HW236339   3.700   0.852   5.492 -0.7422 -4.1166 -1.6585
 8236SOL     OW36340   4.633   1.988  17.310 -0.4075 -0.4358 -0.0629
 8236SOL    HW136341   4.691   1.993  17.386 -0.3201  1.2448 -0.2265
 8236SOL    HW236342   4.595   2.075  17.323  0.5983 -0.1691  1.0334
 8237SOL     OW36343   1.735   1.089  14.467  0.5042 -0.2262  0.2666
 8237SOL    HW136344   1.646   1.105  14.437  0.4126 -0.6532  0.3092
 8237SOL    HW236345   1.762   1.017  14.410  1.9141  0.6811 -0.2146
 8238SOL     OW36346   2.543   4.316   0.677 -0.1914  0.2066 -0.7292
 8238SOL    HW136347   2.592   4.233   0.674  0.6125  0.6395  0.3129
 8238SOL    HW236348   2.561   4.342   0.768 -0.0969  1.9761 -1.2496
 8239SOL     OW36349   4.377   2.209   5.159  0.8454 -0.4344 -0.6444
 8239SOL    HW136350   4.394   2.124   5.200 -1.6813 -0.7885 -0.3383
 8239SOL    HW236351   4.302   2.200   5.101  0.4257  0.4550 -0.2314
 8240SOL     OW36352   1.293   2.917  10.870 -0.0345  0.3945 -0.4572
 8240SOL    HW136353   1.217   2.936  10.815  0.7024 -0.0128 -1.6100
 8240SOL    HW236354   1.349   2.991  10.846  0.1657 -0.0681 -1.4098
 8241SOL     OW36355   4.324   1.819   8.973  0.7088 -0.5382  0.1529
 8241SOL    HW136356   4.257   1.751   8.980 -2.0389  1.9008 -2.5794
 8241SOL    HW236357   4.393   1.786   8.916 -0.3902  0.1646 -1.5724
 8242SOL     OW36358   3.744   4.144   1.896  0.1033  0.4026 -0.2676
 8242SOL    HW136359   3.729   4.127   1.989  0.9710  0.5804 -0.0903
 8242SOL    HW236360   3.739   4.060   1.851  0.7308 -0.9512  2.1713
 8243SOL     OW36361   3.626   3.989  10.635 -0.5774 -0.7818  0.3954
 8243SOL    HW136362   3.548   4.006  10.689  0.5838 -1.2723  2.2412
 8243SOL    HW236363   3.698   4.034  10.679  1.7101 -1.6301 -2.5545
 8244SOL     OW36364   4.266   4.071   1.911  0.1388 -0.2261  0.3532
 8244SOL    HW136365   4.201   4.041   1.975 -0.0160 -1.3133 -0.3156
 8244SOL    HW236366   4.214   4.120   1.848  0.1651 -0.5053  0.1149
 8245SOL     OW36367   4.449   3.043  12.811  0.0267  0.4663  0.5358
 8245SOL    HW136368   4.524   2.986  12.830  0.0573  0.3081 -0.0606
 8245SOL    HW236369   4.440   3.096  12.891  0.0146 -1.2680  1.6795
 8246SOL     OW36370   0.214   2.595   4.770  0.4063 -0.0793 -0.8525
 8246SOL    HW136371   0.178   2.668   4.721 -0.3657 -0.2696 -0.5756
 8246SOL    HW236372   0.141   2.534   4.779 -0.5339  1.2596  0.4863
 8247SOL     OW36373   3.687   1.389   9.816  0.0544  0.6619 -0.1317
 8247SOL    HW136374   3.617   1.368   9.753  2.6361 -0.6475 -2.5386
 8247SOL    HW236375   3.675   1.326   9.887  1.7632 -0.9754 -1.3124
 8248SOL     OW36376   2.776   2.014   7.623  0.0335 -0.3856 -0.7220
 8248SOL    HW136377   2.863   2.027   7.660 -0.3504  0.9563 -0.2732
 8248SOL    HW236378   2.732   1.993   7.705  0.8439  0.9320  0.0637
 8249SOL     OW36379   1.070   0.852   8.097  0.3042  0.0579 -0.7711
 8249SOL    HW136380   1.063   0.769   8.143  0.0040 -0.4169 -1.6654
 8249SOL    HW236381   1.117   0.830   8.016  0.3218 -1.8731 -0.2375
 8250SOL     OW36382   3.617   0.358   7.246 -0.1732 -0.4984  0.2854
 8250SOL    HW136383   3.565   0.356   7.165 -0.4763 -1.5580  0.4967
 8250SOL    HW236384   3.683   0.425   7.232 -2.4767  1.8150  0.5858
 8251SOL     OW36385   3.291   4.646   1.663 -0.9287  0.3132  0.4477
 8251SOL    HW136386   3.326   4.568   1.620  0.0951 -0.5552  2.8349
 8251SOL    HW236387   3.273   4.702   1.588  1.2792  0.7883  0.2816
 8252SOL     OW36388   1.545   1.507   1.390 -0.0318  0.4538  0.1606
 8252SOL    HW136389   1.587   1.427   1.359 -0.3341  0.9835 -1.6104
 8252SOL    HW236390   1.482   1.533   1.323  0.5508  0.9981 -0.1697
 8253SOL     OW36391   4.655   4.116   3.354 -0.0254 -0.5873 -0.0617
 8253SOL    HW136392   4.695   4.036   3.320 -2.4887 -1.8018 -0.0843
 8253SOL    HW236393   4.714   4.139   3.426  0.9991 -0.3274 -0.9812
 8254SOL     OW36394   1.183   1.849   1.600  0.0502 -0.0189 -0.2251
 8254SOL    HW136395   1.102   1.855   1.550  0.7170  0.2972 -1.2700
 8254SOL    HW236396   1.153   1.911   1.666 -2.5531 -1.2345 -0.2451
 8255SOL     OW36397   4.518   4.576   8.739  0.3828  0.8008  0.1579
 8255SOL    HW136398   4.581   4.505   8.724  2.0618  2.6294 -1.3958
 8255SOL    HW236399   4.476   4.534   8.814 -0.1055  1.3724  0.1994
 8256SOL     OW36400   4.208   2.433   4.268 -0.0132  0.1464  0.1095
 8256SOL    HW136401   4.204   2.454   4.175 -0.9974 -0.3368  0.0430
 8256SOL    HW236402   4.301   2.449   4.289  0.0443  0.1285 -0.1360
 8257SOL     OW36403   2.622   3.975   1.342  0.1383  0.3299 -0.1241
 8257SOL    HW136404   2.661   4.001   1.425 -2.9670  2.2440  0.7452
 8257SOL    HW236405   2.639   4.053   1.289  0.5454  0.1492 -0.2610
 8258SOL     OW36406   2.556   4.213   9.420  0.3983  0.3163  0.1941
 8258SOL    HW136407   2.477   4.203   9.367  0.0956  1.6244  0.3901
 8258SOL    HW236408   2.625   4.179   9.364 -1.1501 -1.3973 -0.6755
 8259SOL     OW36409   1.859   4.739   0.724  0.4059  0.7552  0.0694
 8259SOL    HW136410   1.917   0.026   0.794  0.2880 -1.0499  0.8644
 8259SOL    HW236411   1.794   0.068   0.734  0.7099  1.3214 -1.8805
 8260SOL     OW36412   3.108   1.688   4.683 -0.1928 -0.2792 -0.0629
 8260SOL    HW136413   3.148   1.764   4.641 -0.9804  0.8710  1.2760
 8260SOL    HW236414   3.026   1.677   4.634  0.2648 -1.7518 -0.5102
 8261SOL     OW36415   0.760   0.626  12.671  0.3588 -0.2263  0.0285
 8261SOL    HW136416   0.806   0.699  12.630 -1.4444  1.6028  1.3014
 8261SOL    HW236417   0.682   0.611  12.618 -0.3283 -2.0051  1.5125
 8262SOL     OW36418   4.061   2.859   4.447 -0.1217 -0.0002 -0.2131
 8262SOL    HW136419   4.084   2.768   4.468 -3.8339 -0.6672  0.9243
 8262SOL    HW236420   4.022   2.880   4.532  1.3906  1.0607  0.2232
 8263SOL     OW36421   0.751   3.794   4.100  0.2856 -0.0442  0.5730
 8263SOL    HW136422   0.814   3.786   4.171  0.4203 -1.0785  0.3318
 8263SOL    HW236423   0.679   3.834   4.149  0.1027 -0.3683  0.5732
 8264SOL     OW36424   0.020   2.816   5.823 -0.3640 -0.3014 -0.5003
 8264SOL    HW136425   0.035   2.905   5.791 -1.4182 -0.2352 -0.8163
 8264SOL    HW236426   0.095   2.768   5.788 -0.6981 -0.0038 -1.6218
 8265SOL     OW36427   0.417   0.538   3.870 -0.4322 -0.1876  0.6254
 8265SOL    HW136428   0.394   0.521   3.779  0.3050 -0.2638  0.4559
 8265SOL    HW236429   0.441   0.450   3.897  3.3578  0.1095 -1.8444
 8266SOL     OW36430   2.190   2.853   9.738 -0.0319  1.2062  0.3225
 8266SOL    HW136431   2.211   2.779   9.680 -2.1945 -1.1079  2.4685
 8266SOL    HW236432   2.125   2.821   9.800  0.6290  0.8680  0.8495
 8267SOL     OW36433   2.829   1.403   2.261  0.5655 -0.1243 -0.6045
 8267SOL    HW136434   2.776   1.478   2.235 -1.7934 -1.6843 -0.3306
 8267SOL    HW236435   2.831   1.359   2.176 -1.9075  0.2771 -0.8601
 8268SOL     OW36436   0.603   4.565   8.836 -0.3199  0.4753  0.3004
 8268SOL    HW136437   0.655   4.584   8.758 -0.4536 -0.6198 -0.0528
 8268SOL    HW236438   0.668   4.537   8.901 -1.2968 -2.8462 -0.1462
 8269SOL     OW36439   1.069   4.203   2.480  0.2118 -0.0524  0.0897
 8269SOL    HW136440   1.015   4.239   2.550  0.2026 -0.1784  0.1462
 8269SOL    HW236441   1.084   4.274   2.417 -1.9362 -0.0292 -0.3886
 8270SOL     OW36442   1.395   1.596   1.812  0.0630  0.1873 -0.1591
 8270SOL    HW136443   1.453   1.672   1.802 -0.4846  0.7354  0.8212
 8270SOL    HW236444   1.384   1.581   1.718 -1.3633  1.4072 -0.1934
 8271SOL     OW36445   3.544   1.017   4.419  0.5071  0.3778  0.5604
 8271SOL    HW136446   3.594   1.084   4.465  2.3352 -0.3063 -0.4205
 8271SOL    HW236447   3.586   0.998   4.335  0.0150 -0.9081  0.5970
 8272SOL     OW36448   1.166   3.098  10.012  0.4182  0.5586  0.1190
 8272SOL    HW136449   1.189   3.077   9.921 -1.9039  0.1633 -0.3705
 8272SOL    HW236450   1.102   3.166   9.994  0.8293  1.2134  1.1413
 8273SOL     OW36451   3.191   4.563  10.346 -0.3004 -0.1220  0.2874
 8273SOL    HW136452   3.270   4.596  10.391 -0.6431  0.7304  0.2509
 8273SOL    HW236453   3.218   4.563  10.255 -0.5160  1.5607  0.2296
 8274SOL     OW36454   0.789   0.969   8.693 -0.0070  0.4747  0.3678
 8274SOL    HW136455   0.851   1.039   8.710 -0.9641  1.7263 -1.3131
 8274SOL    HW236456   0.770   0.943   8.784 -0.2502 -0.8966 -0.0719
 8275SOL     OW36457   1.051   2.235   1.063  0.0863 -0.4222 -0.3395
 8275SOL    HW136458   1.061   2.305   1.128 -0.9292  0.4599 -1.1475
 8275SOL    HW236459   1.121   2.256   1.002  1.6171 -3.5610  0.3194
 8276SOL     OW36460   3.213   2.415  13.291  0.3467 -0.1670 -0.6085
 8276SOL    HW136461   3.182   2.328  13.269  1.3189 -0.1122 -2.1996
 8276SOL    HW236462   3.160   2.445  13.365  1.0996  0.9784 -0.5304
 8277SOL     OW36463   0.307   2.561   6.263 -0.8838 -0.1636  0.1849
 8277SOL    HW136464   0.354   2.533   6.341 -1.4597 -1.2430  0.1450
 8277SOL    HW236465   0.275   2.476   6.231 -1.2997  0.6501 -1.5263
 8278SOL     OW36466   0.486   1.653   8.761  0.0580  1.2503  0.2395
 8278SOL    HW136467   0.578   1.636   8.739 -0.4923  1.4079 -2.1701
 8278SOL    HW236468   0.487   1.641   8.856  0.4673  0.3152  0.1161
 8279SOL     OW36469   2.495   4.144  17.070  0.8186  0.2911 -0.2371
 8279SOL    HW136470   2.487   4.054  17.100 -1.1886  0.5651  0.0393
 8279SOL    HW236471   2.475   4.139  16.977  1.1353 -1.8073 -0.1957
 8280SOL     OW36472   4.494   2.528   8.865 -0.5947  0.1516 -0.0293
 8280SOL    HW136473   4.407   2.489   8.860 -0.4227 -0.0475 -1.5531
 8280SOL    HW236474   4.541   2.446   8.881 -1.8564 -0.3195  1.2631
 8281SOL     OW36475   1.979   0.999   7.633 -0.0098  0.0067 -0.1449
 8281SOL    HW136476   1.990   0.977   7.541  0.0114 -0.9092  0.0820
 8281SOL    HW236477   1.884   0.993   7.644  0.2213 -1.8442  0.7779
 8282SOL     OW36478   0.798   4.153  17.198  0.2504  0.2541  0.1019
 8282SOL    HW136479   0.824   4.074  17.152  0.2608 -0.1512  0.7963
 8282SOL    HW236480   0.762   4.206  17.127 -1.4731  0.6848  1.2851
 8283SOL     OW36481   1.365   0.121   4.724  0.8109 -0.2151  0.0771
 8283SOL    HW136482   1.369   0.028   4.705 -0.1460  0.1703 -2.0828
 8283SOL    HW236483   1.356   0.129   4.819 -3.5084 -1.3588 -0.2349
 8284SOL     OW36484   0.257   1.823   9.258 -0.1893 -0.5164  0.2145
 8284SOL    HW136485   0.211   1.812   9.342  0.6746  2.7477  1.1089
 8284SOL    HW236486   0.292   1.910   9.278 -0.5369 -0.9768  2.8252
 8285SOL     OW36487   0.692   1.924   6.882 -0.3536 -0.1017 -0.5890
 8285SOL    HW136488   0.612   1.889   6.842 -0.5780 -1.7202  1.2782
 8285SOL    HW236489   0.710   1.858   6.949 -0.2944 -0.1527 -0.6547
 8286SOL     OW36490   1.491   1.653   8.287  0.3691 -0.8391 -0.7462
 8286SOL    HW136491   1.420   1.601   8.248 -0.8865  1.0230 -0.9377
 8286SOL    HW236492   1.554   1.582   8.302  1.3120 -0.0623 -1.1177
 8287SOL     OW36493   1.508   4.177   5.745  0.0500 -0.9355  0.4907
 8287SOL    HW136494   1.470   4.264   5.739 -2.6338 -2.3964 -4.0397
 8287SOL    HW236495   1.558   4.189   5.826 -0.4543 -0.9792  0.8103
 8288SOL     OW36496   2.881   3.489   1.070 -0.1906  0.0063 -0.4700
 8288SOL    HW136497   2.821   3.421   1.038 -0.9105 -0.6917  2.3447
 8288SOL    HW236498   2.937   3.505   0.994  0.1547 -0.7547 -0.3730
 8289SOL     OW36499   2.799   0.017  11.888  0.4040  0.0644  0.0261
 8289SOL    HW136500   2.890   4.728  11.899 -0.2204 -1.0426  2.0388
 8289SOL    HW236501   2.777   0.021  11.981 -0.3282 -2.2418 -0.0356
 8290SOL     OW36502   1.239   4.075   3.985 -0.0219 -0.2374  0.3122
 8290SOL    HW136503   1.168   4.110   3.932  0.9486  0.5457 -0.4697
 8290SOL    HW236504   1.203   4.031   4.062 -1.2608  1.5368  0.7378
 8291SOL     OW36505   2.064   2.704   7.694 -0.3910 -0.1935 -0.6570
 8291SOL    HW136506   2.090   2.731   7.782 -0.5694 -1.5528 -0.1880
 8291SOL    HW236507   2.140   2.658   7.657 -0.6635 -0.9433 -0.2875
 8292SOL     OW36508   3.557   0.076   3.285 -0.3949  0.0260 -0.2095
 8292SOL    HW136509   3.525   0.138   3.351 -0.6859  0.6774 -0.9670
 8292SOL    HW236510   3.577   4.738   3.337 -1.0821 -1.9384 -2.8959
 8293SOL     OW36511   0.889   3.102   5.535  1.0503  0.4149  0.5597
 8293SOL    HW136512   0.883   3.147   5.451 -0.0828 -1.9862 -0.6337
 8293SOL    HW236513   0.874   3.173   5.598 -1.9637  0.0760  0.2158
 8294SOL     OW36514   0.746   4.043   1.603  0.2863 -0.1261 -0.1380
 8294SOL    HW136515   0.772   4.128   1.568  1.1139  1.4929  4.4426
 8294SOL    HW236516   0.818   3.983   1.585  1.0816  1.0633 -0.9344
 8295SOL     OW36517   2.289   2.125   6.222 -0.2755  0.1962 -0.1436
 8295SOL    HW136518   2.361   2.112   6.284 -0.1069 -0.2201 -0.4200
 8295SOL    HW236519   2.332   2.127   6.136  0.6870 -0.6072  0.3176
 8296SOL     OW36520   3.907   4.736  13.850 -0.0368  0.0815 -0.2599
 8296SOL    HW136521   3.827   4.737  13.904  1.7195  0.0605  2.3407
 8296SOL    HW236522   3.969   4.702  13.915 -1.2832 -1.7211 -0.0046
 8297SOL     OW36523   1.742   1.579  12.418  0.3728 -0.0377  0.3047
 8297SOL    HW136524   1.722   1.497  12.373 -0.5304 -1.1715  2.8220
 8297SOL    HW236525   1.657   1.612  12.448  0.1563  0.3220 -0.7090
 8298SOL     OW36526   1.818   3.768   4.500 -0.1653 -0.0619  0.1747
 8298SOL    HW136527   1.747   3.784   4.563 -0.7975 -2.3460  0.0394
 8298SOL    HW236528   1.800   3.675   4.487 -0.4115  0.2777 -1.7933
 8299SOL     OW36529   0.707   4.119   8.070 -0.2149 -0.1828  0.6893
 8299SOL    HW136530   0.634   4.071   8.030  1.4830 -1.0805 -1.2837
 8299SOL    HW236531   0.761   4.042   8.088  0.7083  0.7323  1.8608
 8300SOL     OW36532   3.863   0.216   8.873  0.0376 -0.3611 -0.3881
 8300SOL    HW136533   3.803   0.172   8.933  0.6452 -1.2913 -0.4684
 8300SOL    HW236534   3.810   0.213   8.793 -0.8783 -0.1257  0.2048
 8301SOL     OW36535   3.110   3.032  15.408  0.1021  0.2753 -0.4236
 8301SOL    HW136536   3.090   3.031  15.315  2.5904  0.9188 -0.9593
 8301SOL    HW236537   3.092   2.940  15.429  1.1418 -0.3182 -2.2181
 8302SOL     OW36538   1.166   1.469   2.174 -0.4129 -0.1372 -0.4189
 8302SOL    HW136539   1.204   1.441   2.091  0.9263 -1.3002  0.5832
 8302SOL    HW236540   1.203   1.556   2.188  0.3344 -0.4048 -0.7401
 8303SOL     OW36541   0.260   1.201   2.001  0.3654 -0.4482 -0.3795
 8303SOL    HW136542   0.212   1.281   2.023 -0.7616 -1.2151 -0.0993
 8303SOL    HW236543   0.207   1.174   1.926 -0.2394  0.1027 -0.1490
 8304SOL     OW36544   4.473   2.789   2.557  0.1383 -0.5766 -0.3282
 8304SOL    HW136545   4.485   2.876   2.519 -0.3899  0.4740  1.9303
 8304SOL    HW236546   4.566   2.766   2.559  0.3083  0.1293 -0.0710
 8305SOL     OW36547   4.180   0.087  11.696  0.0268 -0.3068  0.2634
 8305SOL    HW136548   4.274   0.105  11.687 -0.0418  0.1655  0.5054
 8305SOL    HW236549   4.189   0.013  11.757 -0.3725 -0.7388 -0.2026
 8306SOL     OW36550   2.785   0.773   8.802  0.5793  0.0115  0.1180
 8306SOL    HW136551   2.804   0.693   8.850  0.6592 -0.1986 -0.2605
 8306SOL    HW236552   2.865   0.821   8.824  0.9196 -1.1826  1.4814
 8307SOL     OW36553   0.402   1.114   6.884  0.0226  0.5548  0.0070
 8307SOL    HW136554   0.340   1.046   6.912 -0.4753  0.6327 -0.9288
 8307SOL    HW236555   0.463   1.065   6.829 -1.0421 -0.7450 -0.0296
 8308SOL     OW36556   2.125   3.153   2.057 -0.4534  0.3145 -0.3663
 8308SOL    HW136557   2.117   3.217   2.129 -1.2237  2.1819 -2.1045
 8308SOL    HW236558   2.032   3.132   2.042 -0.1174 -1.5582  0.2990
 8309SOL     OW36559   1.244   0.378   4.902 -0.3580 -0.2666  0.3071
 8309SOL    HW136560   1.190   0.411   4.975  0.4193 -1.1157  1.2659
 8309SOL    HW236561   1.328   0.421   4.916 -0.9897  1.2514 -0.5067
 8310SOL     OW36562   3.367   2.768   7.592  0.0793 -0.3938  0.1037
 8310SOL    HW136563   3.313   2.747   7.516 -1.9610  0.3347  1.3752
 8310SOL    HW236564   3.402   2.680   7.607  0.1274 -0.4471 -0.3007
 8311SOL     OW36565   0.118   4.217   6.473 -0.6800 -0.0507 -0.1247
 8311SOL    HW136566   0.105   4.159   6.398 -1.9853  0.4158 -0.2688
 8311SOL    HW236567   0.097   4.167   6.552 -0.2585  0.9496  0.6066
 8312SOL     OW36568   4.242   1.849   2.904  0.2383 -0.0756  0.1558
 8312SOL    HW136569   4.280   1.908   2.969  0.9099 -0.4883  0.1455
 8312SOL    HW236570   4.271   1.768   2.948 -0.9433 -0.6559 -0.1437
 8313SOL     OW36571   0.234   1.921   1.925  0.1962  0.0313 -0.3686
 8313SOL    HW136572   0.302   1.854   1.934 -0.6215 -0.6551  0.6196
 8313SOL    HW236573   0.213   1.921   1.832  0.2292  1.2118 -0.3788
 8314SOL     OW36574   2.161   4.569   7.512  0.0116 -0.0705  0.5568
 8314SOL    HW136575   2.221   4.583   7.585  0.5317  1.6984 -0.2106
 8314SOL    HW236576   2.091   4.635   7.516 -0.6799 -0.8005  0.6103
 8315SOL     OW36577   2.507   2.372   8.214  0.3112  0.2463  0.1812
 8315SOL    HW136578   2.585   2.318   8.202 -0.4110 -0.5659 -0.9993
 8315SOL    HW236579   2.447   2.317   8.164 -1.0747  2.3944 -0.5164
 8316SOL     OW36580   1.904   3.816   1.179 -0.0794  0.2019  0.1989
 8316SOL    HW136581   1.942   3.876   1.242  2.7922 -0.1415 -1.2027
 8316SOL    HW236582   1.877   3.745   1.237 -1.6387  0.7657  0.1489
 8317SOL     OW36583   3.102   0.836   0.678 -0.0040  0.0577 -0.0267
 8317SOL    HW136584   3.006   0.834   0.680  0.0742 -2.8278  1.2011
 8317SOL    HW236585   3.119   0.930   0.681 -1.9293  0.3713  1.2969
 8318SOL     OW36586   1.287   3.290  17.746 -0.1587  0.3539 -0.1477
 8318SOL    HW136587   1.281   3.320   0.077  1.1799 -1.0614  0.4113
 8318SOL    HW236588   1.209   3.329  17.706 -1.8310 -0.3302  2.4016
 8319SOL     OW36589   2.074   2.009   2.285  0.7912 -0.2208  0.2896
 8319SOL    HW136590   2.133   2.033   2.356 -0.8084  1.5989  1.0090
 8319SOL    HW236591   2.042   1.926   2.321 -0.3401  1.3267  2.9295
 8320SOL     OW36592   1.651   1.673   3.980 -0.2117 -0.1055  0.5992
 8320SOL    HW136593   1.582   1.619   3.941  0.0975 -1.3564  1.7815
 8320SOL    HW236594   1.615   1.696   4.066 -2.0444 -0.5975 -0.0590
 8321SOL     OW36595   0.916   4.110   9.205  0.0807  1.0000 -0.0608
 8321SOL    HW136596   1.005   4.098   9.169  0.6330  2.8694  0.7051
 8321SOL    HW236597   0.947   4.167   9.276 -1.4920  0.8030  0.7717
 8322SOL     OW36598   0.794   3.534   5.693  0.5674 -0.7110  0.6524
 8322SOL    HW136599   0.824   3.611   5.740 -1.8486  0.7439 -0.1524
 8322SOL    HW236600   0.860   3.465   5.698 -0.2600 -1.5127  0.6027
 8323SOL     OW36601   4.054   1.633   3.589 -0.2758  0.1131  0.1055
 8323SOL    HW136602   4.035   1.565   3.654 -0.1390 -0.6824 -0.6962
 8323SOL    HW236603   3.974   1.621   3.538  0.8124 -1.4886 -1.2373
 8324SOL     OW36604   3.110   4.351   6.350  1.3584  0.2439 -0.2949
 8324SOL    HW136605   3.125   4.339   6.257 -1.7952 -0.7912 -0.6706
 8324SOL    HW236606   3.028   4.399   6.359  1.9126  0.6915  2.5195
 8325SOL     OW36607   3.819   4.129  15.327 -0.2324 -0.8201  0.4156
 8325SOL    HW136608   3.810   4.222  15.347  0.4952 -0.2599 -1.7906
 8325SOL    HW236609   3.730   4.111  15.295  0.1007 -0.7109 -0.5566
 8326SOL     OW36610   1.978   0.305   1.560  0.3689  0.7851 -0.1658
 8326SOL    HW136611   1.984   0.328   1.467  1.3430 -2.1274 -0.7939
 8326SOL    HW236612   2.067   0.324   1.589  1.6198 -0.9296 -2.8673
 8327SOL     OW36613   1.338   1.026   5.176 -0.0430 -0.2093  0.7971
 8327SOL    HW136614   1.372   1.006   5.263  1.4112  0.4839  0.3990
 8327SOL    HW236615   1.375   1.109   5.144  0.0982 -1.3175 -1.8933
 8328SOL     OW36616   4.233   0.391   5.393 -0.1932  0.1348  0.0184
 8328SOL    HW136617   4.190   0.472   5.364  0.0937 -1.3380 -4.5426
 8328SOL    HW236618   4.173   0.322   5.366 -0.4999  0.0051  1.0674
 8329SOL     OW36619   2.681   2.641   5.562 -0.0092  0.9127  0.1474
 8329SOL    HW136620   2.751   2.608   5.618 -2.5428  1.4032  3.6503
 8329SOL    HW236621   2.664   2.551   5.536  1.7245  1.2838 -2.2397
 8330SOL     OW36622   2.655   3.449   5.655  0.2777 -0.3619  0.0510
 8330SOL    HW136623   2.745   3.420   5.641 -0.7741 -2.7109 -1.9438
 8330SOL    HW236624   2.652   3.519   5.590  0.0626 -2.4573 -2.2208
 8331SOL     OW36625   4.667   3.860   7.294  0.8592  0.5614 -0.8437
 8331SOL    HW136626   4.601   3.853   7.225  0.3511 -0.9575 -0.2089
 8331SOL    HW236627   4.704   3.772   7.297  0.7334  0.5477  0.5576
 8332SOL     OW36628   2.326   3.235  13.310  0.0588  0.0588  0.3727
 8332SOL    HW136629   2.366   3.275  13.387 -0.4746  1.3185 -0.0061
 8332SOL    HW236630   2.297   3.149  13.341 -0.0482 -0.3372 -0.8145
 8333SOL     OW36631   3.558   0.251   2.770  0.2546  0.6762  0.3936
 8333SOL    HW136632   3.578   0.312   2.840  4.0154  0.1698 -0.2374
 8333SOL    HW236633   3.642   0.207   2.759 -0.2757 -0.1982 -0.2155
 8334SOL     OW36634   1.999   0.706   4.573  0.1594  0.1145 -0.4873
 8334SOL    HW136635   1.969   0.787   4.614 -0.0963 -0.1713 -0.1046
 8334SOL    HW236636   1.910   0.672   4.559  0.4559 -0.5247 -0.7912
 8335SOL     OW36637   3.757   1.600   3.743 -0.1339  0.1339 -0.1450
 8335SOL    HW136638   3.784   1.513   3.771 -0.2131 -0.4050 -1.7016
 8335SOL    HW236639   3.668   1.597   3.778  0.0777  1.0906  0.4566
 8336SOL     OW36640   2.068   4.490   7.247  0.3571 -0.0853  0.8764
 8336SOL    HW136641   2.154   4.478   7.207 -0.2798 -3.4024  0.4819
 8336SOL    HW236642   2.083   4.502   7.340  0.0236 -0.4869  0.9825
 8337SOL     OW36643   1.236   3.854  15.256 -0.2172  0.2783  0.2615
 8337SOL    HW136644   1.218   3.778  15.312 -2.4602  0.6387  0.0485
 8337SOL    HW236645   1.292   3.815  15.189  0.6020  1.8121  0.0670
 8338SOL     OW36646   4.503   0.678   9.048 -0.6695  0.1044 -0.4796
 8338SOL    HW136647   4.453   0.708   8.972  1.5453 -0.0568 -2.0021
 8338SOL    HW236648   4.551   0.612   8.998 -0.1625  0.5874 -0.6244
 8339SOL     OW36649   0.750   2.415   8.359 -0.0902 -0.2359 -0.9918
 8339SOL    HW136650   0.766   2.431   8.266 -1.1709 -1.8159 -1.4626
 8339SOL    HW236651   0.656   2.431   8.363 -0.3923 -1.9049 -1.3599
 8340SOL     OW36652   1.421   3.414   9.625 -0.2015 -0.1472  0.0639
 8340SOL    HW136653   1.399   3.475   9.554  1.2700 -1.1255 -1.2326
 8340SOL    HW236654   1.389   3.334   9.585 -0.1977  0.4001 -1.0265
 8341SOL     OW36655   0.666   3.821   9.858  0.0410  0.0210 -0.2466
 8341SOL    HW136656   0.721   3.754   9.819  0.0958 -0.3885  0.5290
 8341SOL    HW236657   0.675   3.818   9.953  1.5209 -1.4283 -0.4272
 8342SOL     OW36658   3.688   3.031   3.104 -0.2885  0.2434  0.8101
 8342SOL    HW136659   3.769   3.024   3.155 -1.7720 -0.3798  3.0865
 8342SOL    HW236660   3.717   3.034   3.013  1.1091  0.7881  1.2633
 8343SOL     OW36661   3.238   1.611   9.186 -0.1483  0.1931  0.0030
 8343SOL    HW136662   3.302   1.663   9.234 -0.0947 -0.3183  0.4957
 8343SOL    HW236663   3.269   1.634   9.099 -1.3826  0.3295 -0.4035
 8344SOL     OW36664   2.517   3.194  15.144  0.0695  0.2019 -0.4696
 8344SOL    HW136665   2.471   3.180  15.061 -2.3775 -2.3925  1.3472
 8344SOL    HW236666   2.505   3.288  15.153  0.0709  0.2189 -0.6436
 8345SOL     OW36667   2.238   2.940  10.794  0.0215 -0.4957  0.0722
 8345SOL    HW136668   2.268   3.016  10.744  0.0172 -0.2762  0.4077
 8345SOL    HW236669   2.276   2.871  10.740 -1.6761 -0.3076 -1.3857
 8346SOL     OW36670   3.293   0.547   4.120  0.8118 -0.0511 -0.4508
 8346SOL    HW136671   3.269   0.598   4.197 -0.0422 -0.2957 -0.5518
 8346SOL    HW236672   3.384   0.542   4.150  1.5041 -0.3126 -2.5783
 8347SOL     OW36673   4.447   4.568   5.728 -0.3669  0.1538 -0.3466
 8347SOL    HW136674   4.363   4.554   5.773  0.2351 -1.0839  0.3942
 8347SOL    HW236675   4.501   4.571   5.807 -1.7980 -2.1172  0.7047
 8348SOL     OW36676   1.821   3.935   6.026  0.3941 -0.1896  0.1588
 8348SOL    HW136677   1.888   3.983   6.075  2.5127  0.5387 -3.4073
 8348SOL    HW236678   1.749   3.997   6.035  1.0164  0.5095  0.3919
 8349SOL     OW36679   3.301   4.593   6.312 -0.0115 -0.2878  0.9116
 8349SOL    HW136680   3.251   4.514   6.330  0.5167 -1.2274 -1.8719
 8349SOL    HW236681   3.383   4.559   6.347 -0.8252 -0.2929  2.8281
 8350SOL     OW36682   3.788   2.201   9.092  0.7773  0.0105 -0.0271
 8350SOL    HW136683   3.845   2.236   9.159  1.9143 -2.8152  0.4817
 8350SOL    HW236684   3.838   2.213   9.011  0.9975 -0.6269  0.0106
 8351SOL     OW36685   3.270   3.878  10.529  0.2725 -0.1645 -0.1694
 8351SOL    HW136686   3.319   3.844  10.454 -2.1107 -0.3327 -1.6281
 8351SOL    HW236687   3.182   3.879  10.492  0.3581  0.5894 -0.3472
 8352SOL     OW36688   1.721   1.531   6.900  0.0689 -0.3592 -0.2409
 8352SOL    HW136689   1.712   1.627   6.902 -1.1063 -0.4593 -0.9515
 8352SOL    HW236690   1.728   1.518   6.806 -0.0265 -1.2539 -0.1228
 8353SOL     OW36691   3.144   3.120   4.230 -0.2548 -0.8818  0.0036
 8353SOL    HW136692   3.072   3.066   4.264 -0.7021 -0.1976  0.1571
 8353SOL    HW236693   3.182   3.065   4.163 -2.0694 -3.1582  0.8420
 8354SOL     OW36694   2.791   1.958   4.206  0.3074 -0.3182 -0.1944
 8354SOL    HW136695   2.817   1.947   4.114 -0.4014 -3.4333 -0.0263
 8354SOL    HW236696   2.856   1.900   4.245 -0.8734  1.1491  3.9779
 8355SOL     OW36697   1.570   4.594  17.615 -0.1088  0.1186 -0.4259
 8355SOL    HW136698   1.615   4.672  17.584  0.7265  0.4775  1.7286
 8355SOL    HW236699   1.606   4.516  17.573  0.7955  0.2043  0.2031
 8356SOL     OW36700   1.660   1.543   2.425 -0.2022  0.1729 -0.1251
 8356SOL    HW136701   1.724   1.583   2.365  0.8030 -1.1625  0.0601
 8356SOL    HW236702   1.669   1.590   2.508  0.6672 -2.3016  1.1714
 8357SOL     OW36703   1.591   3.179   2.079  0.2910 -0.0465  0.8659
 8357SOL    HW136704   1.685   3.165   2.065  0.1467  0.2191 -0.3979
 8357SOL    HW236705   1.573   3.175   2.172 -1.6717 -0.1060  0.4764
 8358SOL     OW36706   2.556   3.412  11.355  0.1636 -0.3507  0.2841
 8358SOL    HW136707   2.649   3.434  11.363  0.0912 -0.6184  1.8561
 8358SOL    HW236708   2.525   3.489  11.307  0.0920 -0.0773  0.7669
 8359SOL     OW36709   2.110   0.156  12.053  0.1424  0.9353  0.0167
 8359SOL    HW136710   2.107   0.180  11.960  0.9429  1.0643  0.0205
 8359SOL    HW236711   2.023   0.117  12.059 -0.5191  2.1661 -1.5855
 8360SOL     OW36712   0.502   4.738   6.619  0.6541  0.0745  0.2347
 8360SOL    HW136713   0.555   4.667   6.583  1.3164  1.4918 -1.6238
 8360SOL    HW236714   0.482   0.048   6.539 -0.2027 -3.0376 -1.5238
 8361SOL     OW36715   1.726   0.886   4.284 -0.0964 -0.2176 -0.4510
 8361SOL    HW136716   1.667   0.885   4.359  0.6957 -1.6975  0.1395
 8361SOL    HW236717   1.698   0.803   4.245  0.8385  0.4060 -2.4493
 8362SOL     OW36718   3.858   3.641   0.611  0.0417  0.3213 -0.1797
 8362SOL    HW136719   3.849   3.548   0.633 -1.3693  0.3991 -0.3929
 8362SOL    HW236720   3.893   3.639   0.521  0.7180 -0.3625  0.0976
 8363SOL     OW36721   1.644   1.765   1.560  0.5353  0.2733  0.0665
 8363SOL    HW136722   1.588   1.693   1.531  1.7237  0.2627 -2.1792
 8363SOL    HW236723   1.610   1.770   1.649 -1.7012 -3.1295 -0.6084
 8364SOL     OW36724   4.432   4.003   2.199  0.2780 -0.3773 -0.6537
 8364SOL    HW136725   4.490   4.067   2.158 -0.2307  0.4231 -0.1139
 8364SOL    HW236726   4.356   4.044   2.159  0.7275  0.7837 -0.3193
 8365SOL     OW36727   2.976   0.322   4.162  0.1294 -0.3138 -0.4241
 8365SOL    HW136728   3.013   0.234   4.164  1.1316  0.1030 -0.4299
 8365SOL    HW236729   2.894   0.322   4.211 -0.0616  1.2842 -0.7395
 8366SOL     OW36730   0.505   4.049   6.261 -0.0419  0.8985 -0.1828
 8366SOL    HW136731   0.470   4.095   6.338  1.9445  1.5635  0.3144
 8366SOL    HW236732   0.503   3.965   6.306 -0.2471  0.8850 -0.2150
 8367SOL     OW36733   3.673   3.488   6.970 -0.6005  0.7739  0.1473
 8367SOL    HW136734   3.738   3.462   6.905  0.0768  1.1341  0.6830
 8367SOL    HW236735   3.593   3.469   6.921 -0.3597  0.6754 -0.2105
 8368SOL     OW36736   0.268   0.156   4.232 -0.1779 -0.1212  0.2596
 8368SOL    HW136737   0.301   0.229   4.284  0.4954  1.1369 -1.9388
 8368SOL    HW236738   0.174   0.158   4.249  0.0093 -0.8201  1.3713
 8369SOL     OW36739   0.413   0.428  12.070  0.6085  0.2024 -0.2839
 8369SOL    HW136740   0.376   0.453  11.986 -1.0459 -1.9984 -0.1884
 8369SOL    HW236741   0.504   0.410  12.044  0.4847  0.4145 -0.8526
 8370SOL     OW36742   1.969   0.136   4.012  0.1567 -0.7349 -0.0502
 8370SOL    HW136743   1.887   0.157   3.968  0.4347  0.3465 -0.0600
 8370SOL    HW236744   1.945   0.154   4.103 -1.5439 -1.4046 -0.3650
 8371SOL     OW36745   2.196   0.590   4.398 -0.4675 -0.2189  0.1595
 8371SOL    HW136746   2.180   0.502   4.365 -2.1011  0.6581 -1.3797
 8371SOL    HW236747   2.122   0.608   4.456 -1.7366  0.3656 -1.6464
 8372SOL     OW36748   2.085   3.838   2.506  0.1917 -0.1580 -0.1488
 8372SOL    HW136749   2.000   3.862   2.542  0.2799  2.0598 -1.4009
 8372SOL    HW236750   2.133   3.818   2.587  1.9559 -2.2495 -1.6927
 8373SOL     OW36751   1.916   2.861   0.471  1.0996  0.0241  0.0536
 8373SOL    HW136752   1.821   2.858   0.462  1.1786  1.4239 -1.1392
 8373SOL    HW236753   1.938   2.779   0.515 -2.4279 -0.9995 -0.0956
 8374SOL     OW36754   3.586   0.639   8.142  0.1056  0.0064  0.1291
 8374SOL    HW136755   3.575   0.579   8.215  0.8371 -1.0524 -0.6206
 8374SOL    HW236756   3.515   0.703   8.152  0.3517  0.3703 -0.4291
 8375SOL     OW36757   2.899   2.636   5.287  0.1609 -0.9963  0.4270
 8375SOL    HW136758   2.858   2.645   5.373  1.1706  2.7568  0.5075
 8375SOL    HW236759   2.840   2.572   5.246 -0.7458  0.3381 -0.3687
 8376SOL     OW36760   4.704   2.913   3.439  0.2845  0.2697  0.0793
 8376SOL    HW136761   4.714   2.887   3.348  1.2779 -0.5137  0.4191
 8376SOL    HW236762   0.023   2.847   3.473  0.2676 -0.5280 -1.4427
 8377SOL     OW36763   3.627   2.190   6.672  0.6680  0.0830 -0.0687
 8377SOL    HW136764   3.653   2.125   6.606  0.5106  0.1921 -0.2389
 8377SOL    HW236765   3.554   2.234   6.628  1.9267  1.3163 -0.8853
 8378SOL     OW36766   4.707   0.598  11.381  0.5286  0.0169 -0.1979
 8378SOL    HW136767   0.038   0.571  11.438  0.2746  0.2469  0.2270
 8378SOL    HW236768   0.011   0.661  11.323  0.7396  0.5513  0.5435
 8379SOL     OW36769   1.189   0.831   0.809  0.0291 -0.4263  0.1597
 8379SOL    HW136770   1.182   0.737   0.831  0.9218 -0.4663  0.2434
 8379SOL    HW236771   1.119   0.855   0.748  1.2995  0.5569 -0.8994
 8380SOL     OW36772   0.753   1.260   1.720 -0.3699  0.4581  0.2677
 8380SOL    HW136773   0.761   1.197   1.649 -1.6262  1.4419 -0.7470
 8380SOL    HW236774   0.738   1.344   1.677 -1.2414 -0.0185 -0.3617
 8381SOL     OW36775   1.660   0.725   6.684 -0.3055  0.7300 -0.2016
 8381SOL    HW136776   1.598   0.665   6.642  0.7748 -0.6192  0.1539
 8381SOL    HW236777   1.602   0.784   6.733 -0.7347  0.7402 -0.7208
 8382SOL     OW36778   3.536   4.436   6.444 -0.0267  0.1083  0.3321
 8382SOL    HW136779   3.494   4.350   6.436  0.5007  0.1311 -2.6479
 8382SOL    HW236780   3.605   4.418   6.380 -1.2531 -0.3888 -0.8474
 8383SOL     OW36781   0.362   3.801   1.696 -0.6677  0.0507 -0.5030
 8383SOL    HW136782   0.358   3.720   1.747 -0.7899  0.9570  0.9139
 8383SOL    HW236783   0.322   3.772   1.614 -1.9380  0.0144  0.1401
 8384SOL     OW36784   0.086   1.544   7.930 -0.1297  0.2691  0.4302
 8384SOL    HW136785   0.010   1.488   7.943  0.9494 -1.4572 -0.6285
 8384SOL    HW236786   0.157   1.480   7.920 -0.5025 -0.0569 -0.1284
 8385SOL     OW36787   0.383   0.898   8.498 -0.1258  0.0052  0.7170
 8385SOL    HW136788   0.364   0.843   8.573 -0.4123  1.9260  2.0571
 8385SOL    HW236789   0.303   0.950   8.486  0.5013  0.4200 -1.6848
 8386SOL     OW36790   0.215   0.472   4.974  0.0200 -0.7536 -0.1651
 8386SOL    HW136791   0.203   0.478   5.069  3.6747 -1.3267  0.3364
 8386SOL    HW236792   0.150   0.408   4.944 -1.1422  0.2333  0.2214
 8387SOL     OW36793   0.089   0.033  14.264 -0.2209 -0.5453  0.1280
 8387SOL    HW136794   0.155   0.013  14.331  0.7005 -0.3641 -0.7280
 8387SOL    HW236795   0.012   0.002  14.312 -0.3727 -0.6638 -0.1943
 8388SOL     OW36796   1.174   3.964   8.584  0.5806  0.0629 -0.1148
 8388SOL    HW136797   1.171   3.890   8.645 -0.5278 -0.4814 -0.8201
 8388SOL    HW236798   1.094   4.006   8.615  0.5483  1.1710 -1.7352
 8389SOL     OW36799   3.684   3.658   2.005  0.9077  0.1363  0.0221
 8389SOL    HW136800   3.642   3.608   2.074  1.7920 -1.8375 -0.8834
 8389SOL    HW236801   3.649   3.611   1.930  0.9414 -0.5263  0.4286
 8390SOL     OW36802   0.748   2.527   5.806  0.2747  0.2878 -0.4455
 8390SOL    HW136803   0.717   2.494   5.722 -0.3081 -2.1208  0.7367
 8390SOL    HW236804   0.805   2.456   5.835  0.6552  0.2269 -1.3422
 8391SOL     OW36805   1.847   2.942   9.274 -0.2675  0.0602 -0.1490
 8391SOL    HW136806   1.891   2.868   9.233 -1.5831  1.2044 -3.6252
 8391SOL    HW236807   1.869   3.007   9.207 -1.6949  0.4186 -0.2772
 8392SOL     OW36808   0.925   2.631   2.928  0.0448  0.0906  0.3182
 8392SOL    HW136809   0.939   2.561   2.992  2.0628 -0.1077 -0.3516
 8392SOL    HW236810   0.830   2.631   2.944  0.1395 -1.3219  0.8530
 8393SOL     OW36811   0.338   2.948   1.299 -0.5239  0.1581  0.4254
 8393SOL    HW136812   0.322   2.866   1.347 -0.7812 -0.9778 -1.5932
 8393SOL    HW236813   0.338   2.916   1.209 -2.4592 -1.0098  0.8331
 8394SOL     OW36814   1.378   2.887   1.922  0.3549 -0.3471 -0.3269
 8394SOL    HW136815   1.327   2.965   1.940  1.1224 -0.6503  3.0699
 8394SOL    HW236816   1.328   2.852   1.848 -0.6519  0.6433 -0.1000
 8395SOL     OW36817   1.475   4.605   3.578  0.3084 -0.1498  0.3365
 8395SOL    HW136818   1.433   4.553   3.647 -0.7546  0.7912  0.3963
 8395SOL    HW236819   1.511   4.534   3.525  2.7487 -0.4236  2.3436
 8396SOL     OW36820   3.712   1.866   7.472 -0.0228  0.3593 -0.1776
 8396SOL    HW136821   3.669   1.901   7.394 -2.9525 -0.3235  1.1097
 8396SOL    HW236822   3.638   1.877   7.531 -0.6028 -1.2564 -0.5914
 8397SOL     OW36823   0.325   2.761   8.595  0.2698  0.1417 -0.0521
 8397SOL    HW136824   0.276   2.734   8.673  1.8143 -1.1046  0.4787
 8397SOL    HW236825   0.253   2.798   8.543  0.4087  1.4259  0.6901
 8398SOL     OW36826   0.881   0.058  11.335 -0.1129 -0.2377 -0.0259
 8398SOL    HW136827   0.794   0.098  11.325  0.6166  1.7998  1.9550
 8398SOL    HW236828   0.850   4.709  11.346  1.1225 -0.5707  0.6220
 8399SOL     OW36829   4.125   0.534   9.125 -0.7482  0.7762  0.2559
 8399SOL    HW136830   4.181   0.487   9.187  0.5565  1.1963 -0.6018
 8399SOL    HW236831   4.040   0.530   9.169  1.2017  1.4099  4.0820
 8400SOL     OW36832   1.012   2.779   8.577  0.4286 -0.0614 -0.5933
 8400SOL    HW136833   1.037   2.688   8.561  2.7574  0.4047  0.4918
 8400SOL    HW236834   1.091   2.808   8.621 -1.3517  0.9752  1.8978
 8401SOL     OW36835   4.500   0.232   4.480 -0.4824  0.0381 -0.0924
 8401SOL    HW136836   4.503   0.327   4.495 -0.2228  0.2256 -1.3382
 8401SOL    HW236837   4.463   0.226   4.392 -0.3665 -1.2191 -0.0472
 8402SOL     OW36838   4.295   1.915   5.606  0.3458 -0.1647  0.5525
 8402SOL    HW136839   4.361   1.963   5.656  0.2258  1.6676 -1.0336
 8402SOL    HW236840   4.230   1.985   5.608  0.6501  0.1272  0.3395
 8403SOL     OW36841   2.633   0.177   5.812  0.0275 -0.0166 -0.1021
 8403SOL    HW136842   2.643   0.149   5.721  1.7027  1.5204 -0.3884
 8403SOL    HW236843   2.607   0.269   5.804 -0.6543 -0.1197  0.9589
 8404SOL     OW36844   1.791   0.177   5.309 -0.2918 -0.2306 -0.6556
 8404SOL    HW136845   1.719   0.237   5.330 -0.5068 -0.3630 -1.0060
 8404SOL    HW236846   1.750   0.092   5.325 -0.0329 -0.8314 -3.0385
 8405SOL     OW36847   2.630   2.240   5.816  0.4480  0.0709 -0.0247
 8405SOL    HW136848   2.625   2.145   5.802  1.8687 -0.2267  1.3803
 8405SOL    HW236849   2.589   2.245   5.902  1.9814 -0.9576  0.7801
 8406SOL     OW36850   0.278   2.047   4.203 -0.1859  0.4589  0.5114
 8406SOL    HW136851   0.356   2.063   4.256 -0.4783 -1.1058  1.4220
 8406SOL    HW236852   0.302   1.955   4.188 -0.4584  0.1537  1.9375
 8407SOL     OW36853   3.540   3.315   7.766 -0.3037  0.5105 -0.0768
 8407SOL    HW136854   3.634   3.330   7.775 -0.1137 -1.7935  1.9053
 8407SOL    HW236855   3.515   3.364   7.689 -1.3200 -1.0153 -0.7212
 8408SOL     OW36856   3.675   1.744   3.192  0.1853 -0.2851 -0.2953
 8408SOL    HW136857   3.769   1.760   3.204  0.2230 -0.0286 -0.9615
 8408SOL    HW236858   3.660   1.764   3.100 -0.2727  1.0124  0.0647
 8409SOL     OW36859   2.259   0.354   6.701 -0.3728 -0.4186 -0.1389
 8409SOL    HW136860   2.225   0.415   6.636 -0.9985 -0.8359 -0.2029
 8409SOL    HW236861   2.219   0.393   6.779  2.3619 -0.1658  1.1321
 8410SOL     OW36862   3.110   1.558  12.118  0.1647 -0.4807  0.0578
 8410SOL    HW136863   3.103   1.463  12.108 -3.3331 -0.5682  3.3901
 8410SOL    HW236864   3.076   1.576  12.030 -0.9637 -0.4375  0.4950
 8411SOL     OW36865   2.548   4.427   0.921  0.7580 -0.5117  0.0896
 8411SOL    HW136866   2.490   4.466   0.987 -1.1127  1.1310 -2.5547
 8411SOL    HW236867   2.634   4.444   0.960  1.4723 -2.3770 -0.6510
 8412SOL     OW36868   3.399   1.010   3.867 -0.1739 -0.0908 -0.0726
 8412SOL    HW136869   3.416   0.928   3.822 -3.0296 -1.0844  0.6672
 8412SOL    HW236870   3.470   1.061   3.828  1.2832 -2.1967 -0.1267
 8413SOL     OW36871   2.090   4.422   4.954  0.6623 -0.5172  0.3148
 8413SOL    HW136872   2.105   4.361   4.881  1.0316 -0.3196  0.2294
 8413SOL    HW236873   2.091   4.362   5.029  0.6356 -1.2774 -0.2855
 8414SOL     OW36874   0.757   3.886   0.294  0.2569  0.2622 -0.3745
 8414SOL    HW136875   0.688   3.919   0.237 -0.0308 -2.4803 -1.6032
 8414SOL    HW236876   0.826   3.885   0.227 -0.4124 -0.4993 -1.0447
 8415SOL     OW36877   4.701   3.248   5.365  0.3630 -0.0017  0.2294
 8415SOL    HW136878   4.613   3.248   5.402 -0.5576  1.2502 -1.9458
 8415SOL    HW236879   4.716   3.330   5.318 -0.1885  0.2059  0.4217
 8416SOL     OW36880   2.178   0.693  16.827 -0.4578  0.1417 -0.0419
 8416SOL    HW136881   2.185   0.677  16.921  0.1739 -0.4554 -0.1975
 8416SOL    HW236882   2.269   0.676  16.802 -0.4118 -1.1566  1.0160
 8417SOL     OW36883   1.743   1.910   7.103  0.5194  0.0638  0.2015
 8417SOL    HW136884   1.753   1.821   7.136 -1.1285 -0.9967 -2.1396
 8417SOL    HW236885   1.670   1.909   7.040 -0.0042 -0.3036  0.8104
 8418SOL     OW36886   0.720   1.431   6.984  0.0772  0.1258  0.0125
 8418SOL    HW136887   0.719   1.337   7.000  0.8856 -0.0319 -0.8712
 8418SOL    HW236888   0.631   1.437   7.020 -0.3655  0.0877 -1.0665
 8419SOL     OW36889   4.473   0.214   9.217 -0.3370  0.2334  0.0156
 8419SOL    HW136890   4.417   0.184   9.145 -0.3410 -0.6474  0.3891
 8419SOL    HW236891   4.547   0.247   9.165 -0.6821  1.2453  0.1575
 8420SOL     OW36892   1.940   4.603   9.144 -0.2892  0.3677 -0.5049
 8420SOL    HW136893   1.875   4.607   9.075 -1.5709 -1.6993  0.5585
 8420SOL    HW236894   2.010   4.664   9.120 -1.6975  1.0246 -2.8756
 8421SOL     OW36895   3.723   4.418   3.896  0.3085  0.1280 -0.0622
 8421SOL    HW136896   3.788   4.436   3.964 -0.4205 -0.4359  0.8027
 8421SOL    HW236897   3.680   4.502   3.909  0.7506  0.0859  1.6976
 8422SOL     OW36898   0.883   3.298  16.023 -0.1500  0.3707  0.4083
 8422SOL    HW136899   0.968   3.273  16.058 -0.2877  0.6933  0.9731
 8422SOL    HW236900   0.830   3.239  16.077  1.8660 -0.0716  1.8874
 8423SOL     OW36901   2.863   3.666   4.087  0.1168 -0.2921 -0.0032
 8423SOL    HW136902   2.950   3.694   4.116  0.0027 -0.6242  0.6369
 8423SOL    HW236903   2.808   3.694   4.160 -0.8553  1.1503 -1.2684
 8424SOL     OW36904   0.226   0.129   6.186  0.3601  0.4027  0.0403
 8424SOL    HW136905   0.246   0.072   6.112 -0.2317 -1.7366  1.5129
 8424SOL    HW236906   0.134   0.109   6.203  0.2940  0.2104 -0.5457
 8425SOL     OW36907   0.533   2.616   9.818 -0.0151  0.0077  0.5615
 8425SOL    HW136908   0.585   2.543   9.852  1.4960  1.0991  0.5536
 8425SOL    HW236909   0.506   2.582   9.733 -0.1178  1.8625 -0.1378
 8426SOL     OW36910   0.422   3.241   1.911 -0.2233 -0.5617  0.3064
 8426SOL    HW136911   0.396   3.276   1.826 -2.6702 -0.2518  1.1720
 8426SOL    HW236912   0.420   3.148   1.892 -0.6922 -0.0282 -2.2443
 8427SOL     OW36913   0.860   0.922   0.998 -0.0896  0.2156  0.2876
 8427SOL    HW136914   0.921   0.985   1.036 -0.0450  2.1726 -3.0294
 8427SOL    HW236915   0.817   0.978   0.933 -0.1572  0.5401  0.6103
 8428SOL     OW36916   3.525   4.438   9.457  0.5011  0.2395  0.2091
 8428SOL    HW136917   3.583   4.512   9.440  1.0569 -0.6225 -1.6157
 8428SOL    HW236918   3.585   4.370   9.487 -0.8626 -0.7509  0.6858
 8429SOL     OW36919   2.704   4.427   7.207 -0.1410  0.1283  0.1046
 8429SOL    HW136920   2.764   4.466   7.271 -2.6981  1.0864  1.9379
 8429SOL    HW236921   2.702   4.334   7.232  0.4167  0.2375  0.5778
 8430SOL     OW36922   0.559   1.847  12.410 -0.7988 -0.0623  0.2725
 8430SOL    HW136923   0.605   1.814  12.332  0.2309 -0.0507  0.8724
 8430SOL    HW236924   0.492   1.784  12.435 -0.1530 -0.6770  0.4660
 8431SOL     OW36925   3.511   3.694   9.560 -0.7195  0.6950  0.3697
 8431SOL    HW136926   3.595   3.722   9.523 -0.3516  0.3648  0.9590
 8431SOL    HW236927   3.454   3.675   9.486 -0.5061 -1.1829  0.6800
 8432SOL     OW36928   3.588   0.754   5.214  0.4771  0.6523 -0.2475
 8432SOL    HW136929   3.504   0.772   5.257 -0.0375 -1.4826 -0.3210
 8432SOL    HW236930   3.602   0.835   5.166 -0.0423  1.8564  1.6339
 8433SOL     OW36931   3.774   4.435   4.551 -0.7849  0.6996 -0.0096
 8433SOL    HW136932   3.702   4.392   4.598 -1.0559  0.5019 -0.5997
 8433SOL    HW236933   3.784   4.511   4.607  0.1940 -1.0143  2.1449
 8434SOL     OW36934   3.772   2.974   6.103 -0.0971  0.5109 -0.4672
 8434SOL    HW136935   3.700   2.989   6.042 -0.4694 -2.5767 -0.8187
 8434SOL    HW236936   3.784   2.881   6.085 -2.6916  0.3802 -1.5735
 8435SOL     OW36937   0.521   2.883   7.621 -0.0523 -0.0720  0.2073
 8435SOL    HW136938   0.498   2.808   7.676 -3.2389  1.4523  0.9499
 8435SOL    HW236939   0.443   2.937   7.635 -0.3358 -0.2130 -0.7654
 8436SOL     OW36940   1.120   3.560   4.094  0.2661  0.0322 -0.0780
 8436SOL    HW136941   1.144   3.469   4.079  0.9514  0.5140 -1.8058
 8436SOL    HW236942   1.193   3.616   4.068 -1.1217  2.6603  1.5927
 8437SOL     OW36943   3.516   0.006  11.759  0.4126 -0.1596 -0.3172
 8437SOL    HW136944   3.438   0.033  11.712  0.0864  0.2025  0.4300
 8437SOL    HW236945   3.587   0.032  11.700  1.4564  0.0355  1.0060
 8438SOL     OW36946   1.753   3.377   3.863  0.1037  0.2815  0.2510
 8438SOL    HW136947   1.790   3.298   3.904 -0.4097  2.1342  4.3043
 8438SOL    HW236948   1.667   3.362   3.901 -0.7124 -0.9997 -2.0944
 8439SOL     OW36949   0.730   4.254  16.330 -0.4579 -0.6512 -0.5986
 8439SOL    HW136950   0.802   4.230  16.272  0.2244  0.9595 -0.3963
 8439SOL    HW236951   0.694   4.333  16.290  1.6061  0.8936  0.5988
 8440SOL     OW36952   0.090   3.874   1.361  0.9745  0.0192  0.0951
 8440SOL    HW136953   0.090   3.846   1.452  3.7905  0.2366  0.1595
 8440SOL    HW236954   0.184   3.869   1.344  1.2218  0.1213  1.4332
 8441SOL     OW36955   2.829   2.324  10.568  0.4720 -0.2871  0.4777
 8441SOL    HW136956   2.841   2.230  10.578  0.0496 -0.2398  1.3714
 8441SOL    HW236957   2.914   2.356  10.599  1.0944 -1.8226  0.3529
 8442SOL     OW36958   4.719   1.037   4.467  0.1402  0.3892 -0.4835
 8442SOL    HW136959   0.051   0.979   4.486 -0.6088  0.7895  3.7244
 8442SOL    HW236960   4.646   0.976   4.457 -0.3827  0.6063  2.0264
 8443SOL     OW36961   2.202   2.693   1.899 -0.5218  0.2072 -0.1337
 8443SOL    HW136962   2.187   2.775   1.851  2.6220  0.2919 -0.9873
 8443SOL    HW236963   2.269   2.648   1.847 -1.6595 -1.4062 -0.1970
 8444SOL     OW36964   2.725   4.290   3.809 -0.2982 -0.3313  0.6700
 8444SOL    HW136965   2.761   4.203   3.830  1.8616  0.5142  0.4724
 8444SOL    HW236966   2.657   4.262   3.747  1.5607 -2.3241 -0.5128
 8445SOL     OW36967   2.628   1.558  14.928 -0.0301 -0.2734 -0.2354
 8445SOL    HW136968   2.547   1.511  14.913  0.6039 -1.5389  0.3242
 8445SOL    HW236969   2.642   1.583  14.837  3.1405 -1.6840 -0.1430
 8446SOL     OW36970   1.499   2.527   0.412  0.1898  0.0087  0.1668
 8446SOL    HW136971   1.434   2.538   0.481 -0.7720 -0.5601 -0.6355
 8446SOL    HW236972   1.467   2.591   0.348 -0.0904  0.1535  0.4546
 8447SOL     OW36973   1.269   4.598   3.940  0.1567 -0.1865 -0.0451
 8447SOL    HW136974   1.277   4.601   3.844  0.6893 -0.9122 -0.0277
 8447SOL    HW236975   1.190   4.543   3.940 -0.0586  0.1337  0.7264
 8448SOL     OW36976   3.866   3.740   7.318  1.1129  0.1780 -0.1537
 8448SOL    HW136977   3.784   3.694   7.299  1.6757 -1.0495  0.4184
 8448SOL    HW236978   3.919   3.667   7.349 -0.4234 -1.2066 -0.8033
 8449SOL     OW36979   2.930   2.095  16.145  0.0610  0.0867 -0.0520
 8449SOL    HW136980   2.865   2.072  16.078 -1.6730  0.5571  1.4844
 8449SOL    HW236981   2.924   2.189  16.128 -0.5778 -0.0986 -0.8615
 8450SOL     OW36982   2.304   3.795   5.799 -0.4596  0.3298  0.2997
 8450SOL    HW136983   2.243   3.861   5.832 -1.0106 -0.4570  0.8535
 8450SOL    HW236984   2.269   3.777   5.712 -2.6834  1.6153  0.9241
 8451SOL     OW36985   0.230   3.145  12.741 -0.5235  0.0399  0.2801
 8451SOL    HW136986   0.174   3.172  12.814 -0.9736 -0.3454  0.0774
 8451SOL    HW236987   0.273   3.228  12.717  0.4321 -0.8003 -0.9048
 8452SOL     OW36988   3.329   3.908   1.510  0.7668 -0.3390  0.1841
 8452SOL    HW136989   3.340   3.843   1.441 -1.9311 -1.6294  0.9770
 8452SOL    HW236990   3.315   3.857   1.590 -0.0527  0.1259  0.3351
 8453SOL     OW36991   4.625   1.841   5.810 -0.0480  1.0260 -0.3911
 8453SOL    HW136992   4.556   1.904   5.788  0.2343  1.3002 -0.4902
 8453SOL    HW236993   4.705   1.885   5.782 -0.3285  0.9547 -1.2926
 8454SOL     OW36994   3.893   0.028  12.293  0.1558 -0.4597 -0.1980
 8454SOL    HW136995   3.841   4.727  12.225  1.4720 -0.8730 -0.9529
 8454SOL    HW236996   3.827   0.046  12.360  0.6656  0.5169  0.0400
 8455SOL     OW36997   0.496   2.970  13.046 -0.5142  0.2653 -0.2721
 8455SOL    HW136998   0.427   2.932  13.099 -0.3624  1.0623  0.4997
 8455SOL    HW236999   0.470   2.955  12.955 -0.1069  0.0357 -0.3517
 8456SOL     OW37000   3.955   1.693   7.855 -0.6303 -0.5432  0.2097
 8456SOL    HW137001   3.860   1.707   7.862 -0.5364  0.0777  0.2865
 8456SOL    HW237002   3.967   1.634   7.781  1.6295 -0.4613  0.5071
 8457SOL     OW37003   2.631   3.979  14.288  0.1836  0.6078 -0.5189
 8457SOL    HW137004   2.594   4.061  14.256 -0.7194  1.1112  1.8478
 8457SOL    HW237005   2.676   4.020  14.361 -0.8280 -1.7288  1.4198
 8458SOL     OW37006   3.989   1.274   2.202 -0.2700 -0.0941  0.5452
 8458SOL    HW137007   4.047   1.349   2.189  1.2444 -1.6985 -1.9665
 8458SOL    HW237008   4.039   1.236   2.275  0.1474 -0.5898  0.0016
 8459SOL     OW37009   4.671   0.268   3.588 -0.6144 -0.0329  0.8529
 8459SOL    HW137010   4.691   0.339   3.648 -0.2052  1.7991 -1.4729
 8459SOL    HW237011   4.582   0.238   3.609 -0.5068 -0.6384  0.4554
 8460SOL     OW37012   3.376   1.902   6.668  0.1030  0.1995  0.6563
 8460SOL    HW137013   3.364   1.818   6.713 -2.6537  0.2601  0.0123
 8460SOL    HW237014   3.294   1.943   6.694 -0.5704 -0.0394 -1.1078
 8461SOL     OW37015   2.916   2.233  15.497 -0.2763  0.1978 -0.1835
 8461SOL    HW137016   2.916   2.171  15.569  0.5746  0.3413 -0.0659
 8461SOL    HW237017   3.005   2.268  15.501  0.7332 -2.3560 -0.4965
 8462SOL     OW37018   1.547   1.303   2.757 -0.2855 -0.4518 -0.3280
 8462SOL    HW137019   1.467   1.286   2.708 -0.9398 -1.0466  0.9322
 8462SOL    HW237020   1.520   1.373   2.816  0.2192 -0.8143  0.3407
 8463SOL     OW37021   1.783   3.242   4.762 -0.4213 -0.1002 -0.1493
 8463SOL    HW137022   1.748   3.329   4.781 -0.7051 -0.7268  2.1849
 8463SOL    HW237023   1.851   3.227   4.828 -1.7048 -2.3500  0.6955
 8464SOL     OW37024   2.493   3.725   9.248  0.6956  0.0080  0.2309
 8464SOL    HW137025   2.572   3.706   9.197  0.8497  1.3513 -0.0356
 8464SOL    HW237026   2.529   3.744   9.335  0.4920  1.1231  0.0705
 8465SOL     OW37027   4.736   3.985  14.868  0.1762  0.0077  0.3008
 8465SOL    HW137028   4.687   3.940  14.936  1.0749 -0.0714  0.8926
 8465SOL    HW237029   4.693   3.948  14.791  0.8653 -2.4734  1.1350
 8466SOL     OW37030   2.602   0.002   1.314 -0.3208 -0.3682 -0.6965
 8466SOL    HW137031   2.553   4.710   1.389  0.3275  1.2602  0.4266
 8466SOL    HW237032   2.569   4.694   1.238 -3.2207  0.8181 -0.1641
 8467SOL     OW37033   2.601   1.970   9.942 -0.3358  0.6057  0.6573
 8467SOL    HW137034   2.507   1.971   9.961 -0.6129 -0.1880 -0.7177
 8467SOL    HW237035   2.620   1.944  10.032 -2.0707 -1.9253  0.3043
 8468SOL     OW37036   0.927   1.796   3.858 -0.3631 -0.4202 -0.1042
 8468SOL    HW137037   0.967   1.718   3.896  0.5920 -0.2087 -0.6831
 8468SOL    HW237038   1.007   1.837   3.825 -0.6955 -0.8739 -1.4944
 8469SOL     OW37039   3.658   4.428   6.210 -0.3327  0.0994 -0.1819
 8469SOL    HW137040   3.612   4.349   6.182  0.8029 -1.0489  1.1606
 8469SOL    HW237041   3.734   4.413   6.154 -1.0721  1.9968 -1.6730
 8470SOL     OW37042   0.706   2.729   2.541 -0.1335  0.6723 -0.3482
 8470SOL    HW137043   0.628   2.682   2.509  1.0533  0.2727 -2.6551
 8470SOL    HW237044   0.677   2.748   2.630  0.3953 -0.7398  0.1353
 8471SOL     OW37045   2.398   2.720  13.174  0.5032  0.0950  0.2919
 8471SOL    HW137046   2.427   2.734  13.083  0.5471 -2.6388 -0.1229
 8471SOL    HW237047   2.397   2.625  13.167 -3.6667  0.3962 -3.4540
 8472SOL     OW37048   2.342   0.626  17.330 -0.5546  0.7212 -0.1654
 8472SOL    HW137049   2.318   0.705  17.282  0.7673 -1.2370 -4.1383
 8472SOL    HW237050   2.290   0.565  17.276  0.7506 -0.3787 -0.2008
 8473SOL     OW37051   1.305   2.581  15.392  0.4028 -0.3514  0.9589
 8473SOL    HW137052   1.397   2.564  15.369  1.2829  3.4794  1.5955
 8473SOL    HW237053   1.305   2.677  15.391  1.3580 -0.3562  0.4816
 8474SOL     OW37054   1.286   3.958   8.351  0.0511 -1.2671 -0.4781
 8474SOL    HW137055   1.287   3.965   8.446 -1.5984  2.2091 -0.7508
 8474SOL    HW237056   1.237   3.876   8.341  0.4534 -1.8413  2.1830
 8475SOL     OW37057   0.637   1.473   3.042 -0.1088 -0.6288 -0.4506
 8475SOL    HW137058   0.723   1.469   3.001 -0.1678 -2.3657 -0.3963
 8475SOL    HW237059   0.649   1.556   3.088  0.6022  0.3139 -2.3145
 8476SOL     OW37060   2.219   0.855   3.995  0.6769 -0.1888  0.1279
 8476SOL    HW137061   2.256   0.931   3.949  0.4762 -1.1519 -1.5987
 8476SOL    HW237062   2.291   0.793   3.995  0.3235 -0.5960  0.2378
 8477SOL     OW37063   3.885   4.159   7.599 -0.0466  0.3258  0.0285
 8477SOL    HW137064   3.945   4.141   7.671  2.2229 -1.5971 -2.3456
 8477SOL    HW237065   3.860   4.067   7.586  2.7787 -0.7428  2.0592
 8478SOL     OW37066   2.409   4.470   2.980  0.0473  0.0640  0.4910
 8478SOL    HW137067   2.385   4.533   2.912  2.0231  2.8380  2.3318
 8478SOL    HW237068   2.319   4.461   3.013 -0.7600 -0.8755 -2.0139
 8479SOL     OW37069   4.007   3.556   7.422 -0.0323  0.0269  0.1190
 8479SOL    HW137070   3.958   3.476   7.440  0.2428 -0.3326 -0.7421
 8479SOL    HW237071   4.092   3.530   7.387  0.3700  1.1831  0.2295
 8480SOL     OW37072   2.942   1.697   6.777  0.2649 -0.2957 -0.6046
 8480SOL    HW137073   2.949   1.641   6.855  0.0422  2.3462  1.2940
 8480SOL    HW237074   2.870   1.647   6.740  0.0942  0.2656 -1.0296
 8481SOL     OW37075   3.319   3.024   6.720  0.2718 -0.2801  0.3938
 8481SOL    HW137076   3.384   2.997   6.657  0.1846  0.1394  0.1206
 8481SOL    HW237077   3.248   2.961   6.707  0.0889 -0.1182  0.5879
 8482SOL     OW37078   0.248   2.109   7.896 -0.2094 -0.1740 -0.0742
 8482SOL    HW137079   0.323   2.067   7.853  1.3429  0.5077  1.9582
 8482SOL    HW237080   0.190   2.035   7.914 -0.6769  0.3090  0.3955
 8483SOL     OW37081   3.242   2.830   2.722  0.0132 -0.2009  0.3386
 8483SOL    HW137082   3.293   2.911   2.713  1.8220 -1.6048 -2.1356
 8483SOL    HW237083   3.156   2.872   2.727 -0.3102 -1.0609  2.0680
 8484SOL     OW37084   4.084   2.706   7.268 -0.2068  0.1518  0.3625
 8484SOL    HW137085   4.117   2.625   7.229  0.1796 -0.7354  2.5310
 8484SOL    HW237086   3.993   2.682   7.286  0.5490 -3.0749 -0.2266
 8485SOL     OW37087   4.488   4.268   0.601 -0.3030  0.3162 -0.0545
 8485SOL    HW137088   4.414   4.206   0.597 -0.2914  0.2120  1.4393
 8485SOL    HW237089   4.476   4.303   0.689  0.5893 -2.7748  1.3045
 8486SOL     OW37090   2.169   1.860   6.426  0.1270 -0.1191 -0.3310
 8486SOL    HW137091   2.155   1.823   6.513 -1.6703 -0.0754 -0.5923
 8486SOL    HW237092   2.086   1.904   6.407 -0.7811 -1.0393  1.5976
 8487SOL     OW37093   0.825   4.334   5.458  0.2138  0.2260  0.3632
 8487SOL    HW137094   0.817   4.294   5.372  1.7244 -0.8992  0.7405
 8487SOL    HW237095   0.747   4.304   5.505  1.0374 -4.6484 -1.4053
 8488SOL     OW37096   3.123   4.038  17.643 -0.0981 -0.4791 -0.0256
 8488SOL    HW137097   3.116   4.097  17.717  0.6795  1.4246 -1.4671
 8488SOL    HW237098   3.165   3.962  17.684  4.1783  3.1874  2.3816
 8489SOL     OW37099   3.856   2.552   5.602  0.1489 -0.4992  0.0103
 8489SOL    HW137100   3.928   2.612   5.583 -0.0961  0.3743  1.8121
 8489SOL    HW237101   3.783   2.614   5.607  1.6688  1.0825  2.4676
 8490SOL     OW37102   3.808   4.342   9.447 -0.4014  0.0499  0.0702
 8490SOL    HW137103   3.885   4.318   9.498  1.0951  2.6856 -0.9423
 8490SOL    HW237104   3.832   4.424   9.404 -0.7655 -0.7017 -1.5575
 8491SOL     OW37105   4.687   4.442   6.030 -0.0543  0.0190 -0.1868
 8491SOL    HW137106   4.594   4.419   6.034 -0.4108  1.0675 -2.1345
 8491SOL    HW237107   4.703   4.493   5.951  1.7530  0.7367  0.6387
 8492SOL     OW37108   3.188   2.162   7.323  0.3106 -0.1970 -0.2115
 8492SOL    HW137109   3.278   2.182   7.296  0.2884 -2.3410 -1.8234
 8492SOL    HW237110   3.178   2.076   7.283 -0.9988 -1.0249  1.8754
 8493SOL     OW37111   3.228   3.593   9.109 -0.2876 -0.5913 -0.1167
 8493SOL    HW137112   3.217   3.499   9.094 -2.4164 -0.1979 -1.1244
 8493SOL    HW237113   3.227   3.635   9.023  0.1001 -2.5975 -1.1068
 8494SOL     OW37114   1.016   3.017   5.820  0.4014  0.4398 -0.0022
 8494SOL    HW137115   1.000   2.924   5.835  1.6197  0.4536  1.3576
 8494SOL    HW237116   0.972   3.016   5.735  3.4395  0.8760 -1.5973
 8495SOL     OW37117   2.803   0.073   6.732  0.3003  0.0068  0.0280
 8495SOL    HW137118   2.776   4.731   6.692 -0.9092  0.5994 -0.3829
 8495SOL    HW237119   2.715   0.103   6.756  0.3060 -0.2330  0.3446
 8496SOL     OW37120   4.086   0.828   6.595 -0.0189 -0.0923  0.1209
 8496SOL    HW137121   4.047   0.863   6.514  2.0980 -1.7766 -1.6151
 8496SOL    HW237122   4.017   0.866   6.649  0.8620 -0.3040  1.3926
 8497SOL     OW37123   0.437   2.010   3.900  0.0654 -0.7175  0.3234
 8497SOL    HW137124   0.378   1.937   3.882  2.0508 -2.1809 -0.3420
 8497SOL    HW237125   0.417   2.031   3.991 -2.9997  0.3736 -0.6331
 8498SOL     OW37126   2.934   3.810   8.900 -0.2344  0.1505 -0.0471
 8498SOL    HW137127   2.950   3.811   8.805 -0.1687 -2.9608 -0.0816
 8498SOL    HW237128   2.945   3.904   8.914  0.5109  0.2799 -1.4903
 8499SOL     OW37129   3.989   0.474   7.174  0.4755  0.0925 -0.1971
 8499SOL    HW137130   3.984   0.441   7.264 -0.1236 -0.1819 -0.3326
 8499SOL    HW237131   3.896   0.490   7.161 -0.0815 -0.4709  3.1558
 8500SOL     OW37132   0.545   0.849   9.088 -0.4050 -0.4331 -0.0036
 8500SOL    HW137133   0.551   0.944   9.093  0.2236 -0.5423  1.3918
 8500SOL    HW237134   0.534   0.811   9.175 -0.3865 -0.3647  0.0286
 8501SOL     OW37135   4.160   3.801   6.568  0.1704 -0.3704 -0.0838
 8501SOL    HW137136   4.101   3.809   6.494  1.0621  0.4002 -0.7156
 8501SOL    HW237137   4.094   3.805   6.638  1.9453 -0.5640  1.6090
 8502SOL     OW37138   3.167   3.060  16.261 -0.0439  0.0869  0.3543
 8502SOL    HW137139   3.196   3.118  16.191 -1.0508  0.1074 -0.0367
 8502SOL    HW237140   3.250   3.072  16.307 -0.5293 -1.8643  1.7250
 8503SOL     OW37141   2.539   3.587  14.641  0.1007 -0.9890 -0.3510
 8503SOL    HW137142   2.530   3.665  14.587 -1.1463  0.3255  1.7622
 8503SOL    HW237143   2.546   3.521  14.572  0.0589 -1.1930 -0.1629
 8504SOL     OW37144   2.967   4.096   1.304  0.5774 -0.3993  0.8159
 8504SOL    HW137145   2.962   4.005   1.275 -3.1146  0.1328 -0.2458
 8504SOL    HW237146   2.877   4.128   1.295  0.7436 -0.6996 -1.8837
 8505SOL     OW37147   0.117   2.330   7.927  0.3080 -0.1374 -0.5873
 8505SOL    HW137148   0.158   2.254   7.886  0.6691 -0.7597  0.9077
 8505SOL    HW237149   0.147   2.398   7.866  1.3282 -1.4464 -1.5318
 8506SOL     OW37150   3.357   4.191   5.343  0.1588  0.0479  0.4562
 8506SOL    HW137151   3.419   4.253   5.382 -1.2597  1.0267  1.1671
 8506SOL    HW237152   3.412   4.140   5.283  0.6781  0.5115  0.5360
 8507SOL     OW37153   3.715   1.211   5.262  0.3746 -0.1197  0.0037
 8507SOL    HW137154   3.654   1.271   5.305 -0.7511 -1.4995  0.3450
 8507SOL    HW237155   3.800   1.254   5.263 -0.1787  0.9436  0.9057
 8508SOL     OW37156   2.757   2.764   1.377 -0.2530  0.3099  0.2440
 8508SOL    HW137157   2.763   2.793   1.468 -0.9112  0.0259  0.3749
 8508SOL    HW237158   2.815   2.688   1.376  0.0102  0.5333 -2.4879
 8509SOL     OW37159   2.401   0.973   7.548  0.4114 -0.0188  0.0925
 8509SOL    HW137160   2.366   1.042   7.604 -1.0547  0.7166 -1.7338
 8509SOL    HW237161   2.322   0.942   7.503 -0.3297  0.7769  0.8476
 8510SOL     OW37162   0.615   1.821   4.313  0.5432 -0.0873  0.6724
 8510SOL    HW137163   0.599   1.915   4.306 -2.3198 -0.5432  1.4146
 8510SOL    HW237164   0.568   1.792   4.234  2.1466 -0.5941 -0.1007
 8511SOL     OW37165   1.449   1.439  12.332  0.1618 -0.1304  0.0323
 8511SOL    HW137166   1.411   1.435  12.245 -2.0313  0.5375  0.9477
 8511SOL    HW237167   1.536   1.402  12.315  0.1092 -0.6450  0.8383
 8512SOL     OW37168   4.385   1.363  13.618  0.2427 -0.8015 -0.3529
 8512SOL    HW137169   4.424   1.279  13.644  3.3284  1.2948  1.7077
 8512SOL    HW237170   4.458   1.421  13.641 -0.9899  0.6796 -0.1668
 8513SOL     OW37171   2.903   3.350   5.610  0.1927  0.8961  0.5791
 8513SOL    HW137172   2.936   3.285   5.548 -0.0176  0.9886  0.3717
 8513SOL    HW237173   2.953   3.323   5.687 -2.7341 -1.5031  1.6717
 8514SOL     OW37174   3.805   1.178   1.554  0.0346 -0.0829  0.5121
 8514SOL    HW137175   3.815   1.235   1.477  1.2630 -0.7434  0.1847
 8514SOL    HW237176   3.732   1.123   1.525  0.5782 -0.6841  0.2855
 8515SOL     OW37177   4.703   0.012  15.181 -0.0170  0.0179  0.0283
 8515SOL    HW137178   4.730   4.690  15.248  0.5363  0.4270  0.1850
 8515SOL    HW237179   4.709   0.091  15.234  0.8415 -1.1427  1.6743
 8516SOL     OW37180   1.177   1.904   6.196  0.1233  0.1158  0.2783
 8516SOL    HW137181   1.117   1.975   6.176  0.7833  0.8267  0.7985
 8516SOL    HW237182   1.149   1.830   6.142 -0.6726 -0.1446  1.0580
 8517SOL     OW37183   2.821   2.481   1.429  0.5860  0.0069  0.3660
 8517SOL    HW137184   2.885   2.437   1.373 -2.7261 -1.8141 -1.9677
 8517SOL    HW237185   2.738   2.435   1.414 -0.4400  1.2235  2.3457
 8518SOL     OW37186   3.177   2.325  10.342  0.6662  0.0797  0.1930
 8518SOL    HW137187   3.164   2.367  10.427 -1.3410 -1.0216  0.4330
 8518SOL    HW237188   3.193   2.402  10.287  0.8194 -1.4492 -1.9094
 8519SOL     OW37189   0.978   4.314   0.520 -0.2258 -0.0949 -0.0320
 8519SOL    HW137190   1.057   4.290   0.471  0.3489  0.8650  0.4337
 8519SOL    HW237191   0.911   4.249   0.498 -0.4353  0.4722 -1.0638
 8520SOL     OW37192   3.386   3.812   3.026  0.8435  0.3677 -0.2822
 8520SOL    HW137193   3.374   3.747   2.958  1.7819 -1.8709  1.6952
 8520SOL    HW237194   3.411   3.752   3.097  2.5756 -1.5848 -2.5602
 8521SOL     OW37195   1.975   0.992   9.280 -0.2885 -0.4122 -0.0132
 8521SOL    HW137196   1.889   1.017   9.246 -1.9583 -2.2287  2.9666
 8521SOL    HW237197   1.998   1.069   9.332 -0.0845 -0.2576 -0.3276
 8522SOL     OW37198   1.310   1.025   3.780  0.6021 -0.1589  0.4858
 8522SOL    HW137199   1.249   1.097   3.764  1.1786  0.2571  0.1715
 8522SOL    HW237200   1.374   1.041   3.712  0.3450 -0.6330  0.1345
 8523SOL     OW37201   4.618   4.232   4.235  0.5482 -0.6724 -0.3492
 8523SOL    HW137202   4.650   4.173   4.303 -1.1547  0.2615  1.2589
 8523SOL    HW237203   4.636   4.321   4.264  2.3253 -1.2000  0.1776
 8524SOL     OW37204   3.171   3.384  16.409  0.4282 -0.0744 -0.5053
 8524SOL    HW137205   3.094   3.409  16.460  0.9581  0.4369  0.0469
 8524SOL    HW237206   3.195   3.294  16.432  1.4923  0.5438  0.7890
 8525SOL     OW37207   0.073   4.416   3.846  0.3203  0.6015  0.0584
 8525SOL    HW137208   0.159   4.387   3.815  0.4371 -0.2469  1.1780
 8525SOL    HW237209   0.022   4.343   3.810  0.8622  0.5923 -0.6887
 8526SOL     OW37210   3.888   3.792   0.106  0.0035 -0.1330  0.3794
 8526SOL    HW137211   3.820   3.853   0.135  1.3665  1.3777  0.4279
 8526SOL    HW237212   3.850   3.754   0.027  0.8950 -0.6066  0.1784
 8527SOL     OW37213   1.005   0.904   2.879  0.2167  0.1455 -0.0121
 8527SOL    HW137214   1.035   0.933   2.793  2.1800  0.3071  0.7097
 8527SOL    HW237215   1.083   0.858   2.911 -0.6207  0.0233  1.8245
 8528SOL     OW37216   2.184   2.964   6.965  1.0463 -0.0086  0.3556
 8528SOL    HW137217   2.195   2.983   6.872  0.2474  0.8039  0.4352
 8528SOL    HW237218   2.196   3.051   7.003 -1.0492  0.9601 -1.2615
 8529SOL     OW37219   1.771   3.009  16.918 -0.8255  0.6807  0.2582
 8529SOL    HW137220   1.844   2.990  16.858  0.9350 -0.1772  2.6355
 8529SOL    HW237221   1.690   3.025  16.871 -0.8902 -3.1844 -0.9043
 8530SOL     OW37222   2.817   1.772   7.425  0.1104 -0.3766 -0.0959
 8530SOL    HW137223   2.723   1.768   7.444  0.3211 -1.3545  0.7888
 8530SOL    HW237224   2.846   1.855   7.461 -1.8019  1.3110 -2.4901
 8531SOL     OW37225   2.789   1.453   7.262 -0.1038  0.3417  0.7138
 8531SOL    HW137226   2.717   1.474   7.321  0.7971  0.3361  1.7971
 8531SOL    HW237227   2.850   1.416   7.326 -0.4094 -0.5750  0.4849
 8532SOL     OW37228   3.911   1.784   4.849 -0.4089 -0.5612  0.3783
 8532SOL    HW137229   3.928   1.712   4.788 -0.9948  0.8112 -1.4331
 8532SOL    HW237230   3.832   1.819   4.807  0.2969 -0.2645 -0.7079
 8533SOL     OW37231   2.816   4.039   9.644  0.2015 -0.1165  0.4875
 8533SOL    HW137232   2.825   3.961   9.699 -0.3481 -0.5235  0.0043
 8533SOL    HW237233   2.840   3.987   9.567  0.7546  2.4436 -1.0601
 8534SOL     OW37234   0.552   4.213   8.963 -0.0339 -0.0813 -0.5262
 8534SOL    HW137235   0.490   4.214   8.890  0.9848 -0.8052 -1.3991
 8534SOL    HW237236   0.524   4.146   9.025  0.8117  0.1986  0.1529
 8535SOL     OW37237   2.648   3.240   1.752 -0.2085 -0.3923  0.0612
 8535SOL    HW137238   2.626   3.149   1.733  1.6488 -0.9610  0.5746
 8535SOL    HW237239   2.742   3.233   1.769 -0.3904 -2.1318  0.3738
 8536SOL     OW37240   3.196   2.129   3.291 -0.1144 -0.1059 -0.6267
 8536SOL    HW137241   3.140   2.180   3.350 -0.5372  1.5469 -2.4575
 8536SOL    HW237242   3.266   2.194   3.290 -1.0228  0.8783 -0.9049
 8537SOL     OW37243   0.533   4.376   7.448  0.2256  0.4916 -0.0305
 8537SOL    HW137244   0.594   4.440   7.486 -1.7457  1.5680  1.3332
 8537SOL    HW237245   0.555   4.291   7.486 -0.6831 -0.6253 -1.9882
 8538SOL     OW37246   2.132   3.905  15.658 -0.2373  0.2879 -0.2045
 8538SOL    HW137247   2.125   3.826  15.604 -1.4342 -0.4680  1.0445
 8538SOL    HW237248   2.124   3.864  15.744  0.2239 -2.7384 -1.6085
 8539SOL     OW37249   4.672   2.114  17.645 -0.3526  0.2342  0.3149
 8539SOL    HW137250   0.002   2.095  17.583 -0.0973  1.4372  0.2402
 8539SOL    HW237251   4.678   2.210  17.647  0.8696  0.1608  0.0749
 8540SOL     OW37252   4.388   2.230   4.763 -0.3145  0.4054 -0.3429
 8540SOL    HW137253   4.412   2.240   4.855 -0.7993  0.7351 -0.2469
 8540SOL    HW237254   4.462   2.267   4.715  1.1566 -1.4018  0.5521
 8541SOL     OW37255   4.216   2.675  13.398  0.1005 -0.1953 -0.3838
 8541SOL    HW137256   4.153   2.604  13.410 -1.5036  1.0185 -1.7278
 8541SOL    HW237257   4.164   2.751  13.372 -0.6292 -1.6304 -3.0866
 8542SOL     OW37258   3.781   0.247   5.546 -0.0731  0.1900 -0.3876
 8542SOL    HW137259   3.842   0.176   5.523  1.8234  1.0174  2.1016
 8542SOL    HW237260   3.797   0.319   5.485  1.5120  0.8993  0.8514
 8543SOL     OW37261   1.236   4.666   6.074  0.3406 -0.3715  0.3778
 8543SOL    HW137262   1.174   4.618   6.129  0.4957 -0.7316  0.2386
 8543SOL    HW237263   1.181   4.740   6.050  0.2163 -1.4823 -2.7190
 8544SOL     OW37264   0.561   1.965   0.562  0.1621  0.6022 -0.0648
 8544SOL    HW137265   0.648   2.002   0.550  0.1585  0.4895 -0.4392
 8544SOL    HW237266   0.505   2.038   0.537  1.5968  0.4167 -3.8089
 8545SOL     OW37267   0.955   4.199  15.135  0.0191 -0.0223  0.2220
 8545SOL    HW137268   1.000   4.276  15.170 -0.1340  0.2930 -0.2725
 8545SOL    HW237269   1.014   4.172  15.065 -0.0307  2.2446 -0.6889
 8546SOL     OW37270   1.895   0.543   5.589  0.4636  0.1294 -0.1989
 8546SOL    HW137271   1.971   0.491   5.617  0.4898  0.5679  0.5457
 8546SOL    HW237272   1.834   0.477   5.558  1.9281 -0.3923 -1.9878
 8547SOL     OW37273   3.032   1.436   6.574 -0.4001  0.3279 -0.2495
 8547SOL    HW137274   3.062   1.526   6.563  0.5410  0.1876  1.2894
 8547SOL    HW237275   3.064   1.398   6.492  1.1488 -0.0672  0.5345
 8548SOL     OW37276   4.233   3.403  15.960  0.3685 -0.4272 -0.0649
 8548SOL    HW137277   4.319   3.394  15.918  0.1477  2.0001 -1.0219
 8548SOL    HW237278   4.255   3.392  16.053  0.5910 -1.1275 -0.1962
 8549SOL     OW37279   2.634   4.314   9.676 -0.6996 -0.5676 -0.0613
 8549SOL    HW137280   2.606   4.275   9.593  0.2211  1.2623 -1.2327
 8549SOL    HW237281   2.569   4.383   9.672 -0.1067 -0.0484 -0.7226
 8550SOL     OW37282   0.299   1.147   3.064  0.0188  0.5364 -0.2411
 8550SOL    HW137283   0.296   1.062   3.108  0.5355  1.1290  0.9606
 8550SOL    HW237284   0.384   1.150   3.020 -0.5152 -2.5339 -1.4264
 8551SOL     OW37285   1.583   3.718   2.130 -0.3511  0.2191 -0.1398
 8551SOL    HW137286   1.502   3.667   2.132 -1.3521  1.7680 -0.9236
 8551SOL    HW237287   1.544   3.805   2.130  0.0947  0.4184  3.4109
 8552SOL     OW37288   2.906   4.195   4.249 -0.4731 -0.4468 -0.0860
 8552SOL    HW137289   3.000   4.177   4.242 -0.0615  1.1917  0.9989
 8552SOL    HW237290   2.894   4.269   4.190  0.2342  0.6924  1.1976
 8553SOL     OW37291   3.875   2.331   2.364  0.1107 -0.4927  0.0993
 8553SOL    HW137292   3.890   2.240   2.337 -1.8581 -1.0845  0.9618
 8553SOL    HW237293   3.895   2.319   2.457  1.4974  0.8159 -0.0421
 8554SOL     OW37294   4.373   3.961   7.666 -0.4445  0.2680 -0.2600
 8554SOL    HW137295   4.284   3.934   7.641  0.1451 -2.3351  0.4305
 8554SOL    HW237296   4.399   3.995   7.581 -0.6407 -0.1009 -0.4717
 8555SOL     OW37297   0.822   1.225   8.993 -0.5104  0.0293 -0.3054
 8555SOL    HW137298   0.854   1.309   8.959  0.3111  0.1130  0.6661
 8555SOL    HW237299   0.869   1.213   9.075 -2.0462  0.1382  0.5718
 8556SOL     OW37300   1.062   0.222  11.517 -0.0661  0.5979 -0.7431
 8556SOL    HW137301   1.134   0.249  11.461  0.7802 -1.3305 -0.5872
 8556SOL    HW237302   1.001   0.185  11.453  0.7188  0.9600 -1.6899
 8557SOL     OW37303   1.966   0.056   0.974  0.2788  0.1490  0.0048
 8557SOL    HW137304   1.881   0.099   0.980  0.0073 -0.4339  0.3836
 8557SOL    HW237305   1.971   0.035   1.067  1.4748  1.3556  0.2100
 8558SOL     OW37306   1.706   3.300   2.680  0.3044  0.2741  0.2273
 8558SOL    HW137307   1.690   3.209   2.658 -1.4132  0.2709  1.5107
 8558SOL    HW237308   1.704   3.294   2.776  0.2639 -2.0962  0.0742
 8559SOL     OW37309   2.174   4.489   8.872 -0.9888  0.0727 -0.4472
 8559SOL    HW137310   2.151   4.561   8.814  3.1290  0.3013 -1.8059
 8559SOL    HW237311   2.089   4.447   8.889 -2.1061  2.1707 -0.8594
 8560SOL     OW37312   4.621   2.519   0.783 -0.6575  0.1321  0.0564
 8560SOL    HW137313   4.645   2.610   0.798 -0.8083  0.1535  0.1673
 8560SOL    HW237314   4.693   2.480   0.834 -0.9444  0.1729  0.4859
 8561SOL     OW37315   2.988   0.386  16.960 -0.1255  0.2047 -0.1040
 8561SOL    HW137316   2.907   0.430  16.934 -1.4170 -0.2640  3.0905
 8561SOL    HW237317   2.960   0.348  17.044  0.2311 -4.8997 -2.2829
 8562SOL     OW37318   3.896   1.109   4.627  0.0711 -0.0066  0.0617
 8562SOL    HW137319   3.908   1.025   4.583 -0.4440 -0.7731  1.3657
 8562SOL    HW237320   3.987   1.139   4.624  0.1849  0.0590  3.2948
 8563SOL     OW37321   0.445   4.456   5.482  0.2527 -0.1857  0.2230
 8563SOL    HW137322   0.482   4.375   5.515  1.8512  0.1157 -0.8605
 8563SOL    HW237323   0.397   4.489   5.559  0.1496  0.1065  0.0335
 8564SOL     OW37324   1.954   2.091   3.015  0.3165 -0.1034 -0.1974
 8564SOL    HW137325   1.959   2.039   2.935 -0.8625  0.2211 -0.4831
 8564SOL    HW237326   2.017   2.037   3.063 -0.8818 -2.1550 -0.9281
 8565SOL     OW37327   2.651   2.696   3.358  0.0762 -0.2077  0.0820
 8565SOL    HW137328   2.568   2.742   3.360 -0.7921 -1.7057 -2.4231
 8565SOL    HW237329   2.708   2.755   3.408 -1.1564  0.3811  0.7938
 8566SOL     OW37330   3.388   4.297   7.992 -0.3733  0.0558 -0.4593
 8566SOL    HW137331   3.416   4.214   7.953 -0.3212  0.4183 -1.1993
 8566SOL    HW237332   3.382   4.352   7.914  2.7255  0.7350 -0.2195
 8567SOL     OW37333   0.647   3.006   4.356 -0.1291 -0.1125  0.0736
 8567SOL    HW137334   0.654   2.961   4.440  1.0629 -0.4150 -0.1911
 8567SOL    HW237335   0.712   3.074   4.373  0.0512  0.3577 -2.4689
 8568SOL     OW37336   2.921   1.773   9.259  0.0843  0.2338  0.3586
 8568SOL    HW137337   2.938   1.756   9.351  0.0997 -2.7321 -0.2001
 8568SOL    HW237338   2.832   1.739   9.249  0.8951 -1.4553 -1.1267
 8569SOL     OW37339   1.173   0.095   7.009 -0.1414  0.2108 -0.6745
 8569SOL    HW137340   1.120   0.030   6.962  2.1278 -2.1166 -0.0376
 8569SOL    HW237341   1.260   0.069   6.979 -0.2134 -1.4579  0.5439
 8570SOL     OW37342   3.572   0.322  16.644 -0.1902 -0.3307  0.0110
 8570SOL    HW137343   3.500   0.294  16.700 -1.8561  1.1622 -1.3608
 8570SOL    HW237344   3.636   0.252  16.655  0.1331 -0.1291 -0.6029
 8571SOL     OW37345   3.938   0.262  17.614  0.2568  0.7912 -0.4554
 8571SOL    HW137346   3.971   0.288  17.528 -1.9828  0.6445 -1.3631
 8571SOL    HW237347   3.892   0.185  17.580 -2.2913  1.7601  0.8259
 8572SOL     OW37348   0.397   1.721   8.108 -0.7107  0.0431 -0.5275
 8572SOL    HW137349   0.393   1.802   8.160  0.3743  0.0493 -0.4693
 8572SOL    HW237350   0.355   1.653   8.161  0.8383  0.0775  0.7291
 8573SOL     OW37351   4.021   3.149   9.445 -0.4947 -0.1253 -0.5842
 8573SOL    HW137352   3.957   3.085   9.415  0.4032 -1.7531  1.0338
 8573SOL    HW237353   4.102   3.101   9.456 -0.1270  0.5267 -0.4512
 8574SOL     OW37354   3.111   2.986   8.449 -0.6222 -0.5621 -0.0231
 8574SOL    HW137355   3.147   2.901   8.423  1.2040  0.9884 -2.5642
 8574SOL    HW237356   3.190   3.020   8.493  1.0285 -2.2490 -1.7208
 8575SOL     OW37357   3.826   1.920   1.804  0.2337  0.3100  0.2827
 8575SOL    HW137358   3.752   1.966   1.845  0.7193  2.0528 -0.8003
 8575SOL    HW237359   3.854   1.981   1.736  1.5618 -0.2560  0.3371
 8576SOL     OW37360   0.425   4.108  15.094 -0.1324 -0.0775 -0.2467
 8576SOL    HW137361   0.404   4.015  15.103  0.8411 -0.1583  1.2672
 8576SOL    HW237362   0.404   4.132  15.004 -0.7931  0.7878  0.1316
 8577SOL     OW37363   1.186   3.844  16.383  0.8926  0.0050  0.5408
 8577SOL    HW137364   1.119   3.894  16.335 -0.0250  0.0280  1.8242
 8577SOL    HW237365   1.225   3.915  16.435 -2.3281  0.3851  2.4437
 8578SOL     OW37366   2.910   1.165   3.315  0.1465  0.4243  0.1634
 8578SOL    HW137367   2.857   1.085   3.311  2.7539 -1.3631  1.5244
 8578SOL    HW237368   2.935   1.159   3.407  1.0146 -0.0026 -0.1000
 8579SOL     OW37369   3.177   4.302   9.144 -0.2497  0.1758 -0.3678
 8579SOL    HW137370   3.089   4.297   9.107  0.0020  1.7039 -1.1519
 8579SOL    HW237371   3.223   4.272   9.066  0.8192  1.2618 -0.1589
 8580SOL     OW37372   1.403   3.344   7.453  0.3702  0.6553 -0.2311
 8580SOL    HW137373   1.322   3.321   7.498 -0.4758  2.6448 -0.7036
 8580SOL    HW237374   1.369   3.395   7.379  0.5467  2.9460  1.2602
 8581SOL     OW37375   4.428   0.157  11.700  0.5945 -0.1494  0.4233
 8581SOL    HW137376   4.470   0.201  11.774  0.2022 -0.8623  1.0677
 8581SOL    HW237377   4.499   0.161  11.636 -0.8576  1.6941 -1.0919
 8582SOL     OW37378   3.855   3.783   0.930  0.2044  0.8232 -0.5931
 8582SOL    HW137379   3.766   3.750   0.945  1.0643 -1.3306 -0.2487
 8582SOL    HW237380   3.859   3.788   0.835 -0.8345  0.4399 -0.6578
 8583SOL     OW37381   2.670   2.912   5.471  0.3064 -0.0388  0.3864
 8583SOL    HW137382   2.765   2.918   5.462  0.2004 -0.0695 -0.7027
 8583SOL    HW237383   2.655   2.826   5.509  0.8119 -0.9574 -1.5033
 8584SOL     OW37384   2.136   1.305   4.939  0.5474  0.2303 -0.2224
 8584SOL    HW137385   2.176   1.220   4.922  1.0025  0.6839 -1.4394
 8584SOL    HW237386   2.204   1.371   4.921  0.1329  0.6005 -0.4434
 8585SOL     OW37387   3.502   2.607  15.526 -0.2382 -0.3622 -0.0847
 8585SOL    HW137388   3.532   2.588  15.437 -0.0133  1.1651 -0.3315
 8585SOL    HW237389   3.588   2.617  15.568  0.1183  2.6274 -1.5469
 8586SOL     OW37390   1.936   1.150  17.026  0.6898  0.1492  0.1392
 8586SOL    HW137391   1.945   1.081  16.960 -0.4774 -0.4799  0.6480
 8586SOL    HW237392   1.850   1.184  17.004 -0.5694 -2.7075  0.6254
 8587SOL     OW37393   2.425   0.300   1.496  0.4060 -0.3664  0.0184
 8587SOL    HW137394   2.345   0.340   1.528 -1.2512 -2.1588 -1.8625
 8587SOL    HW237395   2.410   0.218   1.543 -2.0703 -0.2261 -0.5532
 8588SOL     OW37396   1.176   0.816   9.242  0.3621  0.3867 -0.4143
 8588SOL    HW137397   1.168   0.722   9.224 -1.3220  0.0043  2.2454
 8588SOL    HW237398   1.210   0.817   9.332  0.9424 -1.4404 -0.6112
 8589SOL     OW37399   2.982   3.362   3.729  0.0786  0.5096  0.0913
 8589SOL    HW137400   2.933   3.384   3.808 -0.3267  4.8670 -1.3679
 8589SOL    HW237401   2.942   3.409   3.656  0.2067  0.3708 -0.0689
 8590SOL     OW37402   0.444   4.591   9.110 -0.0517  0.3622  0.0705
 8590SOL    HW137403   0.532   4.620   9.135 -1.3390  2.6505  1.8007
 8590SOL    HW237404   0.454   4.566   9.018  0.3974 -0.2006  0.2684
 8591SOL     OW37405   2.677   4.247   1.333  0.5051 -0.0296 -0.3545
 8591SOL    HW137406   2.709   4.261   1.422 -0.4433 -0.9031  0.1194
 8591SOL    HW237407   2.603   4.307   1.344  0.4890 -0.0690 -0.2500
 8592SOL     OW37408   2.398   2.833   7.167  0.0092  0.1127 -0.1762
 8592SOL    HW137409   2.343   2.892   7.116  1.8981  0.3790 -1.8769
 8592SOL    HW237410   2.339   2.827   7.242 -1.6494 -0.2719 -1.5074
 8593SOL     OW37411   0.303   2.367  13.629  0.5546 -0.4682 -0.2743
 8593SOL    HW137412   0.280   2.278  13.653  0.4826 -0.9230 -2.0256
 8593SOL    HW237413   0.301   2.420  13.709  1.2500 -2.0707  0.7914
 8594SOL     OW37414   3.720   2.039   1.322  0.2509  0.1060 -0.3075
 8594SOL    HW137415   3.693   2.131   1.322 -0.3405 -0.0767 -1.8062
 8594SOL    HW237416   3.811   2.064   1.304 -0.3039  1.1432 -1.6042
 8595SOL     OW37417   4.174   3.632   2.102 -0.6496  0.1107  0.0517
 8595SOL    HW137418   4.092   3.680   2.114 -0.2874  0.7025  0.1759
 8595SOL    HW237419   4.229   3.680   2.164  1.3908 -0.0560 -1.6227
 8596SOL     OW37420   4.302   4.039   9.201 -0.4709  0.2257  0.4987
 8596SOL    HW137421   4.371   3.975   9.219 -0.4969  0.1273  0.2497
 8596SOL    HW237422   4.332   4.107   9.261  1.2995 -1.1436  1.1424
 8597SOL     OW37423   1.519   2.290   3.849  0.0556  0.1093  0.0936
 8597SOL    HW137424   1.524   2.339   3.766 -0.3444 -0.3999 -0.2330
 8597SOL    HW237425   1.609   2.257   3.854 -0.3130 -0.5023  2.5687
 8598SOL     OW37426   2.323   1.897   3.474 -0.2638 -0.6867  0.1897
 8598SOL    HW137427   2.359   1.858   3.554 -1.9695 -0.9589  0.8200
 8598SOL    HW237428   2.389   1.871   3.410 -2.0752 -0.8216 -1.6122
 8599SOL     OW37429   3.339   3.077   5.851 -0.1936  0.0199 -0.3411
 8599SOL    HW137430   3.284   2.999   5.840 -0.8413  0.4739 -0.3544
 8599SOL    HW237431   3.312   3.103   5.939 -1.4525  1.4441 -1.1412
 8600SOL     OW37432   4.706   0.220  15.503 -0.5081 -0.2118 -0.1130
 8600SOL    HW137433   4.699   0.284  15.573 -0.1530  1.5567 -1.6707
 8600SOL    HW237434   4.642   0.249  15.438 -3.5237 -0.5247  2.7838
 8601SOL     OW37435   2.289   0.791   0.291 -0.0659 -0.9697  0.1393
 8601SOL    HW137436   2.230   0.720   0.265 -2.6537  1.0486  0.5381
 8601SOL    HW237437   2.373   0.772   0.250 -1.2729 -2.4122 -1.6520
 8602SOL     OW37438   1.518   2.613   7.328  0.2638 -0.1191  0.0002
 8602SOL    HW137439   1.540   2.689   7.274  0.2945 -0.3476 -0.3027
 8602SOL    HW237440   1.605   2.582   7.353 -0.3687 -0.4749  1.8275
 8603SOL     OW37441   2.115   2.846   3.546  0.6728  0.0866 -0.6102
 8603SOL    HW137442   2.056   2.912   3.509 -1.6889 -0.8017  1.5473
 8603SOL    HW237443   2.051   2.816   3.611  0.0728 -0.2425 -1.3553
 8604SOL     OW37444   3.864   1.357   3.827  0.2145  0.2781  0.4390
 8604SOL    HW137445   3.813   1.276   3.833  1.7664 -0.6791  1.0025
 8604SOL    HW237446   3.952   1.323   3.848 -1.0718 -3.2170  0.2400
 8605SOL     OW37447   3.008   3.893   4.711  0.4180 -0.0648 -0.2333
 8605SOL    HW137448   3.044   3.870   4.797 -1.1193 -0.0584  0.4172
 8605SOL    HW237449   3.030   3.986   4.718  1.2400 -0.4120  2.0392
 8606SOL     OW37450   1.660   0.211   6.917  0.1220 -0.0002 -0.0465
 8606SOL    HW137451   1.714   0.156   6.974  0.5782  0.4398 -0.0572
 8606SOL    HW237452   1.672   0.295   6.960  1.7254  0.5514 -1.5721
 8607SOL     OW37453   0.013   1.211   4.249 -0.1094  0.2660 -0.0653
 8607SOL    HW137454   4.668   1.218   4.205  0.0259  0.2271 -0.3361
 8607SOL    HW237455   0.003   1.140   4.312  0.3202  0.9790  0.8019
 8608SOL     OW37456   3.166   2.920  12.607 -0.4807 -0.1676  0.0876
 8608SOL    HW137457   3.218   2.995  12.635  1.5513 -1.3355 -0.5929
 8608SOL    HW237458   3.078   2.947  12.631 -0.1008 -0.5805  1.9489
 8609SOL     OW37459   1.681   0.922  16.368 -0.7733  0.0670  0.0422
 8609SOL    HW137460   1.701   0.929  16.275  0.2541  3.4645  0.5175
 8609SOL    HW237461   1.753   0.965  16.415  0.4729 -1.2447 -0.6876
 8610SOL     OW37462   3.358   0.435   0.962  0.4356 -0.5138 -0.4545
 8610SOL    HW137463   3.276   0.484   0.960  1.2992  0.9741  0.5039
 8610SOL    HW237464   3.385   0.450   0.871 -2.5112 -0.6292 -1.3427
 8611SOL     OW37465   2.449   3.062   5.422  0.2918 -0.7816 -0.2218
 8611SOL    HW137466   2.532   3.016   5.436  1.3163  1.2438  0.4278
 8611SOL    HW237467   2.449   3.116   5.500  1.1893  0.1747 -0.8802
 8612SOL     OW37468   0.782   4.616   3.053  0.2848  0.0125  0.5057
 8612SOL    HW137469   0.698   4.631   3.096 -0.7618  2.1235 -2.2739
 8612SOL    HW237470   0.841   4.600   3.127 -0.0092  1.6166  1.0701
 8613SOL     OW37471   0.152   0.530  10.267  0.0357  0.0834 -0.1672
 8613SOL    HW137472   0.194   0.550  10.183 -1.1902  0.8706 -0.5934
 8613SOL    HW237473   0.196   0.447  10.285 -0.6812 -0.0594  0.9253
 8614SOL     OW37474   2.019   1.028  10.279  0.0736 -0.1630  0.1677
 8614SOL    HW137475   2.032   1.085  10.356 -1.2216 -1.2034  1.1446
 8614SOL    HW237476   1.954   0.968  10.315 -0.0188 -0.4032 -0.4145
 8615SOL     OW37477   1.791   1.276   4.059  0.6306 -0.1729 -0.2215
 8615SOL    HW137478   1.811   1.236   3.975  2.0467  0.6270 -0.2630
 8615SOL    HW237479   1.695   1.274   4.064  0.7903 -0.1028  3.0396
 8616SOL     OW37480   3.112   3.332   4.073  0.2125 -0.1268  0.3935
 8616SOL    HW137481   3.134   3.264   4.136  2.0335 -0.7481 -0.9269
 8616SOL    HW237482   3.023   3.304   4.052 -0.1206  1.3249 -0.2028
 8617SOL     OW37483   3.661   1.785  17.455 -0.2745 -0.1745 -0.0480
 8617SOL    HW137484   3.618   1.702  17.432  0.1831 -0.4564  0.1087
 8617SOL    HW237485   3.720   1.760  17.526 -0.7099 -4.5434 -1.2349
 8618SOL     OW37486   1.758   2.610   9.457 -0.0342  0.3214 -0.0858
 8618SOL    HW137487   1.814   2.667   9.509 -1.6467 -0.7972  2.8982
 8618SOL    HW237488   1.680   2.664   9.445 -0.2023 -0.4893 -2.5388
 8619SOL     OW37489   3.095   3.784   3.682 -0.2319 -0.1870  0.2523
 8619SOL    HW137490   3.119   3.876   3.696 -0.3502  0.0805 -1.2616
 8619SOL    HW237491   3.179   3.753   3.648  0.4292 -0.1577  1.8642
 8620SOL     OW37492   1.429   2.841  10.343 -0.8362  0.1165  0.4395
 8620SOL    HW137493   1.405   2.862  10.253 -0.0185 -1.1688 -0.0668
 8620SOL    HW237494   1.421   2.746  10.348  0.9680  0.0505  2.0668
 8621SOL     OW37495   1.585   1.550   7.608 -0.4642  0.2253 -0.1238
 8621SOL    HW137496   1.587   1.610   7.683  0.4010 -0.0332  0.0646
 8621SOL    HW237497   1.537   1.607   7.548  1.2416  1.7370 -0.0790
 8622SOL     OW37498   1.502   0.752   7.912 -0.5440 -0.1814 -0.0934
 8622SOL    HW137499   1.572   0.790   7.965 -0.4206 -0.4343 -0.0742
 8622SOL    HW237500   1.462   0.701   7.981  0.3163 -0.3726  0.2650
 8623SOL     OW37501   2.515   1.086  12.377 -0.4428  0.5374 -0.2890
 8623SOL    HW137502   2.604   1.065  12.349  0.3656  2.5040  0.8211
 8623SOL    HW237503   2.522   1.181  12.368 -1.3483  0.6039 -0.2244
 8624SOL     OW37504   0.298   4.408   4.689 -0.0927  0.0089 -0.8222
 8624SOL    HW137505   0.239   4.433   4.760  1.1237 -1.3477  0.6364
 8624SOL    HW237506   0.302   4.315   4.711 -0.4315 -0.0512 -1.0096
 8625SOL     OW37507   3.712   3.867   1.835 -0.2835 -0.4211 -0.2266
 8625SOL    HW137508   3.700   3.787   1.886 -1.8211  0.1856  0.3724
 8625SOL    HW237509   3.773   3.827   1.773  0.9381 -0.2231  0.8291
 8626SOL     OW37510   4.628   4.596   0.978  0.3503 -0.1448 -0.0311
 8626SOL    HW137511   4.714   4.636   0.963  0.9357 -0.8776  1.3551
 8626SOL    HW237512   4.654   4.504   0.974 -0.5095 -0.4667  1.6820
 8627SOL     OW37513   1.995   3.421   1.950 -0.3248  0.3196  0.0693
 8627SOL    HW137514   1.932   3.391   2.015  1.3859 -0.6606  1.2593
 8627SOL    HW237515   2.065   3.443   2.012  0.3847 -0.2600 -0.5279
 8628SOL     OW37516   2.523   4.497  11.632  0.1482  0.4053 -0.2550
 8628SOL    HW137517   2.463   4.559  11.674 -0.1556 -1.6454  2.3454
 8628SOL    HW237518   2.534   4.437  11.706  0.8822  1.2094  0.2954
 8629SOL     OW37519   4.579   1.962   5.149  0.2979  1.1428  0.6659
 8629SOL    HW137520   4.656   1.935   5.099 -0.7549  0.5355 -0.6524
 8629SOL    HW237521   4.613   1.992   5.233  1.1852 -1.0153  1.0869
 8630SOL     OW37522   2.211   2.866   7.344  0.1742  0.5122 -0.2762
 8630SOL    HW137523   2.128   2.913   7.348 -0.5266 -0.8411  0.7869
 8630SOL    HW237524   2.260   2.878   7.426  0.6212 -2.3364 -0.1210
 8631SOL     OW37525   4.588   1.712   9.511 -0.2224  0.1557 -0.0152
 8631SOL    HW137526   4.533   1.738   9.585  0.5793 -1.3415  1.0983
 8631SOL    HW237527   4.531   1.638   9.491 -1.8874  1.1686  0.9475
 8632SOL     OW37528   2.616   4.723   5.998 -0.1663  0.2009  0.9665
 8632SOL    HW137529   2.521   4.718   6.006 -0.2560  1.1297  0.5007
 8632SOL    HW237530   2.618   0.057   5.937 -4.0861  0.4084  1.0772
 8633SOL     OW37531   1.291   0.735   5.070  0.3396 -0.1027  0.2405
 8633SOL    HW137532   1.381   0.716   5.043  0.4264  0.4224  0.1506
 8633SOL    HW237533   1.300   0.822   5.107  1.8472  0.1079 -0.6268
 8634SOL     OW37534   3.348   0.830  13.652  0.4603 -0.2748 -0.8844
 8634SOL    HW137535   3.442   0.823  13.667  0.2670 -1.4671 -0.2049
 8634SOL    HW237536   3.340   0.817  13.558  2.2918  1.8554 -1.3402
 8635SOL     OW37537   4.411   3.982   3.659  0.3159  0.0127  0.7370
 8635SOL    HW137538   4.378   3.943   3.740 -1.5965  0.2314  0.0703
 8635SOL    HW237539   4.392   4.075   3.665 -0.0662  0.0956 -1.9726
 8636SOL     OW37540   4.335   0.243   8.750 -0.7947  0.8046  0.4633
 8636SOL    HW137541   4.392   0.205   8.817  0.0756  0.7543 -0.2945
 8636SOL    HW237542   4.257   0.187   8.749 -0.7338  0.6857  4.0560
 8637SOL     OW37543   2.186   0.061   3.110  0.3165 -0.0995 -0.3754
 8637SOL    HW137544   2.168   0.137   3.165 -1.5859 -0.1452 -0.9362
 8637SOL    HW237545   2.247   0.091   3.042  1.7096 -3.8321 -0.7755
 8638SOL     OW37546   3.078   0.869   6.565  0.3901 -0.4862  0.3094
 8638SOL    HW137547   3.131   0.904   6.637 -1.0377  5.1702 -1.3814
 8638SOL    HW237548   3.123   0.786   6.552  1.5305 -0.0561  1.4799
 8639SOL     OW37549   2.232   2.155  15.892  0.3037  0.7960  0.3243
 8639SOL    HW137550   2.296   2.122  15.956 -0.2459  0.8257  0.8936
 8639SOL    HW237551   2.228   2.089  15.824  0.4264  1.4612 -0.3264
 8640SOL     OW37552   3.504   3.851   2.219  0.3445 -0.0066  0.6245
 8640SOL    HW137553   3.489   3.800   2.299 -1.8859 -0.8855 -0.3738
 8640SOL    HW237554   3.425   3.904   2.221 -1.7416 -3.0879 -0.5192
 8641SOL     OW37555   1.744   4.664   8.948  0.5733 -0.7175  0.1500
 8641SOL    HW137556   1.762   0.011   8.914  0.8013 -0.4779  0.8921
 8641SOL    HW237557   1.650   4.669   8.968  0.1788 -2.9881 -1.1690
 8642SOL     OW37558   3.112   4.396  14.351 -0.0545  0.8213  0.1914
 8642SOL    HW137559   3.133   4.484  14.319  1.4821  0.4890  0.2883
 8642SOL    HW237560   3.030   4.376  14.306  0.4955  0.1699 -0.5497
 8643SOL     OW37561   1.830   2.403   5.254  0.3259  0.3272  0.4941
 8643SOL    HW137562   1.850   2.463   5.326  0.3554 -1.3726  1.9098
 8643SOL    HW237563   1.780   2.331   5.293 -0.9123 -0.6397 -2.8841
 8644SOL     OW37564   2.624   4.531  12.341 -0.5087 -0.1488 -0.2174
 8644SOL    HW137565   2.597   4.614  12.302  1.0350  0.2959 -0.3410
 8644SOL    HW237566   2.658   4.485  12.264 -2.9836  0.6476 -1.7826
 8645SOL     OW37567   4.002   3.419   9.465  0.3967 -0.6286  0.3207
 8645SOL    HW137568   3.944   3.438   9.539 -2.8150 -2.0094 -1.8342
 8645SOL    HW237569   4.001   3.324   9.474  1.6440 -1.0292 -3.7572
 8646SOL     OW37570   2.029   1.144   3.754  0.3067  0.3161  0.0440
 8646SOL    HW137571   1.993   1.232   3.765 -0.0690  0.1822 -0.1108
 8646SOL    HW237572   2.000   1.119   3.666 -2.1709 -0.8814  1.2301
 8647SOL     OW37573   1.633   3.657  10.108 -0.3083 -0.5266  0.0170
 8647SOL    HW137574   1.608   3.577  10.060  2.7504 -0.4511 -1.6656
 8647SOL    HW237575   1.546   3.677  10.145 -0.6777 -0.9354 -0.6228
 8648SOL     OW37576   0.622   1.272   2.204 -0.4135 -0.4363  0.7009
 8648SOL    HW137577   0.590   1.232   2.124  2.7042 -2.0563  0.2387
 8648SOL    HW237578   0.676   1.196   2.230 -0.8857 -0.6744  0.9883
 8649SOL     OW37579   4.247   0.757   4.380  0.0117  0.1988  0.3257
 8649SOL    HW137580   4.300   0.814   4.325 -1.2351  0.0433 -1.0606
 8649SOL    HW237581   4.240   0.675   4.331 -0.1610 -0.1348  0.9096
 8650SOL     OW37582   3.998   1.775  12.939 -0.1014  0.1661 -0.2084
 8650SOL    HW137583   4.059   1.726  12.993 -0.9388 -2.0709 -1.2638
 8650SOL    HW237584   4.037   1.860  12.919  1.8671 -0.9591 -1.1682
 8651SOL     OW37585   2.680   0.234  12.721  0.0978  0.7275 -0.3646
 8651SOL    HW137586   2.700   0.147  12.754 -1.8503  1.2151  2.0354
 8651SOL    HW237587   2.757   0.290  12.725 -1.5886  2.8002  3.0241
 8652SOL     OW37588   3.190   0.621   6.491  0.7798  0.3670  0.3888
 8652SOL    HW137589   3.219   0.534   6.519  1.7079  0.5283 -0.0987
 8652SOL    HW237590   3.129   0.595   6.421  0.0748  1.9191  0.4288
 8653SOL     OW37591   0.943   2.611   2.516  0.1714  0.2859  0.4331
 8653SOL    HW137592   0.965   2.617   2.609 -0.1172 -2.2172  0.6734
 8653SOL    HW237593   0.849   2.616   2.530 -0.1461  0.7502 -1.9364
 8654SOL     OW37594   4.549   4.717   4.541 -0.0745 -0.2226 -0.0897
 8654SOL    HW137595   4.521   0.067   4.532  2.7066  0.6732  0.2896
 8654SOL    HW237596   4.597   4.729   4.623  0.4481  1.4230 -0.6409
 8655SOL     OW37597   2.687   3.087  13.821  0.4331  0.1284 -0.2826
 8655SOL    HW137598   2.731   3.007  13.794  2.1713  1.0437 -0.1490
 8655SOL    HW237599   2.615   3.100  13.759 -1.2298 -0.6656  1.4682
 8656SOL     OW37600   3.625   1.108   7.355 -0.0979  0.2951  0.4164
 8656SOL    HW137601   3.617   1.103   7.259 -0.5376 -1.6870  0.5547
 8656SOL    HW237602   3.555   1.172   7.369 -0.5233 -0.1562  0.3512
 8657SOL     OW37603   3.399   0.501  12.980 -0.0490 -0.3910 -0.0735
 8657SOL    HW137604   3.417   0.594  12.964  0.0567 -0.0776  1.8481
 8657SOL    HW237605   3.489   0.468  12.980  0.4074  0.8537 -0.0935
 8658SOL     OW37606   2.355   4.594  14.850  0.1373  0.6262  0.5174
 8658SOL    HW137607   2.412   4.517  14.844  1.9186  2.0457 -0.8862
 8658SOL    HW237608   2.334   4.602  14.943  0.6521  1.6113  0.5498
 8659SOL     OW37609   4.290   0.797  10.774  0.2398 -0.4411  0.0325
 8659SOL    HW137610   4.226   0.860  10.741  0.7843  0.9632  1.6918
 8659SOL    HW237611   4.234   0.750  10.835  0.9301 -0.5286  0.5992
 8660SOL     OW37612   4.203   4.676   3.526  0.2067 -0.5189  0.1266
 8660SOL    HW137613   4.214   4.631   3.610 -0.0976 -1.6702 -0.4367
 8660SOL    HW237614   4.136   4.616   3.492 -2.8788  2.3306  1.1124
 8661SOL     OW37615   1.193   1.476  12.471 -0.1849 -0.1801  0.0521
 8661SOL    HW137616   1.228   1.473  12.560  0.5373 -1.1510 -0.2646
 8661SOL    HW237617   1.257   1.420  12.428 -0.7903  0.7276 -2.0028
 8662SOL     OW37618   3.049   1.306   9.978  0.3907  0.4825 -0.1888
 8662SOL    HW137619   3.047   1.212   9.964 -1.1685  0.5033 -0.1267
 8662SOL    HW237620   3.056   1.337   9.888 -3.4696  0.6989 -0.4388
 8663SOL     OW37621   3.258   3.660   2.795 -0.0218 -0.4019  0.4651
 8663SOL    HW137622   3.257   3.732   2.732 -2.9431 -1.8021 -1.0993
 8663SOL    HW237623   3.339   3.612   2.777  0.2457 -0.1147  0.9008
 8664SOL     OW37624   2.993   3.892   7.380 -1.2038 -0.2692 -0.0849
 8664SOL    HW137625   2.923   3.872   7.441 -0.0196  1.1463  1.7265
 8664SOL    HW237626   2.941   3.942   7.318  2.0910  2.6957 -0.4505
 8665SOL     OW37627   2.627   4.659  14.962 -0.9138 -0.3254  0.2934
 8665SOL    HW137628   2.586   4.730  14.913 -1.4787  0.3107  1.6995
 8665SOL    HW237629   2.615   4.578  14.911 -2.8020  0.8681 -1.1463
 8666SOL     OW37630   4.430   1.847   9.242  0.3819 -0.1786 -0.3470
 8666SOL    HW137631   4.505   1.884   9.196  0.3052  1.2967  0.7263
 8666SOL    HW237632   4.388   1.805   9.167 -0.1652 -0.3196  0.0380
 8667SOL     OW37633   1.244   4.506   2.613  0.0368  0.1517  0.3520
 8667SOL    HW137634   1.246   4.451   2.691 -1.7260 -1.5088 -0.7403
 8667SOL    HW237635   1.150   4.513   2.596 -0.0438  0.7037  1.0350
 8668SOL     OW37636   3.518   0.624   6.379 -0.3971 -0.2734  0.1038
 8668SOL    HW137637   3.503   0.580   6.295  0.9858  0.9709 -0.7838
 8668SOL    HW237638   3.495   0.552   6.438 -1.9620  1.2797  1.4052
 8669SOL     OW37639   2.983   4.566   8.542 -0.0054 -0.4549 -0.0928
 8669SOL    HW137640   2.948   4.568   8.453  2.7004 -2.1496 -1.2268
 8669SOL    HW237641   3.060   4.620   8.523 -0.9871  1.3891  1.2012
 8670SOL     OW37642   4.063   0.697  10.549  0.0524 -0.5151 -0.0977
 8670SOL    HW137643   4.034   0.789  10.552 -1.7495 -1.1512  2.8839
 8670SOL    HW237644   4.064   0.678  10.643 -2.3846  0.8120  0.1939
 8671SOL     OW37645   2.985   4.482   5.029  0.0263 -0.2652  0.6467
 8671SOL    HW137646   2.935   4.456   4.951  0.6228  1.1957 -0.2055
 8671SOL    HW237647   3.070   4.445   5.004 -0.0205  0.1472 -0.1397
 8672SOL     OW37648   2.264   2.408   3.775 -0.5868 -0.7990  0.5736
 8672SOL    HW137649   2.326   2.458   3.828 -1.9236  0.1574  1.2204
 8672SOL    HW237650   2.270   2.443   3.686 -0.0101  0.6629  1.1893
 8673SOL     OW37651   4.248   3.731  15.339  0.3653  0.6727  0.0760
 8673SOL    HW137652   4.279   3.652  15.293  0.5478  0.3397  0.7724
 8673SOL    HW237653   4.159   3.737  15.306  0.2467 -1.4874  0.0062
 8674SOL     OW37654   4.362   2.976   7.642  0.0281 -0.2586  0.2094
 8674SOL    HW137655   4.379   2.992   7.549  1.2234  2.2864  0.8624
 8674SOL    HW237656   4.341   2.883   7.652  3.6273 -0.8990  1.9820
 8675SOL     OW37657   3.637   4.246   7.663  0.6771  0.3235 -0.2187
 8675SOL    HW137658   3.648   4.338   7.638 -1.5726  0.8366  0.6595
 8675SOL    HW237659   3.728   4.216   7.665  0.9481  1.2759  1.4084
 8676SOL     OW37660   0.028   4.483   8.622  0.3108  0.3774 -0.3399
 8676SOL    HW137661   0.116   4.476   8.587  0.8056 -1.4553  1.2622
 8676SOL    HW237662   0.045   4.471   8.716 -1.4963 -0.6997 -0.1415
 8677SOL     OW37663   4.731   3.696  13.050 -0.2815  0.0343 -0.0468
 8677SOL    HW137664   4.719   3.764  13.116 -0.7636  1.3217 -1.4600
 8677SOL    HW237665   4.662   3.709  12.985 -0.2695  2.8497  0.4992
 8678SOL     OW37666   4.591   3.770   1.288 -0.5497 -0.1823  0.1649
 8678SOL    HW137667   4.682   3.797   1.300 -0.8970  0.3024  1.6388
 8678SOL    HW237668   4.549   3.788   1.372  1.4944 -1.8601  1.5736
 8679SOL     OW37669   0.486   4.126   6.753 -0.5687 -0.1850  0.0586
 8679SOL    HW137670   0.442   4.094   6.832 -1.2489  0.0181 -0.2404
 8679SOL    HW237671   0.577   4.118   6.783 -0.4199  1.7067  0.0843
 8680SOL     OW37672   3.212   3.405   7.325  0.1775  0.2997  0.0313
 8680SOL    HW137673   3.141   3.362   7.372  3.3798 -1.9374  2.7509
 8680SOL    HW237674   3.187   3.497   7.336  0.2671  0.0404  2.4612
 8681SOL     OW37675   1.572   0.128   5.915  0.3317  0.2030 -0.0251
 8681SOL    HW137676   1.550   0.212   5.955  0.0817  0.5853 -0.9684
 8681SOL    HW237677   1.563   0.075   5.994 -0.8267  2.6877  1.5033
 8682SOL     OW37678   4.360   1.060   9.614 -0.0622 -0.5218  0.6332
 8682SOL    HW137679   4.422   1.132   9.625  2.3228 -2.7052  1.3786
 8682SOL    HW237680   4.418   0.985   9.604 -0.9989 -1.3185  1.0811
 8683SOL     OW37681   0.035   1.844  13.000  0.6241  0.5288 -0.0877
 8683SOL    HW137682   0.052   1.754  12.972  3.6388  0.5670  1.6062
 8683SOL    HW237683   4.726   1.874  12.924 -2.6644 -1.8679  1.1175
 8684SOL     OW37684   4.039   1.970   5.780  0.0630 -0.5060 -0.4812
 8684SOL    HW137685   4.071   2.052   5.741  0.4062 -0.9967 -1.2267
 8684SOL    HW237686   4.041   1.898   5.717  0.7373  0.2753 -1.3595
 8685SOL     OW37687   3.824   1.133   4.911  0.1350  0.6358 -0.0730
 8685SOL    HW137688   3.819   1.148   4.817 -0.2975 -0.2871 -0.1983
 8685SOL    HW237689   3.898   1.074   4.921 -1.1797 -0.7060  1.7870
 8686SOL     OW37690   4.336   1.534   8.613  0.0492 -0.6102 -0.1251
 8686SOL    HW137691   4.341   1.453   8.562  1.0377 -1.0274  0.6148
 8686SOL    HW237692   4.244   1.561   8.614  0.6541  1.2710  4.7170
 8687SOL     OW37693   2.322   0.782   5.884 -0.3618  0.2418 -0.0913
 8687SOL    HW137694   2.265   0.752   5.813  0.0578  0.3030 -0.4565
 8687SOL    HW237695   2.410   0.773   5.846  0.0009 -0.1185  0.8261
 8688SOL     OW37696   3.198   4.501  14.058  0.3352 -0.3239 -0.2354
 8688SOL    HW137697   3.240   4.534  14.137  0.7221 -2.1547  0.3219
 8688SOL    HW237698   3.272   4.505  13.998  0.9225  1.1502  0.5797
 8689SOL     OW37699   0.783   3.176  16.494 -0.0293 -0.7324  0.5828
 8689SOL    HW137700   0.774   3.235  16.569  0.0776  0.2209 -0.1431
 8689SOL    HW237701   0.703   3.124  16.502  0.3007 -1.2024  0.7560
 8690SOL     OW37702   0.936   4.001   5.817 -0.3030  0.4986  0.5604
 8690SOL    HW137703   0.918   4.087   5.779 -1.2631 -0.0491 -0.2447
 8690SOL    HW237704   1.017   4.014   5.866 -0.6788 -2.6318  2.0281
 8691SOL     OW37705   3.524   0.741  10.056 -0.3868  0.2065  0.0390
 8691SOL    HW137706   3.618   0.725  10.049  0.0322  1.4298  2.7426
 8691SOL    HW237707   3.503   0.673  10.120 -0.9888 -2.1051 -2.6581
 8692SOL     OW37708   3.912   3.554   4.055 -0.2059  0.5002 -0.3252
 8692SOL    HW137709   3.880   3.579   3.968 -2.9685 -3.5270 -0.4899
 8692SOL    HW237710   3.947   3.643   4.062  2.8985 -0.6986 -0.4318
 8693SOL     OW37711   0.656   3.433   7.289 -0.4697  0.3212  0.3118
 8693SOL    HW137712   0.672   3.384   7.369  0.1847 -0.6716 -0.4258
 8693SOL    HW237713   0.711   3.385   7.227 -0.5658  1.1113 -0.3925
 8694SOL     OW37714   1.198   0.275   2.927  0.4418 -0.6409 -0.6836
 8694SOL    HW137715   1.167   0.221   3.000 -2.1003 -0.5184 -1.6857
 8694SOL    HW237716   1.162   0.238   2.847  1.7015 -2.5929 -0.3566
 8695SOL     OW37717   3.529   4.270   0.110  0.6625  0.1382 -0.4329
 8695SOL    HW137718   3.622   4.292   0.115  0.3261  1.5429 -0.2095
 8695SOL    HW237719   3.514   4.245   0.201 -1.9167  1.0443 -0.6166
 8696SOL     OW37720   2.083   1.321   9.552  0.4705  0.5983 -0.6944
 8696SOL    HW137721   2.038   1.317   9.468 -0.8756  1.0402 -0.0054
 8696SOL    HW237722   2.025   1.258   9.597  1.3013 -0.3355 -0.9319
 8697SOL     OW37723   0.656   2.390  12.567 -0.2551  0.7502  0.1039
 8697SOL    HW137724   0.656   2.463  12.629 -0.7500 -2.1650  3.5213
 8697SOL    HW237725   0.623   2.329  12.633  0.5067 -1.3350 -1.4492
 8698SOL     OW37726   3.037   2.892   9.790 -0.2918 -0.6437  0.2751
 8698SOL    HW137727   3.110   2.852   9.837  1.5497  1.7486 -0.5653
 8698SOL    HW237728   3.016   2.830   9.720  3.1642 -1.9079  0.3722
 8699SOL     OW37729   1.010   0.468   2.306  0.0213  0.1527 -0.4465
 8699SOL    HW137730   0.938   0.529   2.322 -0.6883 -0.7745 -0.1317
 8699SOL    HW237731   1.077   0.537   2.304  0.4195 -0.2553 -1.3334
 8700SOL     OW37732   3.749   4.640   4.995 -0.3843 -0.0152  0.1155
 8700SOL    HW137733   3.820   4.625   4.933 -2.1299 -1.7079 -1.4797
 8700SOL    HW237734   3.680   4.593   4.948 -0.0301  2.1187 -2.5226
 8701SOL     OW37735   3.022   2.033   6.990  0.4056 -0.1760 -0.5051
 8701SOL    HW137736   3.060   1.967   7.047  2.7719  1.3973 -0.2722
 8701SOL    HW237737   3.017   2.117   7.036 -1.6445 -0.2944 -0.5151
 8702SOL     OW37738   0.984   3.638   9.541 -0.4094 -0.9635 -0.1734
 8702SOL    HW137739   1.023   3.555   9.513 -0.1986 -1.7399  2.3958
 8702SOL    HW237740   1.056   3.698   9.563 -0.0869 -0.8258 -1.6035
 8703SOL     OW37741   3.337   1.182  11.848 -0.2798  0.0032  0.3178
 8703SOL    HW137742   3.381   1.097  11.841 -0.7439 -0.1985 -0.1422
 8703SOL    HW237743   3.322   1.197  11.941 -0.1023  2.7829 -0.0847
 8704SOL     OW37744   1.248   2.340   0.923  0.2223  0.4487 -0.2358
 8704SOL    HW137745   1.341   2.351   0.944  0.6549  1.2545 -2.5572
 8704SOL    HW237746   1.221   2.431   0.925 -0.3928  0.1970  2.1015
 8705SOL     OW37747   2.512   4.185   5.032 -0.3688 -0.1663 -0.1186
 8705SOL    HW137748   2.568   4.225   5.099  0.8613 -1.6632 -0.2481
 8705SOL    HW237749   2.569   4.114   5.002 -0.0507 -0.6568  1.6278
 8706SOL     OW37750   4.575   2.287   4.585 -0.0113  0.4765 -0.6419
 8706SOL    HW137751   4.524   2.224   4.533  0.4314 -0.8561  0.5392
 8706SOL    HW237752   4.652   2.293   4.529 -0.2652 -1.0365 -1.1554
 8707SOL     OW37753   3.596   2.136   7.196  0.2440  0.4040  0.0437
 8707SOL    HW137754   3.516   2.161   7.149  0.4558  1.1718  0.0796
 8707SOL    HW237755   3.596   2.170   7.285  3.7079 -0.0938  0.2203
 8708SOL     OW37756   3.838   2.615   7.331  0.7513 -0.2861  0.6823
 8708SOL    HW137757   3.795   2.541   7.289  0.4277 -0.7329  1.7858
 8708SOL    HW237758   3.808   2.602   7.421 -1.7346  2.2506  0.2387
 8709SOL     OW37759   4.623   1.190   8.051  0.3741 -0.4258  0.0031
 8709SOL    HW137760   4.624   1.195   7.955 -0.0377 -0.8544 -0.0224
 8709SOL    HW237761   4.534   1.216   8.075  0.7137  1.2425 -0.5958
 8710SOL     OW37762   4.133   2.064   0.717  0.4794  0.1399  0.2682
 8710SOL    HW137763   4.087   2.144   0.692 -0.8950 -1.2417 -1.5849
 8710SOL    HW237764   4.068   1.995   0.725  0.1517  0.6853  2.2713
 8711SOL     OW37765   1.959   2.552   2.935  0.0151 -0.4796  0.1242
 8711SOL    HW137766   2.008   2.506   2.867  2.3917  1.0534  0.7825
 8711SOL    HW237767   1.913   2.474   2.964  1.7924 -1.0384  1.4601
 8712SOL     OW37768   2.002   3.576   3.807 -0.1458  0.5168  0.4923
 8712SOL    HW137769   1.916   3.612   3.827 -0.6166 -1.3635  1.8140
 8712SOL    HW237770   2.032   3.623   3.729 -1.3605 -0.1883 -0.4077
 8713SOL     OW37771   3.655   1.138   0.198  0.3538  0.2609  0.1757
 8713SOL    HW137772   3.720   1.139   0.127  1.7136  0.8170  1.4279
 8713SOL    HW237773   3.593   1.075   0.162  2.3896 -2.1878  0.9530
 8714SOL     OW37774   0.471   1.475   1.890  0.0161 -0.7269 -0.1578
 8714SOL    HW137775   0.437   1.387   1.905  0.7790 -0.9056  0.5075
 8714SOL    HW237776   0.560   1.450   1.868  0.3036  0.2299 -0.0676
 8715SOL     OW37777   2.440   3.894   4.833  0.5068  0.4551  0.1460
 8715SOL    HW137778   2.506   3.956   4.802  0.9441 -0.5347 -0.9041
 8715SOL    HW237779   2.453   3.828   4.764  1.2591  0.0948  0.6328
 8716SOL     OW37780   2.736   4.703   7.865  0.1251  0.5745  0.2096
 8716SOL    HW137781   2.778   0.040   7.902  0.2035  0.2944  0.7144
 8716SOL    HW237782   2.806   4.639   7.868  0.5187  0.9741 -0.3862
 8717SOL     OW37783   1.942   0.771   6.059  0.3038 -0.4565  0.0516
 8717SOL    HW137784   1.913   0.852   6.101  0.3104 -1.2370  1.5814
 8717SOL    HW237785   1.985   0.799   5.978 -1.7345  3.4474  0.3058
 8718SOL     OW37786   4.646   2.435   6.843 -0.3983  0.1067 -0.0590
 8718SOL    HW137787   4.684   2.523   6.845  2.6278 -1.2320 -0.1132
 8718SOL    HW237788   4.639   2.402   6.932  0.1851 -1.4004 -0.5715
 8719SOL     OW37789   0.276   4.569   3.389 -0.0474  0.1870 -0.3825
 8719SOL    HW137790   0.234   4.654   3.378 -0.2918 -0.0209 -1.1151
 8719SOL    HW237791   0.192   4.527   3.407 -0.6537  1.1041 -1.0885
 8720SOL     OW37792   2.199   3.883   0.924 -0.2315  0.1454  0.6065
 8720SOL    HW137793   2.244   3.944   0.865 -1.6011  0.4612 -0.1156
 8720SOL    HW237794   2.122   3.844   0.882  0.0251 -0.1240  0.3803
 8721SOL     OW37795   1.165   3.276   4.096 -0.3797 -0.0280 -0.2651
 8721SOL    HW137796   1.223   3.265   4.020  0.5661 -0.1019  0.4694
 8721SOL    HW237797   1.212   3.229   4.166  1.3617  0.3290 -1.1995
 8722SOL     OW37798   0.348   0.012   4.650  0.0679 -0.9138  0.5227
 8722SOL    HW137799   0.435   4.715   4.641  0.0759 -0.6980 -0.2781
 8722SOL    HW237800   0.295   4.675   4.634  0.8519 -1.0264 -1.5711
 8723SOL     OW37801   1.799   2.321   3.033 -0.0626 -0.4720  0.5262
 8723SOL    HW137802   1.709   2.302   3.005  0.2553 -0.1261 -0.7390
 8723SOL    HW237803   1.838   2.238   3.006  1.5996  0.8973 -1.2113
 8724SOL     OW37804   3.089   0.921   6.180 -0.1867  0.5702  0.1164
 8724SOL    HW137805   3.084   0.947   6.272 -1.4464 -2.3923  0.8742
 8724SOL    HW237806   3.096   1.006   6.138  2.9842 -0.1209 -0.7489
 8725SOL     OW37807   2.086   4.012   2.887 -0.4601  0.3454 -0.2582
 8725SOL    HW137808   2.098   4.074   2.815 -0.8806  0.8262  0.0836
 8725SOL    HW237809   2.174   4.001   2.922 -0.6873 -1.0979 -0.1536
 8726SOL     OW37810   2.472   4.105   7.013 -0.9231 -0.8037  0.5564
 8726SOL    HW137811   2.431   4.022   7.038 -0.1138 -1.5246 -0.4833
 8726SOL    HW237812   2.554   4.085   7.059  0.3166  1.4167 -0.6925
 8727SOL     OW37813   2.353   2.929   7.867 -0.1010 -0.2194 -1.1660
 8727SOL    HW137814   2.307   2.858   7.912  0.5138  0.0476 -0.1206
 8727SOL    HW237815   2.442   2.926   7.902 -0.6421  4.6341  0.5918
 8728SOL     OW37816   3.375   2.566   1.612  0.4118 -0.0072  0.0794
 8728SOL    HW137817   3.286   2.587   1.640  0.3434 -0.4308  0.1801
 8728SOL    HW237818   3.398   2.638   1.553  0.1658 -0.3540 -0.4435
 8729SOL     OW37819   4.642   4.450   2.067  0.2735 -0.0979 -0.4150
 8729SOL    HW137820   4.663   4.520   2.128  0.6673  0.6032 -1.3599
 8729SOL    HW237821   4.723   4.401   2.081 -0.9046 -2.1732 -0.8484
 8730SOL     OW37822   3.558   1.489  14.322  0.0000  0.6968 -0.8921
 8730SOL    HW137823   3.489   1.515  14.260 -1.3395 -1.1135 -0.1386
 8730SOL    HW237824   3.629   1.547  14.297  0.7129  0.4509  0.5789
 8731SOL     OW37825   0.874   2.632   7.223 -0.6021  0.5667 -0.2190
 8731SOL    HW137826   0.834   2.668   7.144  0.6745  4.2137  0.7774
 8731SOL    HW237827   0.798   2.579   7.247  0.3154 -1.3262 -1.4845
 8732SOL     OW37828   0.760   1.150   7.009  0.0456  0.1918  0.2159
 8732SOL    HW137829   0.706   1.107   7.075 -0.3299  0.4711  0.0952
 8732SOL    HW237830   0.836   1.095   6.992  2.2968  4.0416 -2.3596
 8733SOL     OW37831   4.713   3.953   8.892 -0.6481 -0.1808 -0.3423
 8733SOL    HW137832   4.644   3.889   8.874  1.2118 -1.4989 -2.8603
 8733SOL    HW237833   4.678   4.028   8.844  0.7253 -0.2977 -1.5442
 8734SOL     OW37834   3.255   1.170   5.316  0.2703  0.2828 -0.2213
 8734SOL    HW137835   3.311   1.220   5.257  1.9315 -0.8718  0.3681
 8734SOL    HW237836   3.238   1.239   5.381  2.8551 -1.4622  2.3095
 8735SOL     OW37837   1.687   1.229  17.033 -0.2749  0.3905  0.0641
 8735SOL    HW137838   1.646   1.315  17.018  1.4919  1.0267 -1.1399
 8735SOL    HW237839   1.619   1.165  17.010 -0.5536  0.2372  1.3415
 8736SOL     OW37840   1.637   0.356   6.598  0.2620  0.1437 -0.0659
 8736SOL    HW137841   1.591   0.276   6.622  1.0370 -0.6129 -1.1302
 8736SOL    HW237842   1.571   0.424   6.617 -0.5056 -0.6175 -0.0080
 8737SOL     OW37843   1.407   4.532   5.084 -0.1009  0.4715 -0.7499
 8737SOL    HW137844   1.502   4.538   5.096 -0.4036  0.6255  1.5304
 8737SOL    HW237845   1.372   4.473   5.150  0.7610  0.8305  0.0385
 8738SOL     OW37846   2.201   4.265  17.718 -0.3222  0.3448 -0.7033
 8738SOL    HW137847   2.177   4.213  17.642  0.3067 -0.5215 -0.3175
 8738SOL    HW237848   2.219   4.195   0.021 -0.8737 -0.1207 -1.0623
 8739SOL     OW37849   0.574   1.141   9.100  0.0308 -0.0241 -0.0883
 8739SOL    HW137850   0.657   1.161   9.057 -0.2849 -2.3772 -1.8325
 8739SOL    HW237851   0.559   1.214   9.159  1.8986  0.3300 -0.0408
 8740SOL     OW37852   3.748   3.135   2.520  0.0167  0.7480  0.3433
 8740SOL    HW137853   3.777   3.044   2.519  1.0855  1.0869  0.5010
 8740SOL    HW237854   3.657   3.106   2.513  0.2987 -0.0648 -0.0083
 8741SOL     OW37855   1.203   4.171  12.784 -0.9961  0.3687 -0.2530
 8741SOL    HW137856   1.143   4.177  12.858  0.4823  0.6191  0.9207
 8741SOL    HW237857   1.281   4.143  12.831 -0.2051  4.1786  0.7015
 8742SOL     OW37858   4.642   3.180   3.887 -0.5279  0.7985  0.6711
 8742SOL    HW137859   4.694   3.246   3.931 -1.2375  1.8083  0.0010
 8742SOL    HW237860   4.609   3.124   3.957  1.7880 -1.5297 -0.0910
 8743SOL     OW37861   3.672   3.094   8.626  0.1261  0.6010 -0.4818
 8743SOL    HW137862   3.711   3.167   8.674  0.9442  2.6512 -4.2826
 8743SOL    HW237863   3.714   3.096   8.540  0.1248 -1.0438 -0.5173
 8744SOL     OW37864   1.860   3.533  10.170 -0.1214  0.2075  0.3019
 8744SOL    HW137865   1.902   3.510  10.087  0.5352 -2.5765  1.4339
 8744SOL    HW237866   1.778   3.581  10.155  0.0039  0.2059 -0.3904
 8745SOL     OW37867   2.527   3.562  13.046 -0.1455  0.3170 -0.2533
 8745SOL    HW137868   2.498   3.472  13.035  0.5898  0.0953 -0.3639
 8745SOL    HW237869   2.534   3.572  13.141 -0.4734  0.4488 -0.2449
 8746SOL     OW37870   3.378   4.196  12.844  0.4052  0.1516  0.3766
 8746SOL    HW137871   3.286   4.181  12.866 -0.2603  1.1113 -1.6848
 8746SOL    HW237872   3.424   4.159  12.919  0.3721  0.3785  0.5095
 8747SOL     OW37873   0.246   2.818   0.727 -0.2359 -0.5471 -0.8541
 8747SOL    HW137874   0.203   2.799   0.810  2.7952  0.8523  1.0519
 8747SOL    HW237875   0.190   2.884   0.687  0.0405  1.4001  1.9779
 8748SOL     OW37876   0.016   0.696   4.591  0.3442 -0.2840 -0.0927
 8748SOL    HW137877   4.699   0.749   4.646  0.7125 -1.8604  1.8075
 8748SOL    HW237878   0.102   0.735   4.606  1.4714 -3.1421  0.8232
 8749SOL     OW37879   1.587   2.681  15.706 -0.3812 -0.5527 -0.2805
 8749SOL    HW137880   1.620   2.602  15.665  4.1742  1.1822  0.0961
 8749SOL    HW237881   1.565   2.635  15.787  2.8480 -0.8107  0.4367
 8750SOL     OW37882   2.895   2.981   2.699  0.2545 -0.5593  0.3553
 8750SOL    HW137883   2.807   2.945   2.712  1.0604 -2.9156 -0.6467
 8750SOL    HW237884   2.877   3.062   2.652 -0.6732 -0.9522  0.0256
 8751SOL     OW37885   1.271   1.948   6.481 -0.0807 -0.2848 -0.2998
 8751SOL    HW137886   1.333   2.022   6.480 -2.8500  2.0163 -1.2158
 8751SOL    HW237887   1.240   1.935   6.391  1.0440  1.8877 -1.0166
 8752SOL     OW37888   3.316   0.968   4.773  0.3765 -0.3456  0.1387
 8752SOL    HW137889   3.312   1.054   4.731  1.3610 -0.6373 -0.5547
 8752SOL    HW237890   3.375   0.914   4.721  0.7418  0.0517  0.1363
 8753SOL     OW37891   3.081   0.763  14.563  0.2432  0.7546 -0.0132
 8753SOL    HW137892   3.149   0.788  14.501  3.0517 -2.3973  1.8088
 8753SOL    HW237893   3.006   0.788  14.509  0.0185  3.7135  1.6386
 8754SOL     OW37894   4.357   3.561  15.156  0.0519 -0.2221 -0.7276
 8754SOL    HW137895   4.449   3.585  15.167 -0.4986  2.2291 -1.5344
 8754SOL    HW237896   4.362   3.518  15.071  0.3899  0.1492 -0.8940
 8755SOL     OW37897   2.701   2.879   8.300 -0.2698  0.2763  0.2792
 8755SOL    HW137898   2.715   2.973   8.311  1.3260 -0.0814  1.2901
 8755SOL    HW237899   2.733   2.851   8.386 -1.3414 -1.9408 -0.0541
 8756SOL     OW37900   3.207   3.289   9.100  0.4744  0.4584  0.1026
 8756SOL    HW137901   3.149   3.230   9.052  1.8149 -0.1662 -0.7430
 8756SOL    HW237902   3.238   3.237   9.174 -0.3618  4.3430  3.1690
 8757SOL     OW37903   1.356   0.860   2.760  1.4253 -0.2260 -0.1503
 8757SOL    HW137904   1.296   0.787   2.743 -2.3493  2.3125  2.3813
 8757SOL    HW237905   1.423   0.795   2.782  0.3539 -1.1908  0.2825
 8758SOL     OW37906   2.131   2.861  17.726  0.3184  0.1474  0.0818
 8758SOL    HW137907   2.057   2.885  17.669  1.8225 -3.0845 -3.1979
 8758SOL    HW237908   2.122   2.901   0.052 -0.6115  0.2275 -0.0473
 8759SOL     OW37909   2.308   1.113   5.688  0.8066 -0.0817 -0.4494
 8759SOL    HW137910   2.232   1.104   5.631  0.4162  3.1954 -0.4859
 8759SOL    HW237911   2.380   1.081   5.634  0.7001 -2.2801  0.7305
 8760SOL     OW37912   4.474   2.982   2.334 -0.0536  0.1574  0.1976
 8760SOL    HW137913   4.419   3.056   2.361  0.2603  0.6767 -0.5775
 8760SOL    HW237914   4.504   3.015   2.249 -1.1424  0.9778  0.1157
 8761SOL     OW37915   2.972   1.587   7.043  0.6827 -0.6200  0.1417
 8761SOL    HW137916   2.974   1.666   7.097  0.5314 -0.9893  0.6845
 8761SOL    HW237917   2.905   1.530   7.081 -0.4189  0.0907 -0.7348
 8762SOL     OW37918   2.189   3.323   9.641 -0.7730 -0.2530  0.6966
 8762SOL    HW137919   2.100   3.350   9.663  0.1974  1.1955  2.8379
 8762SOL    HW237920   2.251   3.395   9.650  0.6175 -1.2806 -0.6478
 8763SOL     OW37921   3.302   3.882   4.036 -0.5506  0.0139  0.2903
 8763SOL    HW137922   3.242   3.819   4.075 -0.5255 -0.6595 -0.7729
 8763SOL    HW237923   3.373   3.829   4.001  1.1018  2.2494  0.2453
 8764SOL     OW37924   1.180   3.580   4.509  0.4361  0.2559  0.4020
 8764SOL    HW137925   1.214   3.597   4.596 -1.0379  0.7239  0.8819
 8764SOL    HW237926   1.089   3.608   4.517 -0.4000 -1.4457 -3.1361
 8765SOL     OW37927   0.525   3.570   5.757 -0.0360  0.1053  0.1138
 8765SOL    HW137928   0.527   3.567   5.661  0.8148 -2.8443  0.2363
 8765SOL    HW237929   0.612   3.532   5.770 -0.0740  0.1260  0.4113
 8766SOL     OW37930   2.481   2.686   1.435 -0.7550  0.0144  0.2395
 8766SOL    HW137931   2.441   2.657   1.353  0.0257 -2.6322  0.7965
 8766SOL    HW237932   2.526   2.762   1.399  0.1580 -0.9398 -0.6736
 8767SOL     OW37933   0.533   3.088  16.428 -0.1436 -0.3039 -0.2403
 8767SOL    HW137934   0.455   3.074  16.375 -0.1935 -1.2763  0.0917
 8767SOL    HW237935   0.497   3.141  16.499 -0.7971  1.0058 -1.5519
 8768SOL     OW37936   3.891   4.717   4.606  0.1786 -0.0612 -0.4991
 8768SOL    HW137937   3.969   4.728   4.661 -0.2476  2.6388 -0.4777
 8768SOL    HW237938   3.931   4.701   4.520  0.4896 -0.8567 -0.2144
 8769SOL     OW37939   3.094   1.055   2.151 -0.0223  0.1691  0.2527
 8769SOL    HW137940   3.135   1.123   2.097 -0.2690  2.3237  2.7728
 8769SOL    HW237941   3.022   1.034   2.092 -0.7846  1.1287  0.8284
 8770SOL     OW37942   2.458   3.630   8.793  0.6157 -0.0801  0.1917
 8770SOL    HW137943   2.402   3.683   8.736  1.5080  0.8502  0.1740
 8770SOL    HW237944   2.432   3.651   8.883  2.4732 -0.0518  0.7165
 8771SOL     OW37945   1.171   1.358   4.081 -0.0800  0.5273 -0.2237
 8771SOL    HW137946   1.212   1.423   4.138  0.0279  1.2332 -1.1070
 8771SOL    HW237947   1.112   1.312   4.141 -0.9999  2.3999  0.3065
 8772SOL     OW37948   2.508   4.092  14.609  0.5257  0.5935 -0.1054
 8772SOL    HW137949   2.499   4.027  14.539 -0.3024  0.4217  0.1610
 8772SOL    HW237950   2.566   4.150  14.558  0.7839  0.8533  0.4855
 8773SOL     OW37951   4.167   1.679   3.883  0.7415  0.1518 -0.0969
 8773SOL    HW137952   4.133   1.741   3.819  1.7968  0.8245 -0.0111
 8773SOL    HW237953   4.245   1.648   3.836  1.3065  1.5478 -0.0809
 8774SOL     OW37954   3.373   4.477   9.817 -0.3597 -0.1243  0.5919
 8774SOL    HW137955   3.343   4.563   9.791 -0.3909 -0.0056  1.0130
 8774SOL    HW237956   3.330   4.420   9.754  1.5168  0.6406 -1.3752
 8775SOL     OW37957   0.522   3.677   7.056 -0.1572 -0.0388  0.0240
 8775SOL    HW137958   0.488   3.607   7.112 -2.4508  0.5674 -0.6022
 8775SOL    HW237959   0.602   3.632   7.028  0.8108  0.7882  1.4361
 8776SOL     OW37960   2.740   3.683   5.843 -0.2225  0.2674 -0.2643
 8776SOL    HW137961   2.739   3.700   5.937 -2.5074 -0.9865 -0.0478
 8776SOL    HW237962   2.826   3.644   5.829  1.1325  2.9184  0.7704
 8777SOL     OW37963   1.541   2.039   7.967  0.2522  0.1529  0.1470
 8777SOL    HW137964   1.605   1.975   7.995  0.3910  0.5931  0.8559
 8777SOL    HW237965   1.467   1.983   7.944  0.9347 -1.4171  1.7919
 8778SOL     OW37966   2.752   4.204   3.135 -0.5505  0.2722  0.5845
 8778SOL    HW137967   2.805   4.267   3.087 -2.4027 -0.1387 -1.9831
 8778SOL    HW237968   2.666   4.218   3.096 -0.5467  0.3901  0.6197
 8779SOL     OW37969   2.924   2.284   9.196  0.3060  0.1498 -0.0731
 8779SOL    HW137970   2.926   2.307   9.289 -1.8513 -3.5728  0.9385
 8779SOL    HW237971   3.018   2.293   9.183 -0.1188  4.2348 -0.2804
 8780SOL     OW37972   1.701   4.324  17.543  0.5809 -0.1076 -0.8887
 8780SOL    HW137973   1.751   4.269  17.483  0.4284 -0.8200 -0.3663
 8780SOL    HW237974   1.611   4.299  17.522  0.6970 -0.7769 -0.5999
 8781SOL     OW37975   3.850   2.047   2.370 -0.1113  0.4623  0.2031
 8781SOL    HW137976   3.876   1.966   2.327  1.0986  0.3791  1.1018
 8781SOL    HW237977   3.757   2.038   2.348  0.3958 -0.8932 -1.4012
 8782SOL     OW37978   2.138   0.334   6.948  0.0366  0.1045 -0.3994
 8782SOL    HW137979   2.097   0.381   7.021  0.4048  0.2037 -0.2598
 8782SOL    HW237980   2.073   0.354   6.881 -1.4538  0.5505  1.1833
 8783SOL     OW37981   4.040   1.566   7.597  0.1678 -0.0890  0.0389
 8783SOL    HW137982   4.038   1.644   7.542 -1.5267 -0.9231 -1.1016
 8783SOL    HW237983   3.950   1.541   7.576  0.6101 -0.3555 -1.5280
 8784SOL     OW37984   0.557   0.985   2.824 -0.3422  0.1682 -0.1679
 8784SOL    HW137985   0.623   0.916   2.823 -0.1509  0.3409  2.9027
 8784SOL    HW237986   0.572   1.028   2.908  2.7390  1.1366 -1.1984
 8785SOL     OW37987   3.849   4.668   5.987  0.1115  0.7362  0.1080
 8785SOL    HW137988   3.833   4.588   5.937  1.9958  1.3179 -1.3740
 8785SOL    HW237989   3.875   4.632   6.072  0.4530  0.6165 -0.0501
 8786SOL     OW37990   1.613   2.001   8.596 -0.2743  0.1737 -0.3287
 8786SOL    HW137991   1.615   1.918   8.643 -2.5169 -0.7228 -1.8052
 8786SOL    HW237992   1.549   1.983   8.527 -0.2358  1.1070 -0.6080
 8787SOL     OW37993   0.984   3.428  17.652 -0.0684 -0.5331  0.0040
 8787SOL    HW137994   1.007   3.515  17.620  1.6141 -0.4486  1.4384
 8787SOL    HW237995   0.953   3.440  17.742  0.7781  0.2580  0.1866
 8788SOL     OW37996   0.925   3.337   4.225 -0.1822  0.2796 -0.3477
 8788SOL    HW137997   1.012   3.332   4.186 -0.3014 -0.4055 -0.5232
 8788SOL    HW237998   0.914   3.270   4.292  0.0489  0.3749 -0.2144
 8789SOL     OW37999   0.797   2.264  15.911 -0.4804 -0.4212 -0.6010
 8789SOL    HW138000   0.706   2.291  15.922 -0.7130 -1.7262  0.7243
 8789SOL    HW238001   0.835   2.351  15.907  0.5568 -0.7817  1.6449
 8790SOL     OW38002   2.822   0.751  16.169  0.5818 -1.0491 -0.3968
 8790SOL    HW138003   2.801   0.683  16.105  0.3775 -1.8136  0.4935
 8790SOL    HW238004   2.914   0.768  16.149 -0.1089  0.4160 -2.3883
 8791SOL     OW38005   2.456   1.735   2.212  0.2712 -0.1754 -0.5038
 8791SOL    HW138006   2.369   1.748   2.174  0.0489  1.2365  0.4519
 8791SOL    HW238007   2.451   1.801   2.282 -2.4909  0.0492 -0.9241
 8792SOL     OW38008   4.677   3.924  17.581 -0.2683  0.1232 -0.1165
 8792SOL    HW138009   0.025   3.961  17.577 -0.5916  1.0444  1.3078
 8792SOL    HW238010   4.700   3.837  17.611  0.5118  0.3383 -0.0810
 8793SOL     OW38011   4.155   2.382   2.682  0.0589  0.0358 -0.4376
 8793SOL    HW138012   4.098   2.318   2.639  0.9378 -2.0370  1.5216
 8793SOL    HW238013   4.225   2.319   2.698 -0.4984 -0.3979  0.3186
 8794SOL     OW38014   0.630   4.189  10.344  0.4405  0.2207 -0.1264
 8794SOL    HW138015   0.678   4.257  10.391  1.2778 -1.7524  1.8461
 8794SOL    HW238016   0.696   4.126  10.314 -1.0083 -0.2575 -2.3376
 8795SOL     OW38017   0.755   0.943   5.868 -0.2422 -0.2478  0.0980
 8795SOL    HW138018   0.800   1.007   5.813 -0.4757  0.9077  1.2492
 8795SOL    HW238019   0.744   0.877   5.800 -0.1987 -0.6612  0.4936
 8796SOL     OW38020   0.714   0.016  15.232 -0.3858 -0.3768  0.0080
 8796SOL    HW138021   0.651   0.029  15.303 -0.7226 -0.4624 -0.2744
 8796SOL    HW238022   0.793   0.061  15.260  0.2693 -0.2130 -2.0476
 8797SOL     OW38023   1.113   4.662   6.672 -0.2013 -0.3592  0.1041
 8797SOL    HW138024   1.165   4.587   6.703 -2.4206 -1.1612  1.8833
 8797SOL    HW238025   1.062   4.680   6.751  0.5116 -2.4758  1.0594
 8798SOL     OW38026   1.085   2.386   2.725  0.0227  0.2174  0.1999
 8798SOL    HW138027   1.128   2.312   2.769 -0.4943  0.9909  2.0250
 8798SOL    HW238028   1.137   2.387   2.645 -0.7277  0.8314 -0.2798
 8799SOL     OW38029   2.013   0.967   8.888  0.0902  0.5498  0.1362
 8799SOL    HW138030   2.065   0.893   8.858 -0.8427  0.7381 -1.9549
 8799SOL    HW238031   1.959   0.982   8.810  0.8412  1.5571 -0.1884
 8800SOL     OW38032   4.596   4.182  14.655 -0.1882 -0.6056 -0.1671
 8800SOL    HW138033   4.532   4.223  14.713  0.9453  2.5789 -1.1302
 8800SOL    HW238034   4.674   4.219  14.698  1.4094 -0.3206 -3.3015
 8801SOL     OW38035   2.427   3.775  17.680 -0.0987 -0.6169  0.4379
 8801SOL    HW138036   2.505   3.821  17.652 -0.9698  1.2017  1.0401
 8801SOL    HW238037   2.396   3.759  17.591  0.5630 -0.6678  0.2153
 8802SOL     OW38038   0.159   2.836   6.978 -0.3268 -0.6432  0.2486
 8802SOL    HW138039   0.183   2.927   6.959  0.5834 -0.4795  2.1658
 8802SOL    HW238040   0.244   2.798   6.955  0.6537  1.3577  0.5856
 8803SOL     OW38041   4.410   2.958   7.939  0.3586  0.4514 -0.2561
 8803SOL    HW138042   4.403   2.983   7.847 -0.6682  0.8683 -0.0667
 8803SOL    HW238043   4.422   3.042   7.983  1.2624  0.0330  0.3070
 8804SOL     OW38044   0.766   3.013   7.569 -0.9534  0.0237  0.0102
 8804SOL    HW138045   0.844   2.966   7.599 -1.4904  0.4083  1.9885
 8804SOL    HW238046   0.687   2.972   7.604 -1.3503  0.8757  0.1057
 8805SOL     OW38047   2.926   0.317   8.550  0.0943 -0.2517  0.5331
 8805SOL    HW138048   2.850   0.368   8.578 -0.5405 -1.9653  1.9795
 8805SOL    HW238049   2.886   0.253   8.491 -1.6739 -0.5590  2.0366
 8806SOL     OW38050   0.970   4.732  12.513 -0.3558  0.2555  0.0187
 8806SOL    HW138051   1.034   4.680  12.562 -0.4554  0.9630  0.9112
 8806SOL    HW238052   0.892   4.708  12.564 -2.6597  2.9083 -2.2795
 8807SOL     OW38053   0.065   2.342   1.125 -0.1402 -0.3676 -0.1729
 8807SOL    HW138054   0.080   2.391   1.044 -3.6496  0.2821 -0.4111
 8807SOL    HW238055   0.139   2.281   1.124 -0.0573 -0.2907  2.0526
 8808SOL     OW38056   3.332   3.821   4.913  0.1602  0.3874  0.2426
 8808SOL    HW138057   3.365   3.734   4.894 -0.0868  0.5064 -0.7234
 8808SOL    HW238058   3.415   3.866   4.923  0.1563  0.7929 -1.5228
 8809SOL     OW38059   4.698   3.423   4.706 -0.8162 -0.2801 -0.6817
 8809SOL    HW138060   4.650   3.427   4.622 -1.7913 -0.1313 -0.1222
 8809SOL    HW238061   0.041   3.382   4.686 -1.2881 -2.4299  1.7987
 8810SOL     OW38062   4.364   1.722  16.486 -0.7143 -0.1182  0.1672
 8810SOL    HW138063   4.369   1.815  16.462  0.1288 -0.2197 -0.0526
 8810SOL    HW238064   4.400   1.709  16.574  1.4941 -1.8891 -0.9867
 8811SOL     OW38065   0.595   1.354   3.927 -0.0343  0.2722 -0.0774
 8811SOL    HW138066   0.669   1.295   3.934 -0.5901 -0.2620  1.2125
 8811SOL    HW238067   0.614   1.390   3.840 -1.1716  0.0524 -0.4210
 8812SOL     OW38068   3.349   4.639   3.172 -0.3663  0.7190 -0.0873
 8812SOL    HW138069   3.429   4.683   3.200  1.0104 -0.0224 -2.8367
 8812SOL    HW238070   3.360   4.637   3.077  0.5847  0.1107  0.0367
 8813SOL     OW38071   3.527   2.779   2.048 -0.0714  0.8819  0.3534
 8813SOL    HW138072   3.595   2.842   2.069  1.3943 -0.2147 -1.1433
 8813SOL    HW238073   3.584   2.702   2.050 -0.5941  0.5319  2.2216
 8814SOL     OW38074   2.251   4.030   1.347 -0.1471 -0.6107 -0.4148
 8814SOL    HW138075   2.254   4.039   1.251  0.8714  1.8047 -0.1756
 8814SOL    HW238076   2.159   4.048   1.365 -0.2630 -0.4286 -1.1673
 8815SOL     OW38077   1.390   1.576   3.960 -0.1211  0.0249  0.4446
 8815SOL    HW138078   1.345   1.646   3.914  1.1385  0.1270 -0.6532
 8815SOL    HW238079   1.339   1.574   4.040 -1.1520  0.3161 -0.2051
 8816SOL     OW38080   3.745   3.113   5.155 -0.1015 -0.2500  1.1281
 8816SOL    HW138081   3.701   3.159   5.226 -0.7870  1.7323 -0.5727
 8816SOL    HW238082   3.681   3.048   5.126  1.5888 -1.1834 -0.4898
 8817SOL     OW38083   0.850   3.000   7.234  0.5468  0.6198  0.4918
 8817SOL    HW138084   0.767   2.975   7.274  0.5710 -0.9480 -0.4342
 8817SOL    HW238085   0.865   3.088   7.268  0.5989  0.4797  0.8299
 8818SOL     OW38086   2.527   2.906   9.180  0.5639 -0.2635  0.4251
 8818SOL    HW138087   2.519   2.960   9.258 -4.1818  1.6353 -1.3987
 8818SOL    HW238088   2.490   2.957   9.108 -2.6618 -1.3226  1.3615
 8819SOL     OW38089   1.674   2.769   5.220  0.1461  0.2861  0.1841
 8819SOL    HW138090   1.759   2.801   5.252  1.2556 -0.5083 -2.0201
 8819SOL    HW238091   1.656   2.706   5.290 -2.0602 -1.6799 -2.1577
 8820SOL     OW38092   0.135   3.682  12.238 -0.4992  0.3627  0.5631
 8820SOL    HW138093   0.057   3.630  12.219  0.1639  0.2606 -1.9307
 8820SOL    HW238094   0.099   3.770  12.238  1.5830  1.2310 -3.4898
 8821SOL     OW38095   4.729   1.663   2.634 -0.5662 -0.3720 -0.3077
 8821SOL    HW138096   0.077   1.685   2.663 -0.6906  0.3095 -0.4382
 8821SOL    HW238097   4.724   1.733   2.569 -1.8672  0.6131  0.8378
 8822SOL     OW38098   2.358   1.020   1.960 -0.4810  0.1912 -0.4559
 8822SOL    HW138099   2.371   1.019   1.865 -1.6178  1.3194 -0.6326
 8822SOL    HW238100   2.335   1.113   1.967 -0.6484  0.2035 -1.1088
 8823SOL     OW38101   1.041   3.013   4.270  0.3194  0.2999 -0.6214
 8823SOL    HW138102   1.036   3.010   4.175 -1.7912  0.2359 -0.4996
 8823SOL    HW238103   1.136   3.017   4.283  0.1645 -1.8769  1.0298
 8824SOL     OW38104   4.479   3.846   8.795 -0.5949  0.3110 -0.0428
 8824SOL    HW138105   4.449   3.884   8.713  0.6369 -0.9960 -1.0903
 8824SOL    HW238106   4.402   3.843   8.852 -1.0365  2.7698 -0.5159
 8825SOL     OW38107   4.370   2.114  16.870 -0.0603 -0.3780 -0.2114
 8825SOL    HW138108   4.435   2.101  16.939  0.6886  1.5455 -0.5521
 8825SOL    HW238109   4.363   2.033  16.821  4.7269 -0.4865 -0.7318
 8826SOL     OW38110   0.450   1.810   2.977 -0.1361  0.1408 -0.0653
 8826SOL    HW138111   0.538   1.846   2.993 -0.2007 -0.3518  1.4183
 8826SOL    HW238112   0.467   1.721   3.006  0.5239  0.4466  0.4848
 8827SOL     OW38113   0.958   1.042   6.802  0.0069  0.3380 -0.0772
 8827SOL    HW138114   0.944   1.038   6.708 -1.6623 -1.4886  0.2337
 8827SOL    HW238115   0.982   1.133   6.819 -1.8871  0.2578  3.1629
 8828SOL     OW38116   0.837   3.854   6.402  0.1781 -0.9319  0.1294
 8828SOL    HW138117   0.800   3.854   6.314 -1.3140 -2.0962  0.7552
 8828SOL    HW238118   0.866   3.945   6.406 -1.9334 -0.2846  0.8788
 8829SOL     OW38119   1.924   1.614   1.775 -0.2102 -0.2616 -0.2066
 8829SOL    HW138120   1.828   1.612   1.784 -0.1076 -4.2484  0.2828
 8829SOL    HW238121   1.958   1.678   1.837  1.1379 -1.2624  0.0773
 8830SOL     OW38122   3.677   4.311   9.184 -0.4885 -0.3145 -0.3309
 8830SOL    HW138123   3.724   4.247   9.131  2.5087  1.0039  0.7189
 8830SOL    HW238124   3.701   4.279   9.271 -0.3827 -1.4023 -0.7659
 8831SOL     OW38125   4.638   0.211   5.780  0.0532  0.4122 -0.5881
 8831SOL    HW138126   4.570   0.278   5.777 -0.0473  0.3092 -0.6441
 8831SOL    HW238127   4.714   0.254   5.819 -0.9343  1.7029 -0.1199
 8832SOL     OW38128   2.938   2.592   3.792 -0.1572  0.3208  0.1366
 8832SOL    HW138129   3.006   2.560   3.732  0.3971  1.9904 -0.1260
 8832SOL    HW238130   2.953   2.686   3.791 -2.4664  0.6913  0.8757
 8833SOL     OW38131   0.275   3.198   2.170 -0.5028 -0.2940  0.0057
 8833SOL    HW138132   0.188   3.233   2.154 -0.6524  0.5215  2.6853
 8833SOL    HW238133   0.315   3.224   2.087  0.4643  0.1210  0.5998
 8834SOL     OW38134   0.485   3.245   8.443 -0.4105 -0.7773  0.8948
 8834SOL    HW138135   0.416   3.258   8.509 -2.3527  3.7884 -2.0159
 8834SOL    HW238136   0.561   3.247   8.501 -1.6937 -0.4780  2.5660
 8835SOL     OW38137   2.395   1.060   8.132 -0.4843 -0.0912 -0.0533
 8835SOL    HW138138   2.400   1.144   8.178  0.3849 -0.3602  0.3369
 8835SOL    HW238139   2.469   1.064   8.072 -0.9803 -0.4752 -0.6849
 8836SOL     OW38140   2.790   0.120   4.616  0.4055 -0.0906 -0.2324
 8836SOL    HW138141   2.825   0.039   4.652 -1.4390  0.3644  2.5615
 8836SOL    HW238142   2.867   0.147   4.564  0.4043  0.1287 -0.1219
 8837SOL     OW38143   2.274   3.992  14.657 -0.2523  0.1946  0.8230
 8837SOL    HW138144   2.367   4.012  14.654 -0.5203  1.4935  0.9916
 8837SOL    HW238145   2.252   3.975  14.565 -0.0686  0.3937  0.7407
 8838SOL     OW38146   2.009   3.015   4.438 -0.2265 -0.2306  0.5580
 8838SOL    HW138147   2.089   2.962   4.431  0.5780  0.8576  1.5292
 8838SOL    HW238148   1.999   3.009   4.533  1.0430 -0.1624  0.7031
 8839SOL     OW38149   2.143   0.500   2.820 -0.3442 -0.3376 -0.1368
 8839SOL    HW138150   2.177   0.480   2.907  0.3049  1.0244 -0.0587
 8839SOL    HW238151   2.052   0.524   2.835  0.2066  1.1803  0.8153
 8840SOL     OW38152   2.651   1.817   8.207 -0.3519 -0.5659  0.2063
 8840SOL    HW138153   2.639   1.912   8.210 -3.3715 -0.9077 -1.0899
 8840SOL    HW238154   2.655   1.798   8.300  1.5711 -0.3550  0.1570
 8841SOL     OW38155   2.336   3.958  17.475 -0.5512 -0.4853 -0.1721
 8841SOL    HW138156   2.271   3.963  17.545  0.0368  0.3334  0.3106
 8841SOL    HW238157   2.363   4.050  17.475  2.4298 -1.3837 -4.7369
 8842SOL     OW38158   2.821   1.503  14.335 -0.3585  0.2688  0.2014
 8842SOL    HW138159   2.859   1.543  14.257 -2.5860  2.6295  0.3559
 8842SOL    HW238160   2.840   1.575  14.394 -2.6674 -0.9703  2.4440
 8843SOL     OW38161   3.822   3.623   3.807  0.2008  0.0186 -0.0488
 8843SOL    HW138162   3.776   3.632   3.723 -0.0543 -0.1018  0.0796
 8843SOL    HW238163   3.911   3.636   3.775  0.0127 -0.3810 -0.7445
 8844SOL     OW38164   4.133   3.957   7.976  0.4566 -0.6395  0.1088
 8844SOL    HW138165   4.079   3.887   8.013 -0.6402 -0.2210 -0.7249
 8844SOL    HW238166   4.212   3.909   7.950  0.9193  0.0585  0.2347
 8845SOL     OW38167   3.855   2.628   8.775  0.5703  0.5925 -0.0411
 8845SOL    HW138168   3.871   2.722   8.769 -0.2553  0.7289 -0.1180
 8845SOL    HW238169   3.940   2.587   8.790 -0.1673 -0.8021  0.3207
 8846SOL     OW38170   2.782   1.225   8.823  0.5673  0.1878  0.2489
 8846SOL    HW138171   2.735   1.143   8.837  0.4933  0.3991  1.2779
 8846SOL    HW238172   2.713   1.286   8.847  1.6524  1.7626 -0.6386
 8847SOL     OW38173   4.264   2.171  11.541  0.2612  0.0441 -0.4559
 8847SOL    HW138174   4.194   2.234  11.553  0.0971  0.3075 -2.6848
 8847SOL    HW238175   4.232   2.107  11.605 -0.2831  2.7047  1.9017
 8848SOL     OW38176   2.043   2.724   4.802 -0.2366  0.1064 -0.1847
 8848SOL    HW138177   1.969   2.754   4.854 -0.2468  0.3989 -0.3699
 8848SOL    HW238178   2.071   2.647   4.853  1.6112  1.3673  0.7064
 8849SOL     OW38179   3.085   1.382   2.982 -0.6309  0.2910 -0.1118
 8849SOL    HW138180   3.024   1.310   2.995  0.0195  0.1349  2.1146
 8849SOL    HW238181   3.072   1.382   2.887 -1.2150 -1.9335 -0.0279
 8850SOL     OW38182   3.698   3.075  11.710  0.3276 -0.2761  0.2429
 8850SOL    HW138183   3.631   3.039  11.652 -0.7174  1.8543  0.1204
 8850SOL    HW238184   3.749   3.000  11.741  1.0146 -0.0683 -0.3796
 8851SOL     OW38185   0.549   2.887  11.773 -0.0795 -0.5479  0.0714
 8851SOL    HW138186   0.493   2.946  11.722  0.4568 -0.7946 -0.8024
 8851SOL    HW238187   0.576   2.939  11.848  3.4320 -2.1753 -0.0904
 8852SOL     OW38188   1.744   4.647   2.758  0.0031  0.3390  0.2150
 8852SOL    HW138189   1.827   4.609   2.785 -0.2731 -1.0610 -0.8931
 8852SOL    HW238190   1.691   4.569   2.738 -0.2344  0.5794 -0.1045
 8853SOL     OW38191   1.231   1.279  16.897  0.4813 -0.2314  0.8431
 8853SOL    HW138192   1.284   1.213  16.942  1.4429  0.2856  0.4705
 8853SOL    HW238193   1.259   1.363  16.933 -0.8054  1.8507 -3.0238
 8854SOL     OW38194   1.712   1.180   1.686 -0.5102  0.1823 -0.2490
 8854SOL    HW138195   1.640   1.162   1.625 -1.0917 -3.7618  1.5382
 8854SOL    HW238196   1.793   1.139   1.656 -0.7771  0.1344 -0.9075
 8855SOL     OW38197   2.884   0.902   7.383  0.0018  0.0415 -0.0584
 8855SOL    HW138198   2.808   0.933   7.433  0.0847  0.3459 -0.1247
 8855SOL    HW238199   2.903   0.980   7.331  2.9653  0.7158  2.1139
 8856SOL     OW38200   4.619   2.573  14.986 -0.3343 -0.3194 -0.5060
 8856SOL    HW138201   4.633   2.636  15.056  1.2017 -1.6781  0.4166
 8856SOL    HW238202   4.703   2.570  14.939  0.8346 -1.3781  1.6830
 8857SOL     OW38203   4.069   0.817   7.760  0.6033 -0.4367  0.1067
 8857SOL    HW138204   4.078   0.865   7.678  0.3298 -0.8414 -0.1595
 8857SOL    HW238205   4.043   0.892   7.814  0.2980  0.3747 -1.1600
 8858SOL     OW38206   0.580   1.541   2.240 -0.4601  0.2374 -0.3995
 8858SOL    HW138207   0.633   1.537   2.319 -0.6826  0.1530 -0.2541
 8858SOL    HW238208   0.592   1.453   2.202 -1.6629  0.5416 -1.4653
 8859SOL     OW38209   2.374   3.530   6.464  0.2935  0.1974 -0.1200
 8859SOL    HW138210   2.395   3.621   6.444 -1.0734  0.5770  0.1903
 8859SOL    HW238211   2.283   3.534   6.492  0.0941 -3.7291 -0.2022
 8860SOL     OW38212   3.535   2.238   6.401 -0.3192  0.3034  0.3635
 8860SOL    HW138213   3.511   2.150   6.429 -0.7404  0.4314  0.4105
 8860SOL    HW238214   3.464   2.260   6.341  0.5627  0.5730 -0.5790
 8861SOL     OW38215   2.911   1.986   2.515  0.3419 -0.2500 -0.2843
 8861SOL    HW138216   2.883   1.895   2.529  1.5452 -0.8008 -1.4256
 8861SOL    HW238217   3.003   1.985   2.540  0.7555  1.0903 -1.7626
 8862SOL     OW38218   2.167   1.120   4.152 -0.2228 -0.8582 -0.6159
 8862SOL    HW138219   2.188   1.122   4.246  1.1931  0.8489 -0.9843
 8862SOL    HW238220   2.076   1.090   4.152 -0.3130 -0.5847 -1.0311
 8863SOL     OW38221   2.452   1.490  16.546 -0.1960  0.9647  0.1938
 8863SOL    HW138222   2.465   1.547  16.469 -2.5492  2.1249  0.6481
 8863SOL    HW238223   2.539   1.450  16.554 -0.4610  0.0428 -1.5020
 8864SOL     OW38224   3.889   0.551   9.254  0.2187  0.1228 -0.5410
 8864SOL    HW138225   3.880   0.645   9.269 -0.4382  0.0130 -0.2654
 8864SOL    HW238226   3.890   0.515   9.343 -2.5081 -1.3673 -1.1155
 8865SOL     OW38227   0.697   2.621  14.198  0.1254  0.2158  0.6188
 8865SOL    HW138228   0.722   2.667  14.278 -1.3200  0.2435  1.0575
 8865SOL    HW238229   0.635   2.683  14.159 -1.9156 -2.4992 -0.4134
 8866SOL     OW38230   3.756   1.830   8.271  0.3638 -0.1828  0.3011
 8866SOL    HW138231   3.780   1.909   8.222 -0.5719 -0.8324 -1.2062
 8866SOL    HW238232   3.674   1.805   8.229  0.5736 -0.2128 -0.1021
 8867SOL     OW38233   2.795   4.230  10.967 -0.8586 -0.4247 -0.5782
 8867SOL    HW138234   2.734   4.228  10.894 -1.3251  0.8314 -0.2130
 8867SOL    HW238235   2.870   4.277  10.931 -0.1177  0.4467  2.1037
 8868SOL     OW38236   3.438   4.468   4.164 -0.0543 -0.4818 -0.1843
 8868SOL    HW138237   3.502   4.528   4.203 -0.1651  0.2119 -1.0904
 8868SOL    HW238238   3.464   4.395   4.221 -0.3166 -0.0979  0.4241
 8869SOL     OW38239   4.313   1.264   2.083  0.0253 -0.2961 -0.8020
 8869SOL    HW138240   4.294   1.225   2.168  2.8983 -0.0089 -0.0320
 8869SOL    HW238241   4.306   1.190   2.022  0.2344 -0.0955 -1.0715
 8870SOL     OW38242   4.657   1.480   7.601  0.2118  0.2025 -0.0050
 8870SOL    HW138243   4.718   1.458   7.531 -0.7670  0.9961 -1.1164
 8870SOL    HW238244   4.697   1.566   7.617 -0.7657  0.8827 -1.1804
 8871SOL     OW38245   2.374   4.313  16.456  0.3516 -0.0246 -0.6633
 8871SOL    HW138246   2.450   4.312  16.397  0.6821 -0.0564 -0.2400
 8871SOL    HW238247   2.304   4.322  16.391  1.1646 -2.8918 -1.9057
 8872SOL     OW38248   0.634   3.217   0.250  0.1944 -0.5370 -0.5564
 8872SOL    HW138249   0.610   3.125   0.252  0.7661 -0.6996 -1.2397
 8872SOL    HW238250   0.573   3.267   0.196 -0.9126 -2.2207 -0.8756
 8873SOL     OW38251   3.287   2.742   9.901 -0.6406  0.3393  0.4323
 8873SOL    HW138252   3.295   2.760   9.995  1.7694  1.1314  0.0719
 8873SOL    HW238253   3.312   2.649   9.899  1.6198  0.9486  0.6371
 8874SOL     OW38254   1.401   1.892   3.642  0.4228  0.1654  0.2383
 8874SOL    HW138255   1.323   1.911   3.695 -0.0719 -1.7564  0.1757
 8874SOL    HW238256   1.371   1.818   3.590 -0.4847  0.9051 -0.2957
 8875SOL     OW38257   2.011   0.923  14.705  0.1485  0.0429 -0.1618
 8875SOL    HW138258   2.003   0.991  14.637 -1.3549 -0.1922 -0.2042
 8875SOL    HW238259   1.930   0.873  14.705 -0.3079  0.7701  2.2948
 8876SOL     OW38260   0.316   4.563   0.707  0.2605 -0.0495 -0.3000
 8876SOL    HW138261   0.400   4.525   0.680 -0.8761 -0.5721 -3.1086
 8876SOL    HW238262   0.337   4.656   0.703 -0.3737  0.1483  0.8751
 8877SOL     OW38263   4.075   2.921   3.064  0.5016 -0.0875  0.0881
 8877SOL    HW138264   4.029   2.842   3.035 -1.2808  1.6407 -1.8218
 8877SOL    HW238265   4.005   2.977   3.098  0.6136  0.4587 -0.5882
 8878SOL     OW38266   2.976   1.395   9.038 -0.0391  0.7602  0.3926
 8878SOL    HW138267   2.891   1.437   9.045 -1.3313 -1.4726 -1.9930
 8878SOL    HW238268   3.017   1.429   8.958 -1.9334  3.4616  0.5906
 8879SOL     OW38269   1.219   2.143  17.683 -0.1347  0.1223 -0.0692
 8879SOL    HW138270   1.282   2.182  17.744 -0.4351  0.7787 -0.1733
 8879SOL    HW238271   1.244   2.051  17.689 -0.1901  0.1296  0.2610
 8880SOL     OW38272   0.208   3.171  11.784 -0.0238  0.5689 -0.5560
 8880SOL    HW138273   0.143   3.230  11.745 -1.9991 -1.6455 -0.5936
 8880SOL    HW238274   0.174   3.163  11.873 -1.0445  1.4289 -0.8716
 8881SOL     OW38275   4.044   2.283  16.040 -0.0270  0.2458  0.6514
 8881SOL    HW138276   4.134   2.309  16.058 -0.0515  0.0482  1.0489
 8881SOL    HW238277   4.012   2.358  15.989  0.5258  0.4795  0.6507
 8882SOL     OW38278   4.495   0.001  16.340 -0.5146 -0.2986 -0.4703
 8882SOL    HW138279   4.421   4.737  16.279 -0.7016 -3.0190 -0.0360
 8882SOL    HW238280   4.489   0.095  16.359  0.4456 -0.5028  0.7913
 8883SOL     OW38281   1.643   4.328   9.813 -0.2824  0.1308 -0.4621
 8883SOL    HW138282   1.619   4.319   9.905 -2.0421 -0.1407 -0.9459
 8883SOL    HW238283   1.598   4.251   9.779  1.0852  0.1572 -2.3194
 8884SOL     OW38284   4.113   3.335   4.343 -0.0356 -0.0158  0.3217
 8884SOL    HW138285   4.163   3.255   4.351  1.6553  1.0336  0.1562
 8884SOL    HW238286   4.123   3.370   4.432  1.5711 -1.2483  0.6087
 8885SOL     OW38287   0.841   2.268   6.142 -0.0855  0.0337 -0.1373
 8885SOL    HW138288   0.747   2.276   6.124 -0.0143  0.6527 -0.2208
 8885SOL    HW238289   0.858   2.360   6.123 -1.0012  0.6764  2.0890
 8886SOL     OW38290   2.415   1.267   8.807  0.4896 -0.0769  0.1736
 8886SOL    HW138291   2.445   1.208   8.738 -2.5276 -1.0345 -0.3283
 8886SOL    HW238292   2.341   1.220   8.846 -0.7900  3.2012  1.6696
 8887SOL     OW38293   0.243   0.947   8.061  0.5033 -0.3918 -0.0925
 8887SOL    HW138294   0.296   0.971   7.985 -0.7174  0.4484 -0.6762
 8887SOL    HW238295   0.206   1.031   8.089 -1.5537 -1.6221  0.9597
 8888SOL     OW38296   0.047   0.565   2.341  0.0923  0.6157 -0.2704
 8888SOL    HW138297   0.101   0.601   2.411  0.8306 -0.5667 -0.2439
 8888SOL    HW238298   0.054   0.471   2.354  0.4246  0.9534  1.8600
 8889SOL     OW38299   2.259   1.229  11.273 -0.3451 -0.4831  0.1046
 8889SOL    HW138300   2.269   1.293  11.344  1.6717 -0.3302 -0.3206
 8889SOL    HW238301   2.346   1.229  11.233 -1.1909 -0.2030 -1.7331
 8890SOL     OW38302   3.858   2.294   5.682 -0.8203 -0.2446 -0.1139
 8890SOL    HW138303   3.930   2.312   5.742 -0.3423  0.2980 -0.8452
 8890SOL    HW238304   3.851   2.378   5.636  0.9967 -0.0414 -0.0235
 8891SOL     OW38305   1.543   0.393   7.886  1.2163 -0.2177 -0.2123
 8891SOL    HW138306   1.547   0.390   7.982 -0.5275  1.6901 -0.0893
 8891SOL    HW238307   1.578   0.481   7.874  0.8143  0.2118  1.7293
 8892SOL     OW38308   1.533   3.887   5.136  0.5235  0.1235  0.3376
 8892SOL    HW138309   1.475   3.963   5.143 -0.1894 -0.3938 -0.0336
 8892SOL    HW238310   1.609   3.921   5.184 -1.0158  2.2155  1.3147
 8893SOL     OW38311   3.845   2.727   8.490  1.1048  0.0777 -0.2033
 8893SOL    HW138312   3.897   2.795   8.534 -1.5223  1.8117  0.2151
 8893SOL    HW238313   3.912   2.658   8.494 -0.6016 -1.6038 -0.4011
 8894SOL     OW38314   3.636   4.565   3.647 -0.1398  0.1139 -0.0504
 8894SOL    HW138315   3.693   4.545   3.721 -1.2184  0.7281  0.9348
 8894SOL    HW238316   3.695   4.622   3.597  0.6292  0.1447  0.9022
 8895SOL     OW38317   4.685   1.849   8.420  0.8823 -0.3589  0.2674
 8895SOL    HW138318   0.021   1.817   8.371  1.2671  1.6364 -0.4591
 8895SOL    HW238319   4.646   1.766   8.449  1.0103 -0.3464  0.4747
 8896SOL     OW38320   3.075   4.103   5.570 -0.1556 -1.1788 -0.0988
 8896SOL    HW138321   3.136   4.033   5.593 -0.7207 -0.4542  3.6181
 8896SOL    HW238322   3.130   4.180   5.587 -1.5311 -0.8637  2.9839
 8897SOL     OW38323   3.152   1.472  16.539 -0.0658  0.0817 -0.2863
 8897SOL    HW138324   3.182   1.424  16.616 -0.3208  0.2676 -0.0711
 8897SOL    HW238325   3.231   1.491  16.487  0.3394 -0.9151 -0.0348
 8898SOL     OW38326   4.669   3.417   8.228  0.4727  0.9200 -0.0697
 8898SOL    HW138327   4.649   3.482   8.161 -1.2423  0.5009  0.0201
 8898SOL    HW238328   4.733   3.461   8.284 -0.5605  1.7958  0.4159
 8899SOL     OW38329   2.433   0.862   3.491 -0.2389  0.1177  0.0557
 8899SOL    HW138330   2.505   0.909   3.532  0.1347 -1.2982  1.0175
 8899SOL    HW238331   2.362   0.908   3.535 -1.4108 -1.3955 -0.2457
 8900SOL     OW38332   3.604   3.898  12.055 -0.0682  0.1128  0.5272
 8900SOL    HW138333   3.693   3.913  12.021 -0.7272  2.3973 -0.1709
 8900SOL    HW238334   3.619   3.919  12.147 -1.1089  1.2483  0.4345
 8901SOL     OW38335   0.418   4.004   3.942 -0.2539 -0.6497 -0.7407
 8901SOL    HW138336   0.387   4.012   3.852 -0.9997  1.4276 -0.2992
 8901SOL    HW238337   0.475   3.927   3.936 -1.3349 -1.5645  0.7828
 8902SOL     OW38338   3.923   2.083   3.247 -0.3559 -0.2118 -0.6889
 8902SOL    HW138339   3.839   2.080   3.201  0.0070  1.7518 -1.5110
 8902SOL    HW238340   3.929   2.174   3.276 -1.8838  0.3608 -2.1786
 8903SOL     OW38341   3.560   4.732   5.931 -0.1174 -0.0102 -0.2039
 8903SOL    HW138342   3.558   0.037   5.847 -1.5855  0.6872  0.2083
 8903SOL    HW238343   3.651   0.004   5.957  0.1031 -1.1992 -0.3624
 8904SOL     OW38344   2.579   3.935  12.043  0.1011 -0.0120 -0.2555
 8904SOL    HW138345   2.534   3.862  11.999 -2.1976  3.2363 -3.2231
 8904SOL    HW238346   2.542   4.009  11.996  0.4996 -0.0231 -0.5858
 8905SOL     OW38347   3.443   1.686   1.431 -0.4765 -0.1865 -0.1345
 8905SOL    HW138348   3.351   1.709   1.421 -0.7001 -0.8830  0.3514
 8905SOL    HW238349   3.486   1.755   1.381  0.4458 -1.2257 -0.7824
 8906SOL     OW38350   0.213   1.042  12.022  0.0712  0.5545 -0.0673
 8906SOL    HW138351   0.166   1.029  11.940 -1.5309 -1.3934  1.1699
 8906SOL    HW238352   0.151   1.005  12.085 -1.3631  0.7092 -1.3897
 8907SOL     OW38353   1.074   3.111   9.145  0.1669  0.3608 -0.2904
 8907SOL    HW138354   1.088   3.016   9.150  0.2891  0.5431  3.0025
 8907SOL    HW238355   1.004   3.127   9.082 -1.1615 -3.0711  0.3127
 8908SOL     OW38356   1.303   1.382   1.959 -0.3193  0.2989 -0.2563
 8908SOL    HW138357   1.372   1.316   1.953 -1.4180 -0.9566  0.5515
 8908SOL    HW238358   1.346   1.458   1.921 -1.5596  0.5219 -1.2184
 8909SOL     OW38359   2.308   3.477   8.378  0.3594  0.3389 -0.0551
 8909SOL    HW138360   2.288   3.425   8.299  0.0315  0.4376 -0.0365
 8909SOL    HW238361   2.386   3.431   8.409 -0.5120  0.0810  1.7507
 8910SOL     OW38362   3.113   0.376   4.697  0.0487  0.0256  0.0394
 8910SOL    HW138363   3.150   0.317   4.763 -1.7205  1.6889  2.5191
 8910SOL    HW238364   3.176   0.445   4.713 -0.9032  0.7711  0.5867
 8911SOL     OW38365   1.399   2.032   1.570  0.5904 -0.3259 -0.4364
 8911SOL    HW138366   1.377   1.947   1.610  0.6922 -1.7420 -3.3582
 8911SOL    HW238367   1.360   2.033   1.482  1.4645  0.3082 -0.8137
 8912SOL     OW38368   3.207   1.359  16.820 -0.2393 -0.2577 -0.6942
 8912SOL    HW138369   3.142   1.294  16.794  0.1272 -1.5424  1.5718
 8912SOL    HW238370   3.246   1.331  16.903  1.5604  1.3415 -0.9963
 8913SOL     OW38371   3.773   0.473  13.479  0.5952 -0.1322  0.4960
 8913SOL    HW138372   3.824   0.515  13.410  0.7385  1.0556  1.3198
 8913SOL    HW238373   3.722   0.551  13.505  0.5641 -0.2190  0.6989
 8914SOL     OW38374   4.157   1.882   6.410 -0.2123 -0.0062 -0.2173
 8914SOL    HW138375   4.203   1.847   6.486 -1.2157  1.3345  1.0209
 8914SOL    HW238376   4.220   1.921   6.350  0.1344 -0.9604 -0.4657
 8915SOL     OW38377   3.785   1.680   3.456 -0.3791 -0.2007 -0.2300
 8915SOL    HW138378   3.748   1.677   3.545 -1.3731 -0.9934 -0.6710
 8915SOL    HW238379   3.714   1.676   3.393 -0.6755 -0.8866  0.1473
 8916SOL     OW38380   4.135   1.222   5.119 -0.9387  0.2805  0.4022
 8916SOL    HW138381   4.097   1.156   5.061 -2.6070  1.2288  0.4123
 8916SOL    HW238382   4.064   1.286   5.120 -1.2683 -0.0629 -0.5945
 8917SOL     OW38383   3.712   3.826   8.835  0.0889 -0.6309 -0.2900
 8917SOL    HW138384   3.711   3.869   8.750 -1.1536  1.1467  0.6213
 8917SOL    HW238385   3.660   3.894   8.878  2.1260 -0.4047  1.8469
 8918SOL     OW38386   0.291   4.153   4.790  0.1241  0.3763  0.3470
 8918SOL    HW138387   0.356   4.190   4.849 -0.7228 -0.6774  1.9232
 8918SOL    HW238388   0.350   4.095   4.742 -1.4851 -0.8098 -0.2166
 8919SOL     OW38389   4.045   2.293   5.315 -0.4775 -1.2355  0.1336
 8919SOL    HW138390   4.071   2.386   5.317 -0.3245 -1.2748 -0.1237
 8919SOL    HW238391   4.070   2.272   5.226 -1.1993 -2.2840  0.1841
 8920SOL     OW38392   1.565   3.520   3.185  0.1333 -0.3356 -0.1669
 8920SOL    HW138393   1.632   3.588   3.178 -1.8377  1.5853 -0.3647
 8920SOL    HW238394   1.519   3.552   3.263 -0.0961 -1.1012  0.0129
 8921SOL     OW38395   0.789   3.726  13.681  0.3588 -0.4935 -0.0901
 8921SOL    HW138396   0.767   3.737  13.774 -0.1378  1.1187 -0.3974
 8921SOL    HW238397   0.762   3.637  13.658 -1.8747 -0.5112  2.5114
 8922SOL     OW38398   0.192   2.107   3.752 -0.1889  0.1656  0.4096
 8922SOL    HW138399   0.225   2.092   3.663  2.5372  2.5511  1.0246
 8922SOL    HW238400   0.200   2.020   3.793 -1.6818  1.1881  2.8655
 8923SOL     OW38401   0.655   3.201  11.579  0.5038 -0.0527  0.1551
 8923SOL    HW138402   0.700   3.116  11.579 -0.2163 -0.4392 -1.2345
 8923SOL    HW238403   0.568   3.168  11.599 -0.0123 -0.0974 -2.1754
 8924SOL     OW38404   1.764   2.412   9.747  0.6204 -0.1566  0.1010
 8924SOL    HW138405   1.697   2.478   9.731  1.1220  0.5940  1.1235
 8924SOL    HW238406   1.739   2.357   9.822  3.0143 -0.7462  0.4719
 8925SOL     OW38407   3.616   3.923   6.715 -0.4901 -0.1796  0.2832
 8925SOL    HW138408   3.557   3.913   6.790 -1.2880  0.6516 -0.2381
 8925SOL    HW238409   3.626   4.018   6.712 -0.4379 -0.1964 -0.0922
 8926SOL     OW38410   0.944   2.772   7.625  0.5928  0.1914 -0.0101
 8926SOL    HW138411   0.906   2.686   7.605 -2.2959  2.0329 -2.3854
 8926SOL    HW238412   1.007   2.781   7.553 -1.0957 -0.4902 -1.5681
 8927SOL     OW38413   2.002   4.143   7.112 -0.5032  0.0484 -0.7862
 8927SOL    HW138414   1.956   4.190   7.181  0.6714 -0.3846  0.2919
 8927SOL    HW238415   2.057   4.079   7.158 -0.7574  2.0215  2.2668
 8928SOL     OW38416   2.661   2.945  11.313  0.5260  0.3313  0.0029
 8928SOL    HW138417   2.735   3.005  11.311  1.9847 -1.4874 -1.6511
 8928SOL    HW238418   2.681   2.889  11.238 -2.3887  0.3635 -0.7833
 8929SOL     OW38419   2.728   3.736   4.319  0.4420 -0.2985  0.2336
 8929SOL    HW138420   2.735   3.832   4.321 -0.6782 -0.2148  0.3996
 8929SOL    HW238421   2.788   3.708   4.388  0.0445 -0.2557  0.5945
 8930SOL     OW38422   0.755   3.837   9.489  0.1297 -0.3090  0.1384
 8930SOL    HW138423   0.828   3.782   9.515  1.3402  1.3511  0.2229
 8930SOL    HW238424   0.742   3.897   9.563 -0.7447 -0.3613  0.0277
 8931SOL     OW38425   0.802   2.396   1.116  0.4353  0.3367  0.3397
 8931SOL    HW138426   0.820   2.461   1.047 -2.4935 -0.1368 -0.8450
 8931SOL    HW238427   0.845   2.318   1.081 -0.8321 -0.1485 -0.1372
 8932SOL     OW38428   2.465   2.067   3.110  0.3448  0.0829 -0.3517
 8932SOL    HW138429   2.497   2.111   3.031 -0.9135  0.4894 -0.6348
 8932SOL    HW238430   2.539   2.047   3.168 -1.5599 -2.0392  1.3685
 8933SOL     OW38431   2.770   2.294  10.228  0.1735  0.1475  0.3913
 8933SOL    HW138432   2.826   2.351  10.176 -0.5529  0.1517 -0.3784
 8933SOL    HW238433   2.727   2.354  10.289 -1.5470 -0.1180 -0.5725
 8934SOL     OW38434   4.435   0.974  16.672  0.2761 -0.3473 -0.6325
 8934SOL    HW138435   4.441   1.016  16.587 -3.1489  0.5758 -0.4149
 8934SOL    HW238436   4.527   0.964  16.698 -0.4249  1.8294  2.7105
 8935SOL     OW38437   0.398   1.228   9.455 -0.3070 -0.2465 -0.0678
 8935SOL    HW138438   0.400   1.290   9.383  1.6359  0.9774  1.0486
 8935SOL    HW238439   0.478   1.177   9.444  0.3655  0.8215 -0.0586
 8936SOL     OW38440   0.032   1.102   5.535  0.0810 -0.5838  0.1740
 8936SOL    HW138441   0.112   1.065   5.497  0.1736 -0.9480  0.7253
 8936SOL    HW238442   4.715   1.026   5.530 -0.3898 -0.3266  1.6678
 8937SOL     OW38443   2.836   3.035   2.281  0.0979 -0.1321 -0.3244
 8937SOL    HW138444   2.893   2.993   2.345 -0.9738  0.4138  0.9913
 8937SOL    HW238445   2.773   2.967   2.255  0.6434 -1.4413  1.8201
 8938SOL     OW38446   0.725   1.450   4.851 -0.1089 -0.0202  0.1956
 8938SOL    HW138447   0.665   1.493   4.912 -1.5686  0.0584 -1.2767
 8938SOL    HW238448   0.805   1.434   4.901 -0.3039 -3.8978 -0.7205
 8939SOL     OW38449   1.973   1.756   7.790 -0.0144 -0.1806 -0.2694
 8939SOL    HW138450   2.066   1.739   7.805 -0.1372 -0.1049  0.5787
 8939SOL    HW238451   1.978   1.768   7.696  2.3166  2.0677  0.1188
 8940SOL     OW38452   0.487   1.857   0.092 -0.0827  0.1965  0.6186
 8940SOL    HW138453   0.554   1.918   0.061  0.8035 -1.4236 -0.6989
 8940SOL    HW238454   0.510   1.783   0.035  1.3235  1.0219  0.1114
 8941SOL     OW38455   0.115   1.519   5.403 -0.0548 -0.7419  0.3280
 8941SOL    HW138456   0.106   1.535   5.498  0.2533  1.5420 -0.0252
 8941SOL    HW238457   0.028   1.506   5.366 -0.3595  0.8049  0.4914
 8942SOL     OW38458   2.584   4.348  17.741  0.3939 -0.2807  0.1925
 8942SOL    HW138459   2.553   4.436   0.003  1.3814  0.2126 -0.3491
 8942SOL    HW238460   2.679   4.354  17.751  0.6656 -3.4729 -0.5101
 8943SOL     OW38461   3.857   2.602  16.436  0.6116 -0.4951 -0.3488
 8943SOL    HW138462   3.784   2.557  16.393  0.5829 -1.1693  0.3878
 8943SOL    HW238463   3.798   2.662  16.483  0.5913  2.0318 -3.6408
 8944SOL     OW38464   0.655   1.404   2.567  0.1396  0.0930 -0.6635
 8944SOL    HW138465   0.730   1.384   2.511  1.8919  1.5917  1.1370
 8944SOL    HW238466   0.662   1.499   2.580  0.7133  0.3482 -2.9235
 8945SOL     OW38467   3.390   2.998   7.372 -0.1076  0.7108 -0.4078
 8945SOL    HW138468   3.469   2.975   7.420  0.2768  2.6727 -0.0989
 8945SOL    HW238469   3.326   2.932   7.397  1.0196 -0.1687  0.0929
 8946SOL     OW38470   1.909   3.068   2.413  0.1222 -0.4088  0.5720
 8946SOL    HW138471   1.905   3.068   2.509  1.0355  0.2574  0.6080
 8946SOL    HW238472   1.822   3.037   2.389 -0.0840 -0.2662  1.1227
 8947SOL     OW38473   4.740   0.586  12.540 -0.1682  0.2439  0.0385
 8947SOL    HW138474   0.008   0.672  12.581 -0.2674  0.6977 -0.8877
 8947SOL    HW238475   0.052   0.529  12.596  2.9487  2.3659 -0.7526
 8948SOL     OW38476   0.468   0.065   1.912 -0.0645 -0.1057 -0.6536
 8948SOL    HW138477   0.490   0.107   1.995  0.3558 -1.8721  0.1263
 8948SOL    HW238478   0.383   0.028   1.940  0.1230 -0.4502 -0.5345
 8949SOL     OW38479   2.605   2.649   4.916 -0.4110  0.3595 -0.2805
 8949SOL    HW138480   2.513   2.625   4.900 -0.2947 -1.1653  1.3904
 8949SOL    HW238481   2.621   2.599   4.996 -1.5081 -0.8447 -0.8081
 8950SOL     OW38482   1.325   3.110  16.614 -0.1590  0.2418  0.1331
 8950SOL    HW138483   1.346   3.158  16.534  1.3439 -0.0452  0.3461
 8950SOL    HW238484   1.246   3.155  16.645 -2.6900 -2.7547 -1.9753
 8951SOL     OW38485   0.721   2.410   5.557 -0.0802 -0.3323 -0.0083
 8951SOL    HW138486   0.663   2.337   5.576  1.1608 -0.4180  3.4055
 8951SOL    HW238487   0.734   2.393   5.463 -0.4956 -0.5165 -0.0335
 8952SOL     OW38488   2.107   0.571   0.242  0.1616 -0.0810 -0.2259
 8952SOL    HW138489   2.144   0.530   0.320  3.1733  0.4183 -1.4064
 8952SOL    HW238490   2.087   0.502   0.179  1.2315 -1.7873  1.3016
 8953SOL     OW38491   1.537   3.986   2.188  0.6965  0.4921  0.5876
 8953SOL    HW138492   1.549   3.979   2.283 -1.2346  3.2200  1.0065
 8953SOL    HW238493   1.480   4.063   2.185 -0.6886 -0.4898  1.8170
 8954SOL     OW38494   0.745   1.862   4.561  0.5954  0.3572  0.3143
 8954SOL    HW138495   0.736   1.769   4.583 -1.3398  0.8999  1.7761
 8954SOL    HW238496   0.742   1.856   4.466  1.5393 -1.5865  0.4030
 8955SOL     OW38497   3.729   2.386  16.023 -0.0261  0.1560 -0.3565
 8955SOL    HW138498   3.771   2.426  16.099 -0.7972  0.8288 -0.2863
 8955SOL    HW238499   3.784   2.308  16.012 -0.1732  0.0436 -0.2987
 8956SOL     OW38500   2.594   0.987   4.851  0.0501  0.5713  0.2670
 8956SOL    HW138501   2.521   0.987   4.914 -2.5849 -0.2678 -2.7951
 8956SOL    HW238502   2.658   0.944   4.908 -0.1031 -0.1208 -0.0894
 8957SOL     OW38503   4.293   0.668   7.618 -0.2281  0.4521 -0.0439
 8957SOL    HW138504   4.314   0.752   7.658 -1.5817  0.6100  0.3388
 8957SOL    HW238505   4.297   0.606   7.692  0.1817  1.0246  0.4113
 8958SOL     OW38506   2.387   3.863   9.034 -0.2638  0.0352  0.2198
 8958SOL    HW138507   2.437   3.827   9.108  0.1953  1.0296  0.4004
 8958SOL    HW238508   2.446   3.931   9.001  0.8533 -0.9331  0.2264
 8959SOL     OW38509   4.376   4.680  15.252 -0.0989 -0.5324  0.0266
 8959SOL    HW138510   4.420   0.024  15.251  1.0297 -1.0919  3.0121
 8959SOL    HW238511   4.343   4.659  15.165 -1.0560 -1.1006  0.5274
 8960SOL     OW38512   1.380   4.403   1.176 -0.3596 -0.4674  0.5467
 8960SOL    HW138513   1.288   4.414   1.151  0.2460  1.1890 -0.9602
 8960SOL    HW238514   1.380   4.312   1.206 -1.0732 -0.8091 -0.5220
 8961SOL     OW38515   1.491   1.036   5.802  0.1072 -0.3598  0.0349
 8961SOL    HW138516   1.453   1.123   5.800 -1.5815 -1.1500 -1.8011
 8961SOL    HW238517   1.551   1.039   5.877 -2.0988 -1.9239  1.8564
 8962SOL     OW38518   0.241   3.852   6.097  0.1637 -0.0361 -0.1806
 8962SOL    HW138519   0.188   3.812   6.167 -0.5460  1.5004  0.1455
 8962SOL    HW238520   0.328   3.852   6.138  1.3402 -0.0039 -2.6927
 8963SOL     OW38521   1.926   2.068   5.890 -0.0421  0.0503  0.2772
 8963SOL    HW138522   1.925   2.161   5.910 -0.4176  0.2872 -0.8424
 8963SOL    HW238523   1.891   2.067   5.801 -1.1609 -0.9791  0.7254
 8964SOL     OW38524   1.407   3.197   2.999  0.0126  0.3876 -0.2312
 8964SOL    HW138525   1.323   3.196   2.955  0.7562  1.2805 -1.6559
 8964SOL    HW238526   1.437   3.286   2.979  0.5860  0.1592 -0.3787
 8965SOL     OW38527   2.079   2.222  11.915 -0.0093 -0.2286  0.3860
 8965SOL    HW138528   2.158   2.267  11.884 -0.2977  0.0816  0.0993
 8965SOL    HW238529   2.008   2.258  11.862 -1.4514  1.4204  3.4184
 8966SOL     OW38530   4.062   0.542   6.624 -0.4092  0.2236  0.3283
 8966SOL    HW138531   4.059   0.638   6.624  2.4990  0.3252 -1.6387
 8966SOL    HW238532   3.994   0.521   6.687  1.1001 -1.5265  1.3796
 8967SOL     OW38533   1.026   4.551   8.166  0.5221 -0.0937  0.2757
 8967SOL    HW138534   0.988   4.630   8.127  2.0138  0.2017 -0.5531
 8967SOL    HW238535   1.114   4.582   8.184  0.6601  0.3105 -1.0346
 8968SOL     OW38536   1.767   3.156   3.993  0.3092 -0.1075  0.6790
 8968SOL    HW138537   1.821   3.161   4.072  1.8066 -3.6522 -0.1113
 8968SOL    HW238538   1.703   3.088   4.014  0.2349 -0.4238 -0.5709
 8969SOL     OW38539   4.304   1.053   6.589  0.3992  0.1072  0.0975
 8969SOL    HW138540   4.283   1.010   6.671  1.6098 -0.3323  0.1856
 8969SOL    HW238541   4.396   1.072   6.606  0.1438  2.4012 -1.1062
 8970SOL     OW38542   4.568   0.478   5.831  0.4360  0.2993 -0.3090
 8970SOL    HW138543   4.564   0.565   5.872  2.8276 -0.4673  1.5565
 8970SOL    HW238544   4.481   0.478   5.791 -1.1205  0.6903  3.1047
 8971SOL     OW38545   1.461   1.774   9.498  0.6223  0.1294 -0.1987
 8971SOL    HW138546   1.386   1.791   9.557 -0.5036 -0.2245 -1.5294
 8971SOL    HW238547   1.527   1.835   9.530 -0.4813 -0.4062  3.2004
 8972SOL     OW38548   3.000   4.655   8.261 -0.1584  0.5442 -0.4410
 8972SOL    HW138549   3.090   4.621   8.261 -1.1364 -1.9936  0.3108
 8972SOL    HW238550   2.966   4.591   8.199  0.4310  0.4354 -0.6568
 8973SOL     OW38551   1.879   1.512  17.115  0.1138 -0.6192  0.8574
 8973SOL    HW138552   1.922   1.462  17.045 -2.5438 -1.7673  0.0827
 8973SOL    HW238553   1.868   1.598  17.075 -0.7876 -0.5850  1.1990
 8974SOL     OW38554   2.572   2.893   9.774 -0.1897  0.0325  0.3113
 8974SOL    HW138555   2.507   2.892   9.704  0.8948  2.3731 -0.7106
 8974SOL    HW238556   2.648   2.907   9.717 -1.2220 -0.4251 -1.1603
 8975SOL     OW38557   3.547   2.275   5.093 -0.2404 -0.1198  0.0107
 8975SOL    HW138558   3.465   2.268   5.045  0.3522  3.3570 -1.4959
 8975SOL    HW238559   3.520   2.331   5.165 -0.0334 -1.4563  1.1443
 8976SOL     OW38560   3.813   3.390   8.686  0.2901 -0.8466 -0.5385
 8976SOL    HW138561   3.903   3.381   8.656  0.4397 -1.5351  0.1120
 8976SOL    HW238562   3.830   3.424   8.774  1.0407 -0.2922 -0.8959
 8977SOL     OW38563   0.696   3.070   8.786  1.0356 -0.4378  0.4330
 8977SOL    HW138564   0.733   2.982   8.778 -2.6667 -1.8077 -1.9686
 8977SOL    HW238565   0.602   3.048   8.786  1.2388 -1.3041  0.0044
 8978SOL     OW38566   0.818   3.991   7.682  0.4627  0.1527 -0.0604
 8978SOL    HW138567   0.906   3.985   7.721 -0.8600 -2.8480  2.5377
 8978SOL    HW238568   0.803   3.897   7.667 -0.5833  0.4346 -0.7316
 8979SOL     OW38569   0.185   4.195   5.071  0.4988  0.3865 -0.4342
 8979SOL    HW138570   0.124   4.130   5.035  0.4817 -1.0420  2.1509
 8979SOL    HW238571   0.233   4.218   4.991 -0.0667 -0.0403 -0.9017
 8980SOL     OW38572   0.908   4.667   8.873  0.2387  0.4917 -0.4597
 8980SOL    HW138573   0.977   4.628   8.927  0.7024 -0.8895 -2.0617
 8980SOL    HW238574   0.953   4.690   8.792 -1.4733  1.0518 -1.2560
 8981SOL     OW38575   1.165   0.323  14.918 -0.4480 -0.0092  0.4059
 8981SOL    HW138576   1.243   0.324  14.973  0.1085  1.3909 -0.4114
 8981SOL    HW238577   1.197   0.323  14.827  0.2555 -1.9908  0.6644
 8982SOL     OW38578   3.761   2.420   6.720  0.6585 -0.3670  0.5187
 8982SOL    HW138579   3.705   2.347   6.747 -0.1441  0.9205  2.3260
 8982SOL    HW238580   3.724   2.488   6.776 -0.5533 -0.0548 -0.6530
 8983SOL     OW38581   2.179   3.178   1.640  0.3363 -0.3625 -0.1686
 8983SOL    HW138582   2.208   3.106   1.696 -0.7697  0.4495  1.4383
 8983SOL    HW238583   2.177   3.129   1.558  0.4111  0.4261 -0.6381
 8984SOL     OW38584   0.534   4.087   1.414  0.5722 -0.6569 -0.7645
 8984SOL    HW138585   0.585   4.061   1.491  3.2147 -0.1615 -2.3726
 8984SOL    HW238586   0.600   4.114   1.350 -1.3747  0.9742 -2.0904
 8985SOL     OW38587   4.691   2.946   4.740 -0.1277 -0.4635  0.1135
 8985SOL    HW138588   4.597   2.942   4.757  0.0548 -0.1656  1.2147
 8985SOL    HW238589   4.699   2.910   4.651 -0.9140 -1.0677  0.2962
 8986SOL     OW38590   4.440   0.672   9.303 -0.1027  0.4610  0.6122
 8986SOL    HW138591   4.476   0.675   9.214 -1.5112  0.5785  0.0330
 8986SOL    HW238592   4.403   0.760   9.304  0.4211  0.6914 -0.3048
 8987SOL     OW38593   2.796   3.903   8.307 -0.2163 -0.1410  0.3895
 8987SOL    HW138594   2.806   3.809   8.290  1.4505  0.2159 -0.5545
 8987SOL    HW238595   2.862   3.945   8.253 -1.6280  0.1690 -1.1176
 8988SOL     OW38596   4.328   0.786   6.765 -0.0193  0.5761 -0.0678
 8988SOL    HW138597   4.304   0.698   6.795  0.0936  0.9842  1.2044
 8988SOL    HW238598   4.255   0.811   6.708  0.1598  1.2394 -0.0039
 8989SOL     OW38599   1.575   2.634  15.336  0.0808 -0.3767 -0.2583
 8989SOL    HW138600   1.615   2.649  15.250  1.3773  0.1272  0.4375
 8989SOL    HW238601   1.643   2.581  15.378 -0.2427 -0.2147  0.4574
 8990SOL     OW38602   0.180   2.522   7.730  0.0120  0.2903 -0.3354
 8990SOL    HW138603   0.178   2.534   7.635  0.3811  1.2006 -0.2270
 8990SOL    HW238604   0.107   2.580   7.750  1.9767  2.5088  0.4628
 8991SOL     OW38605   2.222   4.013   5.549  0.0584  0.1350 -0.5163
 8991SOL    HW138606   2.227   3.918   5.560  1.5428 -0.0153 -2.3744
 8991SOL    HW238607   2.134   4.034   5.579  0.2297 -0.9495  0.7353
 8992SOL     OW38608   3.723   1.908   7.099 -0.1662 -0.3897 -0.9557
 8992SOL    HW138609   3.706   2.001   7.114  0.0978 -0.7152  1.3689
 8992SOL    HW238610   3.680   1.892   7.015 -0.3716 -0.7807 -0.7786
 8993SOL     OW38611   4.038   1.672   6.269  0.5311 -0.8295  0.8416
 8993SOL    HW138612   4.117   1.619   6.277  2.0211  1.0490 -1.6531
 8993SOL    HW238613   4.049   1.743   6.333 -0.5091  0.7205 -0.6863
 8994SOL     OW38614   4.568   2.935   7.164  0.3510  0.3761 -0.1564
 8994SOL    HW138615   4.591   2.932   7.071 -1.1413  2.8655 -0.6165
 8994SOL    HW238616   4.652   2.904   7.195  0.5171  0.5621 -0.4152
 8995SOL     OW38617   1.267   1.500   9.607  0.4596 -0.1106  0.1667
 8995SOL    HW138618   1.262   1.591   9.579  2.1380  0.1081  0.5837
 8995SOL    HW238619   1.197   1.504   9.672  2.6053  3.4617  2.2490
 8996SOL     OW38620   4.366   0.730  14.350 -0.2612  0.4606 -0.1290
 8996SOL    HW138621   4.406   0.789  14.414 -1.3288  1.2217 -0.1714
 8996SOL    HW238622   4.430   0.659  14.356  0.3783  1.2969  3.0616
 8997SOL     OW38623   3.896   0.307   2.281  0.9230 -0.0147  0.2543
 8997SOL    HW138624   3.803   0.291   2.299  0.6310 -1.2979 -2.3482
 8997SOL    HW238625   3.893   0.288   2.187  0.2305 -1.0526  0.4905
 8998SOL     OW38626   0.572   0.047  11.973 -0.4626  0.5301 -0.0199
 8998SOL    HW138627   0.573   0.002  11.888  2.2662  1.2014 -0.3297
 8998SOL    HW238628   0.649   0.103  11.962 -1.7781  2.1243 -1.0628
 8999SOL     OW38629   2.548   1.842   1.424 -0.0827  0.1365 -0.0369
 8999SOL    HW138630   2.509   1.755   1.417 -0.6775  0.2898  1.3483
 8999SOL    HW238631   2.519   1.887   1.345  0.9428 -0.7432 -0.8959
 9000SOL     OW38632   1.739   1.536   6.637 -0.2415 -0.5623 -0.0791
 9000SOL    HW138633   1.815   1.579   6.598 -1.4032 -1.7099 -3.5334
 9000SOL    HW238634   1.670   1.537   6.572 -0.2198 -0.4451 -0.1007
 9001SOL     OW38635   2.823   3.473   3.540  0.0687 -0.3856  0.2515
 9001SOL    HW138636   2.844   3.565   3.525  0.9307 -0.2600  2.2602
 9001SOL    HW238637   2.733   3.482   3.571  0.8695  0.5963  2.2555
 9002SOL     OW38638   1.769   1.136   0.756  0.3870 -0.2002  0.1519
 9002SOL    HW138639   1.752   1.223   0.792 -2.0717 -0.8646  0.5486
 9002SOL    HW238640   1.766   1.084   0.836  1.0791 -0.2243  0.1597
 9003SOL     OW38641   2.371   3.296   2.824 -0.1885  0.2957  0.1550
 9003SOL    HW138642   2.317   3.226   2.788  1.4097 -1.4688  1.2525
 9003SOL    HW238643   2.445   3.296   2.764 -1.9073 -1.3506 -1.9634
 9004SOL     OW38644   1.491   2.918   4.861 -0.0375 -0.6965 -0.3983
 9004SOL    HW138645   1.473   3.008   4.834 -1.7037 -0.1999  2.3710
 9004SOL    HW238646   1.428   2.906   4.932  2.2728  0.1592  1.7944
 9005SOL     OW38647   4.342   1.860   0.162  0.5528 -0.4932  0.0838
 9005SOL    HW138648   4.386   1.775   0.167  1.7418  0.1588  0.7122
 9005SOL    HW238649   4.420   1.914   0.147  0.0687 -0.0205 -0.7154
 9006SOL     OW38650   0.130   2.394   0.857  0.0872 -0.4717  0.0902
 9006SOL    HW138651   0.206   2.438   0.895  0.1543 -0.9053  0.4502
 9006SOL    HW238652   0.165   2.316   0.814 -0.2599 -1.3986  1.5169
 9007SOL     OW38653   3.592   3.348   4.746  0.1070 -0.3215 -0.0755
 9007SOL    HW138654   3.557   3.355   4.835  1.1702 -1.8716  0.4710
 9007SOL    HW238655   3.650   3.423   4.757 -0.2621 -0.0100 -0.2385
 9008SOL     OW38656   2.136   1.589  16.260 -0.1460  0.8733 -0.2408
 9008SOL    HW138657   2.195   1.516  16.276  0.2842  0.8945 -1.7012
 9008SOL    HW238658   2.195   1.642  16.206  0.1102 -0.8132 -1.6352
 9009SOL     OW38659   4.067   3.373   4.843 -0.1294 -0.1155 -0.1805
 9009SOL    HW138660   4.056   3.464   4.816  2.1723  0.0313 -0.6872
 9009SOL    HW238661   3.998   3.324   4.799 -0.4602  0.4982 -0.3436
 9010SOL     OW38662   2.319   4.123   6.212 -0.6039  0.1089  0.7137
 9010SOL    HW138663   2.294   4.088   6.297 -0.0201  1.7192  1.5553
 9010SOL    HW238664   2.405   4.081   6.202 -1.3746 -1.3927  0.4498
 9011SOL     OW38665   0.228   2.241   8.189  0.1797  0.1247  0.0794
 9011SOL    HW138666   0.164   2.312   8.190 -0.6037 -0.5558 -0.9435
 9011SOL    HW238667   0.235   2.228   8.094  1.4040  1.3630  0.0090
 9012SOL     OW38668   3.277   2.861   1.618 -0.5188  0.0745 -0.1814
 9012SOL    HW138669   3.349   2.917   1.646 -0.6263 -0.2453  0.7491
 9012SOL    HW238670   3.325   2.823   1.545  2.1484  2.2314  0.4407
 9013SOL     OW38671   2.312   3.293   1.427  0.6182  0.1881 -0.4462
 9013SOL    HW138672   2.258   3.361   1.388  0.1550 -1.3609 -2.5302
 9013SOL    HW238673   2.274   3.281   1.514  0.9995  1.1333 -0.1540
 9014SOL     OW38674   3.427   3.786   7.515 -0.4430  0.5824  0.8540
 9014SOL    HW138675   3.394   3.780   7.426 -0.1197  2.7225  0.5856
 9014SOL    HW238676   3.466   3.873   7.526 -1.1326  1.3016 -2.4129
 9015SOL     OW38677   0.689   1.163   4.431  0.0454  0.1208  0.7726
 9015SOL    HW138678   0.601   1.164   4.394 -0.3856  1.6226  1.8320
 9015SOL    HW238679   0.708   1.250   4.396  1.8551 -0.9249 -0.8128
 9016SOL     OW38680   1.001   0.504  15.733 -0.1615  0.4303  0.0608
 9016SOL    HW138681   1.036   0.588  15.702 -1.8933  1.1042 -0.0950
 9016SOL    HW238682   0.908   0.510  15.709 -0.3344 -1.3088  0.3047
 9017SOL     OW38683   3.686   4.525   7.608  0.0167  0.2466 -0.1239
 9017SOL    HW138684   3.602   4.570   7.596  1.2627  2.2910 -1.0368
 9017SOL    HW238685   3.755   4.578   7.568 -0.1848  0.3937 -0.2745
 9018SOL     OW38686   2.973   2.789  13.869  0.1352  0.1524 -0.3319
 9018SOL    HW138687   3.054   2.752  13.832  0.3900  0.9447 -0.5791
 9018SOL    HW238688   2.923   2.817  13.793  0.8779  1.5062 -0.3308
 9019SOL     OW38689   0.518   1.403   5.299 -0.4219 -0.0061 -0.3136
 9019SOL    HW138690   0.426   1.405   5.273 -0.5251  3.4241  0.2094
 9019SOL    HW238691   0.527   1.439   5.387  0.5620  0.3831 -0.5709
 9020SOL     OW38692   1.957   4.336   7.617 -0.4768 -0.0595  0.5787
 9020SOL    HW138693   1.942   4.246   7.587 -0.6055 -0.5577  2.1327
 9020SOL    HW238694   2.037   4.364   7.573 -1.4570 -0.4732 -1.4834
 9021SOL     OW38695   4.413   1.680   6.429 -1.1073  0.2858  0.1835
 9021SOL    HW138696   4.367   1.737   6.490 -0.5470  2.7169 -1.6279
 9021SOL    HW238697   4.474   1.735   6.379  1.6055 -2.3399  0.6316
 9022SOL     OW38698   4.670   4.495   4.328 -0.2554 -0.0455 -0.0368
 9022SOL    HW138699   0.002   4.545   4.366 -0.9522  1.0626 -0.1842
 9022SOL    HW238700   4.673   4.524   4.237 -0.3038 -0.3541 -0.1370
 9023SOL     OW38701   2.976   1.445   8.710 -0.1080 -0.2324 -0.5114
 9023SOL    HW138702   2.957   1.538   8.700 -0.7253 -0.3232 -0.1888
 9023SOL    HW238703   2.893   1.412   8.746 -0.1549 -1.7580 -2.0354
 9024SOL     OW38704   0.928   4.389  10.072 -0.4410  0.2411  0.9400
 9024SOL    HW138705   1.020   4.372  10.093  0.6863  0.6291 -3.7575
 9024SOL    HW238706   0.919   4.482  10.092  1.0901  0.4307  0.7096
 9025SOL     OW38707   0.176   3.053   3.115  0.0796 -0.4384  0.0655
 9025SOL    HW138708   0.125   3.061   3.195 -0.0531 -0.4788 -0.0140
 9025SOL    HW238709   0.192   3.142   3.084 -0.5451 -0.2555  0.2664
 9026SOL     OW38710   0.367   0.388   3.167  0.1796  0.3053 -0.1176
 9026SOL    HW138711   0.313   0.309   3.160 -1.1826  1.3645 -1.8472
 9026SOL    HW238712   0.437   0.354   3.223 -0.6540  0.1552  0.8321
 9027SOL     OW38713   0.519   4.203   8.464  0.2950  0.0152 -0.1849
 9027SOL    HW138714   0.557   4.115   8.469  1.0964  0.3111 -1.0758
 9027SOL    HW238715   0.456   4.193   8.392  0.6371  0.2805 -0.5213
 9028SOL     OW38716   1.311   1.704   3.492  0.0709 -0.1232  0.6325
 9028SOL    HW138717   1.236   1.761   3.510 -0.6117 -0.8996  0.2250
 9028SOL    HW238718   1.276   1.637   3.433 -0.6631  1.1732 -0.4068
 9029SOL     OW38719   0.058   0.527   1.570  0.1933 -0.0144 -0.4876
 9029SOL    HW138720   0.129   0.503   1.629  0.7344  1.4007 -0.5643
 9029SOL    HW238721   0.088   0.495   1.485  3.2631  1.6589 -0.0390
 9030SOL     OW38722   0.828   3.261  13.478  0.3636  0.0435  0.0332
 9030SOL    HW138723   0.803   3.183  13.428  1.8551 -0.8024  0.6193
 9030SOL    HW238724   0.923   3.250  13.482  0.3409  0.1313  0.9053
 9031SOL     OW38725   3.226   1.084   8.571 -0.4449 -0.1065  0.1585
 9031SOL    HW138726   3.211   0.992   8.550  0.6724  0.1039 -1.6042
 9031SOL    HW238727   3.140   1.109   8.603 -0.9225 -0.4458 -0.8613
 9032SOL     OW38728   3.230   1.206  11.537  0.1859  0.0149  0.0469
 9032SOL    HW138729   3.262   1.199  11.447  0.2443 -0.8380  0.1318
 9032SOL    HW238730   3.139   1.231  11.521  0.6021  2.3257  1.3323
 9033SOL     OW38731   1.386   0.079   6.405  0.0985 -0.2415 -0.5050
 9033SOL    HW138732   1.307   0.035   6.374 -0.6004  1.0075 -0.5272
 9033SOL    HW238733   1.375   0.088   6.500 -0.5271 -0.4889 -0.5528
 9034SOL     OW38734   0.392   1.497   2.932 -0.0152 -0.1144 -0.2114
 9034SOL    HW138735   0.472   1.470   2.978 -1.0950 -3.3396 -0.2297
 9034SOL    HW238736   0.412   1.453   2.849 -2.4344 -1.0190 -0.3015
 9035SOL     OW38737   1.317   1.830  12.223 -0.5143  0.0440 -0.3393
 9035SOL    HW138738   1.411   1.832  12.238 -0.4323  1.9445 -1.1210
 9035SOL    HW238739   1.283   1.809  12.310 -1.9316  0.0420 -0.8968
 9036SOL     OW38740   4.503   3.794   1.607  0.1142 -0.1082  0.4674
 9036SOL    HW138741   4.420   3.750   1.623 -0.5851  1.3145  0.7512
 9036SOL    HW238742   4.506   3.840   1.691 -1.3982  3.9539 -1.7255
 9037SOL     OW38743   4.391   3.730  14.911 -0.3349 -0.2621  0.3892
 9037SOL    HW138744   4.459   3.728  14.979 -0.4094 -0.7744  0.4488
 9037SOL    HW238745   4.316   3.762  14.960 -2.0337 -1.4709 -1.4178
 9038SOL     OW38746   2.929   3.195   6.726  0.4969 -0.1828  0.0808
 9038SOL    HW138747   2.937   3.152   6.641  1.4856 -2.2490  1.2174
 9038SOL    HW238748   2.932   3.113   6.777  2.2494  0.4857  1.0322
 9039SOL     OW38749   1.804   0.121   2.327 -0.1606  0.0433 -0.1973
 9039SOL    HW138750   1.857   0.042   2.324 -0.4179 -0.1570  0.8152
 9039SOL    HW238751   1.748   0.103   2.402 -2.1168  0.8763 -1.4609
 9040SOL     OW38752   4.598   0.128   1.073  0.1641  0.2719 -1.0459
 9040SOL    HW138753   4.671   0.111   1.132 -1.5277 -2.4690  0.2533
 9040SOL    HW238754   4.584   0.037   1.047  1.5429  0.5057 -2.6117
 9041SOL     OW38755   1.540   3.015   4.121 -0.3408 -0.3430  0.3795
 9041SOL    HW138756   1.566   2.930   4.087 -0.1208  0.6182 -1.8680
 9041SOL    HW238757   1.537   3.002   4.216  0.1868 -2.3476  0.1091
 9042SOL     OW38758   0.468   3.776   3.773  0.3401  0.1060  0.5207
 9042SOL    HW138759   0.550   3.770   3.723 -0.7785  0.4487 -1.3545
 9042SOL    HW238760   0.465   3.709   3.841  1.3256  0.0864  0.5528
 9043SOL     OW38761   1.828   1.623   8.936  0.2247 -0.1673  0.1844
 9043SOL    HW138762   1.831   1.584   9.023 -1.0360  0.1059  0.3395
 9043SOL    HW238763   1.778   1.704   8.944 -0.6617 -0.8835  1.6857
 9044SOL     OW38764   4.304   1.704   4.349 -0.3592 -0.0001  0.2774
 9044SOL    HW138765   4.213   1.722   4.325 -0.4603  0.4671  1.0265
 9044SOL    HW238766   4.324   1.782   4.401 -0.4252 -1.2027  2.1055
 9045SOL     OW38767   0.206   3.792   7.776 -0.2724  0.1039  0.6420
 9045SOL    HW138768   0.233   3.762   7.863 -1.1439  0.1299  0.9231
 9045SOL    HW238769   0.237   3.717   7.725  1.2911  0.4709  1.0534
 9046SOL     OW38770   1.741   4.427   2.150 -0.0036 -0.1966 -0.2655
 9046SOL    HW138771   1.763   4.418   2.243 -2.4847 -2.7487  0.0659
 9046SOL    HW238772   1.768   4.341   2.117 -0.5562 -0.4380 -0.0812
 9047SOL     OW38773   2.537   1.089   3.858 -0.1904 -0.4392 -0.4616
 9047SOL    HW138774   2.578   1.080   3.944 -2.6583  2.5011  1.0505
 9047SOL    HW238775   2.443   1.096   3.875 -0.4570 -0.2602 -1.9994
 9048SOL     OW38776   1.267   4.399   7.928 -0.6979  0.2023 -0.2733
 9048SOL    HW138777   1.224   4.478   7.895 -0.2472 -0.2215 -1.8666
 9048SOL    HW238778   1.215   4.368   8.002 -0.7722  0.7959 -0.0791
 9049SOL     OW38779   2.291   0.580  13.370  0.2843 -0.2016  0.4522
 9049SOL    HW138780   2.215   0.527  13.395  0.1639  1.4374  3.5438
 9049SOL    HW238781   2.247   0.646  13.316  1.9293  0.9835  0.5537
 9050SOL     OW38782   0.287   0.944   2.424  0.1841  0.1874 -0.0664
 9050SOL    HW138783   0.273   0.977   2.512  0.6495 -1.3963  0.5972
 9050SOL    HW238784   0.247   1.007   2.364 -1.1026  0.3815  0.9993
 9051SOL     OW38785   0.933   2.364   9.453 -0.7602  0.3258  0.1856
 9051SOL    HW138786   0.899   2.297   9.393 -0.6223  1.5542 -1.2605
 9051SOL    HW238787   0.926   2.439   9.394  2.4874 -0.3930 -1.1447
 9052SOL     OW38788   3.219   2.016   5.599 -0.0487  0.1352  0.4265
 9052SOL    HW138789   3.256   1.941   5.646  2.8835  0.2226 -1.7667
 9052SOL    HW238790   3.264   2.081   5.652 -0.2984  1.2896 -0.7852
 9053SOL     OW38791   3.319   0.333   3.666 -0.1837  0.1529  0.0815
 9053SOL    HW138792   3.374   0.258   3.688 -0.2056 -0.2973 -1.3986
 9053SOL    HW238793   3.235   0.293   3.642 -0.6548  1.8323 -1.1159
 9054SOL     OW38794   1.150   1.963  16.811  0.0515  0.3623  0.9829
 9054SOL    HW138795   1.118   1.930  16.726  2.4156  0.2708  0.1293
 9054SOL    HW238796   1.208   2.035  16.788 -1.0682  1.1164  0.5223
 9055SOL     OW38797   3.770   2.971   2.839 -0.2902  0.4244 -0.7402
 9055SOL    HW138798   3.839   2.912   2.811  0.0253 -1.2227  3.4892
 9055SOL    HW238799   3.701   2.942   2.780 -0.6453  0.1680 -0.2050
 9056SOL     OW38800   1.138   3.129   6.707 -0.1921  0.3716 -0.0672
 9056SOL    HW138801   1.156   3.202   6.648  0.0729  1.9934  2.0117
 9056SOL    HW238802   1.091   3.167   6.781 -3.0872 -2.7086 -0.3164
 9057SOL     OW38803   0.338   1.360   3.981  0.1906 -0.3923 -0.3845
 9057SOL    HW138804   0.296   1.373   3.896 -0.0850  0.4108 -0.1206
 9057SOL    HW238805   0.425   1.340   3.947  1.1949  0.4616  1.6729
 9058SOL     OW38806   4.365   0.038   0.680  0.6472  0.0909  0.3515
 9058SOL    HW138807   4.351   0.132   0.670  2.6143  0.2885 -0.4607
 9058SOL    HW238808   4.458   0.041   0.661  0.3231  1.7608 -0.9429
 9059SOL     OW38809   3.368   2.262   4.346 -0.3105 -1.3496 -0.5270
 9059SOL    HW138810   3.457   2.298   4.343 -1.0641  0.4354 -0.9078
 9059SOL    HW238811   3.334   2.294   4.430 -0.4653  0.0098 -1.1205
 9060SOL     OW38812   4.165   0.658   9.541 -0.5868  0.0353  0.2358
 9060SOL    HW138813   4.225   0.727   9.567  0.7590 -0.5453 -1.3543
 9060SOL    HW238814   4.121   0.684   9.460 -0.8303 -1.1115  0.0016
 9061SOL     OW38815   1.409   2.977   2.248  0.5873 -0.7480  0.3521
 9061SOL    HW138816   1.361   2.983   2.166  2.2691  0.3577 -0.5629
 9061SOL    HW238817   1.350   2.919   2.295 -0.0077  0.0135  0.5465
 9062SOL     OW38818   0.820   2.673   4.311  0.1880  0.1255  0.1872
 9062SOL    HW138819   0.912   2.665   4.333  0.5356  1.1278 -0.9094
 9062SOL    HW238820   0.824   2.750   4.256 -0.5945  1.1581  1.5689
 9063SOL     OW38821   4.683   0.077  11.439 -0.5385 -0.2640  0.5149
 9063SOL    HW138822   4.717   0.093  11.351 -0.6855 -0.2176  0.4670
 9063SOL    HW238823   4.660   0.167  11.464 -0.7372 -0.2974  0.4552
 9064SOL     OW38824   2.115   0.024  17.195 -0.3012 -0.2764 -0.1000
 9064SOL    HW138825   2.082   0.075  17.122  0.4727 -0.0596 -0.3041
 9064SOL    HW238826   2.049   0.035  17.263  0.0597 -0.4410  0.2825
 9065SOL     OW38827   0.060   0.872  15.182 -0.1321  0.3195 -0.0756
 9065SOL    HW138828   0.142   0.908  15.215 -0.7442 -0.5081  2.3668
 9065SOL    HW238829   0.017   0.865  15.268  1.4325  0.5109  0.7212
 9066SOL     OW38830   3.897   2.778   5.362  0.7752 -0.2475 -0.0510
 9066SOL    HW138831   3.937   2.853   5.318 -1.9755  1.3142  0.0952
 9066SOL    HW238832   3.948   2.777   5.443 -2.3288 -0.9306  1.8909
 9067SOL     OW38833   2.517   1.319   3.394 -0.1509  0.1169 -0.3176
 9067SOL    HW138834   2.572   1.245   3.366 -1.2830 -0.3782 -1.2246
 9067SOL    HW238835   2.589   1.383   3.396  0.2714 -0.4177  1.4874
 9068SOL     OW38836   4.030   3.216   2.133  0.0713 -0.7245  0.4562
 9068SOL    HW138837   3.943   3.234   2.169  0.2000  1.6520 -0.4467
 9068SOL    HW238838   4.007   3.146   2.072  0.7531 -1.0449  0.5660
 9069SOL     OW38839   0.830   4.321  14.118  0.2472 -0.2539 -0.3094
 9069SOL    HW138840   0.838   4.226  14.122  0.3275 -0.2915 -1.5129
 9069SOL    HW238841   0.758   4.336  14.179  1.1391 -5.0205  1.8728
 9070SOL     OW38842   3.140   3.498   5.393  0.0170  0.2962 -0.0378
 9070SOL    HW138843   3.221   3.508   5.343  1.1467 -1.0001  1.5558
 9070SOL    HW238844   3.108   3.419   5.347 -0.0112  1.0441 -1.3004
 9071SOL     OW38845   3.867   4.514  11.852  0.4481 -0.2057 -0.3908
 9071SOL    HW138846   3.845   4.442  11.911  1.0243  0.6672  0.8955
 9071SOL    HW238847   3.875   4.580  11.921 -0.6307  1.8456 -2.2350
 9072SOL     OW38848   1.629   1.828   5.583  0.2190 -0.3044 -0.3328
 9072SOL    HW138849   1.623   1.841   5.677 -0.7201  2.0520 -0.7163
 9072SOL    HW238850   1.626   1.733   5.572  0.3941 -0.2175 -1.1671
 9073SOL     OW38851   3.373   3.211   7.233  0.0925  0.3544  0.4657
 9073SOL    HW138852   3.323   3.280   7.275  1.3675  2.7041 -1.8714
 9073SOL    HW238853   3.367   3.133   7.288  0.8139 -0.3428 -0.4373
 9074SOL     OW38854   0.493   0.337   4.801  0.3413 -0.4281  0.0386
 9074SOL    HW138855   0.550   0.409   4.773 -1.9518 -0.2036 -4.0267
 9074SOL    HW238856   0.486   0.349   4.896 -0.6862  2.7081 -0.4149
 9075SOL     OW38857   1.850   3.019   2.663  0.6387 -0.1045  0.2967
 9075SOL    HW138858   1.894   3.016   2.748 -0.9932 -0.4936  1.1103
 9075SOL    HW238859   1.758   3.007   2.684  0.6537 -0.8598 -0.0737
 9076SOL     OW38860   2.136   4.118   2.382 -0.2986  0.0713 -0.3399
 9076SOL    HW138861   2.222   4.078   2.363 -1.1848 -1.5362 -1.0038
 9076SOL    HW238862   2.089   4.035   2.387 -1.1103  0.4299 -2.0339
 9077SOL     OW38863   2.262   2.233  13.586 -0.3035 -0.0027  0.1977
 9077SOL    HW138864   2.264   2.299  13.518 -0.2236  0.7650  0.9403
 9077SOL    HW238865   2.326   2.268  13.648 -0.4101  0.6967 -0.0867
 9078SOL     OW38866   4.477   4.615   3.930  0.2877 -0.4299 -0.0355
 9078SOL    HW138867   4.565   4.635   3.899  0.3391 -0.5384  0.0412
 9078SOL    HW238868   4.499   4.628   4.023 -0.7107 -0.2726  0.1808
 9079SOL     OW38869   4.244   0.651   4.650  0.3242 -0.3167  0.2750
 9079SOL    HW138870   4.234   0.710   4.575  1.0458  0.0368  0.4459
 9079SOL    HW238871   4.309   0.592   4.613 -0.9084 -1.1667 -0.5083
 9080SOL     OW38872   1.056   2.231   7.477  0.0452 -0.0464 -0.0968
 9080SOL    HW138873   1.070   2.293   7.406  0.9171  0.9488  0.9387
 9080SOL    HW238874   1.122   2.271   7.534 -1.5052  2.2768  0.0567
 9081SOL     OW38875   2.762   1.880  16.247 -0.5302  0.5503 -0.3049
 9081SOL    HW138876   2.730   1.891  16.158  0.8277  0.0247 -0.8598
 9081SOL    HW238877   2.855   1.905  16.251 -0.6637  0.7871  1.4034
 9082SOL     OW38878   3.718   0.042   7.495 -0.6272  0.0307  0.8187
 9082SOL    HW138879   3.628   0.025   7.524 -0.4717 -2.6037 -0.2709
 9082SOL    HW238880   3.718   0.136   7.512 -0.2701  0.3429 -0.9269
 9083SOL     OW38881   4.649   4.253  16.087 -0.1238  0.2564  0.8445
 9083SOL    HW138882   4.559   4.276  16.114 -0.1494  1.1452  0.0085
 9083SOL    HW238883   4.716   4.298  16.139 -0.7733  0.8939  1.1399
 9084SOL     OW38884   4.084   4.472   4.187  0.4057 -0.5295 -0.0750
 9084SOL    HW138885   4.076   4.385   4.228  3.1451 -0.0354  1.5258
 9084SOL    HW238886   4.100   4.521   4.268 -1.9126  1.1644 -0.6699
 9085SOL     OW38887   4.019   0.255   9.154  0.0982 -0.0014  0.2620
 9085SOL    HW138888   4.102   0.217   9.127 -0.5968 -2.1371  1.1180
 9085SOL    HW238889   3.996   0.310   9.079  1.3897 -0.4231 -0.4407
 9086SOL     OW38890   1.604   3.401  13.963  0.1412 -0.0729 -0.2823
 9086SOL    HW138891   1.608   3.326  14.023 -0.7286 -1.9628 -2.5609
 9086SOL    HW238892   1.693   3.434  13.969  0.0988 -0.0605  0.2912
 9087SOL     OW38893   1.830   4.691  13.897  0.2724 -0.0386  0.4958
 9087SOL    HW138894   1.901   0.014  13.901  2.3338 -2.4727  2.7507
 9087SOL    HW238895   1.875   4.608  13.880  1.4382  1.3019 -2.8144
 9088SOL     OW38896   4.336   3.136  16.449 -0.5362  0.5437  0.9441
 9088SOL    HW138897   4.371   3.061  16.495  1.6920  0.1562 -1.3931
 9088SOL    HW238898   4.389   3.213  16.470  0.3215 -0.3409  2.0370
 9089SOL     OW38899   4.435   0.681   6.041 -0.1617 -0.1324  0.0904
 9089SOL    HW138900   4.497   0.667   6.113  0.8445  0.3009 -0.6874
 9089SOL    HW238901   4.361   0.702   6.098 -0.0874 -0.5806  0.3591
 9090SOL     OW38902   0.242   1.899   3.144  0.3085 -0.4675 -0.6119
 9090SOL    HW138903   0.319   1.955   3.152  0.4896 -0.9796  1.2100
 9090SOL    HW238904   0.254   1.852   3.062  0.2908  0.1940 -0.9889
 9091SOL     OW38905   0.228   3.598   3.159  0.2899  0.2506  0.3828
 9091SOL    HW138906   0.230   3.522   3.101  0.0425 -0.6207  1.5108
 9091SOL    HW238907   0.140   3.580   3.192  1.2006 -2.8730  1.0889
 9092SOL     OW38908   2.691   2.700   7.474 -0.1569 -0.5809 -0.2516
 9092SOL    HW138909   2.736   2.620   7.500 -0.1022 -0.1112  1.1090
 9092SOL    HW238910   2.727   2.758   7.542  0.1113  1.2222 -1.9185
 9093SOL     OW38911   0.766   3.541   0.597  0.5377 -0.1996 -0.2010
 9093SOL    HW138912   0.848   3.501   0.625  0.2035 -0.2408  0.7166
 9093SOL    HW238913   0.725   3.547   0.683  0.2215  0.4225 -0.3971
 9094SOL     OW38914   3.817   2.577   5.202  0.2206 -0.5433  0.3555
 9094SOL    HW138915   3.873   2.620   5.137  0.2849  0.8477  1.3215
 9094SOL    HW238916   3.824   2.651   5.263  0.4511  0.3113 -0.6954
 9095SOL     OW38917   3.310   4.327  11.907  0.4451 -0.0851  0.0481
 9095SOL    HW138918   3.318   4.238  11.872 -1.7670  0.4385 -1.7425
 9095SOL    HW238919   3.224   4.331  11.949  0.5819  2.3787  0.0970
 9096SOL     OW38920   1.502   0.869  14.039 -0.1788 -0.4438  0.1811
 9096SOL    HW138921   1.460   0.897  13.957 -1.4772  0.2469  1.0844
 9096SOL    HW238922   1.474   0.777  14.035  1.1561 -0.7998 -0.8581
 9097SOL     OW38923   4.372   0.118   1.408 -0.5922  0.0048  0.0459
 9097SOL    HW138924   4.331   0.062   1.343  0.0436 -0.1809 -0.1918
 9097SOL    HW238925   4.348   0.071   1.488 -2.3479 -0.8601 -1.0061
 9098SOL     OW38926   2.070   2.175   1.311 -0.2337 -0.2363  0.0474
 9098SOL    HW138927   2.068   2.105   1.376 -0.5758 -0.4425 -0.1868
 9098SOL    HW238928   1.999   2.141   1.257 -1.3603 -1.1917  2.1327
 9099SOL     OW38929   0.681   0.146  10.118 -0.1014  0.5336 -0.1974
 9099SOL    HW138930   0.730   0.189  10.188  0.3608 -0.1739 -0.0776
 9099SOL    HW238931   0.660   0.216  10.057 -0.8128 -0.9075 -1.5885
 9100SOL     OW38932   1.254   0.731   4.810 -0.1076 -0.7443  0.2298
 9100SOL    HW138933   1.267   0.825   4.800 -2.0258 -0.3984  1.1337
 9100SOL    HW238934   1.265   0.722   4.905  0.1126  0.0511  0.2804
 9101SOL     OW38935   4.556   1.965   0.432  0.4655  0.0342  0.0243
 9101SOL    HW138936   4.524   1.876   0.449  0.6704  0.5063  2.7500
 9101SOL    HW238937   4.478   2.019   0.442  0.0439 -0.4145 -0.7701
 9102SOL     OW38938   2.426   2.668   3.099  0.2381 -0.3249  0.3019
 9102SOL    HW138939   2.376   2.597   3.139 -2.2715  1.8560  1.0715
 9102SOL    HW238940   2.514   2.630   3.096 -0.0562 -1.1222  1.9249
 9103SOL     OW38941   3.751   0.808  12.562 -0.2512  0.1554  0.2774
 9103SOL    HW138942   3.772   0.747  12.633  3.9689  1.0895 -0.1550
 9103SOL    HW238943   3.694   0.756  12.506  0.0319  1.0397 -0.8479
 9104SOL     OW38944   3.171   0.416   5.224  0.5184 -0.5666 -0.3225
 9104SOL    HW138945   3.148   0.363   5.148 -1.3604 -0.1534 -0.0379
 9104SOL    HW238946   3.206   0.498   5.187 -0.7364  0.0288 -0.1609
 9105SOL     OW38947   2.203   4.596  16.959 -0.6939  0.1860 -0.1544
 9105SOL    HW138948   2.174   4.588  17.050  0.5577 -0.1461  0.2163
 9105SOL    HW238949   2.135   4.657  16.931  0.4990  1.2192 -0.7840
 9106SOL     OW38950   1.866   1.354   8.867 -0.1484  0.0654  0.0260
 9106SOL    HW138951   1.826   1.441   8.857  1.6783  1.3154  3.4316
 9106SOL    HW238952   1.781   1.311   8.864  0.6071 -1.6207  2.8226
 9107SOL     OW38953   4.461   2.186   5.608 -0.3752 -0.5407  0.0591
 9107SOL    HW138954   4.520   2.258   5.632 -2.2234  0.9688  0.0362
 9107SOL    HW238955   4.412   2.240   5.547 -0.8243  0.8545  1.6720
 9108SOL     OW38956   1.315   2.495   8.030 -0.1584  0.1624 -0.5982
 9108SOL    HW138957   1.384   2.439   7.995 -0.2065 -0.6435  0.5700
 9108SOL    HW238958   1.238   2.442   8.053  0.9402 -1.7492 -1.4360
 9109SOL     OW38959   1.471   2.542  10.564  0.3343  0.9285  0.5073
 9109SOL    HW138960   1.433   2.578  10.644 -0.4046 -1.5079  1.2454
 9109SOL    HW238961   1.563   2.563  10.580  0.1890  1.4546  0.6518
 9110SOL     OW38962   3.662   1.707   6.237  0.3030  0.6256  0.6670
 9110SOL    HW138963   3.702   1.754   6.310  0.2685  1.3539  0.2166
 9110SOL    HW238964   3.721   1.632   6.223 -3.0378 -1.6379 -1.3672
 9111SOL     OW38965   0.165   2.354   2.305 -0.3959  0.0984 -0.0964
 9111SOL    HW138966   0.207   2.281   2.259 -0.9392 -0.9362  1.0670
 9111SOL    HW238967   0.084   2.362   2.255 -1.3342 -0.6322  1.3129
 9112SOL     OW38968   2.190   4.642   3.686 -0.5917 -0.0877  0.2503
 9112SOL    HW138969   2.228   4.726   3.712 -0.0549 -0.0619 -0.5886
 9112SOL    HW238970   2.267   4.586   3.682 -0.6439 -0.2292  1.2219
 9113SOL     OW38971   2.351   4.710   5.112  0.8931  0.4693 -0.0006
 9113SOL    HW138972   2.259   4.730   5.093  1.1910  1.5519 -0.3208
 9113SOL    HW238973   2.397   0.010   5.038 -0.0764  0.2727 -0.7124
 9114SOL     OW38974   4.686   4.405   9.138 -0.1615 -0.1179 -0.1319
 9114SOL    HW138975   0.003   4.399   9.062  0.9402 -1.4005  0.7982
 9114SOL    HW238976   4.653   4.315   9.136 -0.6374  0.0487  0.5597
 9115SOL     OW38977   1.419   0.728   3.068 -0.6769  0.0494 -0.0503
 9115SOL    HW138978   1.512   0.740   3.048 -1.1661  0.1794 -2.3157
 9115SOL    HW238979   1.398   0.647   3.021 -1.2123 -0.5945  1.3086
 9116SOL     OW38980   3.903   2.021   6.307 -0.4103  0.0054  0.6609
 9116SOL    HW138981   3.967   1.961   6.344 -0.0560 -0.8612 -1.3817
 9116SOL    HW238982   3.893   1.983   6.220  0.3834  2.4965 -0.5265
 9117SOL     OW38983   3.941   1.268   3.318  0.2034  0.0172  0.2117
 9117SOL    HW138984   4.000   1.343   3.305  1.9332 -1.1726  1.1192
 9117SOL    HW238985   3.862   1.308   3.283  0.7146 -0.0441 -1.0090
 9118SOL     OW38986   1.820   3.471   2.186 -0.1623 -0.2559 -0.5537
 9118SOL    HW138987   1.744   3.469   2.244  0.3791  1.1352  0.2141
 9118SOL    HW238988   1.884   3.421   2.237  1.4690  0.0291 -2.3345
 9119SOL     OW38989   4.385   1.620   1.705 -0.0946  0.0692  0.3038
 9119SOL    HW138990   4.295   1.650   1.717  1.2056  3.6735  0.9310
 9119SOL    HW238991   4.384   1.598   1.612  1.4921 -0.2854  0.3705
 9120SOL     OW38992   2.801   0.677  12.751 -0.6266 -0.2068 -0.0377
 9120SOL    HW138993   2.811   0.590  12.712  0.0059  0.4443 -1.3356
 9120SOL    HW238994   2.822   0.651  12.841  1.1264 -1.1571 -0.7290
 9121SOL     OW38995   2.554   3.610   6.955  0.1937  0.2410  0.4452
 9121SOL    HW138996   2.483   3.591   6.893  0.3828  0.9863 -0.0097
 9121SOL    HW238997   2.634   3.591   6.906  0.3741  2.3629 -0.0658
 9122SOL     OW38998   0.165   0.514  11.544 -0.1300  0.8682  0.1659
 9122SOL    HW138999   0.225   0.581  11.579 -1.3997  0.9464  2.1826
 9122SOL    HW239000   0.124   0.481  11.624 -1.4917  1.3152 -0.3442
 9123SOL     OW39001   2.693   1.651  15.960  0.4051 -0.7045 -0.1387
 9123SOL    HW139002   2.761   1.719  15.952  0.8471 -1.0399  0.8241
 9123SOL    HW239003   2.720   1.585  16.023  3.0416  0.1080 -0.4039
 9124SOL     OW39004   1.361   0.213  10.990 -0.3432  0.2653  0.6903
 9124SOL    HW139005   1.407   0.157  10.927  0.6768  3.6866 -1.5958
 9124SOL    HW239006   1.369   0.162  11.071 -1.2882 -1.5931 -0.3579
 9125SOL     OW39007   4.600   0.768   8.413  0.4675 -0.4354  0.4018
 9125SOL    HW139008   4.630   0.688   8.371 -4.7333 -1.9200 -0.4562
 9125SOL    HW239009   4.560   0.815   8.339 -1.2679 -1.3598  0.7463
 9126SOL     OW39010   0.632   2.365  16.925  0.0697 -0.5402  0.5138
 9126SOL    HW139011   0.677   2.436  16.879 -2.2036 -0.4220 -1.5507
 9126SOL    HW239012   0.659   2.397  17.011 -0.3318  1.9880 -0.3029
 9127SOL     OW39013   4.585   1.273   2.375 -0.0688 -0.5217  0.3961
 9127SOL    HW139014   4.581   1.368   2.362 -0.1639 -0.3970  1.3248
 9127SOL    HW239015   4.588   1.242   2.285  0.0125  0.4635  0.0600
 9128SOL     OW39016   0.398   4.670   6.874 -0.2963 -0.1659  0.1602
 9128SOL    HW139017   0.430   4.580   6.870 -1.4904 -0.4767 -2.7446
 9128SOL    HW239018   0.411   4.697   6.783 -0.7576  0.1920  0.2018
 9129SOL     OW39019   0.890   4.670  10.075  0.2671 -0.0508 -0.2272
 9129SOL    HW139020   0.971   4.714  10.102  1.3003 -2.1383  0.0776
 9129SOL    HW239021   0.817   4.731  10.077  0.8493  0.7000 -2.7061
 9130SOL     OW39022   0.634   0.629   4.458  0.4455 -0.4455  0.4193
 9130SOL    HW139023   0.575   0.699   4.430  0.8156 -0.1381  0.4082
 9130SOL    HW239024   0.592   0.556   4.412 -3.2810  2.4809 -0.8429
 9131SOL     OW39025   1.128   3.423   9.429  0.1861 -0.1727 -0.0354
 9131SOL    HW139026   1.068   3.365   9.382 -0.5250  0.1232  0.4993
 9131SOL    HW239027   1.190   3.351   9.438 -2.4270 -2.6308 -1.7274
 9132SOL     OW39028   4.164   2.064   4.929  0.2764  1.1022  0.4137
 9132SOL    HW139029   4.090   2.026   4.977  0.7334 -0.7626 -0.3400
 9132SOL    HW239030   4.133   2.062   4.839  0.5328  0.9939  0.3305
 9133SOL     OW39031   1.826   0.418   0.385 -0.3130 -0.6931  0.0917
 9133SOL    HW139032   1.810   0.447   0.295 -0.7939 -0.7827  0.1514
 9133SOL    HW239033   1.819   0.323   0.378 -0.5410 -0.6437 -0.3186
 9134SOL     OW39034   0.159   0.443   3.916  0.2545 -0.1542  0.2377
 9134SOL    HW139035   0.130   0.507   3.981 -0.2834 -1.1933  1.0219
 9134SOL    HW239036   0.112   0.473   3.838  0.2948  0.8986  0.6162
 9135SOL     OW39037   1.576   3.549  11.100  0.1639 -0.2928  0.7570
 9135SOL    HW139038   1.642   3.500  11.050 -0.3880  0.0322 -0.2905
 9135SOL    HW239039   1.630   3.597  11.163  1.2684 -2.5270  1.5320
 9136SOL     OW39040   4.621   1.083   7.075 -0.6354  0.3512  0.0498
 9136SOL    HW139041   4.655   1.083   7.165 -0.2629 -0.5252 -0.0901
 9136SOL    HW239042   4.641   0.997   7.038 -1.5625 -0.5146  1.5373
 9137SOL     OW39043   1.829   1.818   9.349  0.0605  0.5104 -0.0006
 9137SOL    HW139044   1.778   1.895   9.322  0.6040  0.6737 -0.5473
 9137SOL    HW239045   1.913   1.831   9.307  0.3414 -3.1289 -0.4963
 9138SOL     OW39046   2.830   0.286   8.857 -0.4804  0.7410  0.1787
 9138SOL    HW139047   2.874   0.206   8.884 -1.6139 -0.7257 -2.2675
 9138SOL    HW239048   2.771   0.255   8.788 -1.7467  1.8049  0.7924
 9139SOL     OW39049   1.111   0.462   5.850  0.4157 -0.4144  0.3417
 9139SOL    HW139050   1.084   0.490   5.762  2.9815  1.7312  0.2266
 9139SOL    HW239051   1.180   0.527   5.864  0.1640  0.3823 -2.1647
 9140SOL     OW39052   3.098   3.194   6.238 -0.1151 -0.0165 -0.0039
 9140SOL    HW139053   3.118   3.100   6.231 -1.2802 -0.2214 -0.5108
 9140SOL    HW239054   3.024   3.194   6.297  0.2794 -1.9359  0.5029
 9141SOL     OW39055   3.018   3.901   1.763  0.2380 -0.3626 -0.0510
 9141SOL    HW139056   2.954   3.871   1.827  0.4353 -2.9806 -1.1020
 9141SOL    HW239057   2.999   3.836   1.696 -2.1543 -1.7264  1.9403
 9142SOL     OW39058   4.357   4.031  15.967  0.2820 -0.4453 -0.6330
 9142SOL    HW139059   4.325   4.068  16.050  0.5332 -0.8461 -0.3568
 9142SOL    HW239060   4.295   3.958  15.958  0.6287 -0.7737 -0.3838
 9143SOL     OW39061   0.184   0.175  16.023 -0.2205 -0.2014 -0.3111
 9143SOL    HW139062   0.177   0.130  16.107 -1.0052  0.3506 -0.0843
 9143SOL    HW239063   0.172   0.264  16.057 -0.6369 -0.5770  0.5220
 9144SOL     OW39064   3.665   3.980   1.262 -0.2445 -0.4208  0.3152
 9144SOL    HW139065   3.634   3.954   1.175 -0.3723 -0.2159  0.2996
 9144SOL    HW239066   3.592   4.024   1.305 -0.9348  0.6519 -1.9480
 9145SOL     OW39067   3.053   3.413   2.114  0.4021  0.1151  0.3980
 9145SOL    HW139068   3.143   3.390   2.136  0.8787 -0.8760 -2.5998
 9145SOL    HW239069   3.065   3.487   2.054 -0.8247  0.3467  0.4332
 9146SOL     OW39070   2.596   0.368  16.102 -0.0183  0.4009 -0.1097
 9146SOL    HW139071   2.639   0.407  16.026 -0.5713 -0.8537 -1.0598
 9146SOL    HW239072   2.626   0.435  16.163  0.1830 -1.0780  1.4049
 9147SOL     OW39073   3.412   3.639  14.799 -0.2966 -0.2736 -0.2413
 9147SOL    HW139074   3.346   3.642  14.731  1.5617  0.2237 -2.0288
 9147SOL    HW239075   3.373   3.691  14.869 -2.1389 -0.7635 -0.9258
 9148SOL     OW39076   3.275   3.611   1.026  0.3574  0.5403  0.3177
 9148SOL    HW139077   3.304   3.616   1.117 -2.1652  1.5924  1.0598
 9148SOL    HW239078   3.324   3.533   1.001 -1.2182 -0.1254 -0.6844
 9149SOL     OW39079   4.675   0.700   6.206 -0.1647  0.2295 -0.7494
 9149SOL    HW139080   4.738   0.728   6.140 -1.1117  1.0451 -1.3082
 9149SOL    HW239081   4.688   0.607   6.224 -1.7074 -0.1479 -1.5938
 9150SOL     OW39082   4.223   1.900   4.114  0.6977 -0.0160  0.1313
 9150SOL    HW139083   4.294   1.965   4.115 -0.5832  1.3779  0.3577
 9150SOL    HW239084   4.151   1.942   4.068  1.8888  1.1032 -0.7097
 9151SOL     OW39085   4.251   2.343   2.084 -0.8419  0.0492  0.1409
 9151SOL    HW139086   4.198   2.265   2.066  0.7784 -0.9075 -0.4682
 9151SOL    HW239087   4.323   2.296   2.125 -0.7346 -0.2015 -0.3268
 9152SOL     OW39088   1.931   2.888   8.464 -0.3736 -0.2685 -0.0899
 9152SOL    HW139089   1.977   2.867   8.545  2.1531 -0.9550 -1.6794
 9152SOL    HW239090   1.862   2.947   8.495 -0.5658 -1.8229  2.4470
 9153SOL     OW39091   3.575   1.507  15.109  0.5304 -0.0627  0.3536
 9153SOL    HW139092   3.528   1.516  15.026  5.1274 -1.5736 -2.4520
 9153SOL    HW239093   3.595   1.599  15.126 -1.4347  0.6869 -1.3695
 9154SOL     OW39094   2.508   3.150   4.914  0.5242  0.1596 -0.3406
 9154SOL    HW139095   2.556   3.174   4.993  0.6780 -0.5444 -0.2174
 9154SOL    HW239096   2.574   3.130   4.847  1.1526 -1.0693  0.6250
 9155SOL     OW39097   1.422   0.839   7.235  0.0193 -0.7667 -0.2958
 9155SOL    HW139098   1.344   0.816   7.185 -0.5728 -0.3609  0.4414
 9155SOL    HW239099   1.470   0.885   7.167 -1.3161 -1.0053 -1.3860
 9156SOL     OW39100   2.332   3.140   9.239 -0.1034  0.3683 -0.6806
 9156SOL    HW139101   2.275   3.065   9.255  0.5627 -0.7429 -3.5378
 9156SOL    HW239102   2.342   3.182   9.324  1.2767 -0.9516 -0.1881
 9157SOL     OW39103   2.290   4.191  10.283  0.1226 -0.0391 -0.1875
 9157SOL    HW139104   2.271   4.249  10.357 -0.6499 -1.8133  1.0135
 9157SOL    HW239105   2.244   4.109  10.302 -2.4247  0.9066 -2.2211
 9158SOL     OW39106   4.171   4.620   5.142 -0.5149 -0.7459 -0.1868
 9158SOL    HW139107   4.114   4.555   5.100 -1.0027 -1.0541  0.9556
 9158SOL    HW239108   4.178   4.587   5.231  0.3427 -2.3259 -0.8284
 9159SOL     OW39109   0.402   4.015   9.656 -0.0648  0.1669 -0.2307
 9159SOL    HW139110   0.496   4.002   9.669 -0.0530  2.3240  1.9163
 9159SOL    HW239111   0.387   4.080   9.725 -1.0955  0.8034 -1.0488
 9160SOL     OW39112   2.813   3.130   6.260 -0.4632  0.9563 -0.2368
 9160SOL    HW139113   2.862   3.072   6.318 -0.4035 -0.7213 -1.9687
 9160SOL    HW239114   2.782   3.189   6.328 -2.4310 -0.0864 -0.2139
 9161SOL     OW39115   4.386   0.950   6.257 -0.2408  0.3867  0.2239
 9161SOL    HW139116   4.450   0.956   6.186  0.0449 -0.2876  0.4186
 9161SOL    HW239117   4.453   0.973   6.321 -0.3807  0.5681  0.3031
 9162SOL     OW39118   2.909   2.795  16.712 -0.9456  0.1069  0.1219
 9162SOL    HW139119   2.858   2.822  16.788 -2.9115  0.0457 -1.1444
 9162SOL    HW239120   2.894   2.700  16.703 -0.3189  0.0755 -0.6249
 9163SOL     OW39121   1.469   1.336   7.455 -0.5473 -0.0581  0.4158
 9163SOL    HW139122   1.489   1.414   7.505 -4.8367  1.8061 -0.7928
 9163SOL    HW239123   1.482   1.366   7.365 -0.0379 -1.3664  0.0509
 9164SOL     OW39124   1.327   2.777   3.590  0.3960  0.0144 -0.3417
 9164SOL    HW139125   1.260   2.716   3.558  0.5365 -0.4535  0.2561
 9164SOL    HW239126   1.308   2.847   3.528 -2.0224 -1.1716 -0.9477
 9165SOL     OW39127   0.809   2.795   8.775 -0.2940 -0.6327  0.5083
 9165SOL    HW139128   0.896   2.814   8.739 -0.1734 -1.4138  0.3890
 9165SOL    HW239129   0.776   2.744   8.701  1.8155 -0.5104 -0.5115
 9166SOL     OW39130   0.259   4.403  10.509 -0.3699  0.5009 -0.4552
 9166SOL    HW139131   0.311   4.370  10.436  1.4681 -0.4047  1.2534
 9166SOL    HW239132   0.244   4.321  10.557  1.7761  1.0257  1.1135
 9167SOL     OW39133   1.785   3.503   4.399  0.2892 -0.6692  0.0508
 9167SOL    HW139134   1.838   3.467   4.327 -0.3594 -0.6367 -0.4471
 9167SOL    HW239135   1.818   3.457   4.476 -0.0267 -2.2231 -0.7377
 9168SOL     OW39136   2.426   4.668  16.778  0.0823 -0.0921  0.3954
 9168SOL    HW139137   2.389   4.618  16.705 -2.7424 -1.5326  2.8112
 9168SOL    HW239138   2.360   4.635  16.839  1.2741 -1.2515  1.0591
 9169SOL     OW39139   2.462   4.678   6.433  0.8918  0.7504 -0.0094
 9169SOL    HW139140   2.409   4.614   6.385  1.7177  0.2939 -0.3012
 9169SOL    HW239141   2.400   0.010   6.443  1.1538  0.8911  0.5778
 9170SOL     OW39142   3.782   3.281   4.035 -0.2348  0.2537  0.2169
 9170SOL    HW139143   3.723   3.254   3.965 -0.4484 -1.8632  1.2249
 9170SOL    HW239144   3.778   3.377   4.031  1.0862  0.2489 -1.2722
 9171SOL     OW39145   2.896   0.322   1.450 -0.7841  0.1161  0.0702
 9171SOL    HW139146   2.978   0.332   1.402 -1.9006 -0.1802 -1.9048
 9171SOL    HW239147   2.840   0.285   1.381 -0.8014 -0.5200  0.4312
 9172SOL     OW39148   0.515   1.438   7.905  0.2056 -0.1693  0.1572
 9172SOL    HW139149   0.514   1.460   7.998 -0.0917  0.7248 -0.0610
 9172SOL    HW239150   0.521   1.528   7.872  1.8759 -1.2131 -2.4379
 9173SOL     OW39151   3.825   4.698   1.414  0.0224 -0.5076  0.4894
 9173SOL    HW139152   3.894   0.000   1.362 -0.0324 -1.6258 -0.4981
 9173SOL    HW239153   3.790   0.034   1.459  0.2488 -0.1834  0.1229
 9174SOL     OW39154   4.338   0.341  14.772 -0.2019 -0.6010 -0.8664
 9174SOL    HW139155   4.359   0.431  14.795  0.2600 -0.8192 -0.4257
 9174SOL    HW239156   4.247   0.356  14.745 -0.3556 -0.4259 -0.2376
 9175SOL     OW39157   3.747   4.153   7.318  0.1815  0.0036  0.3279
 9175SOL    HW139158   3.786   4.089   7.258 -0.0711  1.5241 -1.4682
 9175SOL    HW239159   3.822   4.162   7.377 -0.8489  1.6795  1.3714
 9176SOL     OW39160   0.213   2.986   3.775 -0.8196  0.1269 -0.0545
 9176SOL    HW139161   0.154   3.055   3.747 -0.1338 -0.2333 -2.4092
 9176SOL    HW239162   0.298   3.015   3.741  0.0668 -0.7641  1.3967
 9177SOL     OW39163   2.459   1.497  17.290 -0.5116 -0.1713  0.8375
 9177SOL    HW139164   2.527   1.434  17.265 -0.5464  0.6401 -1.2686
 9177SOL    HW239165   2.449   1.466  17.380 -1.6109  0.6513  0.9903
 9178SOL     OW39166   0.391   1.142   7.671 -0.0344  0.2436  0.2956
 9178SOL    HW139167   0.342   1.108   7.596 -0.5280 -0.1739  0.7956
 9178SOL    HW239168   0.473   1.169   7.630  1.7254 -2.5357  1.9836
 9179SOL     OW39169   0.434   2.098   9.733 -0.0320  0.1780 -0.1663
 9179SOL    HW139170   0.529   2.098   9.745 -0.1141 -2.4635  0.6212
 9179SOL    HW239171   0.407   2.136   9.816 -1.9320 -0.4413 -0.5073
 9180SOL     OW39172   4.448   1.973   8.418 -0.4453  0.1735  0.3445
 9180SOL    HW139173   4.531   1.929   8.434 -0.2729  0.0475 -0.8662
 9180SOL    HW239174   4.457   1.998   8.326  1.5679  0.5004  0.6207
 9181SOL     OW39175   3.458   4.323  10.838  0.1484  0.3997 -0.2945
 9181SOL    HW139176   3.377   4.293  10.795  0.5209 -2.9604  1.3475
 9181SOL    HW239177   3.514   4.336  10.762  0.4223 -1.6079 -0.4373
 9182SOL     OW39178   1.018   4.151   9.891  0.3889 -0.0629  0.3921
 9182SOL    HW139179   0.966   4.085   9.937 -3.0890  1.8324 -0.8305
 9182SOL    HW239180   0.965   4.227   9.915  3.0134  1.7451  0.4092
 9183SOL     OW39181   2.428   1.973  11.867  0.2004  0.4438 -0.0103
 9183SOL    HW139182   2.485   2.013  11.933 -0.0291  0.5404  0.1282
 9183SOL    HW239183   2.350   1.963  11.923 -1.4487 -0.7131 -2.5160
 9184SOL     OW39184   1.369   0.652   5.913  0.0398 -0.0428 -0.0832
 9184SOL    HW139185   1.456   0.655   5.874  0.2304  2.5401  0.5266
 9184SOL    HW239186   1.374   0.729   5.969 -0.3002  0.7774 -1.1739
 9185SOL     OW39187   2.845   1.774   0.988  0.0624  0.6855  0.4388
 9185SOL    HW139188   2.861   1.680   0.994  0.5789  0.7925  0.6766
 9185SOL    HW239189   2.920   1.803   1.040  1.0119 -1.0431  0.0197
 9186SOL     OW39190   1.883   3.359   9.724 -0.3958  0.0996  0.1690
 9186SOL    HW139191   1.855   3.340   9.635 -0.1647  1.1177 -0.1222
 9186SOL    HW239192   1.812   3.318   9.774  0.8600 -1.7830  0.4064
 9187SOL     OW39193   0.896   1.238   7.828 -0.2607 -0.1908 -0.0094
 9187SOL    HW139194   0.932   1.325   7.811 -0.3904  0.0072  0.6932
 9187SOL    HW239195   0.923   1.228   7.920 -1.4354 -1.7470  0.1630
 9188SOL     OW39196   0.053   3.056   5.715 -0.5366  0.1261 -0.0186
 9188SOL    HW139197   0.035   3.037   5.623 -1.5383 -0.5393  0.3111
 9188SOL    HW239198   0.143   3.088   5.713 -0.1306 -1.0786 -0.8900
 9189SOL     OW39199   1.226   3.963   0.325  0.5846  0.5676  0.0975
 9189SOL    HW139200   1.301   3.985   0.380  1.1561 -0.3197 -0.3231
 9189SOL    HW239201   1.235   4.029   0.256  0.7033  2.5547  2.0081
 9190SOL     OW39202   1.476   3.746   8.894 -0.0138 -0.2236  0.3414
 9190SOL    HW139203   1.482   3.834   8.855 -0.7991  0.5074  1.8891
 9190SOL    HW239204   1.553   3.714   8.847  0.8307  0.7110  1.1000
 9191SOL     OW39205   0.524   0.987   5.072 -0.7542 -0.7114  0.1815
 9191SOL    HW139206   0.441   0.995   5.119 -1.0016  1.8107 -0.6871
 9191SOL    HW239207   0.514   1.065   5.019  2.5766 -0.0958  0.4431
 9192SOL     OW39208   3.918   0.198  13.546 -0.2406  0.1229 -0.1648
 9192SOL    HW139209   3.870   0.232  13.470  3.1780 -1.4873 -3.0362
 9192SOL    HW239210   3.896   0.266  13.610 -1.7895 -0.5040 -0.0312
 9193SOL     OW39211   2.504   0.597   6.779  0.4221 -0.4792 -0.6500
 9193SOL    HW139212   2.536   0.524   6.726  3.2591 -0.4302  0.9756
 9193SOL    HW239213   2.575   0.619   6.840 -1.5466  1.6523  0.8886
 9194SOL     OW39214   2.514   2.957  15.730  0.1016 -0.3258 -0.3988
 9194SOL    HW139215   2.558   2.875  15.751  0.8297 -0.0082 -0.6791
 9194SOL    HW239216   2.433   2.926  15.690 -0.4362 -1.6733  1.7850
 9195SOL     OW39217   3.747   2.414   6.420 -0.6923 -0.4282  0.2004
 9195SOL    HW139218   3.736   2.413   6.515  1.4679  0.6722  0.4553
 9195SOL    HW239219   3.666   2.370   6.394 -0.5284 -0.3494 -0.4408
 9196SOL     OW39220   2.821   2.731   8.031 -0.2851 -0.2428 -0.6195
 9196SOL    HW139221   2.815   2.798   8.099  1.3975 -0.9468  0.2237
 9196SOL    HW239222   2.853   2.650   8.073 -1.2611 -0.9532 -1.2524
 9197SOL     OW39223   3.365   1.668   5.481 -0.0231  0.1077  0.0274
 9197SOL    HW139224   3.405   1.743   5.438 -1.8496 -0.0154 -1.8944
 9197SOL    HW239225   3.342   1.723   5.556  1.6953 -0.7913  1.2085
 9198SOL     OW39226   1.719   2.633  13.259 -0.2895 -0.2313 -0.4954
 9198SOL    HW139227   1.774   2.697  13.214  0.2773 -0.2730  0.1372
 9198SOL    HW239228   1.641   2.647  13.206 -1.8680  0.6113  2.0209
 9199SOL     OW39229   0.612   3.953   4.319 -0.2419  0.2161  0.5414
 9199SOL    HW139230   0.587   4.045   4.315 -0.9724 -0.0644 -1.1099
 9199SOL    HW239231   0.707   3.955   4.321 -0.2126 -1.6198  0.9813
 9200SOL     OW39232   2.528   3.327   4.142 -0.3095 -0.2410 -0.1784
 9200SOL    HW139233   2.536   3.415   4.108 -0.2487 -0.0682  0.2825
 9200SOL    HW239234   2.435   3.321   4.167  0.1801 -1.5628  1.3698
 9201SOL     OW39235   0.213   0.898   3.996 -0.2538 -0.4698  0.3201
 9201SOL    HW139236   0.215   0.986   4.033 -1.7380 -0.6196  0.7562
 9201SOL    HW239237   0.292   0.860   4.034  0.0867  0.8932  0.9798
 9202SOL     OW39238   1.687   0.934   8.028 -0.3716 -0.4033  0.3136
 9202SOL    HW139239   1.750   0.980   8.084 -0.5557  1.1796 -0.7627
 9202SOL    HW239240   1.643   1.014   8.000  1.6920  0.7953  0.4434
 9203SOL     OW39241   3.259   4.477   8.753 -0.3417 -0.0753  0.3651
 9203SOL    HW139242   3.237   4.539   8.823 -2.8643 -0.1480 -0.3514
 9203SOL    HW239243   3.323   4.520   8.697  0.8711 -2.1553  0.1325
 9204SOL     OW39244   2.910   3.451   2.344  0.5166 -0.3054 -0.3920
 9204SOL    HW139245   2.962   3.429   2.266  4.3057 -0.6445  2.2260
 9204SOL    HW239246   2.832   3.483   2.299 -1.8784 -1.7193  2.8109
 9205SOL     OW39247   2.947   4.643   5.470 -0.1250  0.3605 -0.6106
 9205SOL    HW139248   2.859   4.604   5.480  0.5805 -1.1320 -0.1778
 9205SOL    HW239249   2.996   4.561   5.461  0.5078  0.7802 -0.9833
 9206SOL     OW39250   2.682   1.305   1.571  0.6795 -0.1097  0.4905
 9206SOL    HW139251   2.770   1.273   1.587  0.1898 -1.4379  0.6047
 9206SOL    HW239252   2.660   1.311   1.663 -2.2068 -0.3342 -0.1771
 9207SOL     OW39253   0.226   2.526   4.441  0.6306  0.2718 -0.1885
 9207SOL    HW139254   0.300   2.478   4.404 -1.0532 -1.8639 -0.8148
 9207SOL    HW239255   0.271   2.604   4.475 -0.3935  0.9670 -0.4164
 9208SOL     OW39256   2.957   1.293  15.655 -0.2430  0.5818  0.8272
 9208SOL    HW139257   2.943   1.364  15.717 -0.2222  1.3729 -0.0740
 9208SOL    HW239258   2.911   1.330  15.580 -0.6148 -2.4989 -0.4691
 9209SOL     OW39259   0.154   1.195   5.940 -0.1391  0.1797  0.3193
 9209SOL    HW139260   0.125   1.105   5.922  0.9292 -0.1212  0.0943
 9209SOL    HW239261   0.125   1.220   6.028 -0.1070 -1.3769  0.7721
 9210SOL     OW39262   0.135   2.363   4.989 -0.4487 -0.1684 -0.9082
 9210SOL    HW139263   0.213   2.399   5.032 -0.2337 -0.4340 -1.0757
 9210SOL    HW239264   0.097   2.324   5.067  1.3374 -1.3377 -0.6220
 9211SOL     OW39265   3.046   3.824   3.187  0.0982 -0.0333  0.2523
 9211SOL    HW139266   3.043   3.920   3.186 -0.7287 -0.0758 -1.2223
 9211SOL    HW239267   3.122   3.799   3.239  1.7163  0.2262 -2.0405
 9212SOL     OW39268   2.029   0.139   2.822 -0.0375 -0.0228 -0.2103
 9212SOL    HW139269   1.979   0.211   2.784  0.4640  0.8670  0.8237
 9212SOL    HW239270   1.970   0.106   2.889 -1.9496  3.2426 -0.2715
 9213SOL     OW39271   4.590   1.461   5.832  0.2494  0.0396 -0.7840
 9213SOL    HW139272   4.663   1.416   5.789 -0.3285 -1.5081 -0.1163
 9213SOL    HW239273   4.523   1.463   5.764 -0.3237 -1.8144 -0.2891
 9214SOL     OW39274   0.674   2.629  11.726 -0.0749 -0.3068  0.0261
 9214SOL    HW139275   0.631   2.715  11.722  1.0110  0.1216 -2.3862
 9214SOL    HW239276   0.762   2.645  11.691  0.4210 -3.7340 -0.2383
 9215SOL     OW39277   1.804   4.516   4.872  0.0689 -0.4065  0.0849
 9215SOL    HW139278   1.895   4.544   4.881 -1.2182  3.3235  1.3371
 9215SOL    HW239279   1.772   4.547   4.956 -0.1201 -0.2197 -0.0543
 9216SOL     OW39280   0.278   2.936   7.739  0.0803 -0.3958 -0.4562
 9216SOL    HW139281   0.314   2.958   7.825 -0.9045  2.0659 -0.6638
 9216SOL    HW239282   0.302   2.844   7.738  1.4071 -0.0412 -1.7977
 9217SOL     OW39283   1.819   3.820   9.993 -0.0122  0.3502 -0.3743
 9217SOL    HW139284   1.750   3.759  10.020 -0.3876  0.6771 -0.5897
 9217SOL    HW239285   1.850   3.784   9.909  0.2814 -0.4158  0.0617
 9218SOL     OW39286   3.123   2.543   6.707  0.6406 -0.2346  0.4700
 9218SOL    HW139287   3.082   2.468   6.751 -0.8614 -0.1705 -0.7993
 9218SOL    HW239288   3.161   2.496   6.632  0.1738 -0.2163  0.2179
 9219SOL     OW39289   3.548   2.975   3.646 -0.2027  0.0846 -0.1678
 9219SOL    HW139290   3.587   2.890   3.664 -0.5872  0.1984  1.1700
 9219SOL    HW239291   3.618   3.038   3.658  0.3972 -0.6637  0.2299
 9220SOL     OW39292   2.293   4.455   6.394 -0.4136 -0.6504 -0.0203
 9220SOL    HW139293   2.214   4.493   6.354  0.6716  0.3984 -1.1661
 9220SOL    HW239294   2.253   4.415   6.472 -2.9882 -0.7414 -1.3775
 9221SOL     OW39295   2.321   4.157   8.441  0.0017 -0.2474  0.3256
 9221SOL    HW139296   2.327   4.063   8.420 -1.4805  0.1005 -1.6849
 9221SOL    HW239297   2.320   4.141   8.535  1.0953  1.8968  0.6813
 9222SOL     OW39298   2.552   1.116   7.075  0.2317  0.4848  0.0893
 9222SOL    HW139299   2.592   1.100   6.990 -0.4449 -2.1395  0.2663
 9222SOL    HW239300   2.478   1.056   7.077  1.0294 -0.4967 -0.0986
 9223SOL     OW39301   1.294   4.364  16.758  0.1789 -0.0080 -0.2353
 9223SOL    HW139302   1.382   4.362  16.796 -0.3071  2.4160  1.0216
 9223SOL    HW239303   1.323   4.354  16.667  0.6294  2.1981 -0.3306
 9224SOL     OW39304   2.071   3.138   1.149 -0.6865 -0.6892 -0.3610
 9224SOL    HW139305   2.160   3.127   1.116 -0.2949  1.5509 -0.0080
 9224SOL    HW239306   2.046   3.226   1.123  1.7703 -0.1761 -0.9494
 9225SOL     OW39307   4.488   3.907   9.548 -0.4116  1.0014  0.1375
 9225SOL    HW139308   4.427   3.868   9.611 -0.5692  0.9047 -0.0777
 9225SOL    HW239309   4.553   3.950   9.603 -0.9020  1.8433  0.0633
 9226SOL     OW39310   2.507   0.521  13.230  0.1424 -0.3720 -0.2224
 9226SOL    HW139311   2.416   0.534  13.256 -0.0121 -0.3455 -0.7934
 9226SOL    HW239312   2.547   0.595  13.277  0.2318 -0.6118  0.0802
 9227SOL     OW39313   1.137   0.814   1.666  0.0655  0.0880 -0.1284
 9227SOL    HW139314   1.070   0.868   1.623 -0.5004  0.8251  1.7033
 9227SOL    HW239315   1.079   0.755   1.714 -0.3866 -0.8812 -1.8449
 9228SOL     OW39316   4.397   3.065   5.519  0.3179 -0.3512  0.2621
 9228SOL    HW139317   4.372   3.085   5.429 -0.6612  1.1890  0.8872
 9228SOL    HW239318   4.353   3.132   5.571  2.0026  0.5244  0.5660
 9229SOL     OW39319   2.871   0.053  13.763 -0.3031 -0.2923  0.0203
 9229SOL    HW139320   2.792   0.092  13.802  0.1224  0.6441 -0.0461
 9229SOL    HW239321   2.920   0.020  13.838  0.9571  1.0206 -0.2234
 9230SOL     OW39322   3.044   3.187   8.270  0.0238 -0.2998  0.3683
 9230SOL    HW139323   3.138   3.208   8.266 -0.2463  0.5733 -1.1413
 9230SOL    HW239324   3.056   3.112   8.328 -1.0255  0.5953  1.7513
 9231SOL     OW39325   1.785   3.415   9.086  0.2650 -0.5350 -0.0844
 9231SOL    HW139326   1.817   3.331   9.055  1.1452  0.3624 -1.6159
 9231SOL    HW239327   1.868   3.460   9.099 -2.5758  4.9618 -0.9370
 9232SOL     OW39328   4.497   1.197   1.251 -0.0875 -0.5477 -0.2351
 9232SOL    HW139329   4.509   1.260   1.181 -0.9394 -0.7164 -0.5348
 9232SOL    HW239330   4.466   1.118   1.206 -0.7760 -0.8101  0.6834
 9233SOL     OW39331   1.007   0.665   7.430  0.8912 -0.3185 -0.4337
 9233SOL    HW139332   0.995   0.670   7.336 -1.3324  1.4965 -0.0665
 9233SOL    HW239333   1.092   0.622   7.430  1.2841  0.4568 -0.6338
 9234SOL     OW39334   3.013   3.246  16.802  0.4883 -0.6453  0.3209
 9234SOL    HW139335   2.936   3.296  16.830  1.7826  0.3468  2.1140
 9234SOL    HW239336   3.082   3.298  16.844  0.5439  0.8472 -1.6214
 9235SOL     OW39337   4.492   1.128   3.943 -0.1331 -0.5160  0.0002
 9235SOL    HW139338   4.465   1.183   3.870  1.0566  0.8276  0.5770
 9235SOL    HW239339   4.578   1.102   3.909  0.4682 -0.9369  1.8613
 9236SOL     OW39340   4.040   4.103  15.171  0.4695  0.8196 -0.4483
 9236SOL    HW139341   4.035   4.187  15.124  0.4973  2.9112  3.3541
 9236SOL    HW239342   3.957   4.108  15.219  0.9365 -2.5639  0.6699
 9237SOL     OW39343   2.468   1.505   6.588  0.1262 -0.2376 -0.0083
 9237SOL    HW139344   2.505   1.589   6.558 -1.2931  0.2395 -0.4314
 9237SOL    HW239345   2.513   1.440   6.535 -0.6763  0.2818 -1.3147
 9238SOL     OW39346   0.893   4.636  17.651 -0.4939  0.2412  0.1455
 9238SOL    HW139347   0.915   4.719  17.694  0.1418 -0.9302  2.0781
 9238SOL    HW239348   0.897   4.666  17.560  1.0005 -0.6108 -0.0691
 9239SOL     OW39349   0.882   0.676   3.946  0.0494 -0.1643  0.1203
 9239SOL    HW139350   0.796   0.704   3.915  1.0252  1.8200 -0.8410
 9239SOL    HW239351   0.870   0.658   4.039 -0.8783  0.9466  0.2161
 9240SOL     OW39352   0.020   1.936   7.109  1.1389  0.0588  0.1617
 9240SOL    HW139353   0.111   1.915   7.132  1.1775  0.0194 -0.0317
 9240SOL    HW239354   0.013   1.931   7.014  0.4703  3.3958  0.0352
 9241SOL     OW39355   0.485   0.654   7.022  0.5953  0.0535 -0.4654
 9241SOL    HW139356   0.520   0.585   7.078  2.6899  0.8240 -0.8446
 9241SOL    HW239357   0.407   0.682   7.071  1.1692 -1.5759  1.3858
 9242SOL     OW39358   2.313   2.437   8.574 -0.2990  0.4048 -0.0267
 9242SOL    HW139359   2.280   2.477   8.655 -1.3057  2.6431 -1.5615
 9242SOL    HW239360   2.247   2.373   8.549 -0.7728  0.7834  0.2466
 9243SOL     OW39361   4.274   4.070  16.207 -0.4814  0.2896 -0.4779
 9243SOL    HW139362   4.193   4.018  16.206  0.2913 -0.9098 -0.7369
 9243SOL    HW239363   4.273   4.114  16.292 -0.4637  1.2303 -0.9639
 9244SOL     OW39364   2.660   0.973  15.134 -0.1277  0.1343  0.4747
 9244SOL    HW139365   2.730   0.926  15.180 -0.2235 -1.0705 -0.6346
 9244SOL    HW239366   2.705   1.057  15.125 -1.6008  0.9510  0.8050
 9245SOL     OW39367   0.487   3.440  14.537  0.3230  0.1281  0.3351
 9245SOL    HW139368   0.429   3.454  14.462  0.3364  0.0691  0.3136
 9245SOL    HW239369   0.569   3.409  14.498 -0.5131  0.9814 -2.1121
 9246SOL     OW39370   1.543   2.886   7.982 -0.1746 -0.2124  0.7694
 9246SOL    HW139371   1.486   2.873   8.058 -1.8481 -0.6755 -0.5718
 9246SOL    HW239372   1.480   2.892   7.911 -1.1533 -0.9017  1.5797
 9247SOL     OW39373   1.684   0.616   6.083  0.1844 -0.1623 -0.4133
 9247SOL    HW139374   1.691   0.612   5.988  1.2033 -0.3320 -0.3228
 9247SOL    HW239375   1.765   0.657   6.112  0.0140  0.7676 -1.2826
 9248SOL     OW39376   3.192   0.335   7.462  0.0996  0.4069 -0.4605
 9248SOL    HW139377   3.225   0.353   7.374 -0.4032  1.2330 -0.4840
 9248SOL    HW239378   3.101   0.360   7.444 -0.3705 -1.2606 -0.4358
 9249SOL     OW39379   1.191   4.319   3.466 -0.0636  0.1090 -0.2482
 9249SOL    HW139380   1.110   4.311   3.516  0.2762 -0.1975  0.2566
 9249SOL    HW239381   1.172   4.251   3.402 -1.4199 -0.3691  0.6678
 9250SOL     OW39382   4.551   1.420   3.054  0.4014  0.5746 -0.0964
 9250SOL    HW139383   4.571   1.470   2.975  1.9018 -1.4231 -0.9724
 9250SOL    HW239384   4.504   1.345   3.017 -2.1284  0.8678  2.4529
 9251SOL     OW39385   0.644   4.651  10.244 -0.6082  0.0878 -0.0362
 9251SOL    HW139386   0.602   4.592  10.182  0.0997 -2.0761  1.5624
 9251SOL    HW239387   0.643   4.735  10.197 -2.2708  1.9076  3.2035
 9252SOL     OW39388   4.605   0.086   5.531 -0.0017  0.5473 -0.2699
 9252SOL    HW139389   4.611   0.146   5.605 -0.3869  1.7367 -1.2109
 9252SOL    HW239390   4.511   0.075   5.516 -0.0832  0.1633  0.5481
 9253SOL     OW39391   0.000   3.219   4.483 -0.3743  0.6297  0.3381
 9253SOL    HW139392   0.031   3.281   4.417  2.0689 -0.4901  0.4267
 9253SOL    HW239393   0.038   3.143   4.440 -1.6113 -0.2911  0.8644
 9254SOL     OW39394   4.722   3.924  17.044 -0.4410  0.6115  0.4798
 9254SOL    HW139395   0.045   3.890  16.982 -0.9442 -0.4492  0.5467
 9254SOL    HW239396   4.737   4.016  17.024 -0.9588  0.7860  0.8966
 9255SOL     OW39397   1.453   2.500   6.684 -0.2936 -0.1678 -0.2205
 9255SOL    HW139398   1.416   2.464   6.764  1.8098 -1.8216  0.0254
 9255SOL    HW239399   1.473   2.590   6.709  2.7734 -1.3990  1.6582
 9256SOL     OW39400   3.510   2.190  17.726 -0.6510 -0.2821  0.1676
 9256SOL    HW139401   3.499   2.125  17.656 -2.6929  3.6793 -3.2237
 9256SOL    HW239402   3.452   2.259  17.692  2.3236  1.6460 -0.9627
 9257SOL     OW39403   2.857   0.856  15.263 -0.1803 -0.1342 -0.5016
 9257SOL    HW139404   2.944   0.849  15.223  0.2467  0.3476  0.3581
 9257SOL    HW239405   2.858   0.775  15.313  0.7068 -0.9524 -1.8531
 9258SOL     OW39406   2.341   3.465   7.096  0.6348  0.0512 -0.0046
 9258SOL    HW139407   2.417   3.523   7.084 -0.7792  1.9999  0.3522
 9258SOL    HW239408   2.316   3.487   7.186  0.8045 -1.1362  0.3210
 9259SOL     OW39409   2.779   4.385   1.086 -0.3525  0.3395 -0.3090
 9259SOL    HW139410   2.822   4.306   1.054  0.1462  1.5082 -2.5784
 9259SOL    HW239411   2.771   4.366   1.179 -1.7907 -0.0920 -0.5127
 9260SOL     OW39412   4.266   1.739   9.439  0.4036  0.0294  0.1642
 9260SOL    HW139413   4.320   1.769   9.366  0.5339  1.8245  0.9832
 9260SOL    HW239414   4.290   1.647   9.447 -1.1895 -0.6328 -2.8637
 9261SOL     OW39415   2.947   4.371   5.453 -0.2962  0.1058  0.0309
 9261SOL    HW139416   3.020   4.360   5.513 -1.6167 -3.6077  0.9113
 9261SOL    HW239417   2.969   4.308   5.385  1.1518  0.1984  0.4269
 9262SOL     OW39418   0.122   1.189  12.411 -0.1100  0.2514  0.3720
 9262SOL    HW139419   0.035   1.223  12.432 -0.8286 -0.9665 -0.6673
 9262SOL    HW239420   0.105   1.098  12.437  2.6925 -0.7028 -1.2141
 9263SOL     OW39421   0.666   2.068   7.256 -0.5506 -0.0520 -0.1890
 9263SOL    HW139422   0.607   2.047   7.329 -1.6378  0.2285 -0.9773
 9263SOL    HW239423   0.729   1.998   7.272 -1.6774 -0.7225  1.4377
 9264SOL     OW39424   3.489   0.134   8.954 -0.2704 -0.2019  0.3103
 9264SOL    HW139425   3.477   0.125   9.049  1.0659 -0.3827  0.4661
 9264SOL    HW239426   3.453   0.222   8.940  0.7967  0.1816 -0.0820
 9265SOL     OW39427   0.821   1.541   6.135 -0.8396 -0.4265  0.1272
 9265SOL    HW139428   0.839   1.528   6.042  0.3612  1.0533  0.1561
 9265SOL    HW239429   0.725   1.542   6.136 -0.8304 -0.2825  1.9253
 9266SOL     OW39430   1.119   3.752   6.884 -0.6558 -0.2544  0.3161
 9266SOL    HW139431   1.202   3.714   6.913 -0.4596  0.3929  0.6175
 9266SOL    HW239432   1.075   3.677   6.845 -1.9785 -0.0500  1.4150
 9267SOL     OW39433   0.057   4.290   7.287 -0.4245  0.6655 -0.1904
 9267SOL    HW139434   0.132   4.327   7.334  0.3176 -2.0000  0.6812
 9267SOL    HW239435   0.090   4.206   7.256 -0.9202  0.0053  1.1203
 9268SOL     OW39436   2.115   3.290  10.650  0.3154  0.1405  0.5227
 9268SOL    HW139437   2.146   3.380  10.644  0.4762  0.0327 -0.3319
 9268SOL    HW239438   2.191   3.243  10.686  0.9331  0.2365 -0.6305
 9269SOL     OW39439   4.192   4.161   8.157  0.1704 -0.1709 -0.2848
 9269SOL    HW139440   4.169   4.085   8.105 -3.8644 -0.0203  1.3209
 9269SOL    HW239441   4.108   4.190   8.193  1.1591 -0.3569  2.2238
 9270SOL     OW39442   0.779   2.377   9.695  0.1107 -0.1738 -0.0553
 9270SOL    HW139443   0.695   2.368   9.651 -0.4327  0.4986  0.8637
 9270SOL    HW239444   0.840   2.364   9.622  0.9571 -2.7588  1.1060
 9271SOL     OW39445   0.598   1.196   4.703  0.2259  0.0802  0.4920
 9271SOL    HW139446   0.660   1.125   4.685 -0.0719  0.1978 -0.9634
 9271SOL    HW239447   0.647   1.251   4.765 -0.2500  2.2931 -1.1127
 9272SOL     OW39448   3.130   4.358  17.252 -0.0674  0.0701 -0.1937
 9272SOL    HW139449   3.065   4.290  17.275  1.3866 -0.5626  2.0549
 9272SOL    HW239450   3.191   4.365  17.326 -0.7564  0.0415  0.3818
 9273SOL     OW39451   3.976   1.119   6.571  0.4854 -0.6570  0.1750
 9273SOL    HW139452   4.052   1.158   6.528  0.0336  1.3741  1.2123
 9273SOL    HW239453   4.015   1.111   6.658  1.0076 -2.1169 -0.1896
 9274SOL     OW39454   0.790   2.436   4.133  0.2406 -0.0537 -0.1376
 9274SOL    HW139455   0.819   2.510   4.080  1.9885 -1.6318 -1.3810
 9274SOL    HW239456   0.843   2.458   4.210  0.1460  3.1185 -0.9730
 9275SOL     OW39457   1.921   2.221   4.227  0.5318 -0.1952 -0.5486
 9275SOL    HW139458   1.881   2.153   4.281  2.0639  0.2424  1.1561
 9275SOL    HW239459   1.843   2.274   4.212  0.4450 -0.1884 -0.0816
 9276SOL     OW39460   2.397   4.155   8.754 -0.0817 -0.1559 -0.0762
 9276SOL    HW139461   2.483   4.168   8.792 -0.1816 -3.2401  1.1229
 9276SOL    HW239462   2.367   4.246   8.749  1.2964  0.3690  1.4063
 9277SOL     OW39463   0.171   0.776  11.338  0.1840 -0.0637  0.2614
 9277SOL    HW139464   0.143   0.841  11.402 -0.8073 -0.5380  0.3131
 9277SOL    HW239465   0.238   0.730  11.390 -0.1020  0.1607  0.8282
 9278SOL     OW39466   1.631   1.785   7.784  0.0769  0.0538  0.0267
 9278SOL    HW139467   1.636   1.780   7.879  0.5164  2.8013  0.1689
 9278SOL    HW239468   1.535   1.790   7.777 -0.2378 -3.0542  2.8573
 9279SOL     OW39469   4.738   0.540   3.717  0.0480  0.1251  0.2263
 9279SOL    HW139470   4.646   0.568   3.713  0.5728  2.1004  2.1209
 9279SOL    HW239471   0.035   0.588   3.643 -2.8420  0.9807 -0.6882
 9280SOL     OW39472   1.431   1.270  14.577  0.4576  0.6142  0.2034
 9280SOL    HW139473   1.342   1.303  14.561  0.7991 -0.0508 -2.9337
 9280SOL    HW239474   1.480   1.351  14.590  1.0945  0.1477  0.6851
 9281SOL     OW39475   1.289   4.174  15.313 -0.3943  0.0126  0.2007
 9281SOL    HW139476   1.264   4.085  15.288 -0.3662 -0.6026  2.3012
 9281SOL    HW239477   1.220   4.234  15.285  2.0744  0.9442 -3.8492
 9282SOL     OW39478   4.035   4.505   7.694 -0.0349 -0.4738  0.1165
 9282SOL    HW139479   4.101   4.466   7.752 -1.1422 -0.1675  1.5772
 9282SOL    HW239480   3.992   4.564   7.757  1.4452  0.5177  0.2170
 9283SOL     OW39481   1.396   2.028   6.760  0.2508 -0.2059 -0.1356
 9283SOL    HW139482   1.302   2.013   6.764  0.2370  0.8496  3.1217
 9283SOL    HW239483   1.412   2.079   6.681 -3.1202 -0.4532 -0.9916
 9284SOL     OW39484   1.793   1.573   7.912  0.6374 -0.5763  0.3709
 9284SOL    HW139485   1.831   1.641   7.856 -0.1600  1.7710  2.6798
 9284SOL    HW239486   1.810   1.618   7.995  1.1808  0.8514 -0.5189
 9285SOL     OW39487   3.087   3.616   0.831  0.4986 -0.0083  0.2937
 9285SOL    HW139488   3.170   3.618   0.784  0.7234 -3.4744  0.5214
 9285SOL    HW239489   3.121   3.628   0.920 -0.3439  2.3525  0.3011
 9286SOL     OW39490   3.455   4.707   8.680  0.3762 -0.1579 -0.0520
 9286SOL    HW139491   3.511   0.026   8.729  1.2933 -1.9475  1.0991
 9286SOL    HW239492   3.500   4.623   8.689  1.4362  0.1051 -2.7510
 9287SOL     OW39493   2.789   0.234   6.037 -0.0022 -0.5924  0.0540
 9287SOL    HW139494   2.709   0.203   6.079 -0.3174 -1.6046 -1.2844
 9287SOL    HW239495   2.769   0.218   5.944  1.7509 -0.0886 -0.4078
 9288SOL     OW39496   1.851   2.652   3.532 -0.1159 -0.1944 -0.3173
 9288SOL    HW139497   1.770   2.675   3.485 -0.5823  0.6708  0.9154
 9288SOL    HW239498   1.836   2.697   3.615 -0.4820 -0.9339  0.0217
 9289SOL     OW39499   3.688   1.979   0.610 -0.0921 -0.4399  0.3998
 9289SOL    HW139500   3.671   1.956   0.519 -1.0445 -0.5272  0.5932
 9289SOL    HW239501   3.779   1.954   0.623 -0.5177 -2.0478  0.3307
 9290SOL     OW39502   1.848   4.565  17.741 -0.1323  0.0406  0.2189
 9290SOL    HW139503   1.890   4.548  17.657  0.0245 -1.3764  0.5839
 9290SOL    HW239504   1.758   4.537  17.722  0.5105 -1.5811 -0.4226
 9291SOL     OW39505   3.749   2.558   7.633 -0.1234  0.4171 -0.2757
 9291SOL    HW139506   3.705   2.570   7.717 -4.8319 -0.7242 -2.5967
 9291SOL    HW239507   3.673   2.542   7.578  0.2878  0.8254 -0.9610
 9292SOL     OW39508   4.654   3.081   7.669 -0.2211  0.5258 -0.3527
 9292SOL    HW139509   4.599   3.006   7.693 -1.4012  0.9860 -1.6276
 9292SOL    HW239510   4.656   3.119   7.757  2.2749 -1.5550  0.4654
 9293SOL     OW39511   2.959   4.517   2.265 -0.2996  0.5699  0.0928
 9293SOL    HW139512   2.957   4.602   2.220  0.4991 -0.0377 -1.0877
 9293SOL    HW239513   2.871   4.488   2.242 -0.1240  0.6521 -0.6784
 9294SOL     OW39514   1.120   1.596   6.098  0.2179  0.3394  0.2694
 9294SOL    HW139515   1.200   1.567   6.053 -0.6797  0.0147 -1.1040
 9294SOL    HW239516   1.057   1.604   6.027  0.4510  1.0600  0.1426
 9295SOL     OW39517   2.021   3.422   1.093 -0.3173 -0.4476 -0.2657
 9295SOL    HW139518   1.934   3.453   1.069 -0.9579 -0.3773  2.1786
 9295SOL    HW239519   2.074   3.467   1.027 -0.4584 -1.3768 -1.0111
 9296SOL     OW39520   0.784   2.804  12.766  0.4098  0.8075 -0.1126
 9296SOL    HW139521   0.767   2.860  12.690 -2.0580  0.3501  0.0872
 9296SOL    HW239522   0.873   2.828  12.791  0.3383  2.7544 -1.7953
 9297SOL     OW39523   1.567   3.212   6.168 -0.3997  0.8365  0.6293
 9297SOL    HW139524   1.616   3.138   6.203  2.3288  3.1217  1.6242
 9297SOL    HW239525   1.602   3.280   6.225  1.4103  2.4049 -2.3909
 9298SOL     OW39526   2.317   0.071   9.081  0.8514  0.0148  0.5892
 9298SOL    HW139527   2.322   4.735   9.138 -0.6280  0.2963  1.1116
 9298SOL    HW239528   2.404   0.111   9.089  1.6911 -1.4600 -1.0747
 9299SOL     OW39529   2.184   3.675   2.735  0.4905 -0.2485 -0.4054
 9299SOL    HW139530   2.145   3.605   2.682  1.2396 -1.4094  0.6046
 9299SOL    HW239531   2.275   3.647   2.733  0.6075  0.1442 -0.5654
 9300SOL     OW39532   2.410   2.098   7.322  0.0360  0.2964  0.0170
 9300SOL    HW139533   2.480   2.116   7.385 -0.4055  0.8560  0.3524
 9300SOL    HW239534   2.380   2.189   7.315  0.6662  0.4309 -0.9190
 9301SOL     OW39535   2.303   1.814  14.015  0.4501  0.5062 -0.6953
 9301SOL    HW139536   2.395   1.793  14.027 -0.0188  1.1219  3.9409
 9301SOL    HW239537   2.296   1.865  13.935 -0.3569 -0.1004 -1.0124
 9302SOL     OW39538   0.182   2.752  14.625 -0.3038  0.8580 -0.2863
 9302SOL    HW139539   0.115   2.820  14.613 -0.9680  0.4192  0.9877
 9302SOL    HW239540   0.229   2.766  14.543  0.7946  1.2922  0.4111
 9303SOL     OW39541   3.834   1.660   1.719 -0.4053  0.2623  0.4271
 9303SOL    HW139542   3.801   1.749   1.727  2.8117  1.2541  2.6307
 9303SOL    HW239543   3.773   1.619   1.780 -0.0324 -0.0340  0.5964
 9304SOL     OW39544   3.187   3.824   8.118  0.1712 -0.4711 -0.5272
 9304SOL    HW139545   3.176   3.891   8.185  0.7344 -2.8381  1.8917
 9304SOL    HW239546   3.213   3.882   8.046  0.4310  1.0940  0.8127
 9305SOL     OW39547   4.709   1.088   5.250  0.0902 -0.2148  0.1941
 9305SOL    HW139548   4.732   0.996   5.243  1.1289 -0.0439  1.3730
 9305SOL    HW239549   4.727   1.104   5.343 -0.7197 -0.9867  0.4869
 9306SOL     OW39550   0.035   0.520   4.343  0.2706  0.3222 -0.3870
 9306SOL    HW139551   0.030   0.590   4.408 -1.7660  0.1484 -0.3492
 9306SOL    HW239552   0.054   0.572   4.264  1.5101 -0.2055 -0.4381
 9307SOL     OW39553   3.867   1.915   4.500 -0.1609  0.2112  0.3599
 9307SOL    HW139554   3.852   1.832   4.546 -1.1627 -0.1039 -0.5450
 9307SOL    HW239555   3.785   1.928   4.453  0.3981  1.9138 -0.1320
 9308SOL     OW39556   0.981   2.144  16.587  0.2056  0.3815  0.0507
 9308SOL    HW139557   0.903   2.091  16.575  2.0694 -2.8810  2.2191
 9308SOL    HW239558   1.050   2.098  16.539  1.8216  0.1240  2.6105
 9309SOL     OW39559   3.551   0.276   4.226  0.4608 -0.6254 -0.0633
 9309SOL    HW139560   3.466   0.305   4.258  0.7159  1.7478 -1.5585
 9309SOL    HW239561   3.524   0.212   4.160 -0.0901  0.6289 -1.0471
 9310SOL     OW39562   3.559   3.652   6.104  0.0835  0.7056 -0.7424
 9310SOL    HW139563   3.475   3.656   6.151  1.2621 -2.2315  1.5876
 9310SOL    HW239564   3.618   3.607   6.164 -0.4716  1.1610  0.1451
 9311SOL     OW39565   3.017   0.605   4.050  0.5324 -0.4348  0.1367
 9311SOL    HW139566   3.034   0.516   4.080  0.9626 -1.2588 -2.5717
 9311SOL    HW239567   3.057   0.602   3.963  0.1318 -1.0984 -0.0285
 9312SOL     OW39568   4.107   0.484   5.930 -0.5010  0.2051 -0.2170
 9312SOL    HW139569   4.081   0.558   5.876 -3.1659 -0.4634  0.1793
 9312SOL    HW239570   4.201   0.476   5.912 -0.7847  0.4164 -1.7958
 9313SOL     OW39571   0.482   1.889  10.790 -0.4493  0.0912 -0.0929
 9313SOL    HW139572   0.401   1.839  10.792 -1.4927  1.6998 -1.2600
 9313SOL    HW239573   0.487   1.909  10.883 -0.9940 -1.1868  0.2101
 9314SOL     OW39574   2.029   4.583   1.624  0.0174 -0.7607  0.1131
 9314SOL    HW139575   2.081   4.649   1.670 -1.3749 -0.1205  0.7743
 9314SOL    HW239576   2.084   4.506   1.615 -0.4897 -1.5234  3.4218
 9315SOL     OW39577   3.948   2.198   2.660 -0.4528  0.3137 -0.3826
 9315SOL    HW139578   3.857   2.168   2.669 -0.4755  0.2246 -0.8882
 9315SOL    HW239579   3.986   2.166   2.742  0.1606  0.3840 -0.6402
 9316SOL     OW39580   0.085   1.409   2.129 -0.0921  0.3865 -0.3548
 9316SOL    HW139581   0.080   1.456   2.046  1.4116  0.1450 -0.5766
 9316SOL    HW239582   4.736   1.385   2.152  0.2855  1.2445  2.0616
 9317SOL     OW39583   4.105   1.941   1.590  0.1229  0.3291 -0.5722
 9317SOL    HW139584   4.102   1.889   1.510  2.8933  0.6402 -0.8786
 9317SOL    HW239585   4.149   1.874   1.641 -1.9937 -0.4510  0.2176
 9318SOL     OW39586   1.167   1.722   6.939  0.1940 -0.3450  0.7822
 9318SOL    HW139587   1.178   1.755   6.850 -0.7767  0.0532  0.8013
 9318SOL    HW239588   1.246   1.671   6.953 -0.7022 -1.4253  1.8621
 9319SOL     OW39589   0.032   3.314   7.306  0.6375 -0.3906 -0.6819
 9319SOL    HW139590   4.679   3.298   7.314  0.3953 -0.3727 -3.4115
 9319SOL    HW239591   0.057   3.259   7.232  1.3402  0.5757 -1.1707
 9320SOL     OW39592   3.422   0.360   5.675 -0.1645  0.5737  0.0415
 9320SOL    HW139593   3.506   0.405   5.665 -1.3649  2.4422 -1.5069
 9320SOL    HW239594   3.420   0.311   5.593 -1.1250  0.1176  0.3307
 9321SOL     OW39595   0.880   3.809   0.556  0.0783  0.0099 -0.4524
 9321SOL    HW139596   0.839   3.859   0.486  0.9386  0.6352 -0.5129
 9321SOL    HW239597   0.839   3.725   0.536 -2.4735  1.0071  0.5422
 9322SOL     OW39598   3.789   3.854   5.408  0.8171 -0.0404  0.2250
 9322SOL    HW139599   3.745   3.861   5.492  0.4911 -1.3928  0.1716
 9322SOL    HW239600   3.838   3.772   5.412  0.6849 -0.1773 -0.8687
 9323SOL     OW39601   4.528   2.789  12.303 -0.2085 -0.3575 -0.0763
 9323SOL    HW139602   4.516   2.837  12.220 -0.3852 -1.3007 -0.5932
 9323SOL    HW239603   4.504   2.850  12.373 -1.3044 -0.2704 -0.5137
 9324SOL     OW39604   2.952   2.458  11.445  0.2838 -0.0520  0.1073
 9324SOL    HW139605   2.886   2.405  11.401 -0.8227 -1.0913  3.0836
 9324SOL    HW239606   2.901   2.539  11.448 -0.9475 -0.8722  1.1828
 9325SOL     OW39607   4.424   3.025   8.863 -0.6330  0.4014  0.1708
 9325SOL    HW139608   4.495   3.047   8.803 -1.4936 -0.6080 -1.1992
 9325SOL    HW239609   4.447   2.942   8.904 -0.7445 -0.0905 -0.7730
 9326SOL     OW39610   3.768   4.126   6.331  0.3340  0.3088  0.2951
 9326SOL    HW139611   3.729   4.052   6.378  1.2236 -1.5231 -1.8846
 9326SOL    HW239612   3.743   4.105   6.241  1.5906 -1.3706  0.3537
 9327SOL     OW39613   4.479   3.528   3.063  0.1496  0.2126  0.9237
 9327SOL    HW139614   4.446   3.516   2.974  0.5945 -0.6932  0.8738
 9327SOL    HW239615   4.460   3.437   3.089  2.1559 -0.0309  1.5479
 9328SOL     OW39616   3.236   4.018   3.692  0.4928  0.4517 -0.1900
 9328SOL    HW139617   3.321   4.063   3.691  1.5192 -1.4026  1.8589
 9328SOL    HW239618   3.191   4.099   3.716 -1.5720 -0.3207 -1.5067
 9329SOL     OW39619   2.055   4.102   4.202  0.2637 -0.5406  0.1688
 9329SOL    HW139620   2.121   4.043   4.238 -0.0107 -1.1812 -0.3733
 9329SOL    HW239621   2.041   4.159   4.278 -1.6861  0.0507 -0.6291
 9330SOL     OW39622   3.673   4.626   2.922 -0.3738 -0.0467  0.1583
 9330SOL    HW139623   3.715   4.636   2.837  0.4156  1.1415  0.6894
 9330SOL    HW239624   3.742   4.577   2.967  0.6094  0.2339 -1.0313
 9331SOL     OW39625   3.801   1.185   7.028  0.0157 -0.0525 -0.0188
 9331SOL    HW139626   3.748   1.263   7.037 -1.5020 -1.2439  1.3403
 9331SOL    HW239627   3.847   1.192   7.112  2.9463 -1.5852 -1.4959
 9332SOL     OW39628   0.925   3.180  15.434 -0.3118 -0.2522 -0.1406
 9332SOL    HW139629   0.902   3.270  15.410  1.1053 -0.1804 -1.2297
 9332SOL    HW239630   1.020   3.177  15.435 -0.3614 -0.8775  2.9310
 9333SOL     OW39631   0.565   2.029   8.367 -0.2724  0.1565  0.3674
 9333SOL    HW139632   0.583   2.116   8.330  0.7720 -0.2356 -0.0412
 9333SOL    HW239633   0.498   1.994   8.309 -0.0679  0.6276 -0.1617
 9334SOL     OW39634   3.460   0.264   4.918  0.0214  0.1524  0.1835
 9334SOL    HW139635   3.450   0.348   4.962 -0.8177  0.8675 -1.3577
 9334SOL    HW239636   3.531   0.229   4.972 -0.5799 -2.4869 -0.6863
 9335SOL     OW39637   2.715   0.138  12.140 -0.0306 -0.5817  0.7599
 9335SOL    HW139638   2.755   0.188  12.212  4.7232  0.7889 -2.8498
 9335SOL    HW239639   2.642   0.102  12.192  0.2474  0.4469  1.8672
 9336SOL     OW39640   0.180   3.090   4.752  0.2047  0.3867  0.1087
 9336SOL    HW139641   0.124   3.025   4.795 -0.0501 -1.4615 -3.0338
 9336SOL    HW239642   0.140   3.094   4.665 -0.6641 -1.6583  0.4187
 9337SOL     OW39643   0.329   0.242  17.479 -0.1247  0.1048  0.0112
 9337SOL    HW139644   0.382   0.163  17.476 -0.6529 -0.2423 -0.1160
 9337SOL    HW239645   0.347   0.270  17.569 -1.1059 -0.7754  0.4814
 9338SOL     OW39646   2.967   4.643   6.183  0.2536  0.0095  0.0356
 9338SOL    HW139647   2.953   4.600   6.268  0.3394  1.0798  0.5955
 9338SOL    HW239648   2.888   4.620   6.136  1.1302 -2.2181 -0.3599
 9339SOL     OW39649   3.677   1.631   4.361  0.4239 -0.3498 -0.4618
 9339SOL    HW139650   3.689   1.572   4.286 -0.7430 -0.5484 -0.4900
 9339SOL    HW239651   3.623   1.704   4.331 -1.1141  0.5246  4.4261
 9340SOL     OW39652   4.482   4.629  14.104 -0.0613  0.1200  0.4595
 9340SOL    HW139653   4.405   4.610  14.050  2.7860 -3.1164 -2.4857
 9340SOL    HW239654   4.531   4.681  14.040 -0.8499  0.9103  0.4930
 9341SOL     OW39655   2.898   1.912  12.280  0.2503 -0.5616  0.1459
 9341SOL    HW139656   2.960   1.945  12.214  0.3688  1.6331  1.3583
 9341SOL    HW239657   2.897   1.817  12.266 -0.1876 -0.4639 -0.4545
 9342SOL     OW39658   3.232   4.422   7.287 -0.1181  0.1649 -0.0716
 9342SOL    HW139659   3.180   4.364   7.343  1.0380  0.0360  0.8633
 9342SOL    HW239660   3.312   4.370   7.278  0.4939  1.5163 -2.3830
 9343SOL     OW39661   1.481   2.276  10.328  0.1163 -0.5264 -0.3541
 9343SOL    HW139662   1.472   2.336  10.254 -2.8108  0.6810  0.9557
 9343SOL    HW239663   1.403   2.220  10.327 -0.0855 -0.2448 -1.1084
 9344SOL     OW39664   1.034   4.186   6.446 -0.1433  0.4219 -0.5258
 9344SOL    HW139665   1.000   4.259   6.394  0.0977  1.9082  1.4070
 9344SOL    HW239666   1.094   4.142   6.385  0.3971  0.3091  0.0816
 9345SOL     OW39667   3.670   4.725  13.691 -0.2108 -0.4967 -0.4306
 9345SOL    HW139668   3.756   0.015  13.720 -0.6978  0.0503  0.4292
 9345SOL    HW239669   3.694   4.652  13.635 -0.2507  0.5129 -1.7809
 9346SOL     OW39670   2.057   3.288   3.939  0.1330  0.3493  0.0812
 9346SOL    HW139671   2.006   3.366   3.915 -0.2645  0.5278  1.4900
 9346SOL    HW239672   2.085   3.274   3.849 -0.3810 -1.9591  0.2961
 9347SOL     OW39673   2.165   0.383   3.706 -0.5504 -0.7342 -0.1608
 9347SOL    HW139674   2.186   0.418   3.792  2.0617 -4.1064  0.5901
 9347SOL    HW239675   2.252   0.359   3.674  0.6841  0.2779  2.4735
 9348SOL     OW39676   0.432   2.982   3.137 -0.1061 -0.1282  0.2056
 9348SOL    HW139677   0.411   2.903   3.187  2.1186 -1.8812 -1.6390
 9348SOL    HW239678   0.339   3.004   3.123 -0.4432 -1.5404  0.2090
 9349SOL     OW39679   2.792   0.646   1.880 -0.9991  0.0648  0.1418
 9349SOL    HW139680   2.811   0.592   1.803 -1.1611  1.0680 -0.5999
 9349SOL    HW239681   2.842   0.599   1.947  0.3479  1.0085 -0.1924
 9350SOL     OW39682   1.826   0.351   0.103 -0.1736  0.1496  0.7129
 9350SOL    HW139683   1.866   0.402   0.034 -1.8963 -2.3108 -2.0857
 9350SOL    HW239684   1.871   0.268   0.090 -1.7070 -0.8993  1.9943
 9351SOL     OW39685   3.653   1.666  12.795  0.2842  0.0931  0.3398
 9351SOL    HW139686   3.654   1.754  12.833  0.6467  0.3419 -0.2536
 9351SOL    HW239687   3.598   1.624  12.861 -0.4683  0.7624  0.1266
 9352SOL     OW39688   3.509   2.640   8.128  0.7227  0.0703 -0.0708
 9352SOL    HW139689   3.502   2.719   8.076  0.8346 -0.9670 -1.6510
 9352SOL    HW239690   3.418   2.616   8.147  0.6646  1.1393  0.9777
 9353SOL     OW39691   2.519   2.996   2.512  0.0311  0.1327 -0.1348
 9353SOL    HW139692   2.573   2.940   2.569 -0.1185 -0.0061 -0.1301
 9353SOL    HW239693   2.516   2.947   2.430  0.4701 -0.9121  0.4772
 9354SOL     OW39694   3.380   3.693   1.705 -0.2468  0.2440  0.3267
 9354SOL    HW139695   3.461   3.643   1.699 -1.5798 -1.7322 -1.1666
 9354SOL    HW239696   3.409   3.755   1.772  2.1952  0.9245 -1.3398
 9355SOL     OW39697   1.174   1.467  15.384 -0.3118  0.6471  0.0186
 9355SOL    HW139698   1.137   1.547  15.421 -0.6865  0.3041  0.3782
 9355SOL    HW239699   1.259   1.497  15.351 -0.4508  1.0409  0.0114
 9356SOL     OW39700   3.886   3.784   1.644 -0.4407  0.0125 -0.2520
 9356SOL    HW139701   3.867   3.716   1.580 -1.5377 -1.0525  1.2186
 9356SOL    HW239702   3.958   3.745   1.693 -1.3637  0.2447  1.2752
 9357SOL     OW39703   2.423   3.786   4.369  0.3723 -0.1111  0.0153
 9357SOL    HW139704   2.517   3.782   4.354  0.1373 -1.2986 -1.1341
 9357SOL    HW239705   2.377   3.797   4.285  1.3202 -1.2991 -0.6547
 9358SOL     OW39706   4.010   0.327   2.752 -0.1948  0.3304  0.3750
 9358SOL    HW139707   3.976   0.351   2.838 -2.9432  0.6615 -0.7894
 9358SOL    HW239708   4.095   0.287   2.766 -0.6062 -1.4204 -1.9775
 9359SOL     OW39709   0.641   2.184  10.190  0.2170 -0.2761 -0.2003
 9359SOL    HW139710   0.695   2.260  10.209 -1.2526  0.2432  1.8203
 9359SOL    HW239711   0.628   2.157  10.281  1.9558  1.1542  0.4645
 9360SOL     OW39712   4.063   3.156   7.258  0.1955 -0.7563  0.1947
 9360SOL    HW139713   4.074   3.217   7.185 -2.6386 -2.2838 -1.4637
 9360SOL    HW239714   4.133   3.097   7.227 -0.0093 -0.0274 -1.6403
 9361SOL     OW39715   2.227   0.865   6.189  0.1370  0.0246 -0.1718
 9361SOL    HW139716   2.141   0.823   6.199  0.2294  0.0882  0.9578
 9361SOL    HW239717   2.229   0.871   6.094  0.4307 -0.0251 -0.1666
 9362SOL     OW39718   0.626   4.078   2.250  0.3099 -0.9327  0.1288
 9362SOL    HW139719   0.691   4.028   2.300 -0.2176 -1.6086  0.1462
 9362SOL    HW239720   0.680   4.100   2.174 -1.2792 -0.1918 -0.7827
 9363SOL     OW39721   0.051   0.837  13.600  0.4968 -0.6342 -0.4943
 9363SOL    HW139722   0.043   0.743  13.618 -2.4440 -0.5187 -1.1254
 9363SOL    HW239723   0.003   0.874  13.674  1.2048 -0.5690 -0.0621
 9364SOL     OW39724   3.778   1.391   7.405  0.6568  0.2680 -0.0501
 9364SOL    HW139725   3.777   1.452   7.479  0.7145  0.3180 -0.0907
 9364SOL    HW239726   3.690   1.353   7.414  0.9776 -0.8637 -1.6274
 9365SOL     OW39727   3.738   0.764   3.314  0.0232  0.0683 -0.5717
 9365SOL    HW139728   3.662   0.820   3.297  0.5364  0.1752 -2.5789
 9365SOL    HW239729   3.784   0.776   3.231 -1.3729  0.3683 -1.3030
 9366SOL     OW39730   0.882   4.089   8.466 -0.4352 -0.5030  0.0036
 9366SOL    HW139731   0.877   4.179   8.432 -0.6833 -0.2861  0.6134
 9366SOL    HW239732   0.884   4.110   8.559  1.1286 -1.1196  0.0990
 9367SOL     OW39733   3.180   0.961  11.700 -0.5926 -0.3017 -0.1065
 9367SOL    HW139734   3.259   0.972  11.752  0.8045  0.7988 -2.4794
 9367SOL    HW239735   3.199   1.013  11.622  3.0318 -1.5151 -0.0176
 9368SOL     OW39736   4.470   2.921  12.538  0.1908  0.0863 -0.4307
 9368SOL    HW139737   4.412   2.997  12.533  0.8480  0.6643  0.6099
 9368SOL    HW239738   4.518   2.944  12.617 -0.7122 -1.8163  0.6547
 9369SOL     OW39739   2.003   4.186   5.623 -0.1323 -0.1102  0.1771
 9369SOL    HW139740   2.028   4.179   5.715 -4.8841 -1.5166  1.3327
 9369SOL    HW239741   1.908   4.175   5.627 -0.2828  0.7174 -0.8403
 9370SOL     OW39742   3.599   2.680   6.571  1.0684 -0.3895 -0.5898
 9370SOL    HW139743   3.651   2.671   6.651  0.1134  0.0578  0.0761
 9370SOL    HW239744   3.667   2.700   6.507  0.4661  1.1719 -0.7350
 9371SOL     OW39745   3.395   1.905   2.458 -0.1208  0.2643  0.6643
 9371SOL    HW139746   3.349   1.977   2.415 -0.9114 -1.8725 -2.0788
 9371SOL    HW239747   3.330   1.846   2.497 -0.3272  0.4575  0.6101
 9372SOL     OW39748   3.303   1.005  10.353 -0.1075 -0.0725  0.3449
 9372SOL    HW139749   3.352   1.021  10.272 -0.9050 -0.9607 -0.3067
 9372SOL    HW239750   3.343   1.071  10.409  0.1691  0.4327 -0.4387
 9373SOL     OW39751   3.876   2.424   4.072 -0.5070 -0.1091  0.0191
 9373SOL    HW139752   3.831   2.496   4.116  1.4706  0.9941  0.2265
 9373SOL    HW239753   3.801   2.387   4.026 -1.1356  1.0657  0.0938
 9374SOL     OW39754   4.019   3.564  11.879 -0.0533 -1.1648 -0.0756
 9374SOL    HW139755   4.076   3.603  11.813 -1.4127 -0.3976 -0.7975
 9374SOL    HW239756   3.939   3.570  11.826  0.7706  2.5813 -0.8960
 9375SOL     OW39757   1.964   3.318   3.398  0.2350 -0.2696 -0.0692
 9375SOL    HW139758   1.920   3.362   3.471 -0.3267  2.2464 -1.9180
 9375SOL    HW239759   2.056   3.344   3.411  0.8597 -1.4376 -2.1998
 9376SOL     OW39760   0.336   4.650  10.593 -0.2082  0.1275  0.0148
 9376SOL    HW139761   0.330   4.560  10.559 -1.6263  0.3465 -0.3270
 9376SOL    HW239762   0.245   4.653  10.625 -0.4944 -1.1731 -0.6647
 9377SOL     OW39763   3.238   4.063  14.042  0.1073 -0.1563  0.3725
 9377SOL    HW139764   3.215   4.016  14.122 -2.5420  1.2489  0.4353
 9377SOL    HW239765   3.331   4.074  14.064  0.8652 -0.9122 -2.4438
 9378SOL     OW39766   1.866   1.554   4.177  0.3759  0.1494 -0.0050
 9378SOL    HW139767   1.846   1.482   4.117 -1.7879  1.3145 -0.7078
 9378SOL    HW239768   1.953   1.576   4.144  0.2735  0.5543 -0.0007
 9379SOL     OW39769   0.715   3.459   4.124 -0.5572  0.5098  0.0659
 9379SOL    HW139770   0.715   3.554   4.137 -1.2881  0.5147  0.0159
 9379SOL    HW239771   0.796   3.430   4.165  0.5770  0.6110 -2.0951
 9380SOL     OW39772   0.096   1.459   9.162 -0.1115  0.4373 -0.2690
 9380SOL    HW139773   0.001   1.472   9.163 -0.0895  0.5932 -0.0719
 9380SOL    HW239774   0.087   1.364   9.156  0.9296  0.2430  1.0881
 9381SOL     OW39775   0.864   1.725   5.368  0.0523  0.0148 -0.2709
 9381SOL    HW139776   0.938   1.779   5.394 -0.7087  1.0875 -0.3311
 9381SOL    HW239777   0.904   1.665   5.305  0.4837 -0.0947  0.1014
 9382SOL     OW39778   2.175   0.052   1.820  0.0456 -0.0291  0.0243
 9382SOL    HW139779   2.221   0.035   1.902  1.1485  1.6562 -0.2504
 9382SOL    HW239780   2.108   0.113   1.848  1.9780  1.3458  1.6012
 9383SOL     OW39781   4.213   0.824  12.286  0.2732 -0.3117 -0.5398
 9383SOL    HW139782   4.159   0.901  12.269 -0.8072 -0.8009  0.6237
 9383SOL    HW239783   4.217   0.827  12.381  2.6244 -0.1238 -0.6392
 9384SOL     OW39784   3.217   4.416   0.816  0.0759  0.3658 -0.0227
 9384SOL    HW139785   3.269   4.493   0.838  0.8771 -1.0718  3.0581
 9384SOL    HW239786   3.214   4.370   0.900 -0.9308  0.3687 -0.0589
 9385SOL     OW39787   2.543   1.926   4.200 -0.2584  0.1929 -0.2253
 9385SOL    HW139788   2.633   1.958   4.195 -0.0564  0.1966  3.8929
 9385SOL    HW239789   2.494   1.987   4.255 -0.0060 -0.5730  0.8446
 9386SOL     OW39790   0.504   2.081   2.425  0.5790 -0.6826 -0.2518
 9386SOL    HW139791   0.435   2.015   2.410  1.3981 -1.5212 -0.3523
 9386SOL    HW239792   0.580   2.026   2.446  0.9344  0.2600  0.8932
 9387SOL     OW39793   2.473   2.254   2.376  0.3445  0.4948  0.1324
 9387SOL    HW139794   2.545   2.241   2.437  0.3682 -0.1907 -0.0386
 9387SOL    HW239795   2.522   2.226   2.298 -0.2078 -0.6516  0.1878
 9388SOL     OW39796   0.304   2.548   2.895 -0.0027  0.5635 -0.2260
 9388SOL    HW139797   0.247   2.624   2.889 -0.7479  0.0442  0.3278
 9388SOL    HW239798   0.266   2.510   2.974 -2.4273  2.5033 -0.4743
 9389SOL     OW39799   3.112   4.238   3.782 -0.0674  0.0721  0.3548
 9389SOL    HW139800   3.029   4.265   3.744 -0.8084 -0.4658  1.5682
 9389SOL    HW239801   3.159   4.321   3.777  1.6031 -0.8989 -0.0004
 9390SOL     OW39802   2.672   1.744   8.462  0.3845 -0.1553  0.1813
 9390SOL    HW139803   2.632   1.794   8.533 -2.5833  0.1060 -1.6826
 9390SOL    HW239804   2.761   1.726   8.491  0.8440  1.6856 -0.0721
 9391SOL     OW39805   2.805   0.894   5.790  0.1995 -0.0071 -0.3351
 9391SOL    HW139806   2.862   0.970   5.777 -0.0782  0.7269  2.6480
 9391SOL    HW239807   2.834   0.881   5.880 -1.9587  2.5987  0.7556
 9392SOL     OW39808   3.533   2.272   3.046 -0.1467  0.6433  0.1026
 9392SOL    HW139809   3.497   2.268   3.135  0.6134  1.1242  0.4295
 9392SOL    HW239810   3.545   2.364   3.023  1.5858  0.6882  1.2377
 9393SOL     OW39811   4.556   3.929   9.282 -0.1659 -0.3569 -0.7288
 9393SOL    HW139812   4.533   3.911   9.373  1.4311 -0.8602 -0.4278
 9393SOL    HW239813   4.562   3.841   9.244 -1.1382 -1.3927  1.4992
 9394SOL     OW39814   1.933   0.927   7.356 -0.4284 -0.1837  0.2911
 9394SOL    HW139815   1.850   0.884   7.336 -1.2963  0.4090  2.6139
 9394SOL    HW239816   1.916   1.018   7.330  0.9295  0.3253  1.2026
 9395SOL     OW39817   0.237   3.962   3.149  0.9187  0.0086 -0.1917
 9395SOL    HW139818   0.253   3.945   3.056  2.6095 -1.0089  0.3078
 9395SOL    HW239819   0.141   3.964   3.148  0.9462 -0.8799 -3.7511
 9396SOL     OW39820   1.068   0.479   4.159  0.6329  0.5015  0.1792
 9396SOL    HW139821   1.022   0.457   4.239  1.5447 -1.6530  0.1089
 9396SOL    HW239822   1.124   0.551   4.189 -0.3249  1.0688  0.5919
 9397SOL     OW39823   2.674   4.304  16.784  0.7294 -0.2891  0.3220
 9397SOL    HW139824   2.579   4.291  16.779  0.4774  0.0214  4.1573
 9397SOL    HW239825   2.716   4.262  16.709  1.1361  2.2045 -0.8409
 9398SOL     OW39826   2.553   1.789   6.755 -0.4513  0.2738 -0.0674
 9398SOL    HW139827   2.602   1.707   6.752 -0.8252  0.0774 -0.8475
 9398SOL    HW239828   2.528   1.789   6.662  0.4602  1.0813 -0.3152
 9399SOL     OW39829   3.505   2.400   3.594 -0.1191 -0.0318  0.3121
 9399SOL    HW139830   3.583   2.347   3.578 -0.7265 -0.2620 -1.7862
 9399SOL    HW239831   3.520   2.473   3.534  1.3734  0.2322  1.0011
 9400SOL     OW39832   3.760   0.775   1.467  0.6623  0.3176 -0.5006
 9400SOL    HW139833   3.671   0.797   1.443 -0.1735 -1.9383  0.5219
 9400SOL    HW239834   3.753   0.698   1.523  1.9578  0.3815 -0.2380
 9401SOL     OW39835   2.050   1.825  14.127  0.0773  0.2723  0.5515
 9401SOL    HW139836   2.142   1.832  14.102 -0.4659 -0.9996 -1.7111
 9401SOL    HW239837   2.027   1.733  14.120  0.1061  0.0743  2.7947
 9402SOL     OW39838   1.656   2.639   9.082  0.6246 -0.4033  0.3612
 9402SOL    HW139839   1.676   2.721   9.036 -1.5093 -0.1891 -0.1705
 9402SOL    HW239840   1.592   2.592   9.029  1.3049  0.4012 -1.1823
 9403SOL     OW39841   0.827   4.516  11.345 -0.1613 -0.0601  0.0470
 9403SOL    HW139842   0.878   4.475  11.415  1.8329  0.4158 -1.1146
 9403SOL    HW239843   0.844   4.460  11.269 -0.1302  0.7677 -0.5533
 9404SOL     OW39844   0.762   0.712   8.217 -0.6810  0.4039  0.0366
 9404SOL    HW139845   0.735   0.785   8.162 -2.3517 -0.8589 -0.8291
 9404SOL    HW239846   0.727   0.740   8.302 -1.4937 -2.0339  0.4944
 9405SOL     OW39847   0.367   2.433   6.553 -0.3288 -0.0085  0.2256
 9405SOL    HW139848   0.276   2.424   6.581 -0.7436 -0.5341 -1.2649
 9405SOL    HW239849   0.383   2.339   6.565 -1.1744  0.2328  3.1266
 9406SOL     OW39850   1.883   2.878  17.147  0.4759  0.1217 -0.0434
 9406SOL    HW139851   1.842   2.931  17.079 -1.1866 -0.3175  0.6009
 9406SOL    HW239852   1.973   2.908  17.138  0.5323  0.2366  0.8950
 9407SOL     OW39853   2.290   4.535  16.581 -0.1513 -0.1359  0.1633
 9407SOL    HW139854   2.320   4.448  16.555 -0.3270 -0.6379  1.6277
 9407SOL    HW239855   2.230   4.549  16.508  4.0088 -1.0598 -3.4107
 9408SOL     OW39856   2.038   1.761   2.397  0.3430  0.2128  0.1471
 9408SOL    HW139857   1.998   1.700   2.459  0.4609  1.1478  1.1547
 9408SOL    HW239858   2.101   1.699   2.360  0.1973  0.4438 -0.4874
 9409SOL     OW39859   2.212   3.482  12.872  0.3080  0.1205  0.2220
 9409SOL    HW139860   2.228   3.462  12.965 -2.0384  0.7958  0.7673
 9409SOL    HW239861   2.286   3.540  12.853  0.1372  0.5112  0.7583
 9410SOL     OW39862   3.141   0.093  12.712  0.4989  0.4057  0.2281
 9410SOL    HW139863   3.202   0.021  12.694 -0.1039 -0.3834  1.3386
 9410SOL    HW239864   3.064   0.055  12.669  1.1959 -0.1460 -0.5292
 9411SOL     OW39865   2.434   0.992   1.359 -0.2158  0.4281 -0.2916
 9411SOL    HW139866   2.449   1.072   1.308 -1.9274 -0.7137 -2.6137
 9411SOL    HW239867   2.345   1.000   1.393 -0.4557 -0.1916 -0.7803
 9412SOL     OW39868   0.882   3.129   4.457  0.1945  0.0279  0.1179
 9412SOL    HW139869   0.950   3.101   4.518 -1.4408 -2.1847  0.9327
 9412SOL    HW239870   0.929   3.089   4.384  0.2543 -2.0319  1.2994
 9413SOL     OW39871   3.859   1.916   2.629  0.0258 -0.1037 -0.4548
 9413SOL    HW139872   3.852   1.952   2.541  0.3406 -0.3399 -0.5801
 9413SOL    HW239873   3.774   1.873   2.641 -0.8899  1.6496 -0.6830
 9414SOL     OW39874   1.825   1.150   5.379 -0.3629  0.2306  0.2761
 9414SOL    HW139875   1.918   1.133   5.393 -0.1528  1.3264  0.2216
 9414SOL    HW239876   1.809   1.096   5.302 -3.8674  2.0508 -0.2339
 9415SOL     OW39877   0.233   4.258   4.470 -0.4374 -0.0561 -0.1746
 9415SOL    HW139878   0.224   4.327   4.405  3.8124 -0.4278 -1.1558
 9415SOL    HW239879   0.239   4.314   4.548 -1.6075 -2.5781  1.7324
 9416SOL     OW39880   4.657   0.421   7.319 -0.2877  0.3095 -0.1478
 9416SOL    HW139881   4.674   0.515   7.327 -0.7527  0.3947 -0.1285
 9416SOL    HW239882   4.565   0.425   7.291 -0.0592  0.7247 -0.8354
 9417SOL     OW39883   3.181   0.239   8.657 -0.1752 -0.2064 -0.4476
 9417SOL    HW139884   3.104   0.287   8.627 -0.1715 -0.5343 -0.9654
 9417SOL    HW239885   3.249   0.305   8.645 -0.7251  0.8392  2.0560
 9418SOL     OW39886   2.247   0.579  16.533 -0.1137  0.4880 -0.1406
 9418SOL    HW139887   2.272   0.512  16.470 -2.2042 -1.0467  0.6594
 9418SOL    HW239888   2.316   0.578  16.600  0.2887  1.3580 -0.5422
 9419SOL     OW39889   3.058   3.316  17.666 -0.3966  0.0799 -0.0624
 9419SOL    HW139890   3.112   3.262  17.723  0.0412  0.5824 -0.0031
 9419SOL    HW239891   3.003   3.243  17.635 -1.2397  0.6496  0.0977
 9420SOL     OW39892   1.876   1.064   8.172  0.0980  0.0447  0.5328
 9420SOL    HW139893   1.867   1.111   8.255  1.1710 -0.8809  1.1716
 9420SOL    HW239894   1.864   1.126   8.100  2.3991  0.8779  0.8852
 9421SOL     OW39895   2.551   0.765   3.054  0.3338 -0.1921  0.4764
 9421SOL    HW139896   2.539   0.702   2.983  0.6957  0.2957 -0.0226
 9421SOL    HW239897   2.519   0.708   3.123  0.3446  0.0065  0.6453
 9422SOL     OW39898   0.442   3.192   9.375 -0.4387 -0.1867  0.5778
 9422SOL    HW139899   0.448   3.238   9.459 -1.9395 -0.1064  0.6290
 9422SOL    HW239900   0.537   3.192   9.362 -0.2244  1.4336  2.1070
 9423SOL     OW39901   2.957   1.795   1.697 -0.3708 -0.2482 -0.2315
 9423SOL    HW139902   2.929   1.795   1.606  2.4486 -4.0722 -1.0671
 9423SOL    HW239903   2.883   1.766   1.750  0.0447 -0.8001  0.0416
 9424SOL     OW39904   4.255   4.529  13.944  0.1483 -0.4004 -0.0135
 9424SOL    HW139905   4.180   4.476  13.972  1.5420 -2.3591  0.0735
 9424SOL    HW239906   4.263   4.507  13.851  2.2625 -1.6972  0.4692
 9425SOL     OW39907   2.212   1.552   6.261  1.0351  0.3668 -0.4159
 9425SOL    HW139908   2.213   1.535   6.356  0.0504  0.5432 -0.3789
 9425SOL    HW239909   2.136   1.609   6.266  2.4730  2.0668  2.0198
 9426SOL     OW39910   1.679   3.272  13.720 -0.3501 -0.1678 -0.2323
 9426SOL    HW139911   1.773   3.266  13.736  0.2279  2.2422 -2.6395
 9426SOL    HW239912   1.651   3.292  13.809  0.5056 -0.1725  0.0371
 9427SOL     OW39913   1.785   3.800   7.435 -0.1173 -0.2562  0.4998
 9427SOL    HW139914   1.698   3.839   7.425 -1.1210 -1.9576  2.6337
 9427SOL    HW239915   1.829   3.880   7.406 -3.5837  1.9231  1.1303
 9428SOL     OW39916   1.953   3.291   1.713  0.2309  0.1342  0.2598
 9428SOL    HW139917   1.985   3.354   1.777  1.7416 -0.0413 -0.3155
 9428SOL    HW239918   2.031   3.246   1.678 -2.0513 -2.3527 -1.6743
 9429SOL     OW39919   1.797   3.513  11.822 -0.9669 -0.3618 -0.0034
 9429SOL    HW139920   1.835   3.428  11.842 -1.0125 -0.4701 -0.3773
 9429SOL    HW239921   1.836   3.566  11.892 -2.1447  0.5313 -0.0274
 9430SOL     OW39922   3.141   2.350   2.267 -0.2605  0.0249  0.4657
 9430SOL    HW139923   3.050   2.379   2.272  0.5303  2.5321  0.4423
 9430SOL    HW239924   3.160   2.374   2.176 -0.7350 -1.5097 -0.0306
 9431SOL     OW39925   4.151   4.683  12.507 -0.0015  0.2138 -0.0597
 9431SOL    HW139926   4.071   4.640  12.537  0.5450 -0.7926 -0.0483
 9431SOL    HW239927   4.218   4.619  12.533  0.1290 -0.5166 -2.2030
 9432SOL     OW39928   2.862   2.172  17.392 -0.5784  0.7660 -0.2872
 9432SOL    HW139929   2.918   2.168  17.315 -0.1672  0.0088  0.0587
 9432SOL    HW239930   2.781   2.206  17.352 -1.9302  0.5624  2.2468
 9433SOL     OW39931   2.383   0.391  11.832  0.1941  0.3688 -0.2047
 9433SOL    HW139932   2.362   0.469  11.885 -2.6169 -1.2903  1.1485
 9433SOL    HW239933   2.478   0.394  11.824  0.1890  1.1037 -0.0195
 9434SOL     OW39934   2.595   2.937   6.176 -0.0159 -0.1707  0.1239
 9434SOL    HW139935   2.595   2.982   6.261  0.5978  0.9320 -0.4773
 9434SOL    HW239936   2.648   2.999   6.127 -1.9268  1.2692 -0.1314
 9435SOL     OW39937   2.594   1.670   5.777 -0.1375  0.1584 -0.1598
 9435SOL    HW139938   2.611   1.585   5.737 -1.5446 -0.8757  1.4605
 9435SOL    HW239939   2.520   1.688   5.719  0.1323 -0.5005 -0.7070
 9436SOL     OW39940   1.376   2.205   5.155  0.0650  0.3311  0.9387
 9436SOL    HW139941   1.427   2.125   5.152  0.0412  0.3664 -0.3252
 9436SOL    HW239942   1.348   2.199   5.064  1.9904 -1.2209  0.4665
 9437SOL     OW39943   2.594   2.088   3.894 -0.1800  0.0359  0.1242
 9437SOL    HW139944   2.500   2.079   3.907 -0.2803 -0.6750 -1.0625
 9437SOL    HW239945   2.593   2.097   3.799 -0.2713  2.6348  0.3677
 9438SOL     OW39946   1.735   0.172   7.888  0.2600  0.3020 -0.0786
 9438SOL    HW139947   1.786   0.194   7.810  0.5750  1.4301  0.4466
 9438SOL    HW239948   1.653   0.212   7.862 -0.7983 -1.1142  1.0885
 9439SOL     OW39949   2.298   2.347  16.955 -0.3913 -0.4364  0.0180
 9439SOL    HW139950   2.343   2.286  17.014 -2.4371 -2.7033 -0.7414
 9439SOL    HW239951   2.376   2.390  16.920 -1.9526  1.9552 -0.4938
 9440SOL     OW39952   4.171   4.048   6.767 -0.5242  0.7295 -0.4073
 9440SOL    HW139953   4.176   4.054   6.862 -1.4975 -0.7109 -0.2630
 9440SOL    HW239954   4.103   3.981   6.756  0.2042 -0.1942  0.8177
 9441SOL     OW39955   4.008   0.840  11.265  0.2529  0.0510  0.3311
 9441SOL    HW139956   3.978   0.768  11.321  1.1862  0.8547  1.8455
 9441SOL    HW239957   4.085   0.798  11.225  1.1303  1.0630  0.9496
 9442SOL     OW39958   1.534   1.154   7.915 -0.1542 -0.1632 -0.3445
 9442SOL    HW139959   1.502   1.167   7.826  0.2963  0.8679 -0.3507
 9442SOL    HW239960   1.624   1.184   7.907 -0.1252 -0.1214  0.1279
 9443SOL     OW39961   3.256   1.765  11.063 -0.1802  0.0066  0.1215
 9443SOL    HW139962   3.306   1.765  11.145  0.1895  0.1835 -0.1020
 9443SOL    HW239963   3.319   1.807  11.005  0.2614 -0.5225  0.2122
 9444SOL     OW39964   4.055   0.619   3.341 -0.9337 -0.0048 -0.2266
 9444SOL    HW139965   3.995   0.660   3.404  1.1262  0.2879  1.5327
 9444SOL    HW239966   4.005   0.540   3.319  0.7854 -0.1580 -3.4737
 9445SOL     OW39967   2.314   4.171   4.846  0.5841  0.0307 -0.2408
 9445SOL    HW139968   2.396   4.191   4.889  1.1675 -0.9659 -0.8912
 9445SOL    HW239969   2.289   4.085   4.881  0.6932 -0.7340 -2.0228
 9446SOL     OW39970   4.184   2.424   5.610 -0.1955  0.1047  0.0696
 9446SOL    HW139971   4.227   2.366   5.547 -2.8891  0.9759 -2.5882
 9446SOL    HW239972   4.170   2.499   5.551 -0.8204 -0.1370 -0.0818
 9447SOL     OW39973   0.254   1.367   5.202 -0.0166 -0.3590 -0.0052
 9447SOL    HW139974   0.203   1.415   5.268  2.3302  2.1236  0.0039
 9447SOL    HW239975   0.221   1.278   5.210  1.7156 -0.8005  2.1428
 9448SOL     OW39976   4.297   2.649   8.303  0.0128  0.4543  0.4429
 9448SOL    HW139977   4.259   2.697   8.230  2.4838  0.7297 -0.6575
 9448SOL    HW239978   4.347   2.578   8.263 -2.2378 -0.3368 -0.9627
 9449SOL     OW39979   3.271   0.517   8.663  0.4129 -0.0706 -0.0076
 9449SOL    HW139980   3.307   0.556   8.583  0.4898 -2.7967 -1.2909
 9449SOL    HW239981   3.201   0.578   8.686 -1.3903 -1.6899 -1.1616
 9450SOL     OW39982   4.343   0.046   5.603 -0.1566 -0.5357 -0.0363
 9450SOL    HW139983   4.377   4.705   5.639  0.6123 -1.0052 -1.8220
 9450SOL    HW239984   4.300   0.087   5.678 -0.4292  1.1916 -1.1202
 9451SOL     OW39985   0.603   3.266   8.180 -0.4062 -0.5225  0.0624
 9451SOL    HW139986   0.575   3.344   8.133  0.4090 -0.1876  0.1277
 9451SOL    HW239987   0.547   3.266   8.258 -2.7766  2.3871 -1.6269
 9452SOL     OW39988   0.038   2.498   1.783  0.3093 -0.3287  0.3984
 9452SOL    HW139989   4.733   2.484   1.700 -0.7347  0.7450  0.7928
 9452SOL    HW239990   4.705   2.524   1.838  1.7304  2.4122  1.0142
 9453SOL     OW39991   3.323   0.288   7.945 -0.1274  0.1148  0.5014
 9453SOL    HW139992   3.306   0.356   7.880 -1.0525 -0.8007 -0.2143
 9453SOL    HW239993   3.243   0.293   7.998 -0.6969  1.2049 -0.4645
 9454SOL     OW39994   0.969   1.348   1.170  0.0988  0.0914  0.4960
 9454SOL    HW139995   1.042   1.364   1.110  0.2473 -0.4519  0.5330
 9454SOL    HW239996   0.988   1.257   1.192  0.6846 -0.0794 -0.7459
 9455SOL     OW39997   4.183   1.104   1.378 -0.4693 -0.4318 -0.6112
 9455SOL    HW139998   4.253   1.095   1.314  0.1507 -1.8118  0.2628
 9455SOL    HW239999   4.202   1.048   1.453 -0.1535 -1.5371 -1.5121
 9456SOL     OW40000   1.305   1.193   8.009 -0.6503  0.2186 -0.5565
 9456SOL    HW140001   1.394   1.195   7.973 -0.5447  0.7055 -0.2777
 9456SOL    HW240002   1.334   1.199   8.101 -1.1862  1.4806 -0.4671
 9457SOL     OW40003   0.671   2.624  11.023  0.7406  0.6735 -0.0922
 9457SOL    HW140004   0.719   2.707  11.025 -0.6436  1.4670  0.0356
 9457SOL    HW240005   0.717   2.578  11.093 -1.3172 -0.0943  0.7699
 9458SOL     OW40006   1.794   1.949   4.990 -0.7854 -0.3943 -0.1395
 9458SOL    HW140007   1.759   2.033   4.958 -1.6124 -0.0411  1.6968
 9458SOL    HW240008   1.873   1.933   4.938  0.1904 -1.6709  1.7643
 9459SOL     OW40009   1.297   3.062   3.211 -0.3279 -0.0648 -0.4499
 9459SOL    HW140010   1.253   3.011   3.143  0.2757 -0.3322 -0.6447
 9459SOL    HW240011   1.336   3.128   3.154  0.5684 -0.2781 -0.0881
 9460SOL     OW40012   2.199   4.102   8.120 -0.0493  0.2199 -0.2157
 9460SOL    HW140013   2.178   4.178   8.066 -1.0244 -0.2370 -0.4652
 9460SOL    HW240014   2.277   4.122   8.172  2.0988 -0.7182 -3.1028
 9461SOL     OW40015   4.169   2.120   1.241  0.6399  0.2247 -0.2864
 9461SOL    HW140016   4.077   2.099   1.227  1.3087 -1.3608 -2.2409
 9461SOL    HW240017   4.169   2.210   1.208 -0.5858  0.0854 -0.6620
 9462SOL     OW40018   4.628   3.460   8.989  0.0844 -0.4309  0.2756
 9462SOL    HW140019   4.626   3.455   8.894 -0.4617 -0.3669  0.2830
 9462SOL    HW240020   4.636   3.367   9.010  1.2693 -0.8624 -2.1606
 9463SOL     OW40021   3.886   2.104   8.597  0.9552  0.1096 -0.2162
 9463SOL    HW140022   3.877   2.200   8.594  1.1004  0.1343  0.1136
 9463SOL    HW240023   3.980   2.100   8.615  0.8884 -1.9368 -0.3385
 9464SOL     OW40024   2.585   1.411   8.965 -0.2055 -0.3509  0.7222
 9464SOL    HW140025   2.549   1.457   9.040  0.2845  2.8970 -1.0108
 9464SOL    HW240026   2.525   1.337   8.955  2.1084 -1.9559 -1.5091
 9465SOL     OW40027   0.007   0.407   1.978 -0.3072 -0.3490  0.4061
 9465SOL    HW140028   4.658   0.439   1.986 -0.1246  0.3414 -0.3028
 9465SOL    HW240029   0.058   0.488   1.973  0.8408 -1.1498 -0.8295
 9466SOL     OW40030   0.929   3.303   2.254  0.8846 -0.0343  0.4123
 9466SOL    HW140031   0.845   3.267   2.280 -0.2641  0.9170 -2.0015
 9466SOL    HW240032   0.925   3.296   2.158  2.5910 -2.4062  0.5161
 9467SOL     OW40033   0.868   3.049   9.523 -0.1505 -0.1372 -0.8343
 9467SOL    HW140034   0.838   3.122   9.577 -0.2212  0.6585 -1.9425
 9467SOL    HW240035   0.794   2.989   9.516 -0.4573 -0.0252  1.3113
 9468SOL     OW40036   1.367   3.241   6.409  0.2584  0.1284  0.0742
 9468SOL    HW140037   1.431   3.187   6.363 -2.1420 -3.6707  1.1933
 9468SOL    HW240038   1.296   3.241   6.345 -0.3796 -1.7119  0.7772
 9469SOL     OW40039   2.436   0.613   4.254  0.1528  0.0627 -0.0783
 9469SOL    HW140040   2.376   0.597   4.327  0.7961 -0.3565  0.3520
 9469SOL    HW240041   2.507   0.553   4.276 -0.5096  0.0415  2.0064
 9470SOL     OW40042   3.185   0.342  10.541 -0.1699  0.1905 -0.4141
 9470SOL    HW140043   3.100   0.314  10.577 -0.8777  0.4534 -1.8908
 9470SOL    HW240044   3.193   0.416  10.602  0.1113 -1.0018  0.9929
 9471SOL     OW40045   2.715   2.951  11.977  0.1643  0.0991 -1.0322
 9471SOL    HW140046   2.797   2.911  12.008 -0.8416  1.4867  3.3827
 9471SOL    HW240047   2.671   2.955  12.062  1.2369  1.5289 -0.5426
 9472SOL     OW40048   0.905   2.688  12.537  0.3923  0.1823 -0.6993
 9472SOL    HW140049   0.878   2.758  12.478 -1.0140 -0.7517 -1.1528
 9472SOL    HW240050   0.838   2.693  12.605  0.5472  1.6001 -0.6412
 9473SOL     OW40051   0.223   2.604  11.782  0.4521 -0.5725  0.3339
 9473SOL    HW140052   0.185   2.555  11.710 -0.1576  0.0849  0.2045
 9473SOL    HW240053   0.288   2.543  11.815 -0.9676 -0.7824  2.7620
 9474SOL     OW40054   4.463   3.372   1.842  0.1042  0.8950  0.3886
 9474SOL    HW140055   4.514   3.452   1.853 -0.3625  1.4270 -1.1940
 9474SOL    HW240056   4.400   3.371   1.914  0.0455 -0.7740  0.3210
 9475SOL     OW40057   3.871   1.420  13.688  0.2236 -0.6424 -0.3160
 9475SOL    HW140058   3.947   1.410  13.631  1.8592  0.6628  1.6314
 9475SOL    HW240059   3.914   1.491  13.735  2.9165 -1.7053 -1.1656
 9476SOL     OW40060   1.086   0.081   7.522 -0.1423 -0.1165 -0.0820
 9476SOL    HW140061   1.112   4.731   7.506  0.7992  0.5138 -2.1973
 9476SOL    HW240062   1.027   0.066   7.595 -0.7593  1.0060 -0.3477
 9477SOL     OW40063   3.163   3.692   4.149  0.1713 -0.4625 -0.0432
 9477SOL    HW140064   3.214   3.631   4.096  1.9415  0.5467  0.4884
 9477SOL    HW240065   3.179   3.655   4.236  0.8203  0.2322  0.1431
 9478SOL     OW40066   0.214   4.548   2.153 -0.3826  0.0837 -0.0219
 9478SOL    HW140067   0.281   4.556   2.222  0.3229  0.4805 -0.7490
 9478SOL    HW240068   0.229   4.459   2.121  0.7902  0.5872 -0.8910
 9479SOL     OW40069   0.149   0.029  14.973  0.1434  0.4670 -0.7084
 9479SOL    HW140070   0.081   0.048  15.038 -0.7863  0.2122 -1.6119
 9479SOL    HW240071   0.171   0.121  14.954  2.5095  0.5827  2.5447
 9480SOL     OW40072   3.488   1.471  16.957 -0.8942 -0.3621 -0.6756
 9480SOL    HW140073   3.532   1.395  16.993  0.8745  1.1033  0.2760
 9480SOL    HW240074   3.532   1.476  16.872 -0.9791  0.7344 -0.6571
 9481SOL     OW40075   4.457   3.949  11.017 -0.4602  0.1917  0.0685
 9481SOL    HW140076   4.389   3.886  11.041 -1.8603  1.8390  0.4138
 9481SOL    HW240077   4.494   3.979  11.100 -1.2052  0.8402  0.1610
 9482SOL     OW40078   1.997   1.058   5.023 -0.1737  0.0187  0.5462
 9482SOL    HW140079   2.077   1.075   5.073  0.2147  0.5583 -0.2599
 9482SOL    HW240080   2.036   1.040   4.937  2.2330 -1.7932  2.0088
 9483SOL     OW40081   4.478   0.444   8.636  0.0037 -0.2731 -0.5897
 9483SOL    HW140082   4.439   0.356   8.637  1.2487 -0.8416 -3.3296
 9483SOL    HW240083   4.525   0.436   8.719  1.1854  2.2100 -1.0365
 9484SOL     OW40084   2.249   3.701   7.533  0.4972  0.5711 -0.2390
 9484SOL    HW140085   2.156   3.682   7.531  1.4100 -3.7941 -0.8137
 9484SOL    HW240086   2.279   3.676   7.446  1.5501  0.9937 -0.0030
 9485SOL     OW40087   2.694   3.342   8.119  0.7175 -0.0751 -0.7222
 9485SOL    HW140088   2.632   3.405   8.083  0.1193 -0.7336 -0.8566
 9485SOL    HW240089   2.735   3.310   8.039  2.8177  0.8731 -0.0208
 9486SOL     OW40090   3.028   3.157   5.455  0.0752 -0.8841 -0.2015
 9486SOL    HW140091   3.122   3.153   5.468  0.4335  0.2609 -2.5359
 9486SOL    HW240092   3.012   3.214   5.380 -0.5981 -0.2643  0.4095
 9487SOL     OW40093   0.114   2.855   8.430 -0.3892 -0.2198  0.3977
 9487SOL    HW140094   0.062   2.793   8.379 -0.2784 -0.1113  0.1482
 9487SOL    HW240095   0.046   2.907   8.472 -0.5311  0.0813 -0.2016
 9488SOL     OW40096   0.868   3.676   7.696 -0.3094  0.1147 -0.8246
 9488SOL    HW140097   0.840   3.595   7.738  0.3112  0.9478  1.2035
 9488SOL    HW240098   0.925   3.649   7.623  0.4840 -3.2898  1.0744
 9489SOL     OW40099   2.387   3.528   1.992 -0.1407 -0.4193  0.2297
 9489SOL    HW140100   2.396   3.434   1.976  2.4323  0.0657 -1.0825
 9489SOL    HW240101   2.304   3.528   2.040 -0.1545  0.2939  0.2095
 9490SOL     OW40102   3.756   2.102  11.212 -0.1178  0.5513  0.1034
 9490SOL    HW140103   3.730   2.116  11.121  3.0389 -0.0198 -0.8666
 9490SOL    HW240104   3.707   2.022  11.229 -0.5558  1.3911  2.7665
 9491SOL     OW40105   0.889   3.616   5.409  0.5216 -0.0055  0.5538
 9491SOL    HW140106   0.828   3.656   5.347 -1.1960 -1.8325  1.0750
 9491SOL    HW240107   0.828   3.594   5.479  0.2257 -0.8519  0.0345
 9492SOL     OW40108   2.051   4.372   9.221  0.1739  0.0149  0.2244
 9492SOL    HW140109   1.975   4.321   9.193  0.1613 -0.1375  0.5386
 9492SOL    HW240110   2.024   4.463   9.213 -0.8356 -0.2441  0.7670
 9493SOL     OW40111   3.381   2.408  10.581  0.0172  0.1502  0.4148
 9493SOL    HW140112   3.286   2.412  10.591 -0.1606 -2.0484 -0.3233
 9493SOL    HW240113   3.428   2.442  10.657 -2.2961 -0.5372  2.1536
 9494SOL     OW40114   2.094   3.009   3.959 -0.4064 -0.5223  0.0917
 9494SOL    HW140115   2.138   3.018   4.043 -1.1551 -2.2304  0.6605
 9494SOL    HW240116   2.023   3.073   3.963  1.3158  1.2656  1.8106
 9495SOL     OW40117   3.189   1.240   8.028 -0.2589 -0.3023 -0.0988
 9495SOL    HW140118   3.113   1.292   8.001 -0.9058  0.0853  2.4428
 9495SOL    HW240119   3.206   1.268   8.118 -0.1148 -1.2050  0.1635
 9496SOL     OW40120   4.353   1.253   5.270  0.2183 -0.6003  0.3242
 9496SOL    HW140121   4.420   1.268   5.203  1.8187  3.1410  2.7880
 9496SOL    HW240122   4.278   1.242   5.211 -0.3037  1.1699  0.6711
 9497SOL     OW40123   2.382   3.941  15.857 -0.7735 -0.2062  0.0698
 9497SOL    HW140124   2.365   3.996  15.780  0.5686  0.0436 -0.0400
 9497SOL    HW240125   2.464   3.894  15.847 -0.2636  0.4576  1.1022
 9498SOL     OW40126   0.780   4.055   3.955  0.6696  0.0751 -0.3659
 9498SOL    HW140127   0.847   4.022   4.014  0.8615 -1.1234 -1.2569
 9498SOL    HW240128   0.729   4.101   4.022  1.4952  1.2582 -0.5384
 9499SOL     OW40129   4.295   0.964   8.810 -0.0094  0.1099 -0.4366
 9499SOL    HW140130   4.270   0.904   8.880  0.8058 -0.2717 -0.4709
 9499SOL    HW240131   4.249   0.923   8.736  2.1083 -0.2869 -1.5236
 9500SOL     OW40132   1.132   1.946   8.987  0.3782  0.1078  0.3109
 9500SOL    HW140133   1.192   1.889   8.939  1.1208 -0.2888  1.7068
 9500SOL    HW240134   1.129   1.901   9.072  1.6285  1.8926  1.3004
 9501SOL     OW40135   1.443   0.188   3.398  0.6876  0.1214 -0.3281
 9501SOL    HW140136   1.434   0.269   3.447  1.0440  0.3357 -0.6212
 9501SOL    HW240137   1.511   0.144   3.448 -0.5570 -0.4250  0.8969
 9502SOL     OW40138   3.911   2.118   1.625 -0.1051  0.0517  0.4268
 9502SOL    HW140139   3.974   2.161   1.683  0.6570  0.9263 -1.0511
 9502SOL    HW240140   3.963   2.042   1.599 -0.6972 -0.8783  1.9913
 9503SOL     OW40141   2.369   0.449   7.903 -0.2861 -0.0107 -0.8652
 9503SOL    HW140142   2.433   0.459   7.974 -0.3407 -2.0477 -0.5259
 9503SOL    HW240143   2.421   0.400   7.839 -1.0782 -1.9721 -0.0322
 9504SOL     OW40144   3.286   4.673   8.930  0.3168  0.3976  0.1168
 9504SOL    HW140145   3.282   4.667   9.025  0.2426  2.1984  0.2442
 9504SOL    HW240146   3.353   0.001   8.924  0.4864  0.2205 -0.0101
 9505SOL     OW40147   1.103   3.023   6.344 -0.3958 -0.2586  0.4554
 9505SOL    HW140148   1.074   2.978   6.265  1.0212  1.4260 -1.0450
 9505SOL    HW240149   1.072   3.109   6.316  2.5333  0.1743 -1.4938
 9506SOL     OW40150   1.982   0.495  16.383  0.2398 -0.0557 -0.0150
 9506SOL    HW140151   1.941   0.551  16.317 -0.6783  0.6785  1.1744
 9506SOL    HW240152   1.938   0.414  16.359 -1.4394  0.6343  0.7420
 9507SOL     OW40153   2.901   4.606  15.651 -0.4627  0.4258 -0.3436
 9507SOL    HW140154   2.824   4.647  15.612 -0.4930  0.5867 -0.1131
 9507SOL    HW240155   2.967   4.659  15.605  0.9627 -2.6448 -1.7977
 9508SOL     OW40156   0.821   0.074   5.589 -0.3340 -0.2760 -0.4116
 9508SOL    HW140157   0.903   0.124   5.593  0.4763 -1.6822  0.2423
 9508SOL    HW240158   0.767   0.147   5.557  3.1553  2.2084 -0.6766
 9509SOL     OW40159   1.573   4.559  10.856  0.3649 -0.5031  0.4797
 9509SOL    HW140160   1.641   4.598  10.912  1.1069 -2.2431  0.8008
 9509SOL    HW240161   1.533   4.510  10.928 -0.5965  0.0226  0.3020
 9510SOL     OW40162   3.191   2.807   4.266  0.3149  0.4899 -0.2482
 9510SOL    HW140163   3.117   2.848   4.311 -0.1472  0.0027 -0.5607
 9510SOL    HW240164   3.185   2.846   4.179 -0.4838  0.1378 -0.3502
 9511SOL     OW40165   3.673   4.500  17.330  0.0497 -0.2784  0.1637
 9511SOL    HW140166   3.736   4.540  17.390 -1.4766 -1.4568  2.5530
 9511SOL    HW240167   3.633   4.577  17.289  1.7837 -0.0891 -1.1924
 9512SOL     OW40168   2.726   3.721   9.078  0.0070  0.2752  0.4440
 9512SOL    HW140169   2.814   3.745   9.049 -0.0502  2.4159  2.0562
 9512SOL    HW240170   2.736   3.626   9.074  2.4274  0.5734 -0.1086
 9513SOL     OW40171   2.964   0.613   9.202 -0.4390  0.1388 -0.6649
 9513SOL    HW140172   2.967   0.617   9.298  2.3347  2.0553 -0.8379
 9513SOL    HW240173   2.985   0.704   9.181  2.3524 -0.7153 -1.6635
 9514SOL     OW40174   1.217   2.184   2.834 -0.6378  0.0713  0.2880
 9514SOL    HW140175   1.297   2.182   2.887 -1.7208  0.8904  1.9649
 9514SOL    HW240176   1.253   2.118   2.775 -1.8006  0.0879 -0.4430
 9515SOL     OW40177   3.049   0.206  13.581  0.5075 -0.2855 -0.9206
 9515SOL    HW140178   2.967   0.195  13.628  1.5786 -0.0647  1.0147
 9515SOL    HW240179   3.114   0.175  13.644 -0.8506  1.0761  1.1558
 9516SOL     OW40180   2.374   1.061   6.511  0.1366  0.4854  0.0373
 9516SOL    HW140181   2.431   1.054   6.434 -1.0893  3.4563 -1.1290
 9516SOL    HW240182   2.315   1.126   6.472 -0.8190 -1.0054 -1.0256
 9517SOL     OW40183   4.072   1.523   3.215  0.5197 -0.0410  0.4141
 9517SOL    HW140184   4.111   1.609   3.232  2.1016 -0.5324 -0.6954
 9517SOL    HW240185   4.009   1.555   3.150 -0.8171 -0.2123  1.6338
 9518SOL     OW40186   1.142   1.276   9.863  0.6649  0.2040 -0.4056
 9518SOL    HW140187   1.094   1.251   9.784 -0.0035 -0.2800  0.1557
 9518SOL    HW240188   1.232   1.271   9.831  0.8678 -1.3946  0.4278
 9519SOL     OW40189   4.602   1.383   1.042  0.0955 -0.5392  0.0218
 9519SOL    HW140190   4.675   1.394   1.103  0.3639 -1.2480 -0.1745
 9519SOL    HW240191   4.619   1.470   1.005  0.1618  0.0871  1.5186
 9520SOL     OW40192   3.457   0.071   7.861  0.0083  0.5378 -0.7048
 9520SOL    HW140193   3.464   0.018   7.941 -1.0607  0.9784 -0.3122
 9520SOL    HW240194   3.425   0.157   7.890  3.0536  0.9403  1.4725
 9521SOL     OW40195   0.958   0.776   3.338 -0.3153 -0.2249  0.2994
 9521SOL    HW140196   0.963   0.806   3.428 -0.8952  1.2949 -0.1756
 9521SOL    HW240197   1.027   0.834   3.306  0.6826 -1.8143 -0.4652
 9522SOL     OW40198   0.235   0.487   7.016  0.1090  0.3772 -0.1135
 9522SOL    HW140199   0.167   0.433   7.056 -1.1143 -0.4837 -3.3911
 9522SOL    HW240200   0.251   0.422   6.948  0.1113  0.8968 -0.6052
 9523SOL     OW40201   2.321   1.888   8.511 -0.2762  0.3922  0.6406
 9523SOL    HW140202   2.368   1.962   8.475  0.0852  0.5036  1.3338
 9523SOL    HW240203   2.279   1.926   8.588  0.0277  1.0898  0.4599
 9524SOL     OW40204   0.257   0.932   6.141  0.6114  0.1249 -0.6049
 9524SOL    HW140205   0.345   0.926   6.106  0.0773 -0.2657 -1.8780
 9524SOL    HW240206   0.276   0.980   6.223  2.1770 -0.8110 -0.4287
 9525SOL     OW40207   0.584   0.624   3.589 -0.0232 -0.8484 -0.3437
 9525SOL    HW140208   0.599   0.650   3.499  2.6954 -3.0579 -0.5166
 9525SOL    HW240209   0.661   0.576   3.620  0.7237  0.6490  0.1248
 9526SOL     OW40210   4.681   0.510   8.501  0.0874 -0.2376 -0.4929
 9526SOL    HW140211   4.602   0.487   8.551  0.6704 -1.2820 -0.0439
 9526SOL    HW240212   4.711   0.584   8.554 -1.7580 -0.6452  1.1041
 9527SOL     OW40213   4.641   1.589   6.973  0.3088  0.1785 -0.2614
 9527SOL    HW140214   4.672   1.611   7.061  0.2623  0.3161 -0.2793
 9527SOL    HW240215   4.655   1.494   6.972  0.7966  0.2264  2.8184
 9528SOL     OW40216   2.518   1.306   0.257  0.3619 -0.1942  0.2253
 9528SOL    HW140217   2.444   1.252   0.230  0.0936 -0.5279  1.6319
 9528SOL    HW240218   2.594   1.256   0.229 -0.6789 -2.1959  1.0008
 9529SOL     OW40219   3.580   0.127  13.921 -0.2353  0.0940 -0.1627
 9529SOL    HW140220   3.487   0.145  13.930 -0.0912 -1.2804  4.1904
 9529SOL    HW240221   3.588   0.081  13.838 -2.7386  2.2186 -1.5876
 9530SOL     OW40222   2.214   1.272   6.159  0.1767 -0.2951 -0.5529
 9530SOL    HW140223   2.248   1.260   6.248  2.4876  0.3006 -1.3499
 9530SOL    HW240224   2.195   1.366   6.162  2.0812 -0.0205  2.9060
 9531SOL     OW40225   2.426   0.758   2.671 -0.6837  0.0271  0.3632
 9531SOL    HW140226   2.419   0.726   2.582 -0.4856 -0.0750  0.3848
 9531SOL    HW240227   2.520   0.745   2.686 -0.3712  1.3318 -0.4722
 9532SOL     OW40228   0.970   3.234   8.580  0.4436  0.1727  0.1325
 9532SOL    HW140229   0.894   3.278   8.542 -0.9598 -1.8833  0.5580
 9532SOL    HW240230   0.967   3.152   8.530  0.5172 -0.3556  0.9936
 9533SOL     OW40231   4.087   4.409   3.905  0.1933  0.0006  0.7985
 9533SOL    HW140232   4.095   4.315   3.922 -0.3537 -0.1453  0.2384
 9533SOL    HW240233   4.083   4.440   3.996 -0.4723  1.6188  0.2165
 9534SOL     OW40234   2.142   2.795  16.304 -0.2586 -0.6732  0.3057
 9534SOL    HW140235   2.125   2.816  16.212  1.9209  0.0688  0.0850
 9534SOL    HW240236   2.224   2.839  16.324 -1.2115  1.2512  0.0329
 9535SOL     OW40237   4.004   4.291   4.700  0.3554  0.5120  0.2118
 9535SOL    HW140238   3.943   4.364   4.686 -0.5956 -0.0676  1.3596
 9535SOL    HW240239   4.043   4.282   4.613  1.2889 -1.2325  0.8154
 9536SOL     OW40240   1.508   0.275   3.762  0.5037  0.3855 -0.4918
 9536SOL    HW140241   1.457   0.353   3.739 -0.9928 -0.2993  0.4765
 9536SOL    HW240242   1.559   0.257   3.683  0.9303 -0.9373  0.0864
 9537SOL     OW40243   2.203   0.398  14.295 -0.7283 -0.3010 -0.0318
 9537SOL    HW140244   2.219   0.430  14.384  0.4011 -1.3237  0.1335
 9537SOL    HW240245   2.113   0.416  14.271  0.3700  3.1084 -1.5664
 9538SOL     OW40246   1.538   3.118   1.652  0.0109  0.0723 -0.8777
 9538SOL    HW140247   1.523   3.168   1.572  1.4643 -0.0816 -1.2532
 9538SOL    HW240248   1.630   3.095   1.635 -0.0857 -0.3884 -0.7716
 9539SOL     OW40249   4.724   3.319   6.462  0.8635  0.1981  0.2350
 9539SOL    HW140250   0.031   3.304   6.381  1.8453  0.0417  0.8417
 9539SOL    HW240251   4.655   3.378   6.433  0.7801 -0.1219 -0.2267
 9540SOL     OW40252   0.179   3.687  10.781 -0.7261  0.0972  0.2420
 9540SOL    HW140253   0.146   3.715  10.696 -1.9580  1.4891  1.1700
 9540SOL    HW240254   0.272   3.664  10.777 -0.7412  0.2106 -0.6447
 9541SOL     OW40255   2.702   3.533   2.196 -0.5147  0.6649 -0.2971
 9541SOL    HW140256   2.722   3.515   2.104 -2.9982  0.3112 -0.7649
 9541SOL    HW240257   2.648   3.457   2.213 -0.7391  0.6762 -0.9398
 9542SOL     OW40258   3.201   3.231   1.193  0.4466  0.4017 -0.2707
 9542SOL    HW140259   3.146   3.182   1.253  0.4879 -0.3459 -0.8555
 9542SOL    HW240260   3.169   3.321   1.202 -1.6289 -0.2813 -0.9317
 9543SOL     OW40261   2.049   4.368  17.474 -0.4042  0.0256  0.2197
 9543SOL    HW140262   1.989   4.443  17.472 -2.3761 -1.5192  1.0493
 9543SOL    HW240263   2.121   4.402  17.421  0.1676  2.1677  2.3900
 9544SOL     OW40264   4.316   4.097   4.714  0.1838  0.0762 -0.1272
 9544SOL    HW140265   4.322   4.156   4.790  1.0198  0.7724 -0.7444
 9544SOL    HW240266   4.402   4.098   4.673  0.0304 -0.7570 -0.4774
 9545SOL     OW40267   1.372   2.725   3.162 -0.2009 -0.2874  0.0291
 9545SOL    HW140268   1.331   2.806   3.132 -0.1244 -0.8197 -1.4687
 9545SOL    HW240269   1.467   2.739   3.161  0.0003 -1.6365  0.3937
 9546SOL     OW40270   1.954   3.375  13.772  0.2627  0.1677  0.4591
 9546SOL    HW140271   1.902   3.423  13.836 -2.5550 -1.0298 -0.9371
 9546SOL    HW240272   2.040   3.402  13.803  0.6413 -0.5413  0.0194
 9547SOL     OW40273   4.598   2.636   8.650 -0.2843  0.1932 -0.0016
 9547SOL    HW140274   4.570   2.582   8.576 -1.9395  0.2560  0.5702
 9547SOL    HW240275   4.563   2.590   8.727  3.0130 -0.6117  1.0423
 9548SOL     OW40276   2.736   4.001   5.811 -0.3762 -0.1657  0.0415
 9548SOL    HW140277   2.671   4.009   5.741  1.4241  0.9075 -1.5117
 9548SOL    HW240278   2.757   4.093   5.826 -0.3724 -0.1812  0.1320
 9549SOL     OW40279   2.016   0.359  11.181  0.1211  0.4443  0.8238
 9549SOL    HW140280   1.935   0.410  11.183 -1.6819 -2.3041 -2.3285
 9549SOL    HW240281   1.997   0.271  11.148  0.3085  0.3345  1.0091
 9550SOL     OW40282   3.376   2.039  16.006 -0.5381  0.4425 -0.6413
 9550SOL    HW140283   3.356   2.132  15.997  0.5517  0.5149 -2.3518
 9550SOL    HW240284   3.461   2.041  16.051 -1.7754  0.6359  1.6967
 9551SOL     OW40285   2.009   3.409   9.957  0.5222 -0.2003 -0.0230
 9551SOL    HW140286   2.070   3.479   9.980  0.6461 -0.8078  1.4842
 9551SOL    HW240287   2.001   3.419   9.862  0.7738  1.6993  0.1592
 9552SOL     OW40288   4.250   0.303  15.689 -0.1919  0.2208  0.1440
 9552SOL    HW140289   4.304   0.228  15.665 -1.3344 -0.1944 -1.1067
 9552SOL    HW240290   4.208   0.319  15.604  1.0933 -0.3071 -0.5996
 9553SOL     OW40291   2.868   3.458   7.666  0.1752  0.1582 -0.0996
 9553SOL    HW140292   2.813   3.507   7.605 -0.0980  1.9513  1.5845
 9553SOL    HW240293   2.854   3.367   7.637  0.6317 -0.6677  2.2823
 9554SOL     OW40294   0.688   3.183   9.292 -0.6332  0.1090  0.0920
 9554SOL    HW140295   0.722   3.233   9.218 -1.9781 -0.4438 -0.9075
 9554SOL    HW240296   0.763   3.198   9.350 -1.2166  0.1788  0.8246
 9555SOL     OW40297   0.665   0.503   8.901 -0.1835  0.0735  0.0411
 9555SOL    HW140298   0.584   0.554   8.891  0.3076  0.7523 -0.4544
 9555SOL    HW240299   0.624   0.428   8.945  0.4245 -1.2063 -1.6066
 9556SOL     OW40300   4.332   2.008   3.104 -0.0348  0.1726 -0.3048
 9556SOL    HW140301   4.352   2.078   3.166 -2.9302  0.5716  0.1799
 9556SOL    HW240302   4.405   1.953   3.130  1.3585  1.8884 -0.6237
 9557SOL     OW40303   1.651   1.675   6.391 -0.2008 -0.3336 -0.5704
 9557SOL    HW140304   1.612   1.762   6.400  1.9449  0.6795 -0.8689
 9557SOL    HW240305   1.593   1.643   6.322 -1.1079 -3.2858  1.5542
 9558SOL     OW40306   3.139   4.235   1.069 -0.3535 -0.4398  0.1451
 9558SOL    HW140307   3.162   4.151   1.029 -0.5799 -0.2550 -0.3757
 9558SOL    HW240308   3.052   4.212   1.102 -1.1937  2.4424 -0.1230
 9559SOL     OW40309   0.045   3.741   6.262  0.5976  0.8742 -0.1041
 9559SOL    HW140310   0.029   3.747   6.356  0.7985 -2.0908  0.1250
 9559SOL    HW240311   0.014   3.656   6.231 -1.2574  1.5302 -0.0515
 9560SOL     OW40312   3.335   1.411  10.248 -0.6964 -0.0409  0.0861
 9560SOL    HW140313   3.356   1.385  10.158  1.9185 -0.8414  0.9419
 9560SOL    HW240314   3.295   1.337  10.294 -1.3520  0.6918  0.7024
 9561SOL     OW40315   0.556   0.247   1.178 -0.8057  0.3366 -0.1815
 9561SOL    HW140316   0.494   0.243   1.251 -0.4120  1.8393  0.2473
 9561SOL    HW240317   0.600   0.332   1.183 -0.5001  0.1369  0.4921
 9562SOL     OW40318   2.916   3.987   6.824  0.1923  0.3509 -0.5315
 9562SOL    HW140319   2.897   4.074   6.859 -1.0433  0.2591 -0.9798
 9562SOL    HW240320   2.855   3.934   6.875  2.0432  0.1378  1.4976
 9563SOL     OW40321   0.385   1.003  11.616 -0.1478 -0.0039  0.1085
 9563SOL    HW140322   0.386   1.084  11.667 -0.8506  0.1491 -0.1224
 9563SOL    HW240323   0.412   1.035  11.530  0.4039 -3.7710 -1.0861
 9564SOL     OW40324   0.804   2.550  10.777  0.6299 -0.3005  0.1671
 9564SOL    HW140325   0.728   2.572  10.832  0.4696 -0.0520 -0.1521
 9564SOL    HW240326   0.756   2.526  10.698 -1.0954 -0.6473  1.3015
 9565SOL     OW40327   3.751   1.580  11.148 -0.4930 -0.2024  0.1541
 9565SOL    HW140328   3.795   1.631  11.080 -0.3078 -2.2849 -1.2729
 9565SOL    HW240329   3.663   1.619  11.150  0.4910  2.0026 -0.0827
 9566SOL     OW40330   4.195   0.204  17.729  0.2932 -0.0774 -0.1992
 9566SOL    HW140331   4.185   0.119  17.685  0.1355 -0.7204  1.0728
 9566SOL    HW240332   4.115   0.244  17.696  0.2893  0.3907  0.3766
 9567SOL     OW40333   3.153   2.455   9.195 -0.0116  0.0133 -0.5037
 9567SOL    HW140334   3.226   2.474   9.136  0.9458  1.9007  1.2901
 9567SOL    HW240335   3.176   2.521   9.261 -2.8993  1.0644 -0.5590
 9568SOL     OW40336   4.631   4.386  12.143  0.2345 -0.4179 -0.1282
 9568SOL    HW140337   4.675   4.332  12.077  1.2057 -0.6500  0.7057
 9568SOL    HW240338   4.711   4.430  12.172 -0.6825 -0.0119  1.7793
 9569SOL     OW40339   0.718   0.261   2.708  0.4792  0.3554  0.2771
 9569SOL    HW140340   0.784   0.329   2.693 -1.2408  1.0452 -4.1522
 9569SOL    HW240341   0.754   0.209   2.779 -1.2247  0.0357  0.8946
 9570SOL     OW40342   0.387   1.163  16.589 -0.2270 -0.1082 -0.3444
 9570SOL    HW140343   0.397   1.252  16.557  1.2163 -0.1815 -0.1301
 9570SOL    HW240344   0.461   1.160  16.650  1.4427 -0.2939 -2.3534
 9571SOL     OW40345   1.934   2.979   5.350 -0.4325 -0.1071  0.3370
 9571SOL    HW140346   1.874   2.921   5.396  0.6872  0.3241  2.3197
 9571SOL    HW240347   2.020   2.950   5.378 -1.6176 -1.4799  2.5580
   4.74074   4.74074  17.76039
